Title
19927
    1ASP      N    1   4.258   0.495   0.156  0.0966  0.5899  0.4446
    1ASP    HT1    2   4.162   0.514   0.190 -0.0365 -0.6374  0.8270
    1ASP    HT2    3   4.318   0.577   0.134  1.2593  0.4602  2.7643
    1ASP    HT3    4   4.308   0.442   0.230  1.6620  0.8812 -0.3570
    1ASP     CA    5   4.256   0.408   0.034  0.0381 -0.1831 -0.0447
    1ASP     HA    6   4.194   0.448  -0.045 -2.9825  1.1095  2.7641
    1ASP     CB    7   4.406   0.372  -0.008  0.3424 -0.6571 -0.1418
    1ASP    HB1    8   4.412   0.286  -0.078 -0.2441 -2.0339  1.4378
    1ASP    HB2    9   4.465   0.340   0.080 -0.2618 -2.2368 -0.2807
    1ASP     CG   10   4.465   0.505  -0.054 -0.2661  0.3124  0.2393
    1ASP    OD1   11   4.383   0.604  -0.079 -0.1718  0.1065  0.2962
    1ASP    OD2   12   4.591   0.505  -0.076  1.2072  0.1360  0.0521
    1ASP      C   13   4.185   0.272   0.056  0.4491 -0.0591 -0.2891
    1ASP      O   14   4.132   0.248   0.162 -0.1294  1.3246 -0.3113
    2ALA      N   15   4.190   0.189  -0.049  0.9003 -0.1033  0.1304
    2ALA     HN   16   4.232   0.219  -0.135 -1.2744  1.9347 -0.3175
    2ALA     CA   17   4.127   0.056  -0.041 -0.4880 -0.5083  0.4264
    2ALA     HA   18   4.023   0.070  -0.018 -1.0294 -1.7642 -1.0815
    2ALA     CB   19   4.129  -0.004  -0.185 -0.4579  0.4502  0.2044
    2ALA    HB1   20   4.230  -0.021  -0.228 -0.6979 -1.7470  0.4045
    2ALA    HB2   21   4.061   0.056  -0.250 -1.3052  0.6521  1.2537
    2ALA    HB3   22   4.085  -0.105  -0.171  0.0024  0.3362  0.8934
    2ALA      C   23   4.187  -0.046   0.055 -0.0860  0.7066  0.0439
    2ALA      O   24   4.312  -0.053   0.060 -0.1611  0.2663 -0.5247
    3ASP      N   25   4.105  -0.133   0.124  0.0081 -0.4266 -0.3272
    3ASP     HN   26   4.006  -0.123   0.135  0.0086 -1.5481  1.0354
    3ASP     CA   27   4.156  -0.241   0.195 -0.1205 -0.0866  0.1848
    3ASP     HA   28   4.216  -0.192   0.271 -0.0438 -0.0913  0.1279
    3ASP     CB   29   4.041  -0.315   0.261  0.7091 -0.7205 -0.5640
    3ASP    HB1   30   4.076  -0.411   0.304 -0.3618 -1.0285 -0.3484
    3ASP    HB2   31   3.953  -0.348   0.201  1.1779 -0.9550 -1.1381
    3ASP     CG   32   3.991  -0.241   0.382 -0.3323 -0.3166  0.8433
    3ASP    OD1   33   3.887  -0.281   0.437 -0.6742  0.2770  0.1849
    3ASP    OD2   34   4.053  -0.145   0.437  0.5473  0.4034  0.2647
    3ASP      C   35   4.240  -0.349   0.120 -0.3665 -1.0548 -0.3545
    3ASP      O   36   4.237  -0.357  -0.004 -0.0377 -0.5503  0.7488
    4GLY      N   37   4.326  -0.418   0.192 -0.4124  0.3895  0.5115
    4GLY     HN   38   4.323  -0.410   0.291 -1.4378  0.5170  0.4763
    4GLY     CA   39   4.409  -0.527   0.137 -0.3207 -0.1069 -0.4134
    4GLY    HA1   40   4.476  -0.563   0.213 -0.9170  0.8470  0.5953
    4GLY    HA2   41   4.458  -0.476   0.056 -2.3393 -0.3495 -1.8729
    4GLY      C   42   4.327  -0.638   0.067  0.5620  0.1514 -0.4767
    4GLY      O   43   4.200  -0.647   0.083 -0.7394 -0.2601  0.0756
    5PRO      N   44   4.386  -0.728  -0.008 -0.1109 -0.3370 -0.3649
    5PRO     CD   45   4.516  -0.699  -0.073 -0.1540 -0.1582  0.5604
    5PRO    HD1   46   4.603  -0.686  -0.005  2.2524  0.9862 -2.4830
    5PRO    HD2   47   4.490  -0.604  -0.126 -0.7612 -0.0678  1.0153
    5PRO     CA   48   4.318  -0.848  -0.051 -0.0272  0.3775 -0.4388
    5PRO     HA   49   4.213  -0.837  -0.076 -0.2290 -1.1619 -0.3970
    5PRO     CB   50   4.388  -0.877  -0.185 -0.6891 -0.2595 -0.1889
    5PRO    HB1   51   4.335  -0.825  -0.267  1.4239  0.4634 -1.1575
    5PRO    HB2   52   4.387  -0.987  -0.200 -0.9958 -0.5402  1.5798
    5PRO     CG   53   4.531  -0.818  -0.173 -0.0971  0.0894 -0.7338
    5PRO    HG1   54   4.596  -0.894  -0.124  0.9229  0.6448 -1.2000
    5PRO    HG2   55   4.576  -0.791  -0.271  0.9153 -1.5536 -0.7591
    5PRO      C   56   4.343  -0.952   0.053 -0.0970  0.2099 -1.2967
    5PRO      O   57   4.430  -1.037   0.049 -0.3961 -0.6514 -0.0611
    6GLY      N   58   4.261  -0.949   0.157 -0.0812 -0.3596  0.2755
    6GLY     HN   59   4.196  -0.874   0.165 -1.0668 -0.9503 -1.6049
    6GLY     CA   60   4.270  -1.047   0.267 -0.3401  0.0737 -0.2351
    6GLY    HA1   61   4.221  -1.004   0.353 -2.0676  0.6833 -1.4560
    6GLY    HA2   62   4.371  -1.075   0.292  0.3857  4.1210  2.1507
    6GLY      C   63   4.190  -1.174   0.224 -0.2669 -1.0699 -0.2584
    6GLY      O   64   4.123  -1.168   0.123  0.1712  0.3192  0.5744
    7ASP      N   65   4.180  -1.276   0.309  0.0653  0.4804  0.1289
    7ASP     HN   66   4.226  -1.278   0.398  0.8700  0.4753 -0.2776
    7ASP     CA   67   4.091  -1.387   0.298  0.9676  0.1983  0.1380
    7ASP     HA   68   4.134  -1.449   0.220 -0.6228 -0.3824 -0.3303
    7ASP     CB   69   4.092  -1.465   0.430 -0.6024  0.1362  0.1044
    7ASP    HB1   70   4.011  -1.541   0.439 -0.3992  0.0093  0.9843
    7ASP    HB2   71   4.075  -1.402   0.520 -1.7020 -0.0399  0.0377
    7ASP     CG   72   4.223  -1.539   0.452  0.1772  0.3341 -0.2215
    7ASP    OD1   73   4.271  -1.596   0.352  0.2775  0.6289  0.2546
    7ASP    OD2   74   4.275  -1.553   0.567  0.2175 -0.3929 -0.1175
    7ASP      C   75   3.941  -1.357   0.266 -0.3218 -0.3000  0.1043
    7ASP      O   76   3.896  -1.251   0.308  0.3844  0.8536 -0.1157
    8PRO      N   77   3.875  -1.446   0.197 -0.2873  0.2947 -0.0369
    8PRO     CD   78   3.941  -1.556   0.125  0.0621  0.0511  0.3083
    8PRO    HD1   79   4.013  -1.619   0.181  2.7309  1.8825 -0.8771
    8PRO    HD2   80   4.002  -1.506   0.047  1.2742 -1.8197  0.0092
    8PRO     CA   81   3.740  -1.413   0.145  0.1547 -0.1926  0.2786
    8PRO     HA   82   3.761  -1.318   0.100 -0.2248 -0.1602  0.1713
    8PRO     CB   83   3.705  -1.529   0.046  0.2942 -0.1233  0.5742
    8PRO    HB1   84   3.705  -1.482  -0.054  0.6990  0.1622  0.7070
    8PRO    HB2   85   3.611  -1.584   0.070  0.0869  0.4627  1.1216
    8PRO     CG   86   3.823  -1.629   0.053  0.3130  0.6629  0.0029
    8PRO    HG1   87   3.800  -1.724   0.105 -1.6957  0.7443 -0.6641
    8PRO    HG2   88   3.857  -1.657  -0.049 -1.7934  0.7764 -0.7773
    8PRO      C   89   3.637  -1.385   0.255 -0.7926  0.4731  0.8888
    8PRO      O   90   3.625  -1.456   0.353  0.2661  0.1235  0.2224
    9ASP      N   91   3.562  -1.274   0.244  0.3282 -0.1783 -0.4365
    9ASP     HN   92   3.579  -1.217   0.164  0.9011  0.4261  0.0996
    9ASP     CA   93   3.460  -1.228   0.340 -0.1019 -0.1553 -0.0894
    9ASP     HA   94   3.519  -1.219   0.430  0.9652  0.0290 -0.7846
    9ASP     CB   95   3.410  -1.089   0.301 -0.2728  0.5131  0.3201
    9ASP    HB1   96   3.357  -1.108   0.205  1.1320  0.2082 -0.4240
    9ASP    HB2   97   3.500  -1.027   0.279 -0.4082 -0.1371 -2.4063
    9ASP     CG   98   3.327  -1.016   0.400  0.1404  0.1508 -0.5176
    9ASP    OD1   99   3.322  -1.060   0.516  0.0682  0.1214  0.0720
    9ASP    OD2  100   3.251  -0.925   0.359 -0.3370  0.3162 -0.5150
    9ASP      C  101   3.345  -1.324   0.352 -0.8001  0.2429 -0.2021
    9ASP      O  102   3.279  -1.341   0.252 -0.0200  0.1872  0.1924
   10ALA      N  103   3.319  -1.377   0.473  0.3742  0.5485 -0.3844
   10ALA     HN  104   3.370  -1.342   0.551 -0.4559  1.0269 -0.0412
   10ALA     CA  105   3.212  -1.486   0.494 -0.0112 -0.6048  0.2268
   10ALA     HA  106   3.224  -1.575   0.434  1.6832 -1.3078  1.5255
   10ALA     CB  107   3.231  -1.524   0.642 -0.2513 -0.7625  0.3494
   10ALA    HB1  108   3.160  -1.601   0.677 -1.0007 -1.5292 -2.5470
   10ALA    HB2  109   3.218  -1.438   0.711  2.1678 -1.5125  1.8589
   10ALA    HB3  110   3.339  -1.546   0.657 -0.1297  0.0752  0.7873
   10ALA      C  111   3.075  -1.419   0.475  0.6936  0.2352  1.0297
   10ALA      O  112   3.052  -1.312   0.535  0.3997 -0.0201  0.4962
   11GLY      N  113   2.987  -1.468   0.383 -0.2619 -0.0213  0.2116
   11GLY     HN  114   3.007  -1.552   0.333  1.4842  0.3542  0.2242
   11GLY     CA  115   2.851  -1.423   0.362  0.1901  0.1217  0.0013
   11GLY    HA1  116   2.834  -1.423   0.255 -1.1703  1.7638  0.1736
   11GLY    HA2  117   2.844  -1.328   0.412  4.0554  0.7119 -0.2645
   11GLY      C  118   2.752  -1.519   0.425 -0.2686  0.1090  0.1447
   11GLY    OT1  119   2.664  -1.570   0.352  0.3653  0.2537 -0.3376
   11GLY    OT2  120   2.764  -1.547   0.547 -0.4248 -0.0987 -0.1332
   12SOD    SOD  121   4.508   1.642   3.372  0.0507 -0.3692  0.2089
   13SOD    SOD  122   3.361   4.194   3.591 -0.4883  0.0804  0.6517
   14SOD    SOD  123   5.558   0.510   2.299 -0.5080 -0.0900 -0.0323
   15SOD    SOD  124   1.076   1.144   2.519  0.1628  0.1941  0.1318
   16SOD    SOD  125   4.368   5.630   3.984 -0.1955 -0.2541  0.0926
   17SOD    SOD  126   2.348   5.106   4.410  0.5617 -0.3280  0.5931
   18SOD    SOD  127   1.915   3.613   3.424  0.0277 -0.0947 -0.4605
   19SOD    SOD  128   2.029   2.509   0.638 -0.3490 -0.3049 -0.0240
   20SOD    SOD  129   0.079   1.884   0.807 -0.5137  0.4022 -0.0238
   21SOD    SOD  130   6.219   5.331   2.704  0.2086  0.1460 -0.2457
   22SOD    SOD  131   1.614   4.561   0.751  0.2447 -0.1014  0.3042
   23SOD    SOD  132   2.424   1.480   2.511 -0.1387 -0.1380 -0.0461
   24SOD    SOD  133   2.975   0.744   1.631 -0.5226 -0.3911 -0.2654
   25SOD    SOD  134   0.072   4.917   1.778 -0.3326 -0.1912 -0.5202
   26SOD    SOD  135   2.225   4.140   2.851  0.3603  0.2272  0.1363
   27SOD    SOD  136   4.425   2.559   1.719  0.4157 -0.1423 -0.2333
   28SOD    SOD  137   5.471   1.424   5.054 -0.3272  0.2157 -0.0231
   29SOD    SOD  138   4.784   2.974   4.607 -0.3929 -0.2101  0.0194
   30SOD    SOD  139   5.305   0.863   4.944 -0.0843 -0.0152 -0.6736
   31SOD    SOD  140   0.794   5.768   1.587  0.2791 -0.3781 -0.5840
   32SOD    SOD  141   5.652   4.779   0.114  0.0998  0.2473 -0.0189
   33SOD    SOD  142   1.977   3.737   4.567 -0.0672 -0.4693 -0.0794
   34CLA    CLA  143   0.017   2.176   2.284  0.0825 -0.3482 -0.3747
   35CLA    CLA  144   1.886   2.714   2.341 -0.2746  0.1604  0.3000
   36CLA    CLA  145   6.033   4.018   2.239 -0.4287 -0.5022  0.0655
   37CLA    CLA  146   3.830   4.185   2.386  0.0575 -0.2695  0.3522
   38CLA    CLA  147   5.019   2.301   1.878  0.1234  0.3027 -0.0294
   39CLA    CLA  148   0.287   5.566   2.953 -0.3571 -0.0037 -0.0346
   40CLA    CLA  149   1.663   2.149   0.908 -0.3732 -0.1633 -0.1913
   41CLA    CLA  150   3.597   2.898   0.578 -0.0947  0.2183 -0.1716
   42CLA    CLA  151   0.253   2.510   3.596  0.4915 -0.6222  0.2266
   43CLA    CLA  152   0.865   1.058   2.877 -0.4607 -0.1785  0.2653
   44CLA    CLA  153   5.154   0.995   2.329  0.1352 -0.0697  0.5130
   45CLA    CLA  154   5.384   2.214   3.448 -0.1504  0.0816 -0.0890
   46CLA    CLA  155   2.348   5.568   4.947 -0.2261 -0.1199 -0.0812
   47CLA    CLA  156   4.107   4.853   3.860  0.1334 -0.2211  0.1081
   48CLA    CLA  157   2.999   5.076   4.300  0.1288 -0.1083  0.1099
   49CLA    CLA  158   4.737   5.661   1.544 -0.2138 -0.3001  0.1010
   50CLA    CLA  159   2.528   3.503   0.389 -0.3764  0.1520  0.1419
   51CLA    CLA  160   1.563   4.779   4.389  0.0591  0.3577  0.0615
   52TIP3   OH2  161   4.302   4.791   4.119 -0.2528 -0.1148 -0.4900
   52TIP3    H1  162   4.237   4.749   4.175 -0.7197  0.1594 -0.8185
   52TIP3    H2  163   4.254   4.816   4.041  0.4926 -0.9104 -1.2206
   53TIP3   OH2  164   3.543   0.496   4.426 -0.9342  0.1557 -0.1420
   53TIP3    H1  165   3.471   0.559   4.417 -1.2612 -0.2658 -0.5658
   53TIP3    H2  166   3.501   0.417   4.460 -0.2191  0.7425  2.2594
   54TIP3   OH2  167   1.305   3.947   4.617  0.2257  0.2448 -0.0435
   54TIP3    H1  168   1.342   4.023   4.661 -0.5034  1.6165 -1.6553
   54TIP3    H2  169   1.375   3.914   4.561  0.3364  0.1596  0.1470
   55TIP3   OH2  170   0.556   2.421   1.793 -0.2483 -0.1470  0.5436
   55TIP3    H1  171   0.651   2.420   1.806 -0.1716 -1.2098 -0.0405
   55TIP3    H2  172   0.540   2.502   1.743  0.3746 -0.0958  0.4229
   56TIP3   OH2  173   6.198   5.187   0.473 -0.2849  0.4560 -0.7941
   56TIP3    H1  174   6.283   5.159   0.506 -0.1231  2.2834  0.4826
   56TIP3    H2  175   6.135   5.130   0.517 -0.0013  2.2152  2.1127
   57TIP3   OH2  176   0.701   2.632   0.507  0.6966  0.2940  0.2126
   57TIP3    H1  177   0.718   2.566   0.439  1.4342  0.9061 -0.2198
   57TIP3    H2  178   0.643   2.695   0.465  1.2485  0.7361  0.1003
   58TIP3   OH2  179   6.235   3.313   0.855  0.0906  0.6748  0.0804
   58TIP3    H1  180   6.255   3.366   0.778 -0.1374  0.8133  0.1146
   58TIP3    H2  181   6.234   3.377   0.927 -0.7711  0.7225  0.0350
   59TIP3   OH2  182   5.015   2.661   4.533 -0.0076  0.2768 -0.4174
   59TIP3    H1  183   5.068   2.740   4.519 -1.4670  0.9337 -2.7284
   59TIP3    H2  184   4.941   2.692   4.586  0.6480 -0.1158  0.7595
   60TIP3   OH2  185   3.250   0.787   2.034 -0.0675 -0.0983  0.0613
   60TIP3    H1  186   3.263   0.693   2.042  2.7216  0.1788 -0.4450
   60TIP3    H2  187   3.282   0.823   2.117  3.1121  0.6522 -1.3456
   61TIP3   OH2  188   4.722   3.553   2.394  0.0257  0.2676 -0.0512
   61TIP3    H1  189   4.750   3.599   2.473  0.7127 -1.2788  0.6312
   61TIP3    H2  190   4.792   3.569   2.330  0.3448  0.0300  0.2375
   62TIP3   OH2  191   0.543   4.874   4.749 -0.6307 -0.7308 -0.2181
   62TIP3    H1  192   0.608   4.825   4.699 -0.0757 -0.4074  0.1731
   62TIP3    H2  193   0.553   4.841   4.839 -1.6824 -1.3808 -0.3228
   63TIP3   OH2  194   2.777   3.339   1.596  0.4552  0.2881 -0.7246
   63TIP3    H1  195   2.726   3.272   1.642  0.8698  0.2797 -0.2673
   63TIP3    H2  196   2.759   3.325   1.503  0.5286 -0.4496 -0.6290
   64TIP3   OH2  197   3.685   2.628   2.216 -0.4117  0.8333  0.6892
   64TIP3    H1  198   3.695   2.582   2.299 -0.2630  0.1499  0.3050
   64TIP3    H2  199   3.645   2.712   2.239  0.7193  1.1638  1.5871
   65TIP3   OH2  200   6.053   5.173   1.095  0.3107  0.0481  0.0636
   65TIP3    H1  201   6.012   5.127   1.168 -1.7633  0.0594 -1.0263
   65TIP3    H2  202   6.146   5.150   1.102 -0.0824 -1.2912  1.7062
   66TIP3   OH2  203   0.061   1.044   2.437 -0.2475 -0.4099  0.1746
   66TIP3    H1  204   0.137   1.103   2.442  0.8107 -1.8270  2.3572
   66TIP3    H2  205   0.095   0.963   2.400 -0.7694 -0.9352  0.8151
   67TIP3   OH2  206   3.316   0.977   0.709  0.4441 -0.5866  0.1738
   67TIP3    H1  207   3.393   1.033   0.720 -0.4203  1.5205 -3.0618
   67TIP3    H2  208   3.244   1.038   0.694 -1.1970 -2.5405 -0.3326
   68TIP3   OH2  209   3.111   0.677   4.046 -0.1670  0.3884 -0.3350
   68TIP3    H1  210   3.088   0.612   3.980  0.5109 -0.4063  0.1948
   68TIP3    H2  211   3.058   0.654   4.123 -1.0881  1.4171 -0.6424
   69TIP3   OH2  212   4.213   3.075   0.270 -0.5956 -0.0750  0.3107
   69TIP3    H1  213   4.195   3.039   0.357 -0.7606  0.7344  0.6180
   69TIP3    H2  214   4.308   3.069   0.261 -0.6493 -0.9274  0.1977
   70TIP3   OH2  215   3.502   3.056   1.784 -0.1127  0.5005  0.6482
   70TIP3    H1  216   3.418   3.017   1.807  0.4793 -0.5237  1.1293
   70TIP3    H2  217   3.482   3.116   1.713 -1.1190 -0.3786  0.1670
   71TIP3   OH2  218   6.259   2.849   3.156 -0.2830  0.5926 -0.0304
   71TIP3    H1  219   6.179   2.799   3.173 -0.2312 -0.1519 -1.7284
   71TIP3    H2  220   6.240   2.937   3.187 -1.5612  0.2880  0.0953
   72TIP3   OH2  221   0.271   2.618   1.795  0.0779  0.2679  0.1397
   72TIP3    H1  222   0.267   2.551   1.863  0.1620  0.4407  0.3162
   72TIP3    H2  223   0.339   2.679   1.825  0.3550  0.1616 -0.2681
   73TIP3   OH2  224   1.257   1.846   2.395 -0.2088  0.0159  0.5084
   73TIP3    H1  225   1.326   1.902   2.358 -1.5865  1.5257  0.1176
   73TIP3    H2  226   1.274   1.847   2.489  0.1996  0.5469  0.4359
   74TIP3   OH2  227   4.148   1.165   3.252 -0.3110  0.1512  0.1920
   74TIP3    H1  228   4.100   1.213   3.184 -0.2101 -0.3001 -0.2034
   74TIP3    H2  229   4.089   1.163   3.327 -0.4677  0.5610  0.0820
   75TIP3   OH2  230   0.335   1.187   4.239  0.7992 -0.3047  0.2272
   75TIP3    H1  231   0.297   1.103   4.216 -0.7999  0.1209  1.1598
   75TIP3    H2  232   0.261   1.248   4.241  1.7219  0.8635  0.8010
   76TIP3   OH2  233   3.258   3.689   2.030  0.1195 -0.0591  0.4416
   76TIP3    H1  234   3.344   3.730   2.032  0.2116 -0.2740  1.5174
   76TIP3    H2  235   3.198   3.761   2.007  0.5252  0.2011  0.1911
   77TIP3   OH2  236   2.934   3.378   1.311  0.5003 -0.0690  0.2182
   77TIP3    H1  237   2.943   3.354   1.404  0.7523  0.6756  0.4014
   77TIP3    H2  238   2.935   3.474   1.312 -1.7392  0.0143 -0.3431
   78TIP3   OH2  239   2.333   0.846   0.344 -0.2486  0.0433  0.0191
   78TIP3    H1  240   2.390   0.920   0.329  0.4762 -0.4318  0.3684
   78TIP3    H2  241   2.253   0.866   0.295  0.1922  0.7357 -0.4221
   79TIP3   OH2  242   3.791   2.508   1.202 -0.1249 -0.1973  0.2479
   79TIP3    H1  243   3.837   2.439   1.154  0.2262 -0.4237  0.8930
   79TIP3    H2  244   3.708   2.518   1.156  1.5397  2.0422 -2.5582
   80TIP3   OH2  245   2.985   2.957   4.831  0.4084 -0.5101 -0.2453
   80TIP3    H1  246   3.038   2.988   4.757 -0.0426 -1.7827 -1.1400
   80TIP3    H2  247   2.936   3.034   4.859  2.9206  0.8186  0.8563
   81TIP3   OH2  248   5.734   0.247   4.583 -0.0661  0.0872 -0.6532
   81TIP3    H1  249   5.724   0.153   4.593  1.9870 -0.0341  0.9348
   81TIP3    H2  250   5.715   0.283   4.670  2.0477  0.7998 -0.4358
   82TIP3   OH2  251   0.555   5.035   0.100 -0.0567  0.1642 -0.1346
   82TIP3    H1  252   0.648   5.040   0.123  0.0385  0.1183 -0.4965
   82TIP3    H2  253   0.554   4.986   0.018 -0.3572  0.6412 -0.4184
   83TIP3   OH2  254   3.383   2.377   0.336  0.1379  0.4671 -0.3304
   83TIP3    H1  255   3.290   2.383   0.318  0.1880  1.5282 -0.3170
   83TIP3    H2  256   3.411   2.468   0.351  0.9445  0.0681  0.7781
   84TIP3   OH2  257   6.147   4.567   1.793 -0.1024 -0.3063  0.2077
   84TIP3    H1  258   6.065   4.568   1.743 -0.7066 -0.0773  1.1631
   84TIP3    H2  259   6.129   4.623   1.869  0.3117 -1.6958  1.3826
   85TIP3   OH2  260   1.438   1.182   3.241  0.0594 -0.2611 -0.4397
   85TIP3    H1  261   1.373   1.150   3.304 -1.0332  1.1898 -0.7836
   85TIP3    H2  262   1.522   1.170   3.285 -0.5380 -0.9037  0.5709
   86TIP3   OH2  263   0.908   2.823   0.572 -0.4898  0.0702 -0.6409
   86TIP3    H1  264   0.851   2.746   0.569 -1.4529  0.7611 -0.1982
   86TIP3    H2  265   0.962   2.815   0.493 -0.0226 -1.4670 -0.2032
   87TIP3   OH2  266   1.734   4.681   3.173  0.0374 -0.0132  0.0688
   87TIP3    H1  267   1.647   4.642   3.169 -0.2144  0.3857  1.2673
   87TIP3    H2  268   1.768   4.675   3.083 -0.7395 -1.2540 -0.1549
   88TIP3   OH2  269   2.935   4.034   3.075  0.1132  0.0325  0.0973
   88TIP3    H1  270   2.959   3.994   3.159 -2.3835 -2.1859 -0.0943
   88TIP3    H2  271   2.956   3.966   3.010 -0.9213  0.4369 -0.6779
   89TIP3   OH2  272   4.488   2.964   1.996  0.2128  0.4889  0.3468
   89TIP3    H1  273   4.569   2.915   1.984 -1.1164 -2.2810  1.6461
   89TIP3    H2  274   4.423   2.917   1.944 -0.9092  1.6940  0.5924
   90TIP3   OH2  275   1.296   2.074   2.927  0.4971  0.3701  0.2778
   90TIP3    H1  276   1.261   2.139   2.867 -2.1674 -1.9640 -0.9420
   90TIP3    H2  277   1.281   1.990   2.883  2.4374 -1.1995  2.3624
   91TIP3   OH2  278   0.976   0.250   0.433 -0.7140  0.3072  0.5518
   91TIP3    H1  279   1.070   0.254   0.416 -0.9987 -0.8803 -1.7565
   91TIP3    H2  280   0.956   0.332   0.476  1.1908  1.0980  0.0536
   92TIP3   OH2  281   5.621   0.499   1.010 -0.1938  0.6497  0.0084
   92TIP3    H1  282   5.682   0.507   0.937  1.3468  1.4671  1.3246
   92TIP3    H2  283   5.601   0.590   1.036 -0.0894  0.3851  1.0908
   93TIP3   OH2  284   0.477   4.281   4.089 -0.0756  0.5111  0.9659
   93TIP3    H1  285   0.557   4.333   4.082 -1.7183  3.0829 -0.0295
   93TIP3    H2  286   0.418   4.333   4.144 -0.3125 -2.5100  3.9544
   94TIP3   OH2  287   2.283   0.449   1.803  0.5945  0.5170 -0.0833
   94TIP3    H1  288   2.352   0.417   1.744  0.3180  0.9835 -0.6751
   94TIP3    H2  289   2.248   0.526   1.758 -2.0772 -1.1407 -1.1218
   95TIP3   OH2  290   5.996   0.878   3.285 -0.1554  0.0945 -0.1315
   95TIP3    H1  291   6.060   0.889   3.215 -0.8102  1.5713 -0.5276
   95TIP3    H2  292   6.042   0.905   3.364 -0.0892  0.5513 -0.3232
   96TIP3   OH2  293   1.819   4.447   1.753  0.1156  0.5614 -0.3118
   96TIP3    H1  294   1.755   4.426   1.820 -1.1207  1.0744 -1.3048
   96TIP3    H2  295   1.831   4.365   1.705  0.6318  0.3242  0.2061
   97TIP3   OH2  296   5.781   4.319   2.617 -0.5439 -0.0775 -0.1399
   97TIP3    H1  297   5.817   4.240   2.577 -0.8690 -0.4993  0.3919
   97TIP3    H2  298   5.816   4.391   2.564  2.4077 -0.3288  1.2559
   98TIP3   OH2  299   2.152   5.903   2.067 -0.3028  0.2739 -0.3096
   98TIP3    H1  300   2.189   5.817   2.088 -0.3623  0.1139 -0.8263
   98TIP3    H2  301   2.192   5.963   2.130  1.3100  0.2116 -1.2075
   99TIP3   OH2  302   4.941   2.910   2.218  0.1507 -0.2935 -0.0342
   99TIP3    H1  303   4.897   2.964   2.285 -0.1869 -0.2968 -0.2497
   99TIP3    H2  304   5.033   2.910   2.244  0.1862  0.5383 -0.1321
  100TIP3   OH2  305   4.611   2.055   0.253 -0.1182 -0.4080  0.3498
  100TIP3    H1  306   4.535   2.101   0.288 -0.4080 -1.3641  1.0047
  100TIP3    H2  307   4.577   1.971   0.221  0.5365 -0.5278 -0.0579
  101TIP3   OH2  308   0.686   1.563   5.009 -0.0571 -0.2817  0.1605
  101TIP3    H1  309   0.685   1.588   5.101  0.4751 -1.6018  0.5430
  101TIP3    H2  310   0.776   1.575   4.981  0.0532 -1.0894  0.1611
  102TIP3   OH2  311   1.349   1.713   2.010  0.4375  0.6213 -0.5482
  102TIP3    H1  312   1.281   1.663   1.966 -0.7111  0.9919  0.7281
  102TIP3    H2  313   1.336   1.803   1.979 -1.2129  1.1293  1.4089
  103TIP3   OH2  314   3.748   0.520   2.982 -0.3082  0.7495 -0.2017
  103TIP3    H1  315   3.827   0.549   2.936  0.0207 -0.3650 -0.3654
  103TIP3    H2  316   3.678   0.573   2.943  0.0967  0.4994 -1.3285
  104TIP3   OH2  317   5.562   1.793   4.695 -0.1267 -0.2391  0.3570
  104TIP3    H1  318   5.635   1.771   4.751 -0.5277  0.1409  1.0391
  104TIP3    H2  319   5.572   1.737   4.618  0.7261 -0.3685  0.5637
  105TIP3   OH2  320   4.601   1.126   0.347  0.2887  0.5366 -0.5703
  105TIP3    H1  321   4.559   1.071   0.281  0.1594 -0.0385 -0.0176
  105TIP3    H2  322   4.674   1.073   0.379 -1.8962 -0.9184  2.5395
  106TIP3   OH2  323   0.577   0.716   0.250 -0.0647 -0.5729 -0.9347
  106TIP3    H1  324   0.558   0.805   0.221 -0.8541  0.2659  1.8406
  106TIP3    H2  325   0.667   0.700   0.223 -0.4428  0.3781 -2.9491
  107TIP3   OH2  326   2.575   5.926   3.179  0.0989 -0.6147 -0.1825
  107TIP3    H1  327   2.505   5.915   3.244 -0.2356  0.0422 -0.4284
  107TIP3    H2  328   2.654   5.895   3.224 -0.3518 -1.4507  0.0688
  108TIP3   OH2  329   1.722   4.167   1.396  0.2304 -0.4025  0.7196
  108TIP3    H1  330   1.717   4.245   1.340 -2.1837 -0.2171  1.0642
  108TIP3    H2  331   1.648   4.113   1.367  0.3414 -1.3770  2.1703
  109TIP3   OH2  332   2.028   1.131   5.109  0.1918  0.0638 -0.4660
  109TIP3    H1  333   1.984   1.090   5.183 -0.9220  0.7276 -0.7196
  109TIP3    H2  334   1.960   1.187   5.070  0.6481 -0.5086 -2.1664
  110TIP3   OH2  335   1.355   3.152   3.500 -0.4024 -0.0095 -0.0484
  110TIP3    H1  336   1.356   3.149   3.596 -1.3596 -0.9150 -0.0475
  110TIP3    H2  337   1.332   3.062   3.474 -0.4517  0.3046 -1.1167
  111TIP3   OH2  338   3.130   5.028   3.731  0.1761  0.2527 -0.1426
  111TIP3    H1  339   3.110   4.985   3.814  1.3226  2.1015  1.1921
  111TIP3    H2  340   3.092   5.116   3.740  0.1058  0.4034 -1.6789
  112TIP3   OH2  341   0.156   3.089   1.844  0.2279 -0.3203  0.4746
  112TIP3    H1  342   0.074   3.040   1.832 -1.0855  1.2758  2.3178
  112TIP3    H2  343   0.130   3.181   1.835  1.4795  0.2981  2.5429
  113TIP3   OH2  344   0.515   5.773   4.759 -0.8832 -0.1666  0.3008
  113TIP3    H1  345   0.495   5.813   4.844  1.2266  1.2475  0.2217
  113TIP3    H2  346   0.600   5.730   4.772  0.4821  1.7338 -1.4897
  114TIP3   OH2  347   3.596   2.918   5.190 -0.2114  0.2325 -0.6946
  114TIP3    H1  348   3.664   2.862   5.151  0.0091 -1.1323  1.4369
  114TIP3    H2  349   3.518   2.900   5.139  0.2202 -0.9318 -0.9855
  115TIP3   OH2  350   2.684   5.908   4.357 -0.1870  0.2489  0.2662
  115TIP3    H1  351   2.671   5.893   4.451 -0.3060  0.1400  0.2328
  115TIP3    H2  352   2.771   5.871   4.340 -1.0344 -1.7259 -0.0891
  116TIP3   OH2  353   0.774   4.013   4.132 -0.6798 -0.4268 -0.6861
  116TIP3    H1  354   0.837   3.975   4.071  0.5528  0.4706 -0.0222
  116TIP3    H2  355   0.760   4.102   4.099 -1.2429 -0.4673 -0.5578
  117TIP3   OH2  356   2.492   3.733   4.358 -0.0601  0.0393 -0.4467
  117TIP3    H1  357   2.467   3.710   4.448 -1.2239  1.2285 -0.4471
  117TIP3    H2  358   2.468   3.656   4.307 -4.0985  1.1027 -0.4747
  118TIP3   OH2  359   4.888   5.247   4.633  0.0017  0.1559 -0.0177
  118TIP3    H1  360   4.867   5.260   4.726  0.6273 -0.5346  0.2304
  118TIP3    H2  361   4.815   5.195   4.600  0.9679 -1.7758  0.7146
  119TIP3   OH2  362   3.070   5.453   0.174 -0.2012  0.3594 -0.2825
  119TIP3    H1  363   3.026   5.510   0.110 -0.3930 -0.4134 -0.8628
  119TIP3    H2  364   3.029   5.474   0.257  0.8212  2.1923 -0.1889
  120TIP3   OH2  365   5.566   2.257   0.528  0.1787  0.6254 -0.3328
  120TIP3    H1  366   5.574   2.352   0.528 -1.5226  0.8212  0.7692
  120TIP3    H2  367   5.602   2.229   0.444  2.5756  2.0191  0.1348
  121TIP3   OH2  368   3.503   2.078   1.038  0.2742 -0.0709  0.6268
  121TIP3    H1  369   3.487   2.157   1.090 -1.1255  0.4153 -0.4644
  121TIP3    H2  370   3.547   2.110   0.959 -0.6986 -0.2991 -0.0239
  122TIP3   OH2  371   2.822   4.045   5.056  0.5406 -0.3268 -0.2081
  122TIP3    H1  372   2.860   3.957   5.063  1.5508  0.1652  1.0763
  122TIP3    H2  373   2.856   4.079   4.974 -0.8051 -1.5368 -1.3096
  123TIP3   OH2  374   5.428   4.378   0.750 -0.7315 -0.1707  0.2406
  123TIP3    H1  375   5.442   4.283   0.745 -1.1107 -0.1689 -1.9157
  123TIP3    H2  376   5.515   4.416   0.742 -0.7185 -0.3324 -0.4477
  124TIP3   OH2  377   2.403   1.924   5.154 -0.2674 -1.0532 -0.3621
  124TIP3    H1  378   2.449   1.984   5.095  1.4067  1.3954  3.0963
  124TIP3    H2  379   2.470   1.861   5.181 -0.4603 -0.9192  0.4380
  125TIP3   OH2  380   2.974   1.060   2.420  0.1701 -0.4517 -0.0491
  125TIP3    H1  381   3.058   1.105   2.413  0.6925 -1.6384 -2.9578
  125TIP3    H2  382   2.912   1.128   2.446  1.6096  0.9868 -0.2193
  126TIP3   OH2  383   3.401   0.309   1.948 -0.1356  0.2279  0.3236
  126TIP3    H1  384   3.431   0.380   1.892  0.3405  2.0494  2.7517
  126TIP3    H2  385   3.341   0.259   1.893  0.1123  2.0304 -1.7112
  127TIP3   OH2  386   1.261   5.600   1.605  0.3298  0.0082 -0.4577
  127TIP3    H1  387   1.289   5.636   1.689  0.9499 -1.1370 -0.1379
  127TIP3    H2  388   1.303   5.513   1.602 -1.3525 -0.8202 -1.0260
  128TIP3   OH2  389   2.947   0.762   4.753  0.1744 -0.2828 -0.4275
  128TIP3    H1  390   3.028   0.797   4.790  0.2444 -0.1509 -0.7032
  128TIP3    H2  391   2.917   0.829   4.692  1.4978 -1.6092 -2.6839
  129TIP3   OH2  392   0.269   4.952   4.896  0.1242 -0.1013 -0.0572
  129TIP3    H1  393   0.286   4.886   4.830  1.8573  0.3317 -0.0831
  129TIP3    H2  394   0.342   4.945   4.958  0.4587  1.8645 -0.1480
  130TIP3   OH2  395   2.470   3.494   1.142  0.0291 -0.0942  0.5129
  130TIP3    H1  396   2.484   3.569   1.199 -0.4412  0.4388 -0.0609
  130TIP3    H2  397   2.543   3.435   1.162 -0.3894 -0.1577  2.0194
  131TIP3   OH2  398   2.773   4.181   4.294  0.4957 -0.2110 -0.5307
  131TIP3    H1  399   2.769   4.238   4.217 -1.0066  0.7755  0.2232
  131TIP3    H2  400   2.698   4.123   4.285 -0.2066  0.4950  0.6082
  132TIP3   OH2  401   2.446   3.404   1.529  0.1012 -0.3208  0.0290
  132TIP3    H1  402   2.385   3.402   1.603 -1.4259 -0.0659 -1.1805
  132TIP3    H2  403   2.444   3.315   1.494  0.2583 -0.2536 -0.1521
  133TIP3   OH2  404   4.866   1.128   4.943  0.1708  0.2139  0.1351
  133TIP3    H1  405   4.940   1.157   4.890 -0.6014  0.2045 -0.9852
  133TIP3    H2  406   4.847   1.040   4.912  0.0418  0.0037  0.8044
  134TIP3   OH2  407   2.551   4.947   2.192  0.8151 -0.2602  0.3371
  134TIP3    H1  408   2.544   4.905   2.107  1.2711  1.0307 -0.3575
  134TIP3    H2  409   2.644   4.943   2.214  0.8503  0.3073  0.3027
  135TIP3   OH2  410   1.513   2.492   1.482 -0.4592  0.0328 -0.0644
  135TIP3    H1  411   1.534   2.504   1.575 -1.1343  0.5032  0.0374
  135TIP3    H2  412   1.595   2.463   1.443 -0.2173 -0.3795  0.7169
  136TIP3   OH2  413   1.144   5.466   1.093  0.1939  0.1703 -0.0692
  136TIP3    H1  414   1.072   5.430   1.041  0.6594  0.0044 -0.6037
  136TIP3    H2  415   1.103   5.489   1.176 -0.8275  1.5608 -0.9093
  137TIP3   OH2  416   1.892   2.856   0.893  0.1496  0.7242  0.1052
  137TIP3    H1  417   1.982   2.880   0.914  0.3383 -0.2599  0.4500
  137TIP3    H2  418   1.839   2.915   0.946  0.5735  1.4950 -0.2997
  138TIP3   OH2  419   5.436   4.480   0.274 -0.2305  0.3440 -0.0479
  138TIP3    H1  420   5.496   4.502   0.203 -0.5042 -0.5821 -0.5673
  138TIP3    H2  421   5.484   4.416   0.327 -0.8441 -0.6031 -0.6123
  139TIP3   OH2  422   2.282   4.660   3.704 -0.1260 -0.1903 -0.0622
  139TIP3    H1  423   2.263   4.611   3.784 -0.5299 -1.3798 -0.8643
  139TIP3    H2  424   2.246   4.747   3.720 -1.8106 -0.9256  0.3807
  140TIP3   OH2  425   1.512   3.764   3.082  0.0192 -0.0252 -0.2046
  140TIP3    H1  426   1.603   3.752   3.055  0.7574  0.7093  1.7610
  140TIP3    H2  427   1.483   3.842   3.034  0.4520 -0.2130 -0.7843
  141TIP3   OH2  428   2.734   0.268   0.139  0.0608 -0.1845 -0.2735
  141TIP3    H1  429   2.786   0.293   0.062 -0.5936  0.7810 -0.4225
  141TIP3    H2  430   2.660   0.329   0.138 -0.0743 -0.3143  0.9901
  142TIP3   OH2  431   3.026   0.115   1.588  0.0601  0.2825  0.1213
  142TIP3    H1  432   3.047   0.078   1.503 -0.5233  1.4809 -0.5601
  142TIP3    H2  433   3.029   0.040   1.648 -1.6487 -0.9927 -1.2931
  143TIP3   OH2  434   2.493   1.959   2.045 -0.0842 -1.1055  0.1939
  143TIP3    H1  435   2.493   1.908   1.964 -1.2132 -1.3461  0.3289
  143TIP3    H2  436   2.418   2.017   2.038 -0.6275 -1.6188  1.3482
  144TIP3   OH2  437   1.687   2.087   0.588 -0.1597  0.3355  0.4644
  144TIP3    H1  438   1.679   1.992   0.599  1.8578  0.0745 -0.0625
  144TIP3    H2  439   1.686   2.122   0.677  0.8955 -0.3538  0.7551
  145TIP3   OH2  440   4.191   1.917   1.148 -0.1450 -0.8502  0.4740
  145TIP3    H1  441   4.155   1.985   1.205  0.9269 -0.9001  1.2357
  145TIP3    H2  442   4.259   1.962   1.098 -0.5138 -1.0023 -0.1702
  146TIP3   OH2  443   6.221   1.653   3.700 -0.2430 -0.7177  0.9280
  146TIP3    H1  444   6.181   1.688   3.621  0.2956 -0.7884  0.6164
  146TIP3    H2  445   6.288   1.717   3.723 -0.1290 -0.8947  1.0963
  147TIP3   OH2  446   0.619   0.198   4.375 -0.4714  0.5639 -0.4530
  147TIP3    H1  447   0.623   0.114   4.330 -1.5540 -1.2497  2.4854
  147TIP3    H2  448   0.525   0.214   4.387 -0.2524  0.5187  1.7475
  148TIP3   OH2  449   3.843   3.552   0.822 -0.5098 -0.3362  0.2359
  148TIP3    H1  450   3.843   3.516   0.733  1.9745  1.3182 -0.5432
  148TIP3    H2  451   3.843   3.475   0.879 -0.1247 -1.4832 -1.2423
  149TIP3   OH2  452   0.399   3.216   3.623 -0.1400 -0.5423  0.7972
  149TIP3    H1  453   0.430   3.164   3.549 -0.7105  0.1685  0.0506
  149TIP3    H2  454   0.361   3.151   3.682  2.1161 -1.3733  1.4627
  150TIP3   OH2  455   5.431   3.311   0.094  0.5815 -0.1153  0.0356
  150TIP3    H1  456   5.406   3.400   0.119  1.3478  0.3371 -0.7742
  150TIP3    H2  457   5.524   3.305   0.117  0.4959 -0.7598  0.2200
  151TIP3   OH2  458   1.595   3.083   2.751 -0.1053 -0.4596 -0.0141
  151TIP3    H1  459   1.574   3.121   2.665  3.2049 -1.3980 -1.3902
  151TIP3    H2  460   1.569   2.992   2.744  1.1068 -0.7898 -0.4594
  152TIP3   OH2  461   4.341   5.130   1.042 -0.0439 -0.5403 -0.3540
  152TIP3    H1  462   4.267   5.083   1.080  0.3459 -1.5748 -0.8213
  152TIP3    H2  463   4.346   5.212   1.091 -2.3360  0.1804 -1.2238
  153TIP3   OH2  464   3.708   2.440   0.819  0.2139 -0.4734  0.1743
  153TIP3    H1  465   3.644   2.396   0.763  1.2169  0.5108 -1.8555
  153TIP3    H2  466   3.656   2.489   0.882 -1.0138 -0.6043 -0.7102
  154TIP3   OH2  467   0.704   4.330   1.741  0.4359  0.4163  0.3411
  154TIP3    H1  468   0.688   4.242   1.709  0.2114  1.2884 -2.1409
  154TIP3    H2  469   0.754   4.318   1.822  3.2927 -1.9583 -1.5687
  155TIP3   OH2  470   2.410   4.357   0.688  0.4070 -0.4858  0.1152
  155TIP3    H1  471   2.347   4.389   0.623  0.3152 -2.1060 -0.6396
  155TIP3    H2  472   2.474   4.307   0.638  1.6860  0.1762  1.0182
  156TIP3   OH2  473   1.473   2.215   1.848 -0.5288  0.8942 -0.0463
  156TIP3    H1  474   1.535   2.205   1.775 -0.7837 -2.8305  0.0458
  156TIP3    H2  475   1.388   2.223   1.806 -0.5888 -0.4199 -0.2163
  157TIP3   OH2  476   4.676   2.085   4.850  0.2466  0.1386  0.2036
  157TIP3    H1  477   4.606   2.029   4.883 -0.4294  1.3214  0.8671
  157TIP3    H2  478   4.756   2.037   4.869 -0.2645 -0.2412  1.5222
  158TIP3   OH2  479   1.409   5.446   1.136 -0.7969  0.1050 -0.9153
  158TIP3    H1  480   1.429   5.360   1.174  0.6663  0.9486  0.3846
  158TIP3    H2  481   1.314   5.454   1.143 -0.8604 -1.0170 -0.1714
  159TIP3   OH2  482   2.160   5.260   1.313 -0.2013 -0.8044  0.3622
  159TIP3    H1  483   2.199   5.333   1.362  1.5069 -0.6575 -1.1157
  159TIP3    H2  484   2.115   5.302   1.240  0.4748 -1.1779 -0.2843
  160TIP3   OH2  485   0.692   3.126   1.029 -0.1415  0.1373  0.2556
  160TIP3    H1  486   0.614   3.078   1.002  0.7203 -0.2131 -1.8639
  160TIP3    H2  487   0.697   3.199   0.967  0.3184  1.1090  1.4155
  161TIP3   OH2  488   5.317   5.260   4.765 -0.1884  0.3612  0.1449
  161TIP3    H1  489   5.327   5.264   4.860 -1.4683  0.7022  0.2798
  161TIP3    H2  490   5.280   5.344   4.741  2.3364  1.2266 -0.9930
  162TIP3   OH2  491   4.297   1.595   3.386 -0.3150 -0.8778  0.4820
  162TIP3    H1  492   4.237   1.651   3.337 -0.1303 -0.5432  0.6338
  162TIP3    H2  493   4.241   1.526   3.422 -0.3007 -1.6907 -0.9999
  163TIP3   OH2  494   2.101   3.851   4.398 -0.0041  0.4027  0.2216
  163TIP3    H1  495   2.172   3.906   4.431  0.3527 -0.6330  1.2440
  163TIP3    H2  496   2.099   3.869   4.304  2.1951 -0.1423  0.0072
  164TIP3   OH2  497   0.806   1.433   3.518 -0.0785 -0.3699 -0.0484
  164TIP3    H1  498   0.720   1.462   3.487  0.3908  2.4020  1.0016
  164TIP3    H2  499   0.862   1.438   3.440 -0.4138 -0.2625 -0.2855
  165TIP3   OH2  500   4.727   3.512   3.010 -0.4194 -0.3328  0.1490
  165TIP3    H1  501   4.781   3.522   2.932 -0.2478 -0.7171  0.2139
  165TIP3    H2  502   4.680   3.429   2.996  0.4254 -0.9651  0.9254
  166TIP3   OH2  503   3.330   3.736   0.406  0.2213  0.2903 -0.3136
  166TIP3    H1  504   3.314   3.681   0.330  0.5695  0.4144 -0.4791
  166TIP3    H2  505   3.425   3.743   0.412  0.1934  0.4095  0.0399
  167TIP3   OH2  506   3.729   2.501   3.679  0.4184 -0.0668  0.4749
  167TIP3    H1  507   3.776   2.514   3.597 -0.7551  2.0892  0.0721
  167TIP3    H2  508   3.731   2.587   3.722 -3.1662  0.2425  0.3458
  168TIP3   OH2  509   4.939   0.370   2.526 -0.4654  0.1190  0.1508
  168TIP3    H1  510   4.975   0.423   2.597 -0.5808 -0.3686  0.5777
  168TIP3    H2  511   4.845   0.365   2.546 -0.3892 -0.6153  0.3669
  169TIP3   OH2  512   3.578   3.566   0.923 -0.2357 -0.0841  0.3024
  169TIP3    H1  513   3.545   3.525   0.843  0.2195 -2.1972  1.1271
  169TIP3    H2  514   3.670   3.584   0.904  0.0004 -1.0429  0.4950
  170TIP3   OH2  515   4.217   4.092   3.240 -0.0115 -0.4566  0.2153
  170TIP3    H1  516   4.122   4.083   3.251  0.0100 -0.7673  0.1573
  170TIP3    H2  517   4.245   4.007   3.206  0.0884  0.0718 -1.0773
  171TIP3   OH2  518   2.856   2.172   0.250 -0.6947  0.1410  0.0206
  171TIP3    H1  519   2.819   2.088   0.222 -0.3731  0.2915 -0.8856
  171TIP3    H2  520   2.949   2.166   0.227 -0.4778  0.4003  0.7947
  172TIP3   OH2  521   4.702   5.315   2.079  0.0441  0.5215 -0.0405
  172TIP3    H1  522   4.691   5.330   1.985  0.4677  0.3799 -0.1174
  172TIP3    H2  523   4.640   5.375   2.121 -1.8504 -1.0334 -0.4490
  173TIP3   OH2  524   6.058   0.649   0.369  0.2557  0.3270  0.4828
  173TIP3    H1  525   6.071   0.604   0.452 -0.4266  0.4201  0.6521
  173TIP3    H2  526   5.964   0.670   0.368  0.6691  2.4588  0.7825
  174TIP3   OH2  527   4.010   0.201   1.072  0.2639  0.1810  0.3728
  174TIP3    H1  528   3.979   0.210   0.982  1.5364 -0.0906 -0.1160
  174TIP3    H2  529   4.104   0.183   1.064  0.8327  2.1227  1.8221
  175TIP3   OH2  530   3.879   1.470   4.060 -0.4398  0.1293  0.3903
  175TIP3    H1  531   3.937   1.403   4.022 -0.9384  0.4984 -1.1044
  175TIP3    H2  532   3.903   1.550   4.015 -1.7001  0.4047  0.1715
  176TIP3   OH2  533   4.726   4.821   4.456  0.4477 -0.2056  0.4542
  176TIP3    H1  534   4.636   4.810   4.487  1.0203  1.0152  2.7892
  176TIP3    H2  535   4.766   4.735   4.468 -0.2762 -0.6716 -0.3024
  177TIP3   OH2  536   2.366   2.836   2.917  0.1361  0.3660  0.0116
  177TIP3    H1  537   2.422   2.760   2.903 -0.4772 -0.2068  0.6097
  177TIP3    H2  538   2.326   2.852   2.832  2.0053  1.4646 -0.7213
  178TIP3   OH2  539   5.900   4.629   3.584  0.0938  0.0001  0.2200
  178TIP3    H1  540   5.961   4.650   3.513 -0.6402  0.1679 -0.3722
  178TIP3    H2  541   5.956   4.603   3.657  0.8483 -0.5335 -0.5365
  179TIP3   OH2  542   5.690   5.897   3.345 -0.4284 -0.0723 -0.0731
  179TIP3    H1  543   5.621   5.953   3.381 -0.0067 -0.0009  0.6402
  179TIP3    H2  544   5.648   5.812   3.334 -0.5961 -0.0687  0.5087
  180TIP3   OH2  545   0.999   4.803   2.329 -0.0104 -0.2120  0.2786
  180TIP3    H1  546   1.065   4.824   2.264  1.2632  0.0774  1.6061
  180TIP3    H2  547   1.013   4.866   2.399 -0.3982 -1.3769  1.4566
  181TIP3   OH2  548   2.855   4.001   3.444 -0.2527 -0.3330 -0.1463
  181TIP3    H1  549   2.861   3.924   3.387  2.2129 -0.5541  0.3171
  181TIP3    H2  550   2.893   3.973   3.527 -0.1984  1.1161  0.3480
  182TIP3   OH2  551   3.278   2.951   0.200 -0.2639  0.4117 -0.1957
  182TIP3    H1  552   3.343   2.963   0.130  0.0904  1.3767  0.2868
  182TIP3    H2  553   3.318   2.885   0.257 -0.2728  0.0863 -0.5564
  183TIP3   OH2  554   1.817   2.341   1.087 -0.6287 -0.3861  0.3044
  183TIP3    H1  555   1.793   2.257   1.049  0.3458 -1.4030  1.8197
  183TIP3    H2  556   1.804   2.404   1.016  0.7996 -2.1073 -1.6206
  184TIP3   OH2  557   1.741   5.332   2.712  0.0530  0.2291  0.4367
  184TIP3    H1  558   1.693   5.309   2.633 -1.6899 -0.4294  1.6226
  184TIP3    H2  559   1.739   5.427   2.715 -0.0441  0.2506 -0.1805
  185TIP3   OH2  560   1.757   5.962   3.535  0.5079  0.2112 -0.6272
  185TIP3    H1  561   1.701   6.004   3.470 -0.0939  1.7373  0.8068
  185TIP3    H2  562   1.840   5.947   3.490 -0.8793 -1.8522 -2.7218
  186TIP3   OH2  563   0.790   2.528   1.956  0.7173 -0.4776 -0.3385
  186TIP3    H1  564   0.798   2.474   2.036 -1.2426 -2.2227 -1.2288
  186TIP3    H2  565   0.746   2.607   1.985  3.4462  0.7108  0.9619
  187TIP3   OH2  566   2.131   3.962   0.500 -0.2091  0.4695  0.2165
  187TIP3    H1  567   2.085   3.995   0.423  0.2322  1.9419  0.5523
  187TIP3    H2  568   2.163   4.040   0.545  1.6398 -0.4402  0.6000
  188TIP3   OH2  569   1.168   1.181   1.532 -0.9568 -0.3871 -0.1673
  188TIP3    H1  570   1.124   1.209   1.451  1.5076  0.0555 -1.4347
  188TIP3    H2  571   1.229   1.251   1.552  1.0337 -2.0819  0.0249
  189TIP3   OH2  572   5.724   5.495   2.187  0.0102 -0.3054  0.2198
  189TIP3    H1  573   5.702   5.557   2.256  0.1288 -0.0504  0.0277
  189TIP3    H2  574   5.642   5.484   2.138 -0.7166 -2.1797  1.7061
  190TIP3   OH2  575   5.420   0.832   3.570 -0.2404 -0.7434 -0.3592
  190TIP3    H1  576   5.406   0.904   3.633  3.6347 -0.1574  0.0636
  190TIP3    H2  577   5.384   0.866   3.488 -0.2958  0.8788  0.2828
  191TIP3   OH2  578   4.403   0.774   3.085 -0.3853 -0.2310 -0.5161
  191TIP3    H1  579   4.385   0.774   3.179  0.8606 -0.4419 -0.2564
  191TIP3    H2  580   4.438   0.687   3.067 -1.2261 -0.4153 -1.3102
  192TIP3   OH2  581   3.179   3.634   3.734  0.2786  0.6597  0.1061
  192TIP3    H1  582   3.084   3.624   3.735  0.3070  0.1175 -1.0029
  192TIP3    H2  583   3.202   3.660   3.823 -0.7985 -0.2428  0.6704
  193TIP3   OH2  584   5.910   1.138   2.679  0.1059 -0.0587  0.4058
  193TIP3    H1  585   5.873   1.145   2.591  1.0717  0.1762  0.0110
  193TIP3    H2  586   6.004   1.149   2.667  0.3049 -0.5351  1.4084
  194TIP3   OH2  587   2.708   1.977   1.660 -0.1375 -0.2637 -0.7255
  194TIP3    H1  588   2.613   1.964   1.654 -0.4690  1.2123  0.5840
  194TIP3    H2  589   2.731   1.944   1.747  0.3704  0.3433 -0.6213
  195TIP3   OH2  590   3.848   5.016   2.852 -0.1886  0.3378 -0.6125
  195TIP3    H1  591   3.761   5.030   2.813 -0.2977  0.9595 -0.1574
  195TIP3    H2  592   3.842   4.930   2.893 -1.5316  1.4896  1.8423
  196TIP3   OH2  593   2.498   3.557   3.740 -0.3101  0.5416 -0.7129
  196TIP3    H1  594   2.449   3.496   3.796 -1.5485  1.2230 -1.0167
  196TIP3    H2  595   2.447   3.561   3.660 -0.7321  2.6246 -0.3801
  197TIP3   OH2  596   2.683   0.110   1.285 -0.4911  0.2838 -0.0142
  197TIP3    H1  597   2.721   0.186   1.242 -2.4088  0.7628 -1.0001
  197TIP3    H2  598   2.624   0.146   1.351  2.8754 -0.4273  3.7267
  198TIP3   OH2  599   1.494   2.455   3.030 -0.3930  0.3595 -0.3299
  198TIP3    H1  600   1.518   2.378   2.978  0.5197 -0.2900  0.9711
  198TIP3    H2  601   1.542   2.443   3.113 -0.2218  2.3362 -0.0919
  199TIP3   OH2  602   5.054   5.816   4.358  0.5961  0.6562  0.1656
  199TIP3    H1  603   5.076   5.728   4.328 -1.0831 -0.0446  0.9112
  199TIP3    H2  604   4.992   5.849   4.293 -0.3784  0.4709  0.9810
  200TIP3   OH2  605   2.948   5.214   4.923  0.5347  0.3794 -0.1323
  200TIP3    H1  606   3.042   5.202   4.914  0.5602  1.5787 -2.0004
  200TIP3    H2  607   2.933   5.221   5.017  2.3956  0.7771  0.1595
  201TIP3   OH2  608   3.990   5.947   1.769 -0.2047  0.4903  0.8990
  201TIP3    H1  609   3.916   5.931   1.711  0.4384  1.3889 -0.2070
  201TIP3    H2  610   4.009   6.040   1.760  1.0003  0.3070  1.2315
  202TIP3   OH2  611   4.106   1.342   0.324 -0.1599 -0.4409 -0.4708
  202TIP3    H1  612   4.020   1.361   0.288  0.0945 -0.7434 -1.2602
  202TIP3    H2  613   4.140   1.427   0.351 -0.4063 -0.2252 -0.8379
  203TIP3   OH2  614   4.044   0.110   0.416 -0.2223  0.1769  0.3782
  203TIP3    H1  615   4.036   0.015   0.421  1.1464  0.1065  2.2729
  203TIP3    H2  616   4.089   0.127   0.333 -2.8236 -0.5767 -1.2982
  204TIP3   OH2  617   4.236   1.848   0.554 -0.3293 -0.2003 -0.1697
  204TIP3    H1  618   4.248   1.901   0.633 -1.0832 -3.6258  2.4565
  204TIP3    H2  619   4.141   1.840   0.545 -0.3105  1.2252 -2.3361
  205TIP3   OH2  620   5.402   1.418   3.400 -0.7604 -0.0717  0.3882
  205TIP3    H1  621   5.449   1.418   3.317 -1.2756  1.9244  0.0271
  205TIP3    H2  622   5.467   1.445   3.465 -0.6680 -0.3533  0.4125
  206TIP3   OH2  623   2.779   0.383   1.839  0.1529 -0.7036 -0.1494
  206TIP3    H1  624   2.862   0.428   1.857 -0.5976  0.0065  1.7631
  206TIP3    H2  625   2.733   0.383   1.923 -1.8034 -1.0732 -1.1742
  207TIP3   OH2  626   0.145   4.224   3.765  1.0687  0.0364 -0.3415
  207TIP3    H1  627   0.096   4.201   3.686  2.2686  0.1873 -1.1501
  207TIP3    H2  628   0.188   4.143   3.791 -0.5919 -0.4358  1.1356
  208TIP3   OH2  629   0.346   5.958   0.560 -0.2824  0.4232 -0.1839
  208TIP3    H1  630   0.415   5.892   0.557 -0.5166  0.1111  0.9260
  208TIP3    H2  631   0.388   6.039   0.529  0.6367  0.2941  0.6868
  209TIP3   OH2  632   6.162   1.857   4.177 -0.2456  0.4373  0.1191
  209TIP3    H1  633   6.234   1.824   4.231  0.8896  2.8607  0.2272
  209TIP3    H2  634   6.135   1.781   4.125  0.3389 -1.3210  2.1986
  210TIP3   OH2  635   0.514   5.905   2.039  0.3132 -0.5657 -0.4261
  210TIP3    H1  636   0.461   5.825   2.035  1.2304 -1.1678 -0.8291
  210TIP3    H2  637   0.461   5.971   1.993 -0.4956 -0.9094 -0.0054
  211TIP3   OH2  638   0.716   2.933   0.784  0.1863 -0.1566  0.3489
  211TIP3    H1  639   0.769   2.895   0.714  0.9555  0.6558  0.4586
  211TIP3    H2  640   0.779   2.982   0.837 -1.0098  3.5799 -1.3122
  212TIP3   OH2  641   5.560   3.231   0.399  0.5621 -0.0197  0.4821
  212TIP3    H1  642   5.615   3.295   0.354  0.9901  1.1253  2.5425
  212TIP3    H2  643   5.549   3.266   0.487  0.1574 -2.3947  1.4512
  213TIP3   OH2  644   1.250   5.731   1.176 -0.0999  0.1582  1.2578
  213TIP3    H1  645   1.307   5.669   1.221 -0.4478  0.2307  1.8121
  213TIP3    H2  646   1.166   5.724   1.223  0.5523  2.9037  3.0515
  214TIP3   OH2  647   1.273   0.496   4.645 -0.2628 -0.2758  0.1087
  214TIP3    H1  648   1.235   0.408   4.645 -2.0182  0.4360 -0.7127
  214TIP3    H2  649   1.317   0.503   4.560 -1.8044  0.2629 -0.6995
  215TIP3   OH2  650   2.316   2.691   3.711  0.1131 -0.5716 -0.1408
  215TIP3    H1  651   2.336   2.680   3.804 -0.0523 -1.6077 -0.2148
  215TIP3    H2  652   2.391   2.653   3.666  0.0394 -0.3721 -0.4315
  216TIP3   OH2  653   4.358   4.498   5.031  0.0726  1.0697  0.0239
  216TIP3    H1  654   4.398   4.548   5.102  0.0413 -0.4984  1.1976
  216TIP3    H2  655   4.430   4.446   4.995 -0.3346  0.3266  0.2769
  217TIP3   OH2  656   3.312   4.506   3.838 -0.2147 -0.0259  0.7317
  217TIP3    H1  657   3.371   4.579   3.857  0.2270 -0.1249 -0.2343
  217TIP3    H2  658   3.224   4.544   3.846 -0.0586  0.0235  2.5667
  218TIP3   OH2  659   3.351   3.999   2.274 -0.0055  0.2885  0.1657
  218TIP3    H1  660   3.268   3.964   2.241  1.7074 -3.1982 -0.9297
  218TIP3    H2  661   3.401   4.020   2.196  1.7245 -1.8779  0.6282
  219TIP3   OH2  662   4.917   4.192   2.583  0.3407 -0.0988 -0.3559
  219TIP3    H1  663   5.009   4.205   2.605  0.1715 -0.2074  0.4559
  219TIP3    H2  664   4.885   4.279   2.558  0.1462  0.3847  1.4311
  220TIP3   OH2  665   4.890   0.596   0.657  0.0019 -0.4565 -0.9295
  220TIP3    H1  666   4.928   0.631   0.577  0.1244  0.5722 -0.4350
  220TIP3    H2  667   4.952   0.621   0.726 -0.3532 -0.8925 -0.4404
  221TIP3   OH2  668   3.585   0.011   0.281  0.1658 -0.5324  0.0382
  221TIP3    H1  669   3.508  -0.044   0.292  0.5868 -1.8656 -2.8193
  221TIP3    H2  670   3.551   0.098   0.263 -0.7595 -1.1972 -1.6566
  222TIP3   OH2  671   1.972   0.490   0.080 -0.2441  0.2078 -0.6586
  222TIP3    H1  672   1.943   0.401   0.100 -0.7092  0.4526 -0.2068
  222TIP3    H2  673   2.063   0.481   0.051  1.6436  0.0660  4.3649
  223TIP3   OH2  674   2.959   4.584   5.116  0.0447  0.4273 -0.1093
  223TIP3    H1  675   2.966   4.493   5.086  0.2036  0.1528  0.7409
  223TIP3    H2  676   3.031   4.630   5.073 -0.1682  0.2063 -0.7152
  224TIP3   OH2  677   5.527   3.289   4.190  0.4871  0.4390 -0.1754
  224TIP3    H1  678   5.445   3.292   4.141  0.0337 -0.8882  0.4312
  224TIP3    H2  679   5.500   3.302   4.281  1.2764  2.5790 -0.1886
  225TIP3   OH2  680   5.615   5.969   2.028  0.2401  0.4601 -0.1893
  225TIP3    H1  681   5.697   6.017   2.015  0.6470 -0.1137  0.1997
  225TIP3    H2  682   5.634   5.881   1.996 -0.2553  0.3458 -0.1745
  226TIP3   OH2  683   2.486   5.243   2.143 -0.0779 -0.2508  0.0446
  226TIP3    H1  684   2.446   5.290   2.216 -0.2164 -0.8061  0.3298
  226TIP3    H2  685   2.510   5.158   2.179  0.3323 -0.3393 -0.4217
  227TIP3   OH2  686   3.444   3.650   2.359 -0.7305 -0.2466  0.3473
  227TIP3    H1  687   3.393   3.592   2.303  0.8928 -1.3114 -0.0951
  227TIP3    H2  688   3.427   3.738   2.324 -1.5078 -0.6756 -0.3743
  228TIP3   OH2  689   3.587   1.877   2.470 -0.1641  0.3050  0.0285
  228TIP3    H1  690   3.498   1.863   2.439  0.1406  0.5097 -0.9585
  228TIP3    H2  691   3.635   1.906   2.393  1.0100 -0.8364  0.3139
  229TIP3   OH2  692   5.425   4.534   1.014 -0.4915  0.6460 -0.4268
  229TIP3    H1  693   5.423   4.477   0.937  0.1273  0.6947 -0.4840
  229TIP3    H2  694   5.499   4.592   0.999  0.7186 -0.4509  0.9850
  230TIP3   OH2  695   5.910   1.658   2.488 -0.0626 -0.0525 -0.7738
  230TIP3    H1  696   5.886   1.685   2.577 -1.2424  0.4628 -1.2271
  230TIP3    H2  697   5.938   1.567   2.497 -2.4655 -0.8020 -0.1965
  231TIP3   OH2  698   4.797   2.963   3.456  0.3260 -0.0611  0.1796
  231TIP3    H1  699   4.869   3.016   3.421 -0.4885  0.3974 -0.8562
  231TIP3    H2  700   4.741   3.027   3.500 -0.0426 -0.2445 -0.0283
  232TIP3   OH2  701   1.529   2.588   3.800 -0.3822 -0.3114 -0.1765
  232TIP3    H1  702   1.452   2.530   3.801 -0.9423  0.3716 -1.5761
  232TIP3    H2  703   1.603   2.528   3.805 -0.9024 -0.9258  3.8015
  233TIP3   OH2  704   3.494   2.648   4.186  0.4163  0.1175 -0.4041
  233TIP3    H1  705   3.520   2.586   4.117 -1.8458  0.8921 -2.0670
  233TIP3    H2  706   3.403   2.626   4.205  0.6571  0.6846  1.5796
  234TIP3   OH2  707   4.522   4.682   3.918 -0.3579 -0.1682 -0.3450
  234TIP3    H1  708   4.439   4.661   3.961 -0.2595 -1.2505 -0.6575
  234TIP3    H2  709   4.583   4.695   3.990 -1.1873  2.6091 -0.0158
  235TIP3   OH2  710   2.368   3.337   3.885 -0.3336 -0.6403 -0.3003
  235TIP3    H1  711   2.383   3.275   3.957  0.2712 -0.2975 -0.1213
  235TIP3    H2  712   2.420   3.302   3.813  1.0159  0.3041  0.1784
  236TIP3   OH2  713   4.128   4.330   4.394  0.1227 -0.1931 -0.3448
  236TIP3    H1  714   4.090   4.250   4.432 -1.8285  0.2301 -1.2546
  236TIP3    H2  715   4.121   4.395   4.463  2.4545 -0.9315  0.6823
  237TIP3   OH2  716   3.427   4.683   0.030  0.2919 -0.7662 -0.1252
  237TIP3    H1  717   3.408   4.589   0.032 -1.9296 -0.3865  0.1018
  237TIP3    H2  718   3.383   4.714  -0.050  1.4020  0.0304 -0.4501
  238TIP3   OH2  719   1.065   2.117   4.293 -0.2718 -0.1101 -0.2506
  238TIP3    H1  720   1.035   2.208   4.304  1.6633  0.5073  0.3671
  238TIP3    H2  721   0.986   2.068   4.270 -1.1864  1.9366 -1.8073
  239TIP3   OH2  722   1.427   0.037   1.694  0.2410  0.1837  0.0533
  239TIP3    H1  723   1.342  -0.007   1.697  0.1220  0.4522  2.3277
  239TIP3    H2  724   1.437   0.065   1.603 -0.9322 -2.0696 -0.8261
  240TIP3   OH2  725   1.303   0.005   3.838 -0.2027 -0.2729 -0.2575
  240TIP3    H1  726   1.208  -0.005   3.837 -0.2823  0.4679 -0.5113
  240TIP3    H2  727   1.320   0.088   3.793  0.6012 -0.6913 -0.7577
  241TIP3   OH2  728   6.103   4.118   1.457 -0.2106 -0.1283 -0.7857
  241TIP3    H1  729   6.063   4.135   1.542 -1.1765 -0.9686 -1.0531
  241TIP3    H2  730   6.088   4.024   1.442 -1.9007  0.4107 -2.8122
  242TIP3   OH2  731   2.556   0.390   4.200  0.1676 -0.2989 -0.2422
  242TIP3    H1  732   2.595   0.463   4.247 -2.6412  0.9240  0.4101
  242TIP3    H2  733   2.515   0.337   4.267  1.5254 -2.1629 -0.7893
  243TIP3   OH2  734   5.304   0.080   1.727  0.6225 -0.1994 -0.4681
  243TIP3    H1  735   5.369   0.106   1.663  1.6400 -2.9516 -0.6941
  243TIP3    H2  736   5.220   0.105   1.688  1.3127 -0.4088 -2.1744
  244TIP3   OH2  737   1.166   5.625   3.073  0.2776  0.2652 -0.1511
  244TIP3    H1  738   1.106   5.575   3.128  0.9359  0.3045  0.6206
  244TIP3    H2  739   1.156   5.715   3.103 -0.4771  0.5259 -1.1425
  245TIP3   OH2  740   3.307   3.693   0.696 -0.3731 -0.7607  0.0343
  245TIP3    H1  741   3.342   3.606   0.680  1.2345 -0.2521  0.6069
  245TIP3    H2  742   3.279   3.724   0.610 -1.2920 -1.9393 -0.1285
  246TIP3   OH2  743   6.194   4.561   2.141 -0.3670 -0.2372 -0.2694
  246TIP3    H1  744   6.282   4.532   2.165 -0.3789 -0.9380 -1.0265
  246TIP3    H2  745   6.136   4.515   2.203 -0.1852  0.5455  0.4971
  247TIP3   OH2  746   4.906   1.729   2.617  0.7741 -0.8770 -0.0946
  247TIP3    H1  747   4.962   1.736   2.694 -1.0548  1.7675  1.1592
  247TIP3    H2  748   4.945   1.788   2.553  0.6382 -0.7461 -0.0566
  248TIP3   OH2  749   3.246   3.272   3.935  0.1218 -0.7824 -0.4520
  248TIP3    H1  750   3.340   3.292   3.935  0.0092  0.0970  2.3045
  248TIP3    H2  751   3.204   3.354   3.911  0.0130 -1.0165 -1.0856
  249TIP3   OH2  752   3.301   3.827   2.714 -0.3205 -0.2936 -0.3100
  249TIP3    H1  753   3.359   3.771   2.663 -0.9717 -1.5113  0.2413
  249TIP3    H2  754   3.272   3.772   2.786  0.9629  1.5275  1.7054
  250TIP3   OH2  755   1.690   0.809   3.656 -0.1514  0.2547 -0.3641
  250TIP3    H1  756   1.636   0.883   3.681 -0.4997 -0.6052  1.6924
  250TIP3    H2  757   1.662   0.738   3.714  1.2331 -1.0349 -1.1803
  251TIP3   OH2  758   3.471   4.625   1.227  0.2488  0.2246  0.0776
  251TIP3    H1  759   3.487   4.698   1.286 -0.4266  1.2422 -0.9709
  251TIP3    H2  760   3.547   4.567   1.239  1.4141  1.6892  0.0200
  252TIP3   OH2  761   5.271   3.384   4.696 -0.3653  0.1774 -0.3469
  252TIP3    H1  762   5.239   3.322   4.631 -1.0499 -0.6087  0.6992
  252TIP3    H2  763   5.198   3.393   4.758  0.6876 -0.0299  0.9672
  253TIP3   OH2  764   5.091   1.446   4.120 -0.1268  0.4029  0.5045
  253TIP3    H1  765   5.183   1.453   4.145  0.0263 -0.2525  0.1653
  253TIP3    H2  766   5.045   1.429   4.201 -0.1168  1.9634  0.8660
  254TIP3   OH2  767   3.216   3.250   2.601  0.5194  0.3770 -0.5123
  254TIP3    H1  768   3.190   3.331   2.559  2.0582  0.6893 -0.9376
  254TIP3    H2  769   3.240   3.192   2.529 -1.7074 -0.9332 -0.2880
  255TIP3   OH2  770   5.829  -0.004   5.172 -0.2700 -0.0161 -0.5292
  255TIP3    H1  771   5.771  -0.045   5.108  0.1206 -0.7648 -0.4073
  255TIP3    H2  772   5.800   0.087   5.175 -2.2205 -0.6152  0.4166
  256TIP3   OH2  773   2.209   1.472   4.612  1.1593  0.2066  0.1506
  256TIP3    H1  774   2.265   1.544   4.640  1.2919  0.0028  0.4064
  256TIP3    H2  775   2.212   1.475   4.516  2.0765 -0.1685  0.1583
  257TIP3   OH2  776   2.733   3.514   3.586 -0.5035 -0.7589 -0.1071
  257TIP3    H1  777   2.662   3.518   3.650  2.0714  1.6835  2.9268
  257TIP3    H2  778   2.722   3.593   3.533 -1.3455 -1.6443 -1.3200
  258TIP3   OH2  779   1.870   0.208   1.645  0.4427  0.2203 -0.4586
  258TIP3    H1  780   1.797   0.240   1.592 -0.0313  1.0039  0.6128
  258TIP3    H2  781   1.888   0.280   1.706  2.3454  0.1766 -0.9137
  259TIP3   OH2  782   2.955   3.149   3.119  0.1937 -0.0134 -0.0617
  259TIP3    H1  783   2.949   3.187   3.032  0.4229 -1.7315 -0.8761
  259TIP3    H2  784   2.985   3.059   3.104 -0.0956 -0.4600  1.7597
  260TIP3   OH2  785   0.089   1.843   1.037 -0.0325 -0.4171 -0.0299
  260TIP3    H1  786   0.014   1.849   1.095 -1.4797 -1.3682 -1.7067
  260TIP3    H2  787   0.152   1.907   1.072 -0.5373 -1.3736  2.8803
  261TIP3   OH2  788   1.172   3.278   2.354 -0.0431  0.8277 -0.4870
  261TIP3    H1  789   1.146   3.186   2.363 -0.4711  0.9761 -0.2141
  261TIP3    H2  790   1.099   3.328   2.390  0.0293  1.2919 -0.9709
  262TIP3   OH2  791   3.065   0.185   4.459 -0.3016  0.3529 -0.5017
  262TIP3    H1  792   3.055   0.106   4.405  0.4581  0.4476 -0.7924
  262TIP3    H2  793   2.976   0.216   4.472 -0.7632 -1.3899  0.8925
  263TIP3   OH2  794   0.118   0.718   2.228 -0.2902 -0.5550 -0.6148
  263TIP3    H1  795   0.122   0.791   2.165 -0.0085 -0.9725 -1.0937
  263TIP3    H2  796   0.158   0.644   2.181  2.9684 -0.1087  1.1329
  264TIP3   OH2  797   3.642   5.336   3.991 -0.1902  0.0811  0.1079
  264TIP3    H1  798   3.642   5.259   3.934 -0.6587  0.3715 -0.2874
  264TIP3    H2  799   3.735   5.356   4.003  0.0391 -1.6787  1.7930
  265TIP3   OH2  800   2.492   1.175   5.001  0.2861  0.3715  0.2261
  265TIP3    H1  801   2.440   1.163   5.081 -0.9465  1.4295 -0.3936
  265TIP3    H2  802   2.458   1.110   4.940 -1.7193  2.2921 -0.8299
  266TIP3   OH2  803   0.076   2.301   1.983 -0.1402 -0.4333 -0.1701
  266TIP3    H1  804   0.065   2.396   1.986 -1.6410 -0.5763 -0.3663
  266TIP3    H2  805   0.055   2.271   2.071  0.2653 -0.5925 -0.1266
  267TIP3   OH2  806   1.252   1.191   4.124 -0.5284 -0.1284 -0.1453
  267TIP3    H1  807   1.159   1.211   4.114 -0.7039 -0.7642  0.1257
  267TIP3    H2  808   1.290   1.269   4.164 -0.2834  1.4967 -3.2665
  268TIP3   OH2  809   2.109   2.178   0.427 -0.2628  0.1248 -0.2012
  268TIP3    H1  810   2.049   2.214   0.363 -0.9341  1.8243  1.3017
  268TIP3    H2  811   2.164   2.252   0.453  0.2316 -0.6052  0.9171
  269TIP3   OH2  812   5.650   1.373   4.035 -0.2652  0.2098  0.2856
  269TIP3    H1  813   5.637   1.334   3.948  1.3347  0.6139 -0.1699
  269TIP3    H2  814   5.735   1.340   4.063 -1.2183 -0.8066  2.2305
  270TIP3   OH2  815   1.473   2.396   1.001  0.4244  0.0206  0.0711
  270TIP3    H1  816   1.518   2.472   1.038 -0.0766  0.6351 -0.5702
  270TIP3    H2  817   1.539   2.326   1.002  0.4415  0.0151  2.0918
  271TIP3   OH2  818   5.933   3.585   2.106 -0.0758 -0.8771 -0.1496
  271TIP3    H1  819   5.934   3.645   2.031 -2.4103  0.2109  0.5979
  271TIP3    H2  820   5.921   3.499   2.067 -1.3559 -0.3200 -1.0683
  272TIP3   OH2  821   4.738   3.143   5.068  0.5214 -0.7378  0.0779
  272TIP3    H1  822   4.795   3.072   5.097 -0.3191 -1.4646 -0.0049
  272TIP3    H2  823   4.792   3.222   5.074  0.7090 -0.9822  2.6285
  273TIP3   OH2  824   2.434   3.997   3.916  0.0293 -0.5036  0.4128
  273TIP3    H1  825   2.385   4.077   3.934  0.9896  0.2021 -0.0543
  273TIP3    H2  826   2.436   3.951   4.000  0.6518  0.6218  1.0304
  274TIP3   OH2  827   1.651   0.130   3.971 -0.1570  0.1017 -0.0860
  274TIP3    H1  828   1.633   0.186   3.896  1.5844  0.9556  0.0826
  274TIP3    H2  829   1.647   0.189   4.046 -0.3978 -0.4347  0.3267
  275TIP3   OH2  830   3.495   2.021   4.318  0.1657 -0.4409  0.3153
  275TIP3    H1  831   3.562   1.959   4.349 -0.6446 -0.2958  2.4939
  275TIP3    H2  832   3.416   1.967   4.308  0.1953 -0.3095 -0.7312
  276TIP3   OH2  833   4.852   5.986   1.147 -0.0579  0.2353  0.1357
  276TIP3    H1  834   4.760   6.004   1.166 -0.0496  1.0984 -0.5834
  276TIP3    H2  835   4.865   5.897   1.179 -1.0744  0.1886  0.4801
  277TIP3   OH2  836   2.355   0.517   1.479  0.3879  0.1944 -0.2325
  277TIP3    H1  837   2.262   0.506   1.497  0.2856  1.0826 -0.1721
  277TIP3    H2  838   2.358   0.566   1.397  0.7319  2.2776  0.9433
  278TIP3   OH2  839   1.639   0.722   1.900  0.4427  0.3483 -0.0869
  278TIP3    H1  840   1.613   0.803   1.943  1.5896 -0.1139  1.5941
  278TIP3    H2  841   1.616   0.653   1.962 -1.6438 -0.7848 -2.0018
  279TIP3   OH2  842   0.194   4.978   2.306  0.2587 -0.4944 -0.1027
  279TIP3    H1  843   0.153   5.058   2.274  0.4313 -0.0347  0.7813
  279TIP3    H2  844   0.123   4.914   2.310 -0.0595 -0.1380 -0.0042
  280TIP3   OH2  845   2.625   2.656   3.972  0.0812  0.2303  0.4286
  280TIP3    H1  846   2.681   2.629   3.900  0.6721  0.9077  0.6295
  280TIP3    H2  847   2.645   2.748   3.986 -1.7221  0.7359 -0.0761
  281TIP3   OH2  848   4.003   0.531   0.242  0.2193 -0.2676 -0.0228
  281TIP3    H1  849   3.970   0.467   0.305 -1.7704 -0.2311 -0.9473
  281TIP3    H2  850   3.942   0.604   0.247  1.8320  1.1335  0.2291
  282TIP3   OH2  851   1.756   4.361   2.647 -0.0715 -0.2481  0.2987
  282TIP3    H1  852   1.786   4.274   2.619  0.5805 -0.1020  0.5159
  282TIP3    H2  853   1.684   4.382   2.588  0.2596 -0.6138 -0.2489
  283TIP3   OH2  854   0.187   2.540   0.075 -0.2582 -0.1728 -0.0830
  283TIP3    H1  855   0.098   2.511   0.092  0.1388 -1.9181 -0.6870
  283TIP3    H2  856   0.192   2.547  -0.021 -0.2688  1.8236  0.0245
  284TIP3   OH2  857   4.791   4.086   1.561 -0.1776 -0.5357 -0.4684
  284TIP3    H1  858   4.865   4.041   1.601 -2.2939 -1.2584  3.1391
  284TIP3    H2  859   4.720   4.075   1.625 -2.0927  4.1525 -1.4214
  285TIP3   OH2  860   4.698   0.556   2.286  0.4023  0.2150  0.3222
  285TIP3    H1  861   4.660   0.500   2.218  2.9503 -1.9218  0.4974
  285TIP3    H2  862   4.691   0.504   2.366  0.8268  1.1025  0.9419
  286TIP3   OH2  863   1.094   2.800   0.948  0.2267 -0.0165 -0.2056
  286TIP3    H1  864   1.181   2.791   0.908 -0.4740 -1.2363 -1.5545
  286TIP3    H2  865   1.067   2.889   0.926  1.3634  0.5961  0.7634
  287TIP3   OH2  866   4.857   4.317   1.941  0.0431  0.6437 -0.1106
  287TIP3    H1  867   4.903   4.397   1.966 -1.0885  0.8967  1.3965
  287TIP3    H2  868   4.766   4.334   1.967 -0.0928 -1.3812  0.9579
  288TIP3   OH2  869   4.673   2.657   3.141  1.1437 -0.7582 -0.6359
  288TIP3    H1  870   4.758   2.700   3.130  0.5193 -0.0131 -3.1708
  288TIP3    H2  871   4.683   2.574   3.094  0.5314 -0.7708 -0.7453
  289TIP3   OH2  872   0.291   3.799   4.960  0.6319 -1.2048 -0.8929
  289TIP3    H1  873   0.270   3.725   5.016  0.7410 -1.0085 -0.5942
  289TIP3    H2  874   0.376   3.776   4.921  1.5760 -0.4184  0.6266
  290TIP3   OH2  875   2.454   5.805   2.938  0.2783 -0.2759 -0.3968
  290TIP3    H1  876   2.501   5.850   3.008  1.0904 -0.1702 -1.0004
  290TIP3    H2  877   2.445   5.715   2.970  1.0581 -0.3432 -0.3563
  291TIP3   OH2  878   4.352   0.772   4.544  0.3899  0.3396 -0.3924
  291TIP3    H1  879   4.410   0.719   4.599  0.7147  0.4762 -0.5993
  291TIP3    H2  880   4.397   0.777   4.460 -1.0304 -1.5478 -1.3457
  292TIP3   OH2  881   3.456   5.525   3.852 -0.1096  0.2075 -0.2857
  292TIP3    H1  882   3.480   5.486   3.936  1.5515  0.3065 -0.6720
  292TIP3    H2  883   3.521   5.594   3.838 -0.1308 -0.0420 -1.8074
  293TIP3   OH2  884   2.573   0.099   4.260 -0.3332 -0.6957 -0.5436
  293TIP3    H1  885   2.548   0.127   4.172  0.4868 -1.4374 -1.0217
  293TIP3    H2  886   2.489   0.077   4.302 -0.7368 -0.2694 -1.1051
  294TIP3   OH2  887   5.388   3.426   2.773 -0.2083  0.2946 -0.7634
  294TIP3    H1  888   5.465   3.483   2.767  0.3022 -0.2857  0.1207
  294TIP3    H2  889   5.323   3.467   2.715  0.3949  1.3682 -0.6956
  295TIP3   OH2  890   0.078   4.189   1.326 -0.0385 -0.3057 -0.2252
  295TIP3    H1  891  -0.005   4.158   1.291 -0.1362 -0.8166  0.4443
  295TIP3    H2  892   0.128   4.109   1.343  0.1279 -0.0540  0.4873
  296TIP3   OH2  893   4.785   0.005   1.034 -0.3604  0.3618  0.1126
  296TIP3    H1  894   4.718   0.073   1.040  0.5955  1.2144  1.9379
  296TIP3    H2  895   4.833   0.026   0.953 -1.3247  0.6148 -0.4136
  297TIP3   OH2  896   1.945   2.110   1.949  0.1266  0.2020  0.1063
  297TIP3    H1  897   1.958   2.158   2.031 -0.1734  0.2893  0.1053
  297TIP3    H2  898   1.855   2.077   1.955  1.0138 -2.3165  1.1383
  298TIP3   OH2  899   3.622   3.235   2.941 -0.0531 -0.3603  0.7044
  298TIP3    H1  900   3.595   3.144   2.947  1.2308 -0.7874  0.3276
  298TIP3    H2  901   3.668   3.252   3.023 -0.7601  0.1305  1.0130
  299TIP3   OH2  902   3.915   5.583   3.863  0.0535  0.4745  0.5208
  299TIP3    H1  903   3.889   5.526   3.791  0.1177  2.0153 -0.7847
  299TIP3    H2  904   3.858   5.559   3.936 -1.1583 -0.0016 -0.5564
  300TIP3   OH2  905   5.396   1.231   4.705 -0.2086  0.4376  0.1752
  300TIP3    H1  906   5.413   1.285   4.627 -0.3563 -0.7665 -0.7257
  300TIP3    H2  907   5.482   1.197   4.729 -0.3730 -0.3977 -0.3914
  301TIP3   OH2  908   2.926   2.161   1.425 -0.0590 -0.7965 -0.1937
  301TIP3    H1  909   2.892   2.073   1.411  1.0621 -1.1052 -1.0975
  301TIP3    H2  910   3.006   2.165   1.373  0.0289  0.6873  0.0075
  302TIP3   OH2  911   2.852   1.655   0.481 -0.2064 -0.2206  0.3527
  302TIP3    H1  912   2.778   1.659   0.541 -0.3807 -0.7270  0.1741
  302TIP3    H2  913   2.905   1.732   0.503 -1.0494  0.4354  0.1224
  303TIP3   OH2  914   2.477   0.059   0.156  0.1640 -0.8387  0.2359
  303TIP3    H1  915   2.528   0.103   0.088 -0.4313 -0.7307 -0.1525
  303TIP3    H2  916   2.386   0.080   0.135  0.0269  0.4547  1.9406
  304TIP3   OH2  917   3.499   0.919   2.517  0.0223 -0.9383  0.2272
  304TIP3    H1  918   3.561   0.988   2.494 -2.7731  1.6524 -0.1235
  304TIP3    H2  919   3.545   0.838   2.494  2.3953  0.8721 -2.1723
  305TIP3   OH2  920   0.599   4.338   4.464  0.3343 -0.2216  0.1907
  305TIP3    H1  921   0.602   4.282   4.387 -1.5949 -0.9293  0.5761
  305TIP3    H2  922   0.578   4.279   4.536 -0.3854  0.7759  0.8315
  306TIP3   OH2  923   4.929   1.656   4.276 -0.4648 -0.3240 -0.0535
  306TIP3    H1  924   4.924   1.695   4.189 -0.5895 -0.7794 -0.2575
  306TIP3    H2  925   4.904   1.564   4.262  1.3204 -0.8795  0.1411
  307TIP3   OH2  926   0.292   3.376   2.854 -0.6165 -0.1112  0.4012
  307TIP3    H1  927   0.249   3.367   2.940 -2.4883 -0.0863 -0.4852
  307TIP3    H2  928   0.321   3.467   2.852  0.5140 -0.4144  1.4491
  308TIP3   OH2  929   1.775   0.820   1.176  0.3958 -0.4522 -0.2190
  308TIP3    H1  930   1.741   0.905   1.147  0.1331 -0.0923  1.0981
  308TIP3    H2  931   1.724   0.799   1.254  1.2723 -1.2673  0.1479
  309TIP3   OH2  932   0.025   2.512   3.801 -0.6110  0.1257  0.0454
  309TIP3    H1  933   0.096   2.493   3.740 -0.9664 -0.6009 -0.1553
  309TIP3    H2  934   0.010   2.607   3.793 -1.3080 -0.1005 -1.7357
  310TIP3   OH2  935   2.339   1.714   4.707  0.1379  0.9808 -0.2189
  310TIP3    H1  936   2.280   1.789   4.697  0.8103  1.4866 -0.4165
  310TIP3    H2  937   2.408   1.729   4.643  0.2459  0.1536 -0.3033
  311TIP3   OH2  938   3.287   2.661   4.670  0.2378  0.3712 -0.0394
  311TIP3    H1  939   3.351   2.680   4.739 -0.4524  0.5768  0.5518
  311TIP3    H2  940   3.309   2.724   4.600  2.2942 -1.2236 -0.9462
  312TIP3   OH2  941   2.138   0.799   0.958  0.6474  0.3822  0.2460
  312TIP3    H1  942   2.050   0.790   0.922 -0.0300  1.2035  1.6174
  312TIP3    H2  943   2.195   0.808   0.882 -0.5545  0.6351 -0.6432
  313TIP3   OH2  944   2.278   4.938   4.009  0.5939  0.1797 -0.3053
  313TIP3    H1  945   2.322   4.996   4.070  0.6815  0.4419 -0.6149
  313TIP3    H2  946   2.191   4.978   3.996  0.2509 -0.3433  0.3159
  314TIP3   OH2  947   4.714   3.313   0.674  0.5070  0.2164  0.2597
  314TIP3    H1  948   4.732   3.300   0.581 -0.1588 -0.8671  0.2641
  314TIP3    H2  949   4.777   3.379   0.702  0.5500  0.7330 -1.0162
  315TIP3   OH2  950   1.330   2.371   3.829  0.1055  0.0608 -0.3274
  315TIP3    H1  951   1.235   2.371   3.826  0.0732 -0.2244  0.5646
  315TIP3    H2  952   1.352   2.393   3.919  0.8938  0.6263 -0.6400
  316TIP3   OH2  953   1.495   3.614   1.089 -0.0753  0.4992  0.0934
  316TIP3    H1  954   1.579   3.575   1.114  0.6639 -0.0401 -2.9097
  316TIP3    H2  955   1.430   3.560   1.135  1.1576 -0.0076  1.3134
  317TIP3   OH2  956   3.322   2.729   1.740 -0.1747  0.4255 -0.1772
  317TIP3    H1  957   3.309   2.799   1.804  0.8766 -0.9385  1.5904
  317TIP3    H2  958   3.416   2.712   1.741 -0.2232 -0.1009 -1.6136
  318TIP3   OH2  959   1.405   4.145   4.812 -0.2461  0.5532 -0.8533
  318TIP3    H1  960   1.393   4.238   4.833  0.2509  0.2963  0.7024
  318TIP3    H2  961   1.497   4.128   4.831 -0.1584 -0.1126 -1.7964
  319TIP3   OH2  962   4.374   2.780   5.134  0.0389 -0.1998 -0.0100
  319TIP3    H1  963   4.315   2.707   5.116  0.3454 -0.2872 -0.7076
  319TIP3    H2  964   4.328   2.833   5.199 -1.1646  0.1492 -1.1118
  320TIP3   OH2  965   2.181   3.101   2.976  0.3918 -0.0997  0.2681
  320TIP3    H1  966   2.158   3.049   2.899 -1.1261 -0.0338  0.6335
  320TIP3    H2  967   2.226   3.040   3.034  0.2499 -0.5351 -0.0702
  321TIP3   OH2  968   4.376   4.136   2.022  0.4671 -0.4153  0.9971
  321TIP3    H1  969   4.383   4.040   2.024 -1.2743 -0.6093 -0.6064
  321TIP3    H2  970   4.322   4.158   2.098  1.0407 -0.6581  1.4877
  322TIP3   OH2  971   0.612   6.007   2.519 -0.4057  0.2151  0.1051
  322TIP3    H1  972   0.645   5.929   2.564  2.2519  0.6035 -0.9899
  322TIP3    H2  973   0.584   5.976   2.433 -0.6601  0.2542  0.1738
  323TIP3   OH2  974   3.556   4.554   0.660 -0.6165  0.2335 -0.1631
  323TIP3    H1  975   3.643   4.514   0.655 -0.4484  0.4914  0.5501
  323TIP3    H2  976   3.568   4.631   0.714 -1.1720  0.6196 -0.5749
  324TIP3   OH2  977   0.759   0.686   1.566 -0.1355 -0.2660 -0.1901
  324TIP3    H1  978   0.744   0.769   1.521 -1.5555 -0.1956  0.3545
  324TIP3    H2  979   0.771   0.622   1.495 -1.9064 -0.0823 -0.7169
  325TIP3   OH2  980   2.004   0.398   1.765  0.1441  0.2091  0.3227
  325TIP3    H1  981   2.080   0.408   1.822  0.4148  0.0516 -0.0030
  325TIP3    H2  982   1.958   0.482   1.770  1.1019  0.8101 -0.5566
  326TIP3   OH2  983   5.786   4.870   0.772  0.3161 -0.2584  0.3473
  326TIP3    H1  984   5.822   4.956   0.749  1.4123 -0.8100 -0.0791
  326TIP3    H2  985   5.834   4.809   0.716 -0.8244 -1.1038  0.2720
  327TIP3   OH2  986   0.176   1.619   3.583 -0.3837  0.4345  0.7824
  327TIP3    H1  987   0.193   1.706   3.546  0.0538 -0.6063 -1.6426
  327TIP3    H2  988   0.110   1.581   3.526  1.1378 -1.7066  0.3157
  328TIP3   OH2  989   2.244   1.945   3.717 -0.3545  0.5656  0.4493
  328TIP3    H1  990   2.268   2.035   3.695  1.5794 -0.1473 -0.6366
  328TIP3    H2  991   2.284   1.930   3.803  0.1086  0.4952  0.2291
  329TIP3   OH2  992   3.751   4.328   1.754  0.2004 -0.6507  0.2192
  329TIP3    H1  993   3.816   4.365   1.694 -1.3152  0.4190 -0.8258
  329TIP3    H2  994   3.752   4.387   1.829 -1.6582  1.2044 -1.1091
  330TIP3   OH2  995   4.780   4.438   4.641 -0.2504  0.2969  0.5111
  330TIP3    H1  996   4.695   4.396   4.630 -0.7304  1.3430  0.1209
  330TIP3    H2  997   4.826   4.384   4.705 -0.9409 -0.6677  0.1992
  331TIP3   OH2  998   0.896   0.995   4.144  0.5196 -0.5334  0.0099
  331TIP3    H1  999   0.846   1.054   4.088  0.2736 -2.1735 -1.5744
  331TIP3    H2 1000   0.929   1.051   4.214 -0.9203  1.1827 -0.6091
  332TIP3   OH2 1001   2.372   4.061   0.790 -0.3268 -0.4078  0.3176
  332TIP3    H1 1002   2.297   4.084   0.736 -0.4524 -0.5018  0.4507
  332TIP3    H2 1003   2.380   4.133   0.852  1.0570  0.7295 -1.0880
  333TIP3   OH2 1004   2.235   0.095   4.590 -0.6177 -0.2430  0.2359
  333TIP3    H1 1005   2.151   0.140   4.603 -0.6738  0.0948 -1.1364
  333TIP3    H2 1006   2.300   0.156   4.625 -0.7632  0.5683 -0.8761
  334TIP3   OH2 1007   3.276   4.978   0.897 -0.3801 -0.0265 -0.1385
  334TIP3    H1 1008   3.206   4.962   0.959 -0.1995 -0.7654 -0.1166
  334TIP3    H2 1009   3.348   4.921   0.926 -0.6503 -1.1574 -1.6047
  335TIP3   OH2 1010   0.695   5.812   3.514  0.1478 -0.3249  0.1663
  335TIP3    H1 1011   0.726   5.759   3.441  0.7963 -0.2716  0.4000
  335TIP3    H2 1012   0.670   5.895   3.474 -0.2536 -0.5697 -0.1058
  336TIP3   OH2 1013   1.068   3.967   4.487 -0.0945  0.4911 -0.5462
  336TIP3    H1 1014   1.154   3.952   4.525 -0.4189  1.1031  0.4442
  336TIP3    H2 1015   1.006   3.935   4.552 -0.7110  3.1374  0.2648
  337TIP3   OH2 1016   4.813   1.861   1.628  0.8899 -0.1471 -0.5709
  337TIP3    H1 1017   4.837   1.915   1.552  0.8664 -1.2710 -1.3984
  337TIP3    H2 1018   4.889   1.804   1.641  0.0759 -1.3798 -1.0607
  338TIP3   OH2 1019   0.664   5.944   1.545 -0.6154 -0.3620 -0.2748
  338TIP3    H1 1020   0.613   5.980   1.473  0.2382 -1.6547 -1.5723
  338TIP3    H2 1021   0.644   6.001   1.619 -1.7333  0.8351 -1.4464
  339TIP3   OH2 1022   4.739   4.137   5.042  1.1370 -0.0531  0.0043
  339TIP3    H1 1023   4.800   4.195   5.088  0.8273  1.5419 -1.4671
  339TIP3    H2 1024   4.652   4.166   5.071  0.9252  1.1432 -1.6579
  340TIP3   OH2 1025   1.001   4.189   4.367  0.8131  0.1695 -0.4483
  340TIP3    H1 1026   1.077   4.239   4.395 -0.0115  1.2297 -0.0290
  340TIP3    H2 1027   1.016   4.101   4.403  1.6258  0.4785 -0.0022
  341TIP3   OH2 1028   1.498   1.608   4.985  0.3687  0.3850 -0.1344
  341TIP3    H1 1029   1.471   1.569   5.068 -0.1385  1.4653  0.2167
  341TIP3    H2 1030   1.431   1.581   4.923  0.3014  0.2619 -0.0098
  342TIP3   OH2 1031   2.858   0.751   0.573  0.3459 -0.3716 -0.4428
  342TIP3    H1 1032   2.946   0.785   0.592  0.1703  1.5711 -2.6093
  342TIP3    H2 1033   2.853   0.669   0.622  2.3997  0.6884  1.7670
  343TIP3   OH2 1034   5.882   4.082   3.251  0.0967  0.1669 -0.0102
  343TIP3    H1 1035   5.810   4.100   3.192 -0.7373 -2.0684  0.2146
  343TIP3    H2 1036   5.868   4.140   3.326 -0.6430  0.7586 -0.6053
  344TIP3   OH2 1037   5.062   0.138   2.526 -0.2522 -0.3652  0.6648
  344TIP3    H1 1038   5.035   0.228   2.546  0.2316 -0.5839  2.4577
  344TIP3    H2 1039   5.059   0.133   2.430  2.0842  2.3484  0.3064
  345TIP3   OH2 1040   4.200   0.238   4.346  0.4706  0.3788 -0.6410
  345TIP3    H1 1041   4.174   0.282   4.426 -0.6765  0.8005 -1.2170
  345TIP3    H2 1042   4.207   0.145   4.370 -0.8240  0.3603 -0.2647
  346TIP3   OH2 1043   1.492   4.258   3.900 -0.4635  0.3950 -0.2039
  346TIP3    H1 1044   1.415   4.216   3.939 -0.0359  1.2244  1.6210
  346TIP3    H2 1045   1.550   4.185   3.878 -0.2749 -0.1120  1.7367
  347TIP3   OH2 1046   5.061   0.139   4.671 -0.4641 -0.2008  0.1889
  347TIP3    H1 1047   5.062   0.061   4.726  1.2570 -1.5056 -1.5339
  347TIP3    H2 1048   5.131   0.124   4.607  2.3736  4.2277  1.7316
  348TIP3   OH2 1049   1.779   3.652   4.641  0.2894  0.1919 -0.0214
  348TIP3    H1 1050   1.752   3.568   4.680 -0.6576  0.6434  0.3251
  348TIP3    H2 1051   1.698   3.700   4.629  0.9672  2.0300  2.0300
  349TIP3   OH2 1052   0.580   0.321   1.220  0.1719  0.2328  0.1317
  349TIP3    H1 1053   0.558   0.281   1.303 -0.1108  1.0145  0.4431
  349TIP3    H2 1054   0.526   0.275   1.155  0.6328 -0.5957  0.3261
  350TIP3   OH2 1055   3.232   5.847   0.569 -0.1983 -0.4455 -0.1092
  350TIP3    H1 1056   3.140   5.858   0.544 -0.0402 -1.0098 -0.9740
  350TIP3    H2 1057   3.267   5.785   0.504  0.8170 -0.1446  0.1425
  351TIP3   OH2 1058   4.985   4.089   3.828  0.2353 -0.0267  0.1401
  351TIP3    H1 1059   5.070   4.070   3.869  0.1759 -0.6790 -0.0414
  351TIP3    H2 1060   4.960   4.008   3.784  0.0230  0.4914 -0.7183
  352TIP3   OH2 1061   1.434   2.156   1.326 -0.1754 -0.1699 -0.3691
  352TIP3    H1 1062   1.427   2.245   1.292  0.5801  0.9894  2.2656
  352TIP3    H2 1063   1.349   2.140   1.369  0.4695  0.1838  1.0853
  353TIP3   OH2 1064   1.528   4.387   2.462  0.1191  0.1612  0.1427
  353TIP3    H1 1065   1.544   4.298   2.430 -0.5110  0.7771 -2.1001
  353TIP3    H2 1066   1.578   4.443   2.402  0.2953  1.3434  1.3516
  354TIP3   OH2 1067   4.435   5.907   2.093 -0.2036 -0.2763  0.1781
  354TIP3    H1 1068   4.374   5.958   2.040  1.3871  1.2102 -0.3015
  354TIP3    H2 1069   4.463   5.968   2.161  2.6021 -0.0695 -1.0604
  355TIP3   OH2 1070   0.947   3.374   0.773 -0.0175 -0.2437  0.5839
  355TIP3    H1 1071   1.036   3.385   0.740  0.8875 -0.4345  2.7399
  355TIP3    H2 1072   0.935   3.279   0.776  0.6187 -0.3048  2.3853
  356TIP3   OH2 1073   5.810   3.262   4.766  0.1164 -0.0830  0.0031
  356TIP3    H1 1074   5.715   3.258   4.755  0.2590 -1.2554 -1.0689
  356TIP3    H2 1075   5.832   3.185   4.818  0.5314 -0.0684 -0.1453
  357TIP3   OH2 1076   4.501   1.568   3.775  0.4855  0.3854  0.4274
  357TIP3    H1 1077   4.452   1.650   3.767  0.9300  0.7592  1.3154
  357TIP3    H2 1078   4.493   1.527   3.690  2.4390  2.5799 -0.9401
  358TIP3   OH2 1079   2.225   1.244   3.471 -0.3393  0.6731 -0.2965
  358TIP3    H1 1080   2.169   1.175   3.435  1.4792 -1.3847  0.5713
  358TIP3    H2 1081   2.165   1.301   3.519 -1.8769 -0.5913 -0.6252
  359TIP3   OH2 1082   6.171   2.925   3.711 -0.1237 -0.4755 -0.3136
  359TIP3    H1 1083   6.244   2.985   3.715 -0.6281  0.1383 -0.1661
  359TIP3    H2 1084   6.150   2.905   3.803 -2.1702  1.8902 -0.1570
  360TIP3   OH2 1085   0.503   5.955   2.886  0.7125  0.9082  0.3538
  360TIP3    H1 1086   0.447   5.908   2.948 -0.3459  0.9109 -0.5787
  360TIP3    H2 1087   0.521   5.891   2.817  0.6597  1.3538 -0.0782
  361TIP3   OH2 1088   3.250   0.257   1.198 -0.3606 -0.0755  0.2107
  361TIP3    H1 1089   3.272   0.335   1.248  0.3747 -0.7494  0.9656
  361TIP3    H2 1090   3.266   0.184   1.258 -0.0959 -0.8714 -0.7919
  362TIP3   OH2 1091   2.261   4.463   1.351  0.1008  0.0078 -0.4870
  362TIP3    H1 1092   2.176   4.441   1.390  0.5880  0.6582  1.0493
  362TIP3    H2 1093   2.324   4.412   1.401  0.8278  1.4772  0.1603
  363TIP3   OH2 1094   4.574   3.037   3.107 -0.1320  0.6295 -0.4657
  363TIP3    H1 1095   4.521   2.958   3.103  0.4623  0.0344  1.8374
  363TIP3    H2 1096   4.664   3.005   3.121  0.2980  1.6845 -0.7218
  364TIP3   OH2 1097   3.893   1.583   4.499  0.2560  0.3782 -0.0149
  364TIP3    H1 1098   3.827   1.516   4.514  0.8512 -0.0739  0.6305
  364TIP3    H2 1099   3.857   1.662   4.541  0.2285  0.0816  0.5147
  365TIP3   OH2 1100   5.117   4.250   1.761 -0.5722  0.3589 -0.7068
  365TIP3    H1 1101   5.104   4.338   1.795 -3.0792  0.6652 -2.1726
  365TIP3    H2 1102   5.112   4.193   1.838 -0.3347  1.3765  0.0782
  366TIP3   OH2 1103   2.883   3.675   4.089 -0.8192  0.0198  0.2912
  366TIP3    H1 1104   2.926   3.589   4.089  1.2290  0.9835 -1.1582
  366TIP3    H2 1105   2.799   3.660   4.046  0.4395 -0.8995 -2.0200
  367TIP3   OH2 1106   5.511   4.232   3.965 -0.3402 -0.6187  0.2562
  367TIP3    H1 1107   5.492   4.144   3.932 -1.1500 -0.6993  0.9211
  367TIP3    H2 1108   5.427   4.277   3.963  0.3618  0.7361 -1.7367
  368TIP3   OH2 1109   4.832   1.850   4.460  0.1023  0.3242 -0.1883
  368TIP3    H1 1110   4.858   1.793   4.387  1.1287  0.7801 -0.1850
  368TIP3    H2 1111   4.823   1.937   4.421  2.3281  0.9244  0.5095
  369TIP3   OH2 1112   1.335   3.162   1.342  0.7639  0.0027  0.1078
  369TIP3    H1 1113   1.405   3.097   1.349 -1.3280 -2.6490 -1.4983
  369TIP3    H2 1114   1.260   3.113   1.307 -0.9645  3.3393 -1.3468
  370TIP3   OH2 1115   4.503   4.039   4.340  0.5625 -0.2013  0.5065
  370TIP3    H1 1116   4.438   4.037   4.410 -0.0743  0.7758 -0.0430
  370TIP3    H2 1117   4.507   4.130   4.312  2.3102 -0.2051  0.6433
  371TIP3   OH2 1118   5.521   5.820   5.026  0.6733 -0.3464 -0.3500
  371TIP3    H1 1119   5.557   5.875   5.096 -0.2613  1.4572 -1.2289
  371TIP3    H2 1120   5.455   5.766   5.070  1.4563 -0.6467  0.4874
  372TIP3   OH2 1121   5.456   2.494   4.812  0.2746  0.2540 -0.7153
  372TIP3    H1 1122   5.428   2.439   4.885  1.5820 -0.4993 -0.7598
  372TIP3    H2 1123   5.445   2.584   4.845 -1.3370 -0.0172 -0.4461
  373TIP3   OH2 1124   5.422   4.749   1.470 -0.1074 -0.0298  0.3243
  373TIP3    H1 1125   5.402   4.661   1.439  3.5193 -1.3524  1.2810
  373TIP3    H2 1126   5.366   4.762   1.546 -0.5721 -1.5900  0.2609
  374TIP3   OH2 1127   6.268   1.915   2.139  0.1640  0.2611 -0.2432
  374TIP3    H1 1128   6.313   1.931   2.056 -0.0258  0.4590 -0.3085
  374TIP3    H2 1129   6.298   1.986   2.197  1.5193 -0.7555  0.3595
  375TIP3   OH2 1130   1.672   3.246   3.410  0.4476 -0.2464 -0.7706
  375TIP3    H1 1131   1.623   3.176   3.367 -0.0302 -1.8384  2.1385
  375TIP3    H2 1132   1.607   3.292   3.464  1.9664 -3.3202  4.3521
  376TIP3   OH2 1133   3.647   3.820   3.686  0.3169 -0.0565  0.1102
  376TIP3    H1 1134   3.738   3.815   3.655  0.0243 -1.1524 -0.6304
  376TIP3    H2 1135   3.597   3.847   3.609  0.0504  0.9456  0.6189
  377TIP3   OH2 1136   3.441   1.072   2.043  0.2398 -0.3094 -0.3994
  377TIP3    H1 1137   3.434   1.055   2.137 -1.7696  1.2401 -0.1833
  377TIP3    H2 1138   3.487   0.996   2.008 -1.0987 -2.0983  1.4850
  378TIP3   OH2 1139   2.019   3.138   0.656  0.5656  0.2282  0.2468
  378TIP3    H1 1140   2.088   3.086   0.615  0.6328  0.2964  0.2737
  378TIP3    H2 1141   2.061   3.177   0.733  0.1475 -0.7513  0.9836
  379TIP3   OH2 1142   0.060   1.811   4.294  0.6333 -0.2971  0.1275
  379TIP3    H1 1143   0.124   1.881   4.310 -0.7736  0.7134  1.6012
  379TIP3    H2 1144   0.099   1.759   4.223  2.8855  0.5074  0.6730
  380TIP3   OH2 1145   3.019   0.908   2.694  0.0859  1.1119 -0.0190
  380TIP3    H1 1146   2.954   0.931   2.628  0.2302 -0.3712 -0.7279
  380TIP3    H2 1147   3.098   0.955   2.667  0.6784 -0.8265 -2.0368
  381TIP3   OH2 1148   0.308   1.977   2.039  0.6281  0.0125  0.3351
  381TIP3    H1 1149   0.319   2.059   1.992  1.2702  0.7029  1.6608
  381TIP3    H2 1150   0.226   1.940   2.004  1.2210  0.3502 -1.4942
  382TIP3   OH2 1151   0.815   4.285   0.691 -0.6917  0.5968 -0.3309
  382TIP3    H1 1152   0.840   4.349   0.757 -1.2926  0.4229  0.0758
  382TIP3    H2 1153   0.745   4.328   0.641  0.2403  1.0032 -1.3278
  383TIP3   OH2 1154   4.283   0.614   0.586 -0.5753  0.1345 -0.5908
  383TIP3    H1 1155   4.313   0.527   0.613 -1.2356 -0.9283 -2.9591
  383TIP3    H2 1156   4.296   0.669   0.663  0.3720 -1.9287  0.8282
  384TIP3   OH2 1157   2.885   4.458   3.589 -0.1629 -0.2685  0.0444
  384TIP3    H1 1158   2.850   4.402   3.658  0.7611 -0.5836  0.2739
  384TIP3    H2 1159   2.813   4.516   3.566 -0.4138  0.0266  1.4695
  385TIP3   OH2 1160   3.967   4.584   1.006 -0.2456  0.1845 -0.0580
  385TIP3    H1 1161   3.982   4.679   1.012 -0.3748  0.2835 -1.0820
  385TIP3    H2 1162   4.046   4.550   0.966 -0.6866  0.0379 -0.8359
  386TIP3   OH2 1163   5.317   2.875   3.852  0.3934  0.3915 -0.4159
  386TIP3    H1 1164   5.340   2.927   3.929 -0.4857  1.1915 -0.6788
  386TIP3    H2 1165   5.303   2.939   3.783 -0.4426 -0.2086 -0.8190
  387TIP3   OH2 1166   0.153   3.718   2.832 -0.3403  0.1086  0.1083
  387TIP3    H1 1167   0.117   3.634   2.804  0.2107 -0.0764 -0.0552
  387TIP3    H2 1168   0.089   3.783   2.802  0.3534 -0.0488 -1.8554
  388TIP3   OH2 1169   0.948   1.606   0.738  0.2184  0.0767  0.2662
  388TIP3    H1 1170   1.039   1.633   0.727  0.4120 -1.1006 -1.4243
  388TIP3    H2 1171   0.949   1.512   0.723 -1.4227  0.2055 -0.9096
  389TIP3   OH2 1172   5.995   3.718   1.872 -0.1502  0.1496 -1.1672
  389TIP3    H1 1173   5.918   3.675   1.833  0.3212 -0.4072 -1.5012
  389TIP3    H2 1174   5.969   3.809   1.884 -0.3953  0.2731 -2.5509
  390TIP3   OH2 1175   4.931   2.502   3.715 -0.7756 -0.1360 -0.5261
  390TIP3    H1 1176   4.883   2.461   3.786  1.1007  0.3169  1.0953
  390TIP3    H2 1177   4.870   2.502   3.641 -3.7849  1.6835  1.7420
  391TIP3   OH2 1178   1.134   3.045   3.234 -0.2393  0.0362 -0.3341
  391TIP3    H1 1179   1.196   3.116   3.251 -0.5425  0.1025  0.6011
  391TIP3    H2 1180   1.060   3.088   3.191 -0.3470  0.2756  0.0728
  392TIP3   OH2 1181   6.177   5.751   1.428  0.2354 -0.0703 -0.4517
  392TIP3    H1 1182   6.255   5.706   1.394  1.5354  1.8743 -0.2268
  392TIP3    H2 1183   6.143   5.800   1.354  0.7669  1.1021  0.0570
  393TIP3   OH2 1184   2.351   2.709   4.013  0.1194 -0.3180 -0.2699
  393TIP3    H1 1185   2.339   2.720   4.107 -3.0721 -3.5233 -0.0601
  393TIP3    H2 1186   2.444   2.693   4.001  0.6618  0.5906  2.2488
  394TIP3   OH2 1187   2.358   5.365   1.825 -0.1282 -0.0948  0.2406
  394TIP3    H1 1188   2.263   5.372   1.828 -0.2870 -2.1542  2.0494
  394TIP3    H2 1189   2.376   5.271   1.826  1.9349  0.1869 -1.8818
  395TIP3   OH2 1190   0.553   5.122   0.908  0.2162  0.7578  0.6035
  395TIP3    H1 1191   0.520   5.180   0.840 -0.6652  0.2518  0.5845
  395TIP3    H2 1192   0.635   5.087   0.873 -0.3894  0.2574 -0.3372
  396TIP3   OH2 1193   6.086   5.533   1.679  0.5779  0.1607 -0.3060
  396TIP3    H1 1194   6.030   5.469   1.722  0.4443  0.2801 -0.3036
  396TIP3    H2 1195   6.167   5.532   1.730  0.7041 -0.2563 -0.5123
  397TIP3   OH2 1196   0.520   2.908   1.267 -0.0610  0.1973  0.5214
  397TIP3    H1 1197   0.596   2.863   1.304  2.5564  2.1486 -2.0174
  397TIP3    H2 1198   0.542   2.919   1.174 -3.6417  0.5943 -0.4155
  398TIP3   OH2 1199   0.405   4.510   3.747 -0.4547 -0.0771  0.1181
  398TIP3    H1 1200   0.497   4.512   3.772 -1.0043  3.1233  2.5188
  398TIP3    H2 1201   0.359   4.478   3.825 -1.5615  1.4243  0.1341
  399TIP3   OH2 1202   1.959   1.412   1.881  0.5432  0.3372 -0.6427
  399TIP3    H1 1203   1.880   1.458   1.853  1.0608  1.1606 -0.7899
  399TIP3    H2 1204   1.931   1.357   1.954 -0.1397  0.7116 -0.6225
  400TIP3   OH2 1205   5.947   5.425   1.906  0.0063  0.3300  0.2280
  400TIP3    H1 1206   5.899   5.352   1.946 -0.0698 -0.0984 -0.6215
  400TIP3    H2 1207   5.881   5.493   1.894  0.6128  1.7084  3.6474
  401TIP3   OH2 1208   4.649   3.080   2.219 -0.0248 -0.0380 -0.5476
  401TIP3    H1 1209   4.643   3.031   2.301  0.2853  1.5664  0.4846
  401TIP3    H2 1210   4.572   3.053   2.169  0.0449 -1.4090  0.0615
  402TIP3   OH2 1211   1.318   5.950   1.021 -0.3011  0.1774  0.4274
  402TIP3    H1 1212   1.389   5.985   1.074 -0.9782  0.1261  1.3859
  402TIP3    H2 1213   1.299   5.864   1.059 -0.2600 -0.2191 -0.4099
  403TIP3   OH2 1214   1.837   0.589   2.471  0.1074  0.2365  0.0020
  403TIP3    H1 1215   1.874   0.661   2.419 -0.5274 -0.6763 -1.7804
  403TIP3    H2 1216   1.793   0.633   2.544  2.6669  1.4658  0.9480
  404TIP3   OH2 1217   5.186   3.594   1.407  0.1096  0.3718  0.1195
  404TIP3    H1 1218   5.221   3.680   1.432  1.1829 -0.0615  0.1893
  404TIP3    H2 1219   5.095   3.610   1.385  0.3426  1.5649 -0.0416
  405TIP3   OH2 1220   3.917   1.435   1.590  0.2740 -0.2141  0.5004
  405TIP3    H1 1221   3.890   1.371   1.524 -0.2909  0.8636 -0.3409
  405TIP3    H2 1222   4.012   1.423   1.598 -0.2018 -3.7923  3.2114
  406TIP3   OH2 1223   3.515   5.114   3.845  0.3871 -0.1779  0.1507
  406TIP3    H1 1224   3.465   5.033   3.850  0.6981 -0.3521  0.4774
  406TIP3    H2 1225   3.580   5.099   3.776  1.2043 -0.6432  0.9916
  407TIP3   OH2 1226   1.991   2.159   4.840  0.1385 -0.3631 -0.2711
  407TIP3    H1 1227   1.976   2.113   4.922 -1.0644  1.4151  0.5650
  407TIP3    H2 1228   1.958   2.248   4.855  1.2967  0.4709 -2.1782
  408TIP3   OH2 1229   1.366   3.463   1.292  0.7042  0.3576  0.0433
  408TIP3    H1 1230   1.296   3.452   1.357 -0.4250 -0.7483 -1.2905
  408TIP3    H2 1231   1.447   3.462   1.343 -0.2217  1.8267  1.6530
  409TIP3   OH2 1232   0.776   1.086   2.287 -0.0378 -0.0824  0.3280
  409TIP3    H1 1233   0.685   1.116   2.291 -0.6837 -1.9933  0.5881
  409TIP3    H2 1234   0.806   1.089   2.378 -0.6452 -1.7415  0.6117
  410TIP3   OH2 1235   5.371   0.671   5.051  0.1531  0.2748 -0.5845
  410TIP3    H1 1236   5.307   0.642   5.115 -0.3533 -0.4311 -1.3936
  410TIP3    H2 1237   5.396   0.592   5.003  0.3123  0.8233 -1.4414
  411TIP3   OH2 1238   1.681   1.355   4.775  0.0903  0.3044  0.1649
  411TIP3    H1 1239   1.644   1.269   4.798  0.8188 -0.0509  0.0562
  411TIP3    H2 1240   1.769   1.335   4.744  0.1492  1.0685 -0.1786
  412TIP3   OH2 1241   3.723   3.298   4.888 -0.0837 -0.0158  0.8706
  412TIP3    H1 1242   3.716   3.354   4.810 -0.6300  1.3424  1.8452
  412TIP3    H2 1243   3.789   3.341   4.942 -0.4444 -0.3623  1.5964
  413TIP3   OH2 1244   3.669   3.685   2.782 -0.1244  0.2367 -0.1655
  413TIP3    H1 1245   3.608   3.612   2.793  1.0942 -0.7022  0.4981
  413TIP3    H2 1246   3.683   3.690   2.687 -0.7419  0.0688 -0.2720
  414TIP3   OH2 1247   4.061   3.023   0.926 -0.0728  0.1846 -0.6216
  414TIP3    H1 1248   3.968   3.016   0.948  0.5272 -0.3870  1.9831
  414TIP3    H2 1249   4.092   3.097   0.978  0.8240  0.8646 -2.0524
  415TIP3   OH2 1250   1.707   4.448   2.924 -0.1581  0.2410  0.0980
  415TIP3    H1 1251   1.648   4.382   2.960  0.4129 -0.7352 -0.7328
  415TIP3    H2 1252   1.735   4.412   2.840  2.9539 -0.1037  1.1735
  416TIP3   OH2 1253   1.265   1.385   1.662 -0.0930 -0.3530 -0.2134
  416TIP3    H1 1254   1.319   1.430   1.727 -0.6966 -0.7280  0.5636
  416TIP3    H2 1255   1.175   1.401   1.691 -0.3254 -2.5806  0.4693
  417TIP3   OH2 1256   1.447   0.522   1.567  0.2645  0.4423  1.0273
  417TIP3    H1 1257   1.400   0.505   1.649  2.0590  2.3704  2.5522
  417TIP3    H2 1258   1.484   0.609   1.578  0.4672  0.8328 -1.9433
  418TIP3   OH2 1259   5.360   5.683   2.237 -0.4359 -0.0045  1.1091
  418TIP3    H1 1260   5.281   5.644   2.276 -0.9282 -1.3489 -1.0828
  418TIP3    H2 1261   5.382   5.625   2.164  2.2185  0.7306  1.2530
  419TIP3   OH2 1262   0.743   5.760   3.150 -0.1790  0.6334  0.0060
  419TIP3    H1 1263   0.808   5.731   3.214  0.6830 -0.7083 -1.4068
  419TIP3    H2 1264   0.687   5.683   3.137 -1.6064  1.5227  0.5948
  420TIP3   OH2 1265   0.856   2.015   4.890 -0.0457  0.5742  0.4831
  420TIP3    H1 1266   0.941   2.056   4.908  0.1888  0.5674 -0.5103
  420TIP3    H2 1267   0.850   2.014   4.794 -0.7351 -0.3231  0.5177
  421TIP3   OH2 1268   4.220   3.885   0.125  0.3273 -0.3599 -0.4537
  421TIP3    H1 1269   4.265   3.809   0.089 -0.8917 -1.0171 -0.6486
  421TIP3    H2 1270   4.134   3.884   0.083  0.2161  1.0223 -0.3152
  422TIP3   OH2 1271   5.920   5.711   3.846 -0.1125 -0.0677 -0.4555
  422TIP3    H1 1272   5.897   5.763   3.924  0.0073 -2.4563  1.2856
  422TIP3    H2 1273   6.009   5.738   3.825  0.2429 -0.1095  0.9066
  423TIP3   OH2 1274   6.355   0.602   3.632  0.0957 -0.6449 -0.3660
  423TIP3    H1 1275   6.274   0.589   3.681 -1.0858  0.2245 -2.0106
  423TIP3    H2 1276   6.393   0.682   3.671  0.0134 -0.8695  0.1863
  424TIP3   OH2 1277   3.569   0.177   2.124 -0.7005 -0.0964  0.4891
  424TIP3    H1 1278   3.642   0.176   2.061  0.6177  0.9583  1.9203
  424TIP3    H2 1279   3.495   0.211   2.073  0.6208  1.8760 -0.2618
  425TIP3   OH2 1280   5.794   1.349   0.250  1.1780  0.0968 -0.0835
  425TIP3    H1 1281   5.731   1.277   0.239  0.4564  0.5634  0.8399
  425TIP3    H2 1282   5.768   1.412   0.183 -0.3062  0.9246  1.1915
  426TIP3   OH2 1283  -0.008   4.902   3.817 -0.3551  0.3048 -0.3846
  426TIP3    H1 1284   0.081   4.925   3.792 -0.1713  0.3018  0.2300
  426TIP3    H2 1285  -0.006   4.807   3.830 -0.3950  0.3286 -0.1894
  427TIP3   OH2 1286   3.779   2.752   1.822  0.1301 -0.7196  0.3926
  427TIP3    H1 1287   3.856   2.805   1.803 -0.2552 -0.4509 -0.4644
  427TIP3    H2 1288   3.737   2.796   1.896 -0.4692  0.4939 -0.6365
  428TIP3   OH2 1289   5.335   0.567   3.078 -0.5635 -0.7184  0.0969
  428TIP3    H1 1290   5.382   0.488   3.104  0.3532 -0.3533 -0.4364
  428TIP3    H2 1291   5.249   0.535   3.051 -0.2878 -1.5052  0.1186
  429TIP3   OH2 1292   0.484   4.618   1.752 -0.3223  0.1281  0.4767
  429TIP3    H1 1293   0.472   4.663   1.836  1.0056 -0.1822  0.8579
  429TIP3    H2 1294   0.575   4.590   1.753  0.3998  2.0348 -2.0405
  430TIP3   OH2 1295   0.756   0.445   4.323 -0.3257  0.0990 -0.3839
  430TIP3    H1 1296   0.706   0.369   4.354 -0.4634  0.7054  0.9871
  430TIP3    H2 1297   0.691   0.499   4.277 -0.8366  0.5805  0.8465
  431TIP3   OH2 1298   2.894   0.924   4.027  0.0345 -0.0299 -0.4685
  431TIP3    H1 1299   2.988   0.926   4.045  0.1435 -3.5470  0.1941
  431TIP3    H2 1300   2.853   0.913   4.113 -0.9958  1.2731 -0.7715
  432TIP3   OH2 1301   0.024   2.863   1.642  0.2349  0.2297 -0.0910
  432TIP3    H1 1302   0.018   2.786   1.585  0.2522  0.3719 -0.2899
  432TIP3    H2 1303  -0.036   2.845   1.714 -0.0993  0.2237 -0.3681
  433TIP3   OH2 1304   4.419   3.354   1.457  0.1071  0.5526  0.1176
  433TIP3    H1 1305   4.442   3.280   1.401 -0.4105 -0.3783  1.0984
  433TIP3    H2 1306   4.327   3.338   1.481  0.7435  0.0758  2.4564
  434TIP3   OH2 1307   2.316   5.489   2.781  0.6069  0.0124 -0.1113
  434TIP3    H1 1308   2.325   5.406   2.734 -0.2047 -0.1774  0.0557
  434TIP3    H2 1309   2.321   5.555   2.712 -0.9685 -0.2816 -0.5626
  435TIP3   OH2 1310   1.598   2.272   5.057 -0.3270 -0.0098  0.2595
  435TIP3    H1 1311   1.527   2.324   5.095  0.5670  0.6620  1.0722
  435TIP3    H2 1312   1.623   2.211   5.127  1.3154  1.2177  0.8030
  436TIP3   OH2 1313   0.521   1.467   4.671  0.1376 -0.0573  0.0328
  436TIP3    H1 1314   0.585   1.412   4.715  0.8082  1.0322  0.4627
  436TIP3    H2 1315   0.509   1.542   4.729  0.5981  1.1197 -1.3037
  437TIP3   OH2 1316   5.390   3.173   3.516  0.1534 -0.0526 -0.2135
  437TIP3    H1 1317   5.359   3.185   3.426  1.3816 -0.6406 -0.7423
  437TIP3    H2 1318   5.310   3.171   3.568 -0.6562 -0.5871 -1.4056
  438TIP3   OH2 1319   5.347   4.468   2.377 -0.0257  0.0901 -0.1202
  438TIP3    H1 1320   5.341   4.414   2.297 -1.3181 -1.5631  1.0200
  438TIP3    H2 1321   5.341   4.558   2.345 -0.4337 -0.5159 -1.9000
  439TIP3   OH2 1322   0.198   5.651   3.756  0.0232 -0.0645 -0.3615
  439TIP3    H1 1323   0.195   5.559   3.785  1.6059 -0.8318 -2.4462
  439TIP3    H2 1324   0.106   5.674   3.744 -0.4488 -1.1307  0.8492
  440TIP3   OH2 1325   0.811   4.745   1.471  0.5768  0.2534  0.1136
  440TIP3    H1 1326   0.800   4.840   1.468 -0.4782  0.1470  0.3336
  440TIP3    H2 1327   0.723   4.710   1.460  0.6358 -0.6715  2.2136
  441TIP3   OH2 1328   2.130   3.352   2.483 -0.2786  0.0857  0.3796
  441TIP3    H1 1329   2.120   3.278   2.423  1.5237  0.1515 -0.0580
  441TIP3    H2 1330   2.223   3.354   2.505 -0.6522  0.9123  2.1219
  442TIP3   OH2 1331   2.487   3.700   2.003 -0.8538  0.5322  0.0338
  442TIP3    H1 1332   2.571   3.705   2.049 -0.5801  0.3329 -0.4291
  442TIP3    H2 1333   2.493   3.621   1.950 -0.8898  1.0983 -0.8524
  443TIP3   OH2 1334   3.078   0.842   4.382  0.2793  0.2775 -0.3781
  443TIP3    H1 1335   3.098   0.933   4.405 -0.4859  0.0200  1.4618
  443TIP3    H2 1336   2.983   0.838   4.382  0.3082 -0.5770 -0.2178
  444TIP3   OH2 1337   3.162   0.422   4.742 -0.4900 -0.2823  0.1524
  444TIP3    H1 1338   3.252   0.394   4.728 -1.0310 -2.9164  1.3525
  444TIP3    H2 1339   3.158   0.444   4.836 -0.6767  1.7259 -0.2791
  445TIP3   OH2 1340   0.012   1.276   1.329 -0.5304  0.3414 -0.4801
  445TIP3    H1 1341   0.103   1.248   1.323 -0.8101 -0.6962 -0.0525
  445TIP3    H2 1342  -0.016   1.285   1.238 -0.5787 -1.2882 -0.6466
  446TIP3   OH2 1343   6.006   4.151   2.948  0.2383  0.0502  0.3978
  446TIP3    H1 1344   5.944   4.079   2.934  0.9578 -0.8259  1.5092
  446TIP3    H2 1345   5.991   4.178   3.039  1.7390 -0.4506  0.8190
  447TIP3   OH2 1346   4.237   3.034   1.279 -0.1723  0.6020  0.3076
  447TIP3    H1 1347   4.210   2.948   1.311 -0.4332  0.2972 -0.7085
  447TIP3    H2 1348   4.327   3.021   1.249 -1.0721 -0.0435 -2.3760
  448TIP3   OH2 1349   4.813   5.277   4.890 -0.0467 -0.2554  0.0191
  448TIP3    H1 1350   4.812   5.184   4.915  0.0830 -0.7959 -1.8495
  448TIP3    H2 1351   4.811   5.324   4.974  0.1855 -1.9322  1.0176
  449TIP3   OH2 1352   2.039   5.034   1.149 -0.1054 -0.3330 -0.2290
  449TIP3    H1 1353   2.073   5.123   1.149 -0.3949 -0.2158 -0.8583
  449TIP3    H2 1354   2.118   4.979   1.152  0.2795 -0.0750 -2.9066
  450TIP3   OH2 1355   1.656   4.908   3.767 -0.0742 -0.1614 -0.0300
  450TIP3    H1 1356   1.708   4.828   3.761  1.2596  0.6848 -0.0635
  450TIP3    H2 1357   1.710   4.976   3.727 -1.1813  0.7778 -0.0155
  451TIP3   OH2 1358   3.843   0.244   0.139 -0.6269 -0.4167 -0.1956
  451TIP3    H1 1359   3.922   0.269   0.187 -1.1104 -1.4214  1.1937
  451TIP3    H2 1360   3.858   0.275   0.050  1.6141 -1.1512 -0.1347
  452TIP3   OH2 1361   3.323   3.130   4.901 -0.1637 -0.2256 -0.3568
  452TIP3    H1 1362   3.272   3.151   4.979  0.2726  2.0708 -0.6150
  452TIP3    H2 1363   3.332   3.035   4.903 -2.6180 -0.5050  0.8174
  453TIP3   OH2 1364   0.393   2.051   2.995 -0.2692  0.2589  0.2876
  453TIP3    H1 1365   0.360   2.117   2.934 -0.5178 -0.4333 -0.3415
  453TIP3    H2 1366   0.435   2.101   3.064 -1.1405  1.1028  0.2218
  454TIP3   OH2 1367   5.014   1.573   4.914  0.1752 -0.6584 -0.0122
  454TIP3    H1 1368   4.988   1.611   4.830 -0.6296 -0.0572  0.4958
  454TIP3    H2 1369   5.068   1.640   4.955 -1.5328  0.1464  1.0346
  455TIP3   OH2 1370   5.852   0.013   3.875 -0.4526  0.1786  0.0254
  455TIP3    H1 1371   5.804   0.085   3.917 -1.1635 -0.1271 -0.2340
  455TIP3    H2 1372   5.876   0.047   3.789 -0.0620  0.3899  0.2186
  456TIP3   OH2 1373   4.632   1.418   1.928 -0.2404 -0.1641  0.3725
  456TIP3    H1 1374   4.611   1.325   1.933 -1.8892  0.1353 -0.2190
  456TIP3    H2 1375   4.633   1.448   2.019 -1.5962 -0.3867  0.4741
  457TIP3   OH2 1376   1.544   0.489   4.772 -0.0549 -0.2816  0.1077
  457TIP3    H1 1377   1.592   0.528   4.699  0.6929 -0.9613  0.2251
  457TIP3    H2 1378   1.461   0.461   4.733 -0.7374  1.6102  0.0748
  458TIP3   OH2 1379   0.484   5.135   1.878  0.8042  0.3681  0.0120
  458TIP3    H1 1380   0.559   5.194   1.889  0.2104  1.2381 -0.5119
  458TIP3    H2 1381   0.467   5.101   1.966  0.0544  2.3621  0.6793
  459TIP3   OH2 1382   2.806   1.290   3.561  0.5745  0.5364 -0.1008
  459TIP3    H1 1383   2.887   1.253   3.596  0.9097  1.5341  0.2161
  459TIP3    H2 1384   2.737   1.237   3.600  1.0604 -0.1265 -0.1304
  460TIP3   OH2 1385   0.845   3.212   0.177  0.1304  0.0261 -0.2996
  460TIP3    H1 1386   0.833   3.254   0.262  0.3953  0.7892 -0.6285
  460TIP3    H2 1387   0.938   3.226   0.157  0.7872 -2.6078  0.5635
  461TIP3   OH2 1388   3.042   5.298   3.738  0.1628 -0.0788 -0.1209
  461TIP3    H1 1389   3.136   5.305   3.756  0.3047  1.0322 -1.1019
  461TIP3    H2 1390   3.027   5.361   3.668 -1.6368  1.0503  1.1802
  462TIP3   OH2 1391   3.202   2.713   3.225  0.0847 -0.0744 -0.4526
  462TIP3    H1 1392   3.244   2.748   3.303 -2.3090  0.0013  0.9208
  462TIP3    H2 1393   3.248   2.631   3.207  2.0705  0.9596 -0.2887
  463TIP3   OH2 1394   3.536   1.390   1.476  0.2095  0.2021  0.0344
  463TIP3    H1 1395   3.585   1.355   1.550 -1.3250  1.8923  1.9841
  463TIP3    H2 1396   3.604   1.415   1.413  1.4882 -2.8545  0.0254
  464TIP3   OH2 1397   0.904   1.356   2.992  0.1612  0.0062 -0.0552
  464TIP3    H1 1398   0.878   1.280   2.941  1.2446 -0.5352  0.1664
  464TIP3    H2 1399   0.934   1.321   3.075 -1.4955  0.8793  0.9461
  465TIP3   OH2 1400   3.680   0.300   2.716 -0.3866  0.1963 -0.5409
  465TIP3    H1 1401   3.671   0.275   2.808 -0.1931  0.7943 -0.3559
  465TIP3    H2 1402   3.771   0.279   2.695 -0.5318 -0.2853 -0.7069
  466TIP3   OH2 1403   0.506   2.065   0.312 -0.2198 -0.0138  0.1648
  466TIP3    H1 1404   0.585   2.027   0.350  0.1804 -0.1273 -0.7559
  466TIP3    H2 1405   0.538   2.130   0.251 -0.8687  0.5366  0.4001
  467TIP3   OH2 1406   3.432   2.080   1.616 -0.0517 -0.4466 -0.0429
  467TIP3    H1 1407   3.440   2.171   1.642  0.2515 -0.4721 -0.0408
  467TIP3    H2 1408   3.356   2.078   1.558 -1.2934 -0.5475  1.5294
  468TIP3   OH2 1409   3.108   0.162   0.532  0.1175 -0.0539  0.0402
  468TIP3    H1 1410   3.062   0.120   0.459  0.1482  0.0981 -0.0684
  468TIP3    H2 1411   3.130   0.091   0.592 -0.0564 -0.1563 -0.0200
  469TIP3   OH2 1412   5.406   5.897   4.151  0.1525 -0.6650 -0.1007
  469TIP3    H1 1413   5.501   5.906   4.139  0.2074 -0.3645  0.5080
  469TIP3    H2 1414   5.386   5.808   4.122  0.6546 -0.8038 -0.0283
  470TIP3   OH2 1415   2.318   5.630   2.052 -0.4640  0.2932  0.0090
  470TIP3    H1 1416   2.307   5.592   2.140  0.2480  0.2406  0.0770
  470TIP3    H2 1417   2.353   5.558   2.000  0.3418  0.6842 -0.0033
  471TIP3   OH2 1418   6.207   3.745   2.817 -0.1822 -0.4187  0.2118
  471TIP3    H1 1419   6.184   3.794   2.896 -1.5557  1.1126 -1.0562
  471TIP3    H2 1420   6.231   3.658   2.848  0.5870  0.5015  2.4085
  472TIP3   OH2 1421   2.398   0.300   4.728  0.2218  0.6273  0.1275
  472TIP3    H1 1422   2.398   0.259   4.814 -0.0485 -0.1685 -0.2427
  472TIP3    H2 1423   2.371   0.390   4.744 -1.0766  0.1483  0.7274
  473TIP3   OH2 1424   3.791   0.790   1.698  0.1414  0.3280  0.3842
  473TIP3    H1 1425   3.741   0.709   1.684 -0.7825  0.9064  0.2588
  473TIP3    H2 1426   3.757   0.851   1.633  0.0953  1.1403  1.1551
  474TIP3   OH2 1427   2.415   5.830   2.354  0.4337  0.0074 -0.3208
  474TIP3    H1 1428   2.397   5.738   2.374 -2.5708  0.7425  0.8705
  474TIP3    H2 1429   2.494   5.851   2.403  0.4795 -1.6216  0.3391
  475TIP3   OH2 1430   2.453   3.439   2.239  0.7840  0.2851 -0.3390
  475TIP3    H1 1431   2.529   3.431   2.296 -1.0553  1.1199  2.4916
  475TIP3    H2 1432   2.399   3.362   2.259 -0.6520  1.4165  0.4131
  476TIP3   OH2 1433   4.773   3.037   3.851  0.3710 -0.3448 -0.1948
  476TIP3    H1 1434   4.733   3.067   3.770  1.5446 -0.0274 -0.6817
  476TIP3    H2 1435   4.782   2.942   3.839 -0.1328 -0.4050 -0.1184
  477TIP3   OH2 1436   6.039   3.026   2.117  0.0824 -0.2862 -0.5973
  477TIP3    H1 1437   6.090   2.989   2.189  0.1443 -1.7460 -1.3665
  477TIP3    H2 1438   6.059   3.120   2.119  0.8859 -0.4702  0.6287
  478TIP3   OH2 1439   2.700   3.040   2.778  0.2257  0.1279 -0.4828
  478TIP3    H1 1440   2.765   2.981   2.740 -1.5878 -0.6210 -2.6155
  478TIP3    H2 1441   2.706   3.120   2.725  1.4842  1.3032  1.3069
  479TIP3   OH2 1442   2.979   5.911   4.247 -0.0809 -0.1705 -0.3299
  479TIP3    H1 1443   2.950   5.864   4.169  0.1284 -0.9649  0.0706
  479TIP3    H2 1444   3.026   5.846   4.299  1.4894  0.8162 -0.4424
  480TIP3   OH2 1445   4.114   1.068   2.609  0.4404 -0.0874  0.2432
  480TIP3    H1 1446   4.023   1.048   2.588  1.0357 -1.7995 -0.9813
  480TIP3    H2 1447   4.153   1.093   2.525  1.4736 -1.1014  0.3864
  481TIP3   OH2 1448   6.162   1.822   3.430  0.1834 -0.1613 -0.0964
  481TIP3    H1 1449   6.154   1.858   3.518 -2.1304 -1.4271  0.3003
  481TIP3    H2 1450   6.170   1.899   3.373 -1.1438  0.8441  1.0064
  482TIP3   OH2 1451   1.121   3.396   0.376  0.3639  0.4865  0.0582
  482TIP3    H1 1452   1.036   3.440   0.383  0.0597 -0.2040  0.8305
  482TIP3    H2 1453   1.133   3.384   0.282  0.0828  1.4914 -0.1238
  483TIP3   OH2 1454   1.133   1.316   2.073  0.5295  0.2734 -0.3123
  483TIP3    H1 1455   1.067   1.247   2.072  1.2278 -0.4492  0.7871
  483TIP3    H2 1456   1.105   1.373   2.145  0.9276  0.1292 -0.0415
  484TIP3   OH2 1457   2.647   1.074   3.683  0.3266 -0.1509  0.0162
  484TIP3    H1 1458   2.609   0.987   3.674 -0.6235  0.1322  1.1268
  484TIP3    H2 1459   2.573   1.134   3.675  1.0044  0.5881 -0.9815
  485TIP3   OH2 1460   1.906   5.281   1.718  0.0302  0.1236  0.5153
  485TIP3    H1 1461   1.971   5.312   1.781 -0.0583  1.0385  0.1717
  485TIP3    H2 1462   1.877   5.361   1.673  0.7041 -0.5984 -1.2780
  486TIP3   OH2 1463   2.632   4.750   1.350  0.2052 -0.2092 -0.1776
  486TIP3    H1 1464   2.639   4.818   1.283 -1.3969 -0.3539 -0.5353
  486TIP3    H2 1465   2.580   4.681   1.309 -1.8273  0.1796  1.5270
  487TIP3   OH2 1466   2.277   3.191   0.249 -0.1528  0.3219  0.5341
  487TIP3    H1 1467   2.260   3.282   0.273 -0.8249  0.4942 -0.5314
  487TIP3    H2 1468   2.367   3.191   0.218  0.1329  0.4457  1.3436
  488TIP3   OH2 1469   3.485   2.304   0.679 -0.4100 -0.0409  0.0172
  488TIP3    H1 1470   3.421   2.310   0.751 -1.7777  1.2416 -1.2253
  488TIP3    H2 1471   3.460   2.375   0.620  0.5438 -1.1809 -1.8316
  489TIP3   OH2 1472   2.268   4.215   4.621  0.2572 -0.6348  0.3227
  489TIP3    H1 1473   2.228   4.204   4.707  0.5923  0.6551  0.6658
  489TIP3    H2 1474   2.222   4.290   4.583  2.0158  0.6477  0.5708
  490TIP3   OH2 1475   4.674   2.286   2.360  0.4529  0.3737  0.4103
  490TIP3    H1 1476   4.698   2.264   2.450 -0.6246 -0.1734  0.5776
  490TIP3    H2 1477   4.751   2.262   2.308  1.9480  2.6721  1.3960
  491TIP3   OH2 1478   2.725   5.222   2.436  0.3679  0.1276  0.3561
  491TIP3    H1 1479   2.766   5.284   2.496  1.4990 -1.5260  1.3850
  491TIP3    H2 1480   2.777   5.230   2.355  0.1454  0.8947  0.2814
  492TIP3   OH2 1481   6.104   3.305   2.191 -0.3109 -1.2219  0.3984
  492TIP3    H1 1482   6.181   3.269   2.234 -0.6000 -2.2205  0.0994
  492TIP3    H2 1483   6.062   3.359   2.258  1.2328  0.2734  0.2341
  493TIP3   OH2 1484   0.135   3.713   4.107 -0.6084  0.1659 -0.4036
  493TIP3    H1 1485   0.165   3.653   4.040  0.7092  0.4059 -0.0653
  493TIP3    H2 1486   0.098   3.657   4.175 -0.6654 -0.1701 -0.7121
  494TIP3   OH2 1487   1.026   0.396   3.177  0.1057 -0.5422  0.1748
  494TIP3    H1 1488   0.951   0.446   3.146  0.3138 -1.0551 -1.2495
  494TIP3    H2 1489   1.055   0.442   3.256 -2.9168 -1.4930  2.0063
  495TIP3   OH2 1490   5.085   3.750   5.024 -0.3160 -0.1032 -0.6013
  495TIP3    H1 1491   5.166   3.747   4.973  1.6630 -0.9535  2.3285
  495TIP3    H2 1492   5.055   3.840   5.015  0.1221 -0.1225 -2.8818
  496TIP3   OH2 1493   0.156   3.375   2.410 -0.5041  0.1342  0.0783
  496TIP3    H1 1494   0.136   3.466   2.388 -3.0509 -0.3577  0.0262
  496TIP3    H2 1495   0.098   3.323   2.355  0.1771 -1.4996  0.8209
  497TIP3   OH2 1496   3.471   2.875   2.010  0.3789  0.0995  0.1662
  497TIP3    H1 1497   3.430   2.959   2.030  0.6862  0.5121 -0.9028
  497TIP3    H2 1498   3.556   2.897   1.973  0.3792 -0.6758 -0.3206
  498TIP3   OH2 1499   0.796   3.585   3.847  0.4518  0.1448  0.9240
  498TIP3    H1 1500   0.842   3.504   3.827  0.4708  0.6779 -1.4638
  498TIP3    H2 1501   0.734   3.597   3.775 -0.1932  1.7774  1.6911
  499TIP3   OH2 1502   5.367   0.481   0.679 -0.2089 -0.2311  0.2410
  499TIP3    H1 1503   5.456   0.466   0.647 -0.0624 -0.5738  0.7879
  499TIP3    H2 1504   5.342   0.566   0.642  0.8451  0.5062  1.1662
  500TIP3   OH2 1505   3.234   5.460   2.975 -0.1390 -0.4042 -0.3966
  500TIP3    H1 1506   3.219   5.481   2.883 -0.4475  2.2933  0.1767
  500TIP3    H2 1507   3.319   5.500   2.995 -0.0286 -1.0505  0.4542
  501TIP3   OH2 1508   5.665   3.748   3.401 -0.6507  0.2260 -0.0988
  501TIP3    H1 1509   5.662   3.803   3.479  0.7032  0.7495 -0.3843
  501TIP3    H2 1510   5.647   3.809   3.329 -1.7659 -0.2289 -0.2178
  502TIP3   OH2 1511   4.890   5.205   1.755 -0.1414  0.1300  0.1045
  502TIP3    H1 1512   4.813   5.254   1.784 -0.4368 -0.0714 -0.3222
  502TIP3    H2 1513   4.856   5.118   1.734  0.1575  0.1172 -0.3312
  503TIP3   OH2 1514   5.898   1.171   4.951 -0.6526  0.3277  0.5976
  503TIP3    H1 1515   5.917   1.078   4.949 -1.2925  0.1961 -0.6889
  503TIP3    H2 1516   5.803   1.176   4.964 -0.8338  0.7290 -0.6776
  504TIP3   OH2 1517   5.552   1.578   0.423  0.3807  0.0450 -0.4752
  504TIP3    H1 1518   5.582   1.669   0.429  0.8215 -0.0281 -1.5209
  504TIP3    H2 1519   5.521   1.569   0.333  1.8164 -1.2871 -0.8741
  505TIP3   OH2 1520   1.235   1.724   0.245  0.2573  0.2799  0.1661
  505TIP3    H1 1521   1.162   1.782   0.224 -0.2738  0.0279  1.2227
  505TIP3    H2 1522   1.255   1.743   0.337 -1.2513 -2.5391  1.2039
  506TIP3   OH2 1523   0.552   3.573   4.560  0.2574  0.3185  0.1120
  506TIP3    H1 1524   0.581   3.561   4.651  0.1603 -0.0915  0.0935
  506TIP3    H2 1525   0.518   3.662   4.557 -0.6702 -0.0006  0.7467
  507TIP3   OH2 1526   5.631   4.520   0.080 -0.1244  0.3520 -0.4682
  507TIP3    H1 1527   5.694   4.454   0.109 -0.5819  0.0381 -0.1696
  507TIP3    H2 1528   5.605   4.491  -0.007 -0.1822  0.2407 -0.4144
  508TIP3   OH2 1529   4.699   0.046   4.877 -0.0387  0.5737 -0.0815
  508TIP3    H1 1530   4.634  -0.012   4.916 -1.5202  2.2851  0.1228
  508TIP3    H2 1531   4.649   0.101   4.816  1.4446  1.0622 -0.9062
  509TIP3   OH2 1532   1.593   1.392   1.426 -0.2648 -0.3820  0.5409
  509TIP3    H1 1533   1.560   1.304   1.408 -1.8955  0.5293 -1.3275
  509TIP3    H2 1534   1.519   1.450   1.408  1.1124  1.4738  0.4675
  510TIP3   OH2 1535   0.042   4.708   3.255 -0.5076 -0.2523 -0.1595
  510TIP3    H1 1536   0.028   4.654   3.333  2.4408 -1.9292 -0.6119
  510TIP3    H2 1537   0.007   4.655   3.183 -0.4541 -0.0977 -0.2996
  511TIP3   OH2 1538   0.915   3.845   4.696 -0.1862 -0.2244  0.0428
  511TIP3    H1 1539   0.872   3.924   4.730  0.5146  1.1477 -2.1021
  511TIP3    H2 1540   0.994   3.836   4.750 -1.3930 -0.8627  1.8133
  512TIP3   OH2 1541   6.093   5.109   1.527  0.1628 -0.4151  0.5537
  512TIP3    H1 1542   6.042   5.095   1.447  1.8158  3.0000 -1.3124
  512TIP3    H2 1543   6.037   5.163   1.583  0.8086  1.4729 -0.5524
  513TIP3   OH2 1544   2.935   4.050   1.384  0.5255  0.1058 -0.2891
  513TIP3    H1 1545   2.925   4.145   1.373  0.8443  0.3480  1.2395
  513TIP3    H2 1546   3.027   4.033   1.364  0.6789  0.2635  0.2671
  514TIP3   OH2 1547   6.192   4.110   3.292 -0.3052  0.0126 -0.3327
  514TIP3    H1 1548   6.254   4.039   3.280  0.8007  0.7941  0.4948
  514TIP3    H2 1549   6.112   4.067   3.323 -0.2029 -1.0104 -1.4257
  515TIP3   OH2 1550   2.609   2.018   4.116  0.0015 -0.3234  0.5922
  515TIP3    H1 1551   2.642   1.932   4.141 -0.9657 -1.1013 -0.6859
  515TIP3    H2 1552   2.561   2.049   4.192  0.0627 -1.0631  0.9434
  516TIP3   OH2 1553   1.971   2.488   3.012 -0.3280  0.3584 -0.0520
  516TIP3    H1 1554   1.938   2.421   3.072 -0.7937 -1.3889 -2.1581
  516TIP3    H2 1555   2.066   2.481   3.018 -0.3527 -1.2927 -1.0273
  517TIP3   OH2 1556   1.877   4.725   4.347  0.0081  0.0209 -0.1205
  517TIP3    H1 1557   1.791   4.716   4.387  0.1603 -0.5327  0.1049
  517TIP3    H2 1558   1.910   4.809   4.378  0.6887 -0.9778  2.0584
  518TIP3   OH2 1559   3.068   2.979   3.941  0.0552 -0.6282  0.2690
  518TIP3    H1 1560   3.131   2.960   4.010 -1.2083 -1.4424  1.2425
  518TIP3    H2 1561   3.053   2.894   3.899 -0.1259 -0.3691 -0.2026
  519TIP3   OH2 1562   3.430   4.243   3.089 -0.8747  0.2806 -0.2554
  519TIP3    H1 1563   3.391   4.168   3.044 -2.6084 -0.5103  2.3443
  519TIP3    H2 1564   3.356   4.296   3.117  0.1698  1.2970  0.6685
  520TIP3   OH2 1565   6.295   1.335   1.040  0.1754 -0.0179  0.0141
  520TIP3    H1 1566   6.206   1.364   1.060 -0.2353  0.7134 -2.5442
  520TIP3    H2 1567   6.342   1.416   1.017  0.6029 -0.7119 -1.6860
  521TIP3   OH2 1568   5.476   3.235   1.075  0.1554  0.1809 -0.1448
  521TIP3    H1 1569   5.404   3.252   1.136  0.4681  0.8100  0.0615
  521TIP3    H2 1570   5.554   3.228   1.130  0.3989  0.4907 -0.4408
  522TIP3   OH2 1571   1.044   5.254   4.050  0.0102  0.2873  0.4847
  522TIP3    H1 1572   0.954   5.277   4.072 -0.4768 -0.7621 -0.2512
  522TIP3    H2 1573   1.099   5.315   4.099 -1.0959  0.6787  1.2549
  523TIP3   OH2 1574   2.856   1.257   3.153  0.2837  0.0497  0.4534
  523TIP3    H1 1575   2.870   1.300   3.068  0.4448 -0.7354  0.0762
  523TIP3    H2 1576   2.858   1.329   3.216  0.7239  0.5821 -0.1462
  524TIP3   OH2 1577   2.934   0.103   3.225 -0.1732 -0.2088  0.1520
  524TIP3    H1 1578   2.863   0.073   3.283  0.2651 -0.0331  0.7945
  524TIP3    H2 1579   3.014   0.070   3.267  0.0436 -2.1613 -1.6251
  525TIP3   OH2 1580   5.990   4.326   4.772  0.3237  0.4154  0.1919
  525TIP3    H1 1581   6.077   4.339   4.734  0.3436  0.4099  0.2359
  525TIP3    H2 1582   5.983   4.231   4.783  0.9311  0.5285  1.6625
  526TIP3   OH2 1583   3.032   2.632   3.422 -0.0310 -0.2628  1.0091
  526TIP3    H1 1584   3.072   2.648   3.337 -0.6232  1.5583  1.0403
  526TIP3    H2 1585   3.074   2.551   3.453  0.5770 -0.6800 -0.7507
  527TIP3   OH2 1586   5.393   0.012   3.286 -0.5402  0.0779 -0.8515
  527TIP3    H1 1587   5.428  -0.073   3.309 -0.1230  0.0683 -1.4901
  527TIP3    H2 1588   5.411   0.068   3.362 -0.9065 -0.4200 -0.3921
  528TIP3   OH2 1589   1.811   3.574   1.120 -0.2164  0.5936 -0.4299
  528TIP3    H1 1590   1.901   3.547   1.099 -0.1139  1.9116 -1.7888
  528TIP3    H2 1591   1.770   3.588   1.035 -0.5782  3.6175  0.1578
  529TIP3   OH2 1592   3.909   5.136   1.228  0.0632 -0.0941  0.7426
  529TIP3    H1 1593   3.940   5.209   1.282  0.7417  0.9401 -0.9742
  529TIP3    H2 1594   3.989   5.101   1.188 -0.5053 -0.2957 -0.2393
  530TIP3   OH2 1595   2.798   5.252   3.639  0.1972  0.2168 -0.1915
  530TIP3    H1 1596   2.741   5.202   3.698  0.4372  1.4500  1.1322
  530TIP3    H2 1597   2.878   5.265   3.689  0.2487  1.6691 -0.6230
  531TIP3   OH2 1598   2.456   1.734   0.697  0.3846  0.5554  0.0980
  531TIP3    H1 1599   2.369   1.764   0.724  0.3919  0.0050  0.7729
  531TIP3    H2 1600   2.502   1.720   0.780  0.2744 -1.5969 -0.1588
  532TIP3   OH2 1601   4.743   4.408   4.189  0.0274 -0.5598  0.1059
  532TIP3    H1 1602   4.692   4.487   4.172 -2.1761 -1.5602  1.6088
  532TIP3    H2 1603   4.704   4.341   4.133  0.2712 -1.1458  0.6203
  533TIP3   OH2 1604   1.264   4.664   1.901 -0.0084  0.2398 -0.6463
  533TIP3    H1 1605   1.359   4.666   1.894  0.0952 -0.4828  0.4365
  533TIP3    H2 1606   1.239   4.576   1.874 -0.2630  0.0347  0.2439
  534TIP3   OH2 1607   5.705   0.206   5.033  0.0026  0.0557 -0.3218
  534TIP3    H1 1608   5.661   0.260   5.098  1.5667 -0.3089  1.1321
  534TIP3    H2 1609   5.642   0.197   4.962 -0.8498  2.5155  0.0330
  535TIP3   OH2 1610   0.694   4.768   2.926  0.1365 -0.3311 -0.3434
  535TIP3    H1 1611   0.762   4.714   2.888  0.9308 -0.9183  1.7671
  535TIP3    H2 1612   0.666   4.720   3.005  1.1084  2.3963  1.8238
  536TIP3   OH2 1613   4.427   2.059   1.645 -0.0330  0.2095  0.3474
  536TIP3    H1 1614   4.400   2.145   1.679 -2.3694 -0.9052  1.5114
  536TIP3    H2 1615   4.498   2.032   1.703  0.1033  0.9315  0.5352
  537TIP3   OH2 1616   4.797   3.886   2.594  0.6041  0.3638 -0.4280
  537TIP3    H1 1617   4.858   3.957   2.613  0.0649  0.7168  0.0139
  537TIP3    H2 1618   4.748   3.917   2.517  2.1062 -0.6399 -1.8713
  538TIP3   OH2 1619   2.657   2.344   0.141  0.0802 -0.1686 -0.3762
  538TIP3    H1 1620   2.674   2.370   0.050  0.9036 -1.9160 -0.7529
  538TIP3    H2 1621   2.725   2.280   0.161  0.7280  1.1174  1.9312
  539TIP3   OH2 1622   1.402   4.339   1.174 -0.0515  0.1959  0.2034
  539TIP3    H1 1623   1.489   4.357   1.209  0.5221 -1.5190 -0.2486
  539TIP3    H2 1624   1.382   4.250   1.203 -0.8595 -0.1345 -1.2629
  540TIP3   OH2 1625   5.241   4.624   4.372 -0.0371  0.4288 -0.0285
  540TIP3    H1 1626   5.152   4.660   4.372  0.0640  0.7225  1.3709
  540TIP3    H2 1627   5.295   4.694   4.409  0.2032 -1.0120  2.5952
  541TIP3   OH2 1628   2.153   1.101   1.688  0.1188  0.3635  0.0493
  541TIP3    H1 1629   2.064   1.126   1.663 -0.7376 -1.9521  0.5214
  541TIP3    H2 1630   2.177   1.032   1.625  0.5099 -0.8823  1.4953
  542TIP3   OH2 1631   4.157   4.534   4.868 -0.3037  0.3127 -0.5283
  542TIP3    H1 1632   4.094   4.593   4.910  0.3340  0.1713  0.6910
  542TIP3    H2 1633   4.232   4.534   4.927 -0.3448 -1.8123 -0.4138
  543TIP3   OH2 1634   5.024   4.556   2.007  0.4589  0.3369 -0.0923
  543TIP3    H1 1635   5.111   4.517   1.998  0.6714  0.8902 -0.5049
  543TIP3    H2 1636   5.014   4.609   1.928 -0.5682 -0.3207 -0.4171
  544TIP3   OH2 1637   2.237   0.273   3.950 -0.7592 -0.3066 -0.4542
  544TIP3    H1 1638   2.253   0.246   4.040 -0.5325  0.1922 -0.3405
  544TIP3    H2 1639   2.324   0.285   3.912 -0.8161 -1.7999 -1.1542
  545TIP3   OH2 1640   2.728   3.538   0.884  0.6373  0.1828  0.3538
  545TIP3    H1 1641   2.634   3.558   0.880  0.3584 -1.0342  0.5239
  545TIP3    H2 1642   2.750   3.547   0.977  0.1594 -1.7281  0.6895
  546TIP3   OH2 1643   2.250   5.332   4.507 -0.2500 -0.9176 -0.2942
  546TIP3    H1 1644   2.225   5.351   4.597 -0.2491  0.9174 -0.6345
  546TIP3    H2 1645   2.174   5.360   4.455  0.2646 -0.7210 -0.9496
  547TIP3   OH2 1646   1.819   1.987   1.339  0.1831 -0.0227 -0.6062
  547TIP3    H1 1647   1.886   1.921   1.320 -0.1414 -0.2724 -0.8962
  547TIP3    H2 1648   1.742   1.959   1.289 -0.6818 -0.6487  0.9800
  548TIP3   OH2 1649   4.144   0.746   4.355  0.6941  0.0857 -0.6292
  548TIP3    H1 1650   4.183   0.730   4.441 -0.7583 -0.1246  0.0275
  548TIP3    H2 1651   4.086   0.671   4.341 -1.6729  1.7076 -0.2033
  549TIP3   OH2 1652   0.443   3.824   4.645 -0.8694 -0.4264 -0.4526
  549TIP3    H1 1653   0.415   3.915   4.650 -0.2534 -0.2720  0.4347
  549TIP3    H2 1654   0.515   3.818   4.707  1.8351 -0.5400 -3.3719
  550TIP3   OH2 1655   1.154   5.512   4.027 -0.4735  0.0757 -0.0028
  550TIP3    H1 1656   1.215   5.586   4.037 -1.7709  1.6096 -2.5291
  550TIP3    H2 1657   1.189   5.461   3.954 -0.8473 -0.5280  0.2326
  551TIP3   OH2 1658   2.773   1.634   0.220 -0.4083 -0.4020 -0.1530
  551TIP3    H1 1659   2.795   1.630   0.313  2.2919 -1.1977 -0.7477
  551TIP3    H2 1660   2.750   1.544   0.197  0.0787 -0.4455 -0.4873
  552TIP3   OH2 1661   2.228   2.375   0.644  0.4795  0.6320  0.3313
  552TIP3    H1 1662   2.268   2.461   0.656 -1.6541  1.5199  1.6090
  552TIP3    H2 1663   2.236   2.332   0.729  0.9997 -0.2113 -0.1320
  553TIP3   OH2 1664   6.025   1.216   3.246 -0.4175 -0.3988 -0.5894
  553TIP3    H1 1665   6.076   1.212   3.165  1.5059 -0.2991  0.5672
  553TIP3    H2 1666   6.029   1.127   3.281 -0.1403 -0.1393  0.0470
  554TIP3   OH2 1667   2.356   5.359   4.023  0.0674 -0.1854  0.0700
  554TIP3    H1 1668   2.289   5.406   3.973 -1.0549 -1.2401  0.5213
  554TIP3    H2 1669   2.438   5.382   3.980 -0.8293 -1.0902 -2.3636
  555TIP3   OH2 1670   2.708   5.023   4.181  0.6022  0.4969 -0.0375
  555TIP3    H1 1671   2.798   5.041   4.210  0.4348  1.5713 -0.1530
  555TIP3    H2 1672   2.718   4.968   4.104  1.1009 -0.9273  0.9938
  556TIP3   OH2 1673   0.962   0.423   3.639 -0.2769  0.0226  0.5227
  556TIP3    H1 1674   1.048   0.397   3.674 -0.9561 -1.2878  1.3045
  556TIP3    H2 1675   0.983   0.475   3.562  1.2232 -1.0478  0.1524
  557TIP3   OH2 1676   4.422   5.588   2.471  0.6055  0.2640 -0.1861
  557TIP3    H1 1677   4.341   5.557   2.430 -0.8648  2.2350  1.0295
  557TIP3    H2 1678   4.436   5.528   2.545  0.0470  0.1282 -0.1873
  558TIP3   OH2 1679   2.095   2.483   5.021  0.2169 -0.5097 -0.0036
  558TIP3    H1 1680   2.133   2.508   4.937  0.4231 -3.4833 -0.8867
  558TIP3    H2 1681   2.002   2.468   5.003 -0.5450  2.1679  1.1440
  559TIP3   OH2 1682   4.918   3.618   0.119  0.4063  0.1931  0.4268
  559TIP3    H1 1683   4.944   3.565   0.044  1.0212  1.2369 -0.1377
  559TIP3    H2 1684   4.882   3.698   0.080 -0.9527  0.0020  1.2434
  560TIP3   OH2 1685   1.959   1.232   1.552  0.5052  0.3649  0.4398
  560TIP3    H1 1686   2.009   1.303   1.512 -0.8486  2.1113  1.6819
  560TIP3    H2 1687   1.935   1.175   1.479  2.1001  0.8633 -0.5145
  561TIP3   OH2 1688   4.628   0.947   3.173 -0.0386  0.1805  0.4265
  561TIP3    H1 1689   4.595   0.857   3.175 -1.7781  0.8033  2.2542
  561TIP3    H2 1690   4.550   1.002   3.175  1.0097  1.7750  0.0246
  562TIP3   OH2 1691   0.791   3.271   4.626  0.3164 -0.8850  0.0984
  562TIP3    H1 1692   0.751   3.186   4.645  1.2054 -1.1999  0.6214
  562TIP3    H2 1693   0.806   3.311   4.712 -1.6855  0.5973 -0.1633
  563TIP3   OH2 1694   5.401   3.457   0.918  0.5920 -0.4594 -0.6808
  563TIP3    H1 1695   5.430   3.371   0.950 -2.2673 -1.0152  0.7147
  563TIP3    H2 1696   5.319   3.439   0.872 -0.5525  1.5975  0.4040
  564TIP3   OH2 1697   0.708   4.999   1.456  0.0526 -0.2100  0.4425
  564TIP3    H1 1698   0.632   4.990   1.514 -0.5524 -3.4346 -0.6364
  564TIP3    H2 1699   0.672   5.034   1.375 -0.2672 -1.4294  0.0408
  565TIP3   OH2 1700   1.574   2.734   3.201 -0.1489  0.0795 -0.1403
  565TIP3    H1 1701   1.620   2.704   3.122 -0.7779 -2.1524  0.2702
  565TIP3    H2 1702   1.520   2.660   3.227  0.4658  0.5096  2.7280
  566TIP3   OH2 1703   5.799   1.118   2.426  0.1675 -0.1940 -0.1471
  566TIP3    H1 1704   5.859   1.081   2.362 -1.1502  0.1395 -1.6519
  566TIP3    H2 1705   5.722   1.061   2.421 -0.0194 -0.0722  1.0612
  567TIP3   OH2 1706   0.787   1.110   4.994 -0.7561 -0.1903 -0.1704
  567TIP3    H1 1707   0.839   1.190   4.994 -0.2925 -0.4836  0.4368
  567TIP3    H2 1708   0.723   1.123   4.923  0.8505 -0.2715 -1.7190
  568TIP3   OH2 1709   2.642   5.535   1.098  0.0884  0.0847 -0.1493
  568TIP3    H1 1710   2.607   5.448   1.080 -0.0734  0.3290 -1.0705
  568TIP3    H2 1711   2.734   5.520   1.121 -0.0733 -0.3691  0.2165
  569TIP3   OH2 1712   2.706   4.698   2.872 -0.3879 -0.0167  0.4959
  569TIP3    H1 1713   2.720   4.791   2.852  0.4476 -0.2410 -0.0107
  569TIP3    H2 1714   2.674   4.661   2.789  1.9065 -0.7067 -0.1741
  570TIP3   OH2 1715   2.471   4.633   4.564  0.1099 -0.3258 -0.0017
  570TIP3    H1 1716   2.547   4.662   4.514 -0.2625 -1.2162 -1.1079
  570TIP3    H2 1717   2.498   4.642   4.655  0.9269  0.9846 -0.3410
  571TIP3   OH2 1718   2.316   5.610   1.482 -0.3551 -0.3378  0.3760
  571TIP3    H1 1719   2.373   5.556   1.536 -1.4432  0.1332  2.0775
  571TIP3    H2 1720   2.318   5.696   1.524 -1.8964 -0.1868  0.1946
  572TIP3   OH2 1721   0.941   4.158   0.395  0.4141  0.2111 -0.6230
  572TIP3    H1 1722   0.892   4.098   0.339 -1.2459  2.5678 -1.8796
  572TIP3    H2 1723   0.896   4.154   0.480  0.8141 -0.8503 -0.4456
  573TIP3   OH2 1724   5.852   0.210   1.143 -0.1495  1.0893  0.9957
  573TIP3    H1 1725   5.870   0.267   1.068 -1.7363  1.7466  1.0757
  573TIP3    H2 1726   5.935   0.166   1.160  0.5264  1.7399 -0.4597
  574TIP3   OH2 1727   5.064   2.164   3.995  0.2422 -0.1432 -0.4104
  574TIP3    H1 1728   5.108   2.238   3.954  0.4927 -0.0719 -0.0139
  574TIP3    H2 1729   5.129   2.093   3.991  0.4922  0.0268  0.3866
  575TIP3   OH2 1730   1.100   4.637   4.148 -0.6099 -0.4832 -0.4494
  575TIP3    H1 1731   1.040   4.591   4.207  1.8887 -3.9041 -0.2919
  575TIP3    H2 1732   1.185   4.634   4.193  0.7106 -0.3245 -2.7717
  576TIP3   OH2 1733   3.192   4.132   4.644  0.6911  0.2265 -0.4394
  576TIP3    H1 1734   3.222   4.133   4.735 -0.4445 -1.0184 -0.0107
  576TIP3    H2 1735   3.272   4.133   4.592  1.4083 -0.3792  0.6109
  577TIP3   OH2 1736   0.900   1.673   3.236 -0.2102 -0.8672 -0.4949
  577TIP3    H1 1737   0.950   1.732   3.180 -1.0745  1.3104  0.9055
  577TIP3    H2 1738   0.818   1.660   3.189 -0.4704  0.0123 -0.3067
  578TIP3   OH2 1739   2.061   0.430   1.297  0.1737  0.1175  0.1065
  578TIP3    H1 1740   2.034   0.475   1.217 -0.7751 -1.4803 -0.5013
  578TIP3    H2 1741   2.095   0.346   1.267  0.9849  0.0001  1.2956
  579TIP3   OH2 1742   0.177   3.409   3.162  0.3382  0.3308 -0.1949
  579TIP3    H1 1743   0.129   3.334   3.196 -1.0045 -0.3401 -3.2056
  579TIP3    H2 1744   0.269   3.389   3.177 -0.0807  0.5261  3.5588
  580TIP3   OH2 1745   3.032   1.095   0.768 -0.2530 -0.0196  0.9273
  580TIP3    H1 1746   3.008   1.054   0.685  1.9646 -0.3384  0.3850
  580TIP3    H2 1747   3.007   1.187   0.757  1.1713  0.2271 -0.6379
  581TIP3   OH2 1748   4.801   3.487   4.369 -0.4842 -0.1284  0.7003
  581TIP3    H1 1749   4.807   3.446   4.283 -2.4978 -0.6345  0.7574
  581TIP3    H2 1750   4.712   3.523   4.372  0.3110  1.8997  1.6935
  582TIP3   OH2 1751   3.041   5.493   4.182 -0.3133 -0.6197  0.6567
  582TIP3    H1 1752   3.036   5.409   4.136 -0.5714 -1.3285  1.9237
  582TIP3    H2 1753   3.030   5.470   4.275 -0.5141  0.8318  1.0135
  583TIP3   OH2 1754   5.903   4.437   2.891 -0.8206 -0.9247  0.0210
  583TIP3    H1 1755   5.905   4.372   2.820 -0.1855 -0.1727 -0.6742
  583TIP3    H2 1756   5.926   4.388   2.970 -3.4128 -2.2114  0.1013
  584TIP3   OH2 1757   0.993   0.891   1.864  0.4119 -0.3072 -0.3839
  584TIP3    H1 1758   0.986   0.967   1.922  2.6428 -0.4912  0.1858
  584TIP3    H2 1759   0.970   0.816   1.918  1.6110 -0.3826  0.0397
  585TIP3   OH2 1760   4.616   2.340   4.371  0.2553 -0.9507  0.3589
  585TIP3    H1 1761   4.531   2.318   4.332 -0.9020 -1.8099  3.1247
  585TIP3    H2 1762   4.661   2.256   4.378  2.1174 -0.3362 -2.4854
  586TIP3   OH2 1763   2.360   4.234   0.404  0.3185  0.2681  0.1052
  586TIP3    H1 1764   2.305   4.210   0.478  0.6577 -0.6222  0.0731
  586TIP3    H2 1765   2.313   4.305   0.361 -0.1246  0.4463  0.8804
  587TIP3   OH2 1766   4.338   2.760   4.166 -0.7817  0.4302  0.3537
  587TIP3    H1 1767   4.375   2.721   4.087 -0.5611  0.8915  0.2237
  587TIP3    H2 1768   4.257   2.711   4.182  0.7214 -1.7699  1.6412
  588TIP3   OH2 1769   1.011   2.258   0.477 -0.0412 -0.1680  0.0871
  588TIP3    H1 1770   1.071   2.330   0.457  1.9102 -1.3198  1.3780
  588TIP3    H2 1771   0.944   2.297   0.533  1.4192  0.5432  1.4178
  589TIP3   OH2 1772   4.103   5.441   0.905 -0.0978  0.2464  0.2064
  589TIP3    H1 1773   4.096   5.347   0.887 -0.5721  0.4362 -0.6498
  589TIP3    H2 1774   4.138   5.478   0.824 -0.2852  0.8607  0.4026
  590TIP3   OH2 1775   5.592   1.460   3.200  0.5091  0.1761 -0.1233
  590TIP3    H1 1776   5.590   1.556   3.190 -2.2519  0.0903 -1.1945
  590TIP3    H2 1777   5.680   1.435   3.171  0.2623  2.1363 -2.9316
  591TIP3   OH2 1778   6.037   5.157   5.159  0.0909 -0.4992 -0.1060
  591TIP3    H1 1779   6.099   5.221   5.193  0.9311  0.1021 -2.6268
  591TIP3    H2 1780   6.072   5.073   5.188  1.6799 -0.1201 -0.8598
  592TIP3   OH2 1781   4.684   1.291   5.078 -0.1042 -0.0261 -0.1210
  592TIP3    H1 1782   4.759   1.307   5.136 -0.6046 -0.4775  0.6767
  592TIP3    H2 1783   4.694   1.200   5.050 -0.1327  0.0370 -0.3344
  593TIP3   OH2 1784   4.365   2.175   0.286 -0.1967 -0.3666  0.4041
  593TIP3    H1 1785   4.297   2.110   0.268 -1.3244  0.1489  2.4959
  593TIP3    H2 1786   4.346   2.206   0.375  2.1673  0.5563  0.6676
  594TIP3   OH2 1787   5.290   4.410   2.851  0.5723  0.0778 -0.3655
  594TIP3    H1 1788   5.374   4.448   2.824 -0.4452  0.2123 -3.7983
  594TIP3    H2 1789   5.283   4.330   2.798 -1.5597  0.1938 -0.3109
  595TIP3   OH2 1790   3.805   0.858   2.203 -0.1139  0.4603 -0.0382
  595TIP3    H1 1791   3.763   0.837   2.119 -1.2325  2.5313 -0.0799
  595TIP3    H2 1792   3.838   0.775   2.235 -0.6353 -0.5784 -2.0078
  596TIP3   OH2 1793   4.242   4.693   0.531  0.0705 -0.6665 -0.0340
  596TIP3    H1 1794   4.291   4.628   0.481 -2.5431 -0.1400 -3.6362
  596TIP3    H2 1795   4.165   4.647   0.563  0.0829 -0.1899  0.7107
  597TIP3   OH2 1796   4.678   0.662   4.986 -0.5820  0.6145  0.3133
  597TIP3    H1 1797   4.667   0.575   4.946 -0.2179  1.3341 -1.4442
  597TIP3    H2 1798   4.627   0.657   5.067 -1.4164 -0.9162 -0.2479
  598TIP3   OH2 1799   0.557   2.473   3.723  0.5521 -0.2575 -0.4400
  598TIP3    H1 1800   0.471   2.504   3.695  1.0187 -0.5978 -2.4167
  598TIP3    H2 1801   0.569   2.391   3.675  1.1924 -1.2100  1.2959
  599TIP3   OH2 1802   0.476   5.917   2.297 -0.0844 -0.4604 -0.1066
  599TIP3    H1 1803   0.507   5.918   2.206 -0.3163  0.1799 -0.1823
  599TIP3    H2 1804   0.421   5.994   2.304 -1.8068 -1.6427 -0.0273
  600TIP3   OH2 1805   2.975   4.114   2.501 -0.2002 -0.0529  0.5557
  600TIP3    H1 1806   3.053   4.153   2.462  0.0257  0.5825  1.6178
  600TIP3    H2 1807   2.985   4.128   2.595 -1.4993 -0.1291  0.7261
  601TIP3   OH2 1808   4.491   5.110   2.854 -0.4386  0.1727 -0.1384
  601TIP3    H1 1809   4.563   5.057   2.888 -1.7070 -0.6652  1.3861
  601TIP3    H2 1810   4.486   5.184   2.915 -0.1922  0.7991 -0.8675
  602TIP3   OH2 1811   3.076   4.873   2.184  0.1023  0.8355  0.5581
  602TIP3    H1 1812   3.075   4.967   2.197  0.2990  0.6291  2.3597
  602TIP3    H2 1813   3.159   4.856   2.138  0.6699  1.4366  1.3201
  603TIP3   OH2 1814   4.749   5.312   0.626  0.0102  0.0176  0.2379
  603TIP3    H1 1815   4.769   5.232   0.578 -2.1394 -1.1423  1.1381
  603TIP3    H2 1816   4.681   5.286   0.689 -0.5599  2.4853  0.7442
  604TIP3   OH2 1817   1.775   5.292   0.900  0.6463 -0.2025 -0.5770
  604TIP3    H1 1818   1.856   5.242   0.894  1.7416  1.3524  0.3758
  604TIP3    H2 1819   1.729   5.275   0.818  1.7934 -1.3614 -1.0040
  605TIP3   OH2 1820   0.146   0.606   3.394 -0.5230 -0.3956  0.0089
  605TIP3    H1 1821   0.102   0.587   3.477 -0.1043 -1.7451 -0.0516
  605TIP3    H2 1822   0.186   0.523   3.368  0.3798  0.3017 -0.9423
  606TIP3   OH2 1823   5.855   4.410   1.198 -0.2490  0.5084  0.4723
  606TIP3    H1 1824   5.762   4.391   1.201 -0.3334  0.6793 -0.6404
  606TIP3    H2 1825   5.880   4.426   1.289 -1.2762  0.3511  0.7865
  607TIP3   OH2 1826   4.748   3.305   1.367 -0.5587  0.2090  0.3045
  607TIP3    H1 1827   4.671   3.249   1.374 -0.9665  0.8323  1.1089
  607TIP3    H2 1828   4.717   3.391   1.396  0.2992  0.6096  0.0693
  608TIP3   OH2 1829   2.283   2.842   4.962  0.1764  0.2757 -0.0664
  608TIP3    H1 1830   2.310   2.934   4.962  0.4111  0.2149  0.8771
  608TIP3    H2 1831   2.364   2.793   4.973 -0.0959  0.0117  0.8122
  609TIP3   OH2 1832   3.044   3.417   4.249 -0.0284 -0.1466  0.2160
  609TIP3    H1 1833   3.023   3.389   4.338  0.0070  2.1762  1.0222
  609TIP3    H2 1834   3.101   3.493   4.260 -1.0002  0.9607 -1.7685
  610TIP3   OH2 1835   5.199   0.869   3.006  0.8759 -0.3902  0.2564
  610TIP3    H1 1836   5.159   0.926   2.940  2.1204  1.4027  0.9454
  610TIP3    H2 1837   5.126   0.821   3.044 -0.6436  2.3044  1.0403
  611TIP3   OH2 1838   0.070   4.731   2.522 -0.1048 -0.4689  0.5754
  611TIP3    H1 1839   0.123   4.793   2.574  0.3527  0.6481 -1.1502
  611TIP3    H2 1840   0.125   4.653   2.515  0.2422 -0.2615  0.9294
  612TIP3   OH2 1841   4.013   4.932   1.978  0.8953 -0.0643 -0.5195
  612TIP3    H1 1842   4.025   4.855   2.033  1.2294  0.1194 -0.3310
  612TIP3    H2 1843   3.990   5.002   2.040 -0.4559 -0.2302 -0.7838
  613TIP3   OH2 1844   3.151   3.475   4.974 -0.3358 -0.0525 -0.2436
  613TIP3    H1 1845   3.221   3.473   4.909 -1.1285 -2.7559 -1.1420
  613TIP3    H2 1846   3.163   3.395   5.025 -2.4022 -0.2714 -0.0216
  614TIP3   OH2 1847   0.928   5.681   0.127  0.6605 -0.3786  0.4188
  614TIP3    H1 1848   0.972   5.761   0.098  1.3927 -0.8591  0.1901
  614TIP3    H2 1849   0.999   5.622   0.153  0.2706 -1.8511 -1.6738
  615TIP3   OH2 1850   6.001   3.268   0.339 -0.0658  0.4686  0.3846
  615TIP3    H1 1851   5.970   3.349   0.378  1.3417  1.3666 -0.2539
  615TIP3    H2 1852   6.048   3.296   0.260  0.7213 -0.9352  0.3184
  616TIP3   OH2 1853   0.778   2.529   1.488 -0.1275  0.1977  0.2443
  616TIP3    H1 1854   0.696   2.549   1.532 -0.4571 -1.1485  0.3046
  616TIP3    H2 1855   0.838   2.503   1.558 -0.7816 -2.3780 -0.0154
  617TIP3   OH2 1856   0.930   0.192   2.169  0.1273  0.0632  0.4420
  617TIP3    H1 1857   0.993   0.122   2.151 -0.5221 -0.6944  1.0289
  617TIP3    H2 1858   0.918   0.189   2.264 -1.8478 -0.7551  0.2032
  618TIP3   OH2 1859   3.152   3.994   3.844  0.8781  0.6119  0.7444
  618TIP3    H1 1860   3.216   4.058   3.876  1.5486  0.5300 -0.3773
  618TIP3    H2 1861   3.105   3.967   3.922  0.9208  2.1010  1.3278
  619TIP3   OH2 1862   0.209   1.426   1.571 -0.2677  0.2991  0.4109
  619TIP3    H1 1863   0.116   1.444   1.560 -0.6859 -0.7533  1.9082
  619TIP3    H2 1864   0.228   1.450   1.661  1.3248  2.0104 -0.3082
  620TIP3   OH2 1865   3.504   0.445   3.171 -0.1739  0.0425  0.4788
  620TIP3    H1 1866   3.446   0.502   3.121 -0.4824  1.9812  2.8902
  620TIP3    H2 1867   3.576   0.426   3.111 -0.7184  1.9004 -0.8491
  621TIP3   OH2 1868   1.870   0.511   2.926  0.1974  0.0002  0.1886
  621TIP3    H1 1869   1.776   0.528   2.932 -0.0288  2.2406 -4.8789
  621TIP3    H2 1870   1.877   0.432   2.872  1.1661  0.8614 -0.9881
  622TIP3   OH2 1871   2.599   3.712   2.677 -0.6727 -0.0782  0.1153
  622TIP3    H1 1872   2.627   3.787   2.729  3.7011 -0.3731 -1.4239
  622TIP3    H2 1873   2.585   3.747   2.589 -2.5630 -0.5157  0.1869
  623TIP3   OH2 1874   0.220   1.609   2.747 -0.5151 -0.0535  0.4629
  623TIP3    H1 1875   0.211   1.702   2.770 -0.6582 -0.3445  1.6471
  623TIP3    H2 1876   0.199   1.605   2.654  0.4459  1.2504  0.1625
  624TIP3   OH2 1877   6.075   5.467   3.166 -0.0677 -0.0934 -0.2179
  624TIP3    H1 1878   6.048   5.540   3.110 -0.1221 -0.7585 -1.0751
  624TIP3    H2 1879   6.137   5.506   3.228 -1.1703  0.9704  0.2577
  625TIP3   OH2 1880   4.614   1.312   2.605  0.0401 -0.0426 -0.0776
  625TIP3    H1 1881   4.583   1.239   2.552  1.8921 -1.4279  0.6108
  625TIP3    H2 1882   4.590   1.390   2.556 -1.8408 -1.1066 -0.9360
  626TIP3   OH2 1883   3.664   4.637   2.825  0.5331 -0.0501  0.2808
  626TIP3    H1 1884   3.748   4.607   2.791  0.3166  0.8748 -1.1503
  626TIP3    H2 1885   3.686   4.715   2.876  0.5560  0.1659 -0.0558
  627TIP3   OH2 1886   1.832   5.368   1.394  0.2410  0.0666  0.1355
  627TIP3    H1 1887   1.869   5.397   1.477 -0.2744  2.6115 -0.4218
  627TIP3    H2 1888   1.884   5.415   1.328 -1.7041  1.0437 -0.7773
  628TIP3   OH2 1889   3.521   2.607   3.158  1.1350 -0.8292 -0.3337
  628TIP3    H1 1890   3.523   2.700   3.136 -1.0189 -0.7900 -0.5820
  628TIP3    H2 1891   3.534   2.562   3.074 -0.2378 -0.7106 -0.6318
  629TIP3   OH2 1892   1.227   3.101   0.958  0.2220  0.6337  0.5619
  629TIP3    H1 1893   1.310   3.082   0.914  0.2530 -0.2117  0.9550
  629TIP3    H2 1894   1.226   3.196   0.968  0.8428  0.7085 -0.0276
  630TIP3   OH2 1895   2.751   1.995   1.957 -0.3910 -0.0107  0.0124
  630TIP3    H1 1896   2.775   2.087   1.969 -0.3444 -0.0019 -0.1431
  630TIP3    H2 1897   2.663   1.988   1.993 -0.9013  0.3853 -1.1033
  631TIP3   OH2 1898   3.263   1.224   3.836 -0.4592  0.3374  0.3446
  631TIP3    H1 1899   3.243   1.197   3.925  0.2346 -0.3979  0.2964
  631TIP3    H2 1900   3.343   1.175   3.814 -0.7396  0.3467 -0.7494
  632TIP3   OH2 1901   0.707   3.918   0.586 -0.1351  0.0690  0.3333
  632TIP3    H1 1902   0.640   3.857   0.556  1.1788 -0.4732 -1.7157
  632TIP3    H2 1903   0.676   4.004   0.557  0.6700 -0.3418 -1.9472
  633TIP3   OH2 1904   4.263   3.976   1.213  0.1689  0.1824 -0.5271
  633TIP3    H1 1905   4.235   3.982   1.305  0.1762  0.3801 -0.5366
  633TIP3    H2 1906   4.359   3.977   1.217  0.1819  1.7473 -0.6219
  634TIP3   OH2 1907   2.810   4.082   4.584 -0.7933  0.2611 -0.4127
  634TIP3    H1 1908   2.740   4.132   4.542 -1.3394 -0.3848 -0.2925
  634TIP3    H2 1909   2.775   3.993   4.591  0.0110 -0.0537 -0.2739
  635TIP3   OH2 1910   5.296   0.958   3.787  0.5076  0.0920 -0.3275
  635TIP3    H1 1911   5.257   0.943   3.873 -1.5680  0.6119 -1.1164
  635TIP3    H2 1912   5.245   1.029   3.749  1.9179  0.4475 -1.6715
  636TIP3   OH2 1913   2.730   2.960   4.614  0.3750  0.2874  0.5384
  636TIP3    H1 1914   2.729   2.897   4.687  0.9062  0.1672  0.4463
  636TIP3    H2 1915   2.789   2.920   4.549 -2.2352 -1.0138 -1.2184
  637TIP3   OH2 1916   1.603   4.260   3.098  0.6010 -0.1800 -0.6486
  637TIP3    H1 1917   1.625   4.338   3.148  2.0357 -0.5579 -0.6654
  637TIP3    H2 1918   1.508   4.250   3.110  0.5199  1.1374 -0.0576
  638TIP3   OH2 1919   3.362   0.117   0.806 -0.0693 -0.2952  0.3577
  638TIP3    H1 1920   3.399   0.047   0.861 -0.2919 -2.2981 -1.8867
  638TIP3    H2 1921   3.437   0.155   0.761 -0.1583 -0.4621  0.0694
  639TIP3   OH2 1922   4.933   2.048   3.704 -0.3600  0.3507 -0.3335
  639TIP3    H1 1923   5.004   2.103   3.670 -0.8356 -0.6656 -3.2857
  639TIP3    H2 1924   4.908   2.090   3.786  1.4485  2.6314 -0.8222
  640TIP3   OH2 1925   4.762   0.281   3.783  0.2158 -0.2533 -0.6854
  640TIP3    H1 1926   4.817   0.353   3.814  0.3958 -0.8683  0.4551
  640TIP3    H2 1927   4.800   0.203   3.824 -2.1065 -0.5843  0.9992
  641TIP3   OH2 1928   4.351   4.455   2.411  0.5410 -0.1236  0.3681
  641TIP3    H1 1929   4.293   4.507   2.355 -0.4695 -0.8792  0.7024
  641TIP3    H2 1930   4.308   4.453   2.496  1.5885  0.1897  0.9169
  642TIP3   OH2 1931   1.097   5.815   4.218 -0.1281 -0.1750 -0.4585
  642TIP3    H1 1932   1.070   5.724   4.224  0.6383 -0.3064  1.9532
  642TIP3    H2 1933   1.035   5.862   4.274  0.0726  0.6682 -0.9234
  643TIP3   OH2 1934   4.039   0.885   1.287  0.3281 -0.0061 -0.0580
  643TIP3    H1 1935   4.079   0.952   1.344 -0.0245 -0.4908  0.7785
  643TIP3    H2 1936   4.058   0.916   1.198  0.0267  1.2990  0.2990
  644TIP3   OH2 1937   2.406   2.046   3.453  0.2635 -0.3829 -0.2534
  644TIP3    H1 1938   2.372   2.096   3.528  0.0942 -0.6640 -0.1394
  644TIP3    H2 1939   2.327   2.017   3.407  0.3201 -1.5518  0.3485
  645TIP3   OH2 1940   3.747   5.057   3.711  0.1952 -0.9030 -0.8758
  645TIP3    H1 1941   3.766   5.046   3.618  2.5195  1.0692 -0.7418
  645TIP3    H2 1942   3.818   5.010   3.756 -0.9118 -1.8524 -0.0713
  646TIP3   OH2 1943   1.678   3.720   4.165 -0.1010 -0.9993 -0.4756
  646TIP3    H1 1944   1.611   3.662   4.202  0.5194 -0.0065  2.5341
  646TIP3    H2 1945   1.630   3.800   4.142 -0.1103 -0.4148  1.3580
  647TIP3   OH2 1946   1.172   3.923   2.360 -0.5810 -1.1883 -0.3563
  647TIP3    H1 1947   1.228   4.000   2.357  0.8778 -2.2250 -1.6161
  647TIP3    H2 1948   1.152   3.911   2.453  2.5145 -1.5714  0.3774
  648TIP3   OH2 1949   2.828   3.923   1.619 -0.0270 -0.3265 -0.7833
  648TIP3    H1 1950   2.912   3.964   1.641 -1.1531  1.0393  1.3457
  648TIP3    H2 1951   2.816   3.943   1.526  2.0843 -0.7870 -1.2100
  649TIP3   OH2 1952   5.879   2.935   3.749 -0.0901 -0.3470 -0.0176
  649TIP3    H1 1953   5.954   2.881   3.724 -1.3781 -1.4958 -1.5618
  649TIP3    H2 1954   5.818   2.874   3.790 -0.5284  0.4305  0.5170
  650TIP3   OH2 1955   1.325   2.811   2.524 -0.2726 -0.5322 -0.2859
  650TIP3    H1 1956   1.328   2.722   2.559 -0.2193  0.7879  3.4401
  650TIP3    H2 1957   1.416   2.836   2.512 -0.1097  0.1093  1.9461
  651TIP3   OH2 1958   3.807   1.731   3.106 -0.1795 -0.1793 -0.3663
  651TIP3    H1 1959   3.843   1.781   3.033 -0.4016  0.7823  0.1613
  651TIP3    H2 1960   3.713   1.731   3.091 -0.2800  0.5240  0.2143
  652TIP3   OH2 1961   5.400   3.120   3.101 -0.5264  0.0329  0.2126
  652TIP3    H1 1962   5.491   3.142   3.122 -0.6337  2.2276 -1.2535
  652TIP3    H2 1963   5.403   3.029   3.071  0.9766 -0.2932  1.2757
  653TIP3   OH2 1964   1.734   0.360   3.219  0.0821  0.2180  0.3147
  653TIP3    H1 1965   1.671   0.315   3.163  0.7244  0.7379 -0.8631
  653TIP3    H2 1966   1.753   0.298   3.290 -0.8712 -0.3821  0.0514
  654TIP3   OH2 1967   5.914   0.568   2.807 -0.0699  0.2837 -0.5428
  654TIP3    H1 1968   5.850   0.637   2.820 -0.8811 -0.3743 -0.9334
  654TIP3    H2 1969   5.954   0.556   2.893  0.0500  1.1964 -0.4639
  655TIP3   OH2 1970   5.555   1.604   3.860 -0.1849 -0.3324  0.1580
  655TIP3    H1 1971   5.594   1.543   3.923  0.7119  0.7730  0.7102
  655TIP3    H2 1972   5.569   1.563   3.775 -0.5752 -1.4027  0.5939
  656TIP3   OH2 1973   4.865   2.435   2.651 -0.4344  0.0039  0.0359
  656TIP3    H1 1974   4.817   2.440   2.568 -0.3941  1.1199  0.0626
  656TIP3    H2 1975   4.874   2.341   2.668 -1.5938 -0.2365 -0.5558
  657TIP3   OH2 1976   3.155   1.796   0.990 -0.1362  0.0709  0.0196
  657TIP3    H1 1977   3.114   1.748   0.918  0.3220 -0.9008  0.3936
  657TIP3    H2 1978   3.240   1.754   1.002  0.1573  0.7909  0.5550
  658TIP3   OH2 1979   6.349   1.027   4.814  0.1923  0.8209  0.1096
  658TIP3    H1 1980   6.287   0.961   4.783  1.4806  0.9474 -3.1109
  658TIP3    H2 1981   6.399   0.982   4.883  0.5218 -1.3949 -1.4372
  659TIP3   OH2 1982   1.504   3.178   0.212  0.3037  0.2841 -0.0648
  659TIP3    H1 1983   1.592   3.202   0.183  0.4511 -0.6860 -0.4803
  659TIP3    H2 1984   1.517   3.099   0.264 -0.4684 -0.8480 -1.5319
  660TIP3   OH2 1985   1.330   4.703   3.795  0.3061  0.2899  0.9792
  660TIP3    H1 1986   1.297   4.792   3.781  0.2276 -0.0992 -1.8921
  660TIP3    H2 1987   1.374   4.680   3.713 -0.1268 -2.5061  1.4118
  661TIP3   OH2 1988   5.653   1.661   1.351  0.7275  0.0738  0.2232
  661TIP3    H1 1989   5.668   1.575   1.393  2.0358 -0.9681 -2.1678
  661TIP3    H2 1990   5.680   1.724   1.418  0.0755 -1.3489  1.9328
  662TIP3   OH2 1991   0.405   5.693   0.669 -0.1281 -0.4237 -0.4651
  662TIP3    H1 1992   0.463   5.709   0.594  1.2813 -0.3242  0.5952
  662TIP3    H2 1993   0.331   5.646   0.632  0.3929 -0.1361 -1.9694
  663TIP3   OH2 1994   5.155   1.918   1.705  0.7133  0.1528 -0.3348
  663TIP3    H1 1995   5.205   1.999   1.720  2.2940 -0.3948 -2.1515
  663TIP3    H2 1996   5.185   1.888   1.619 -0.0337 -2.2187  0.1659
  664TIP3   OH2 1997   5.322   4.983   2.902 -0.3008 -0.3503  0.2575
  664TIP3    H1 1998   5.332   4.914   2.836  0.2764  1.3806 -1.5725
  664TIP3    H2 1999   5.345   4.941   2.985  0.8160 -2.1498 -0.8945
  665TIP3   OH2 2000   3.976   1.374   0.027  0.3453 -0.1577  0.1335
  665TIP3    H1 2001   3.931   1.407   0.104  1.3244  2.8532 -0.4555
  665TIP3    H2 2002   3.915   1.387  -0.045  0.1248 -1.2406  0.1121
  666TIP3   OH2 2003   4.262   0.738   5.042  0.0346  0.0983  0.1126
  666TIP3    H1 2004   4.288   0.694   4.961 -1.5619 -0.3619 -0.1990
  666TIP3    H2 2005   4.278   0.673   5.111 -1.5497 -0.7327 -0.2496
  667TIP3   OH2 2006   1.246   3.907   1.770  0.0198  0.4230  0.1871
  667TIP3    H1 2007   1.194   3.945   1.699 -0.6644 -0.6574  0.0744
  667TIP3    H2 2008   1.241   3.812   1.754  1.3298  0.2584  0.6713
  668TIP3   OH2 2009   5.148   4.069   1.380 -0.1741 -0.6112 -0.0244
  668TIP3    H1 2010   5.132   4.160   1.403  0.2083 -0.8232  1.1294
  668TIP3    H2 2011   5.086   4.051   1.308 -2.1486 -0.2053  1.4792
  669TIP3   OH2 2012   1.149   2.945   3.610 -0.6119  0.1055  0.4159
  669TIP3    H1 2013   1.226   2.893   3.634 -0.6241  1.0335  2.7440
  669TIP3    H2 2014   1.074   2.888   3.629 -0.5795 -0.8487 -1.9794
  670TIP3   OH2 2015   0.743   0.692   2.501 -0.0584  0.4016 -0.6811
  670TIP3    H1 2016   0.669   0.750   2.485  0.3780  0.8613 -1.0835
  670TIP3    H2 2017   0.740   0.628   2.430 -1.1555 -0.7319  0.3470
  671TIP3   OH2 2018   4.662   0.231   0.303 -0.0484 -0.6470 -0.1486
  671TIP3    H1 2019   4.742   0.215   0.353  0.0531 -0.1901 -0.1653
  671TIP3    H2 2020   4.650   0.151   0.252  0.2623 -0.8157  0.0383
  672TIP3   OH2 2021   2.287   3.937   4.926  0.0041  0.0840  0.2399
  672TIP3    H1 2022   2.255   4.020   4.891 -2.2499 -0.6567  0.4123
  672TIP3    H2 2023   2.244   3.928   5.011  2.0749 -0.1777  1.3489
  673TIP3   OH2 2024   3.593   0.218   0.669  0.4063  0.3024  0.0399
  673TIP3    H1 2025   3.600   0.137   0.619 -0.7962 -0.6713  1.3587
  673TIP3    H2 2026   3.605   0.288   0.604  0.2075 -0.9116 -1.3563
  674TIP3   OH2 2027   4.284   4.064   4.506 -0.0614  0.7390 -0.0479
  674TIP3    H1 2028   4.288   4.129   4.576 -0.7324 -0.3036  1.0095
  674TIP3    H2 2029   4.278   3.980   4.552  0.1782 -0.0324 -1.3696
  675TIP3   OH2 2030   3.128   1.812   5.143  0.4922 -0.0877  0.1076
  675TIP3    H1 2031   3.079   1.858   5.074 -0.3856 -0.1198  0.6889
  675TIP3    H2 2032   3.207   1.780   5.099 -0.1079 -0.2201 -0.9168
  676TIP3   OH2 2033   5.134   1.293   4.846  0.3059 -0.0600 -0.3221
  676TIP3    H1 2034   5.219   1.292   4.803  0.0385  0.7937 -0.8755
  676TIP3    H2 2035   5.093   1.376   4.820 -0.6385 -0.3858  0.0501
  677TIP3   OH2 2036   5.996   3.728   3.551 -0.1149 -0.3839 -0.5400
  677TIP3    H1 2037   6.091   3.713   3.552 -0.1798 -0.8196  0.1306
  677TIP3    H2 2038   5.977   3.770   3.635 -0.5728 -0.7169 -0.4700
  678TIP3   OH2 2039   1.416   1.371   0.731  0.4914  0.0582  0.9360
  678TIP3    H1 2040   1.394   1.279   0.717  1.5730 -0.4283  2.2117
  678TIP3    H2 2041   1.458   1.399   0.650  1.3891 -0.9782  1.0328
  679TIP3   OH2 2042   1.872   0.325   3.494 -0.6890 -0.1243 -0.4018
  679TIP3    H1 2043   1.942   0.387   3.513 -2.2700  0.9873  2.5544
  679TIP3    H2 2044   1.913   0.239   3.504  0.7483  0.4332 -1.1455
  680TIP3   OH2 2045   0.849   1.963   3.386 -0.4664 -0.0942 -0.0423
  680TIP3    H1 2046   0.835   1.903   3.459 -2.2982 -1.1878 -1.1899
  680TIP3    H2 2047   0.919   1.923   3.335 -0.2435 -0.1345  0.2908
  681TIP3   OH2 2048   1.301   2.910   0.497 -0.0046 -0.0300 -0.4416
  681TIP3    H1 2049   1.224   2.883   0.547 -1.1762 -0.2272 -2.2543
  681TIP3    H2 2050   1.312   3.003   0.520 -2.4265  0.7517 -2.0634
  682TIP3   OH2 2051   2.175   0.157   1.248  0.1714  0.0494 -0.2696
  682TIP3    H1 2052   2.267   0.144   1.224  1.2654 -0.6970  3.5612
  682TIP3    H2 2053   2.130   0.080   1.212  1.8019 -1.4391  0.6872
  683TIP3   OH2 2054   0.710   0.821   3.087  0.1953  0.5204 -0.1873
  683TIP3    H1 2055   0.779   0.861   3.138  1.1099 -0.1664 -0.8514
  683TIP3    H2 2056   0.744   0.820   2.997 -1.0258  0.9481 -0.6734
  684TIP3   OH2 2057   3.816   0.129   2.320 -0.3467  0.3474 -0.4727
  684TIP3    H1 2058   3.730   0.120   2.281 -0.3959  0.3239 -0.3595
  684TIP3    H2 2059   3.877   0.103   2.251 -0.2118  3.6301 -1.7620
  685TIP3   OH2 2060   4.667   5.513   1.018 -0.4461  0.0841  0.4185
  685TIP3    H1 2061   4.572   5.509   1.031 -0.7184  2.1631 -0.4786
  685TIP3    H2 2062   4.684   5.603   0.991  1.4553 -0.8798 -2.0263
  686TIP3   OH2 2063   3.983   3.815   2.669 -0.5324  0.2995 -0.4195
  686TIP3    H1 2064   3.945   3.754   2.605 -1.3569  0.5851 -0.2165
  686TIP3    H2 2065   3.930   3.894   2.661 -0.3342  0.5115  0.2770
  687TIP3   OH2 2066   5.343   3.650   4.651 -0.4918  0.6237  0.1079
  687TIP3    H1 2067   5.296   3.567   4.660  0.5763  0.0720  0.7753
  687TIP3    H2 2068   5.431   3.625   4.622 -0.1005  1.5112  0.5016
  688TIP3   OH2 2069   4.228   4.120   1.779  0.1999 -0.3459 -0.3777
  688TIP3    H1 2070   4.143   4.102   1.819 -0.6585 -1.2469 -2.4804
  688TIP3    H2 2071   4.288   4.127   1.853 -1.2580 -2.1051  1.0662
  689TIP3   OH2 2072   1.559   3.105   4.445 -0.5923 -0.5059 -0.1156
  689TIP3    H1 2073   1.492   3.085   4.511  0.5891 -0.8821  1.0057
  689TIP3    H2 2074   1.576   3.199   4.456 -0.7671 -0.4579 -0.2483
  690TIP3   OH2 2075   6.264   1.371   5.034  0.0653 -0.8303  0.3324
  690TIP3    H1 2076   6.253   1.325   5.118 -0.7576 -0.5129  0.4041
  690TIP3    H2 2077   6.299   1.457   5.058  2.0470 -1.5236  0.1680
  691TIP3   OH2 2078   2.705   3.932   2.800 -0.0289 -0.1424 -0.4220
  691TIP3    H1 2079   2.780   3.880   2.830  0.9953  1.0133 -0.9264
  691TIP3    H2 2080   2.743   4.013   2.767 -1.3762 -0.1832 -2.1925
  692TIP3   OH2 2081   1.619   1.932   1.140  0.5035 -0.1980 -0.0997
  692TIP3    H1 2082   1.643   1.997   1.073 -0.8969 -0.5119 -0.9465
  692TIP3    H2 2083   1.541   1.968   1.182 -0.1490 -1.1791 -0.4135
  693TIP3   OH2 2084   0.179   3.770   3.425  0.0809 -0.2550 -0.0445
  693TIP3    H1 2085   0.158   3.833   3.356  0.3286 -0.5546 -0.3939
  693TIP3    H2 2086   0.261   3.730   3.396  0.6199  0.2028  0.8143
  694TIP3   OH2 2087   6.262   5.975   1.075 -0.4629 -0.6512 -0.1164
  694TIP3    H1 2088   6.215   6.042   1.026 -1.1648 -2.0318 -1.3814
  694TIP3    H2 2089   6.193   5.923   1.117  0.0965 -0.0999  1.6034
  695TIP3   OH2 2090   2.688   1.234   2.247 -0.1828 -0.4959 -0.1908
  695TIP3    H1 2091   2.649   1.148   2.230  0.6819 -0.8628 -0.3510
  695TIP3    H2 2092   2.752   1.218   2.316  0.4160 -0.0905 -0.6461
  696TIP3   OH2 2093   1.678   0.517   4.328  0.3159  0.2611 -0.1113
  696TIP3    H1 2094   1.748   0.508   4.264 -0.2697  0.5761 -0.8006
  696TIP3    H2 2095   1.598   0.526   4.276 -0.1107  0.9945  0.6548
  697TIP3   OH2 2096   2.500   5.385   2.375 -0.0305  0.3382 -0.3252
  697TIP3    H1 2097   2.539   5.468   2.402  1.2016 -0.7366  1.4160
  697TIP3    H2 2098   2.573   5.323   2.375 -1.3004 -1.2311  0.6524
  698TIP3   OH2 2099   0.855   5.105   2.493 -0.0281  0.1238 -0.2902
  698TIP3    H1 2100   0.925   5.151   2.446  0.9205  0.6182  1.5077
  698TIP3    H2 2101   0.899   5.032   2.536 -0.4783  0.7314  1.2792
  699TIP3   OH2 2102   3.396   4.285   2.406  0.0283  0.5175 -0.2453
  699TIP3    H1 2103   3.312   4.309   2.446 -0.3285 -0.5384 -0.3323
  699TIP3    H2 2104   3.376   4.210   2.351  0.7442  1.2342 -1.5234
  700TIP3   OH2 2105   5.995   2.517   1.080 -0.3063  0.2522 -0.0971
  700TIP3    H1 2106   5.915   2.569   1.088 -0.5411  0.0706 -1.1085
  700TIP3    H2 2107   5.973   2.432   1.118 -0.6018  0.1986 -0.3826
  701TIP3   OH2 2108   3.053   0.143   4.749  0.0773  0.2181 -0.1594
  701TIP3    H1 2109   3.045   0.146   4.653  1.5691 -2.0940 -0.4248
  701TIP3    H2 2110   3.133   0.192   4.768 -0.2737  0.7648 -0.0574
  702TIP3   OH2 2111   1.931   1.916   1.738  0.0931  0.2653  0.5749
  702TIP3    H1 2112   1.954   1.960   1.820 -0.6279 -0.3835  1.1352
  702TIP3    H2 2113   1.869   1.975   1.696  0.4804  0.6101  0.4814
  703TIP3   OH2 2114   5.886   2.091   4.754  0.2462  0.6112  0.8129
  703TIP3    H1 2115   5.919   2.053   4.673  0.4140 -0.3248  1.3010
  703TIP3    H2 2116   5.957   2.077   4.817  0.2834  1.6979  1.0250
  704TIP3   OH2 2117   2.826   0.316   1.557  0.1980  0.0278  0.8846
  704TIP3    H1 2118   2.811   0.328   1.650 -1.1128 -4.3295  1.4621
  704TIP3    H2 2119   2.883   0.239   1.552  1.2686  0.8870 -1.9197
  705TIP3   OH2 2120   1.060   5.324   1.737  0.2354  0.2378  0.2158
  705TIP3    H1 2121   0.983   5.334   1.793  1.4851  1.1978  1.8283
  705TIP3    H2 2122   1.074   5.230   1.732  0.4675  0.1440  2.0849
  706TIP3   OH2 2123   3.791   4.431   3.642 -0.0382  0.5224  0.4304
  706TIP3    H1 2124   3.869   4.423   3.697 -0.3460  0.6883  0.8886
  706TIP3    H2 2125   3.770   4.524   3.644 -0.9411  0.3068  1.2589
  707TIP3   OH2 2126   5.084   4.395   4.707 -0.1639  0.2270  0.4998
  707TIP3    H1 2127   5.136   4.324   4.670  0.5399  1.7189 -1.5630
  707TIP3    H2 2128   5.007   4.351   4.744  1.2702 -1.7698  1.2985
  708TIP3   OH2 2129   0.535   1.686   3.699 -0.5767 -0.4030  0.0895
  708TIP3    H1 2130   0.512   1.706   3.608  1.5198  1.0141 -0.2101
  708TIP3    H2 2131   0.626   1.655   3.694 -0.2471  0.1935  1.7468
  709TIP3   OH2 2132   0.861   0.012   0.348  0.0188  0.0893 -0.5150
  709TIP3    H1 2133   0.890   0.092   0.392 -0.4231 -1.2021  2.3032
  709TIP3    H2 2134   0.800  -0.029   0.409 -0.8580 -1.7534 -2.4762
  710TIP3   OH2 2135   4.222   4.092   2.269  0.1139  0.1024  0.0317
  710TIP3    H1 2136   4.305   4.045   2.276 -0.1859 -0.6519 -1.2681
  710TIP3    H2 2137   4.183   4.085   2.356  1.3827  0.4556  0.6570
  711TIP3   OH2 2138   0.922   3.785   0.433 -0.2698 -0.5665 -0.0942
  711TIP3    H1 2139   0.892   3.850   0.497 -0.7897  0.5761 -1.4583
  711TIP3    H2 2140   0.896   3.701   0.471 -0.9412  0.0987  0.9919
  712TIP3   OH2 2141   0.839   4.202   1.430  0.1804  0.0248  0.8189
  712TIP3    H1 2142   0.887   4.258   1.369 -0.5134  2.4369  2.3539
  712TIP3    H2 2143   0.795   4.263   1.489 -1.1536 -2.1700  2.2223
  713TIP3   OH2 2144   1.984   5.228   2.171 -0.9209  0.0606  0.3670
  713TIP3    H1 2145   2.067   5.203   2.212 -1.0055 -0.1237  0.4272
  713TIP3    H2 2146   1.949   5.147   2.135 -0.7902  0.2421 -0.1790
  714TIP3   OH2 2147   2.860   3.577   3.244  0.2442  0.3749  0.3447
  714TIP3    H1 2148   2.900   3.512   3.302  2.0867  1.0957 -0.0284
  714TIP3    H2 2149   2.905   3.566   3.161  0.3383  1.8419  0.1611
  715TIP3   OH2 2150   0.729   2.806   2.610  0.0254 -0.1040  0.0091
  715TIP3    H1 2151   0.755   2.751   2.683 -1.8029 -2.1442 -0.7617
  715TIP3    H2 2152   0.648   2.849   2.639 -0.7402 -0.9642 -0.7484
  716TIP3   OH2 2153   0.043   4.624   3.838 -0.1607  0.2533 -0.6252
  716TIP3    H1 2154   0.118   4.606   3.896 -0.8397  0.7185  0.4393
  716TIP3    H2 2155   0.063   4.576   3.758  0.2666 -1.3883  0.4092
  717TIP3   OH2 2156   1.341   4.396   1.923 -0.0647 -0.2369  0.1306
  717TIP3    H1 2157   1.300   4.387   2.009  1.3530 -0.4819  0.8093
  717TIP3    H2 2158   1.336   4.308   1.885  0.7634 -0.5198  0.6567
  718TIP3   OH2 2159   2.855   2.369   3.232 -0.4536 -0.5760  0.0101
  718TIP3    H1 2160   2.938   2.326   3.253  0.2106  0.7269  0.1908
  718TIP3    H2 2161   2.846   2.360   3.138  0.1123 -0.3751 -0.0690
  719TIP3   OH2 2162   1.708   2.383   3.843 -0.8516  0.1715  0.1935
  719TIP3    H1 2163   1.649   2.340   3.905 -0.7321 -1.5517 -0.8307
  719TIP3    H2 2164   1.796   2.365   3.876 -0.7390 -1.6539 -0.9572
  720TIP3   OH2 2165   2.020   0.594   1.501 -0.2394 -0.0695  0.2673
  720TIP3    H1 2166   1.973   0.555   1.576 -0.7955  0.6661  0.3102
  720TIP3    H2 2167   2.039   0.519   1.445 -2.2165 -0.3283 -0.1584
  721TIP3   OH2 2168   2.011   1.648   2.732 -0.2310  0.4233 -0.3075
  721TIP3    H1 2169   1.963   1.567   2.747  1.1948 -0.4168 -0.0455
  721TIP3    H2 2170   1.988   1.674   2.643  0.7105 -1.3057 -1.0960
  722TIP3   OH2 2171   2.987   0.698   0.270  0.0098  0.2414 -0.8127
  722TIP3    H1 2172   2.938   0.621   0.299 -1.2936  1.2379 -0.2376
  722TIP3    H2 2173   2.975   0.762   0.340  0.8575  1.0645 -1.3839
  723TIP3   OH2 2174   3.018   0.418   3.918  0.2607  0.6402  0.5111
  723TIP3    H1 2175   2.968   0.344   3.951  0.2445  0.3649 -0.1163
  723TIP3    H2 2176   3.085   0.379   3.862  0.0891  1.1106 -0.0300
  724TIP3   OH2 2177   3.084   1.395   0.155  0.1750  0.1104 -0.3755
  724TIP3    H1 2178   3.180   1.395   0.149  0.1594  0.1591 -0.6233
  724TIP3    H2 2179   3.063   1.312   0.199  0.4512  1.1052  1.7772
  725TIP3   OH2 2180   5.392   3.925   3.751  0.4732 -0.4192  0.0831
  725TIP3    H1 2181   5.327   3.957   3.814  1.6802 -2.9142  2.8502
  725TIP3    H2 2182   5.371   3.832   3.740  1.8683 -0.6214 -1.1971
  726TIP3   OH2 2183   3.699   1.615   4.213  0.5463  0.1345 -0.7168
  726TIP3    H1 2184   3.625   1.559   4.236  0.0408  0.3731 -1.7220
  726TIP3    H2 2185   3.763   1.556   4.174  0.7780 -0.0219 -0.1204
  727TIP3   OH2 2186   0.404   3.659   2.912 -0.3731  0.1275  0.1247
  727TIP3    H1 2187   0.430   3.711   2.988  1.3878  1.8865 -1.5281
  727TIP3    H2 2188   0.328   3.705   2.876 -2.2350 -1.6194  1.6241
  728TIP3   OH2 2189   5.289   2.718   0.633  0.0551 -0.1667 -0.9013
  728TIP3    H1 2190   5.270   2.651   0.699 -0.8769  0.6994 -0.2473
  728TIP3    H2 2191   5.384   2.720   0.627  0.1123 -1.3287 -0.7165
  729TIP3   OH2 2192   5.795   0.934   1.072  0.0085 -0.4190 -0.2043
  729TIP3    H1 2193   5.747   1.014   1.054  0.5039  0.2946  1.4265
  729TIP3    H2 2194   5.878   0.963   1.108  0.4391 -1.6617 -0.1414
  730TIP3   OH2 2195   6.000   1.484   2.859 -0.1418  0.3318  0.5041
  730TIP3    H1 2196   6.046   1.555   2.815 -0.7891  0.7165  0.4276
  730TIP3    H2 2197   5.938   1.451   2.794  0.8284 -0.9725  0.2093
  731TIP3   OH2 2198   1.344   1.795   1.346  0.3757 -0.0596  0.2483
  731TIP3    H1 2199   1.429   1.764   1.315  0.6998  0.3077  0.7543
  731TIP3    H2 2200   1.307   1.842   1.272  0.4056 -0.6152 -0.1278
  732TIP3   OH2 2201   5.788   1.733   4.827  0.3453 -0.5658 -0.8771
  732TIP3    H1 2202   5.855   1.668   4.804 -0.2508 -1.8780  0.8424
  732TIP3    H2 2203   5.827   1.784   4.898  0.1621 -0.1674 -1.0602
  733TIP3   OH2 2204   5.660   1.207   3.400  0.0902  0.0201  0.1187
  733TIP3    H1 2205   5.634   1.258   3.323 -1.3236  0.8664  1.1133
  733TIP3    H2 2206   5.661   1.116   3.370  0.4371  0.4191 -1.1149
  734TIP3   OH2 2207   6.108   2.780   4.224  0.3265  0.7012  0.2968
  734TIP3    H1 2208   6.030   2.737   4.189  0.4958  0.7783 -0.1825
  734TIP3    H2 2209   6.160   2.709   4.261  0.0945  0.6318  0.4930
  735TIP3   OH2 2210   3.794   1.926   1.574 -0.4397 -0.0200 -0.4703
  735TIP3    H1 2211   3.864   1.862   1.587 -1.1134 -0.5167  0.7858
  735TIP3    H2 2212   3.725   1.878   1.529 -0.3635  0.2208 -0.8517
  736TIP3   OH2 2213   5.838   4.914   2.761 -0.2079  0.0893 -0.3472
  736TIP3    H1 2214   5.779   4.973   2.715 -1.3861  0.0331  1.0074
  736TIP3    H2 2215   5.851   4.955   2.847 -0.3860 -1.1938  0.3179
  737TIP3   OH2 2216   4.602   4.685   0.873  0.3823  0.0080  0.2461
  737TIP3    H1 2217   4.593   4.664   0.966  0.8226  0.4122  0.3805
  737TIP3    H2 2218   4.515   4.717   0.847 -0.7503 -3.1578 -0.2931
  738TIP3   OH2 2219   4.067   3.706   3.845 -0.1548 -0.5214 -0.6876
  738TIP3    H1 2220   4.125   3.758   3.901 -0.0964 -0.2782 -0.9691
  738TIP3    H2 2221   4.101   3.617   3.853 -1.8340 -1.0305  1.8472
  739TIP3   OH2 2222   1.217   1.532   0.798  0.0120 -0.1127 -0.0644
  739TIP3    H1 2223   1.299   1.484   0.796  0.4094  0.5751 -0.7236
  739TIP3    H2 2224   1.243   1.624   0.800 -0.7019  0.2115 -2.4429
  740TIP3   OH2 2225   4.746   2.699   0.057 -0.5817  0.7081  0.6298
  740TIP3    H1 2226   4.760   2.616   0.101  0.5386  1.7143  2.2692
  740TIP3    H2 2227   4.832   2.722   0.021 -1.2273  0.4439 -1.2043
  741TIP3   OH2 2228   6.017   2.758   3.231 -0.3681 -0.0373 -0.1820
  741TIP3    H1 2229   5.964   2.731   3.156  1.9773 -0.4513 -1.7843
  741TIP3    H2 2230   5.959   2.816   3.281 -2.4430 -0.7646 -1.5976
  742TIP3   OH2 2231   2.289   1.670   0.048  0.0671  0.1367  1.4886
  742TIP3    H1 2232   2.380   1.674   0.080  0.2527  1.4743  0.8755
  742TIP3    H2 2233   2.236   1.663   0.127  0.6114  1.4304  1.9880
  743TIP3   OH2 2234   3.751   4.608   2.171  0.3141 -0.1671 -0.5528
  743TIP3    H1 2235   3.757   4.572   2.260  0.1304 -1.6588 -1.1130
  743TIP3    H2 2236   3.657   4.611   2.153  0.3202  0.7069 -0.4900
  744TIP3   OH2 2237   5.415   5.146   3.724  0.0395 -0.7512  0.5328
  744TIP3    H1 2238   5.371   5.065   3.750 -1.7092  0.7329  2.5791
  744TIP3    H2 2239   5.371   5.173   3.643  0.6426 -1.8053 -0.1712
  745TIP3   OH2 2240   5.455   4.490   4.258 -0.2022  0.1202 -0.0622
  745TIP3    H1 2241   5.496   4.422   4.312  0.0838 -0.6178 -1.1642
  745TIP3    H2 2242   5.366   4.498   4.293  0.3312  0.4949  1.2456
  746TIP3   OH2 2243   5.522   2.831   3.307 -0.4989 -0.1168  0.2362
  746TIP3    H1 2244   5.588   2.766   3.334  1.2437  1.2431 -0.5602
  746TIP3    H2 2245   5.544   2.909   3.357 -1.3378  0.4535 -0.2742
  747TIP3   OH2 2246   0.246   5.733   4.657  0.2208  0.3414  0.7461
  747TIP3    H1 2247   0.338   5.725   4.682  0.6364 -1.8635 -1.1455
  747TIP3    H2 2248   0.200   5.753   4.739  2.1066 -0.9972  2.2120
  748TIP3   OH2 2249   2.561   3.554   4.843 -0.8148  0.6254 -0.0336
  748TIP3    H1 2250   2.623   3.531   4.774  0.9983  1.3786  1.2782
  748TIP3    H2 2251   2.590   3.504   4.919 -1.1177  1.8612  0.9237
  749TIP3   OH2 2252   0.784   4.898   3.556 -0.0858  0.2073 -0.7340
  749TIP3    H1 2253   0.813   4.943   3.635 -0.2234  0.4105 -0.7971
  749TIP3    H2 2254   0.863   4.890   3.503 -0.3979  2.2515 -1.6372
  750TIP3   OH2 2255   0.882   3.979   0.189 -0.3438 -0.2492 -0.2242
  750TIP3    H1 2256   0.874   4.045   0.120 -0.6381  0.0535  0.1008
  750TIP3    H2 2257   0.974   3.954   0.188  0.5426  2.4674  1.7725
  751TIP3   OH2 2258   3.795   0.502   2.186  0.6010  0.0571  0.2538
  751TIP3    H1 2259   3.744   0.467   2.259  1.2553  0.6119  1.0082
  751TIP3    H2 2260   3.881   0.461   2.195 -0.1299 -2.1783 -1.9947
  752TIP3   OH2 2261   4.196   3.151   1.717  0.3505  0.3507 -0.3194
  752TIP3    H1 2262   4.269   3.099   1.683  0.8399  0.2149  0.8814
  752TIP3    H2 2263   4.176   3.213   1.647  0.7487 -0.4700 -1.1821
  753TIP3   OH2 2264   4.504   3.955   2.227 -0.8983  0.0577 -0.0762
  753TIP3    H1 2265   4.468   3.876   2.187  1.2140 -1.7656  1.3516
  753TIP3    H2 2266   4.571   3.984   2.165  0.7609 -1.4225  0.8989
  754TIP3   OH2 2267   0.704   0.833   4.779  0.3451 -0.0742 -0.4400
  754TIP3    H1 2268   0.647   0.868   4.711  3.2661  2.8717 -1.6086
  754TIP3    H2 2269   0.785   0.811   4.734  1.1316 -1.6280  1.5639
  755TIP3   OH2 2270   2.093   3.616   1.097  0.0682  0.5320  0.8875
  755TIP3    H1 2271   2.097   3.571   1.012 -1.9217 -1.0474  1.5613
  755TIP3    H2 2272   2.121   3.550   1.160  1.5094  1.6834  1.5185
  756TIP3   OH2 2273   0.552   4.321   2.919 -0.4595 -0.1189  0.1681
  756TIP3    H1 2274   0.528   4.237   2.958 -1.2540  0.0597  0.0727
  756TIP3    H2 2275   0.469   4.363   2.899 -0.0769  0.8757  0.5998
  757TIP3   OH2 2276   0.568   3.038   5.182  0.6007  0.4833  0.3403
  757TIP3    H1 2277   0.480   3.005   5.166  1.0493 -1.1910  1.1234
  757TIP3    H2 2278   0.570   3.122   5.136 -1.5571  0.8290  0.7639
  758TIP3   OH2 2279   1.744   1.065   0.473 -0.4543  0.3033  0.6927
  758TIP3    H1 2280   1.734   0.979   0.514 -2.7505  1.2857  2.4193
  758TIP3    H2 2281   1.703   1.056   0.387 -1.1250 -0.2442  1.0582
  759TIP3   OH2 2282   2.480   2.585   1.910 -0.0970 -0.1270  0.5233
  759TIP3    H1 2283   2.552   2.583   1.848 -1.9365  1.6603 -1.8763
  759TIP3    H2 2284   2.445   2.496   1.908 -0.8386  0.1316 -2.0741
  760TIP3   OH2 2285   1.083   4.006   2.051  0.5490 -0.7283 -0.0865
  760TIP3    H1 2286   1.007   4.003   2.109  0.8399  1.3999  0.4738
  760TIP3    H2 2287   1.158   4.010   2.109  0.7931  2.8574 -0.4204
  761TIP3   OH2 2288   0.475   4.526   2.544 -0.0902  0.2393  0.2548
  761TIP3    H1 2289   0.537   4.459   2.572 -0.6701 -0.8159 -0.8982
  761TIP3    H2 2290   0.463   4.582   2.621  1.8966  0.1989  0.6476
  762TIP3   OH2 2291   0.018   1.795  -0.026  0.4058  0.1624 -0.3307
  762TIP3    H1 2292  -0.011   1.797   0.065  1.7784  1.9470  0.1144
  762TIP3    H2 2293   0.069   1.875  -0.037  0.4157 -0.0998 -2.6370
  763TIP3   OH2 2294   2.507   4.035   0.273  0.3376 -0.2770 -0.1222
  763TIP3    H1 2295   2.475   4.054   0.185  2.6366 -0.2794 -1.0220
  763TIP3    H2 2296   2.473   4.106   0.327  0.1856  0.6025 -1.3476
  764TIP3   OH2 2297   2.871   2.322   2.647  0.3549  0.1469  0.0416
  764TIP3    H1 2298   2.862   2.395   2.586  1.0017  0.1408 -0.0628
  764TIP3    H2 2299   2.950   2.276   2.618  0.4626 -0.0623  0.6623
  765TIP3   OH2 2300   5.934   2.448   2.710 -0.6202 -0.0504 -0.1814
  765TIP3    H1 2301   5.872   2.481   2.775 -0.4639  2.0290 -1.0108
  765TIP3    H2 2302   6.016   2.493   2.729 -0.8510  1.4931 -2.4409
  766TIP3   OH2 2303   5.770   3.737   5.017  0.2514  0.5362 -0.3551
  766TIP3    H1 2304   5.861   3.726   5.046  0.0601  2.1925  1.0366
  766TIP3    H2 2305   5.741   3.649   4.994  1.3971 -0.4457  1.6923
  767TIP3   OH2 2306   6.228   2.526   4.362  0.0980 -0.6339 -0.0225
  767TIP3    H1 2307   6.215   2.491   4.450  0.4373 -0.3167  0.1547
  767TIP3    H2 2308   6.289   2.465   4.320  0.8765 -0.1344  0.3656
  768TIP3   OH2 2309   2.826   0.993   4.318 -0.0842  0.4318 -0.2551
  768TIP3    H1 2310   2.737   0.994   4.284  0.0896  1.1516 -0.7009
  768TIP3    H2 2311   2.843   1.083   4.343  0.4086  0.2354  0.1450
  769TIP3   OH2 2312   1.340   3.539   2.824 -0.0576  0.5851  0.4975
  769TIP3    H1 2313   1.378   3.522   2.737 -0.7228 -1.6306  0.5944
  769TIP3    H2 2314   1.393   3.487   2.884 -0.5013  0.9691  1.2360
  770TIP3   OH2 2315   4.117   5.726   0.358 -0.9339  0.3463 -0.2639
  770TIP3    H1 2316   4.151   5.696   0.274 -0.9807  0.6641 -0.3973
  770TIP3    H2 2317   4.027   5.691   0.361 -1.2508  1.0995 -0.7528
  771TIP3   OH2 2318   4.373   5.918   2.703  0.1220 -0.4210  0.6569
  771TIP3    H1 2319   4.328   5.998   2.731 -0.6760 -0.5366 -0.2557
  771TIP3    H2 2320   4.303   5.860   2.675  0.8596 -0.2559 -1.7188
  772TIP3   OH2 2321   3.558   2.146   0.386 -0.2449  0.4366  0.7570
  772TIP3    H1 2322   3.501   2.222   0.382 -0.4567  0.3088  1.2952
  772TIP3    H2 2323   3.628   2.172   0.446  0.3913  0.6744 -0.0668
  773TIP3   OH2 2324   5.506   5.602   0.120 -0.3051  0.0108 -0.3401
  773TIP3    H1 2325   5.549   5.596   0.206 -0.1153 -3.6054 -0.4924
  773TIP3    H2 2326   5.579   5.606   0.058 -0.3466 -0.1513 -0.4003
  774TIP3   OH2 2327   2.130   3.480   0.079 -0.6441  0.6691  0.3501
  774TIP3    H1 2328   2.092   3.392   0.076 -0.0162  0.3587  0.9297
  774TIP3    H2 2329   2.158   3.489   0.170  0.2507  1.0559  0.0406
  775TIP3   OH2 2330   3.639   0.708   4.606  0.1106  0.5145  0.3632
  775TIP3    H1 2331   3.695   0.632   4.594 -0.5974 -0.8455  4.1229
  775TIP3    H2 2332   3.644   0.755   4.523  1.7328 -2.8267 -1.6674
  776TIP3   OH2 2333   0.834   5.589   4.582  0.1755  0.5522  0.0956
  776TIP3    H1 2334   0.747   5.607   4.547 -0.0890 -1.1484 -0.2287
  776TIP3    H2 2335   0.880   5.545   4.510  0.6927 -0.1734  0.8470
  777TIP3   OH2 2336   1.345   2.650   4.655 -0.6527 -0.8500 -0.3560
  777TIP3    H1 2337   1.422   2.606   4.691 -0.7611 -1.5025 -0.9142
  777TIP3    H2 2338   1.376   2.694   4.576 -0.3462  0.8473  0.6534
  778TIP3   OH2 2339   3.821   1.072   3.033 -0.8282 -0.3814 -0.5566
  778TIP3    H1 2340   3.862   1.155   3.057 -0.3970 -0.7481 -0.0090
  778TIP3    H2 2341   3.855   1.053   2.945 -0.7347 -0.1134 -0.5801
  779TIP3   OH2 2342   4.276   2.455   3.937  0.2196 -0.2045  0.3875
  779TIP3    H1 2343   4.233   2.370   3.926  0.7098 -0.4528  0.3766
  779TIP3    H2 2344   4.204   2.516   3.955 -0.0566 -0.7849  1.3399
  780TIP3   OH2 2345   6.217   4.285   2.321  0.0086 -0.7091 -0.5136
  780TIP3    H1 2346   6.281   4.309   2.254 -2.0680  1.9800 -1.7506
  780TIP3    H2 2347   6.180   4.202   2.290  1.5979 -1.3599 -0.7234
  781TIP3   OH2 2348   1.422   0.442   3.230  0.5053 -0.5084 -0.1543
  781TIP3    H1 2349   1.405   0.348   3.231  0.0911 -0.4545  1.7722
  781TIP3    H2 2350   1.457   0.461   3.317  2.5421  0.7995 -1.1673
  782TIP3   OH2 2351   1.193   2.273   1.812 -0.7157 -0.0328 -0.8801
  782TIP3    H1 2352   1.169   2.292   1.903 -0.4269 -0.2003 -0.7683
  782TIP3    H2 2353   1.110   2.249   1.771 -0.8852  0.2640 -0.7190
  783TIP3   OH2 2354   0.129   5.392   2.018  0.2166 -0.2337  0.0072
  783TIP3    H1 2355   0.137   5.484   2.045  0.1525  0.0164 -0.7999
  783TIP3    H2 2356   0.056   5.392   1.956  1.4655 -0.4723 -1.5133
  784TIP3   OH2 2357  -0.020   3.313   2.616  0.2285 -0.0934  0.0552
  784TIP3    H1 2358   0.056   3.333   2.560  1.4583  1.7691  2.2057
  784TIP3    H2 2359   0.001   3.227   2.654  2.2310  1.0971  1.9149
  785TIP3   OH2 2360   0.220   4.745   1.796 -0.3732 -0.0923 -0.3526
  785TIP3    H1 2361   0.169   4.672   1.761 -0.8615  0.6866 -1.3137
  785TIP3    H2 2362   0.309   4.729   1.765  0.0675 -1.5775  1.5205
  786TIP3   OH2 2363   2.062   1.491   4.168 -0.1925 -0.2347 -0.2396
  786TIP3    H1 2364   2.102   1.505   4.254  0.8932 -0.5134 -0.6889
  786TIP3    H2 2365   2.015   1.408   4.178  1.4310 -1.2086 -0.4212
  787TIP3   OH2 2366   0.495   1.647   1.827  0.6172  0.4460 -0.3975
  787TIP3    H1 2367   0.507   1.717   1.892  0.9147  0.5605 -0.5710
  787TIP3    H2 2368   0.411   1.607   1.850  0.8813  0.2575  0.2736
  788TIP3   OH2 2369   3.562   4.502   4.213 -0.6479  0.0548  0.6445
  788TIP3    H1 2370   3.549   4.574   4.273  1.6736  0.0536  1.2415
  788TIP3    H2 2371   3.558   4.542   4.126 -1.5128  0.4934  0.8774
  789TIP3   OH2 2372   5.312   3.552   3.529 -0.4020  0.3789  0.0634
  789TIP3    H1 2373   5.294   3.498   3.452  0.2872  0.7863 -0.3815
  789TIP3    H2 2374   5.327   3.640   3.495 -0.5017  0.6488  0.6986
  790TIP3   OH2 2375   1.504   3.026   0.925 -0.3850  0.5333 -0.3083
  790TIP3    H1 2376   1.518   3.077   1.005  2.0654 -1.9542  1.0433
  790TIP3    H2 2377   1.559   3.070   0.860 -1.5078  1.9215 -0.3727
  791TIP3   OH2 2378   0.456   5.725   2.714 -0.6530  0.7409  0.3339
  791TIP3    H1 2379   0.385   5.751   2.655 -1.2618  0.4291  0.9103
  791TIP3    H2 2380   0.411   5.684   2.788  0.2403 -1.4123 -0.2543
  792TIP3   OH2 2381   2.472   5.414   4.704 -0.7412 -0.2381  0.1913
  792TIP3    H1 2382   2.454   5.482   4.768  3.5045  1.1788  0.1585
  792TIP3    H2 2383   2.483   5.334   4.756  1.0191  0.5577  1.0959
  793TIP3   OH2 2384   2.385   3.149   2.621 -0.0553 -0.0048  0.4273
  793TIP3    H1 2385   2.402   3.125   2.713 -0.6582 -0.4045  0.4404
  793TIP3    H2 2386   2.439   3.089   2.570 -0.5828 -0.5587  0.4990
  794TIP3   OH2 2387   3.130   1.623   2.999  0.0776  0.0196 -0.2076
  794TIP3    H1 2388   3.042   1.631   2.964 -0.2757 -0.6753  0.5004
  794TIP3    H2 2389   3.145   1.704   3.047 -0.2943 -0.0038 -0.0539
  795TIP3   OH2 2390   0.592   0.833   3.525 -0.3528 -0.1790 -0.3110
  795TIP3    H1 2391   0.541   0.753   3.540  0.2349 -0.3346  0.9996
  795TIP3    H2 2392   0.676   0.816   3.568  0.8249  0.0822 -2.4084
  796TIP3   OH2 2393   3.063   2.777   0.421  0.3031  0.2107  0.3417
  796TIP3    H1 2394   3.155   2.801   0.433  1.3565 -3.1176 -0.0932
  796TIP3    H2 2395   3.036   2.743   0.506  0.2040 -0.9064 -0.1244
  797TIP3   OH2 2396   4.009   1.313   4.818 -0.2664 -0.1197  0.4802
  797TIP3    H1 2397   4.084   1.301   4.760 -0.7238  0.2229 -0.1801
  797TIP3    H2 2398   4.048   1.345   4.900  0.6141 -2.5007  1.1076
  798TIP3   OH2 2399   5.851   3.504   3.512  0.2591 -0.1314  0.0448
  798TIP3    H1 2400   5.877   3.596   3.508 -0.1977  0.0957  1.7399
  798TIP3    H2 2401   5.778   3.496   3.450  0.7475  0.4668 -0.6253
  799TIP3   OH2 2402   3.745   1.446   1.309 -0.4697 -0.5872  0.0749
  799TIP3    H1 2403   3.798   1.526   1.312 -2.1777  0.5546  1.2360
  799TIP3    H2 2404   3.757   1.413   1.220  0.7756  0.6026 -0.2317
  800TIP3   OH2 2405   6.357   4.129   3.541  0.2900 -0.4751 -0.5312
  800TIP3    H1 2406   6.309   4.115   3.460  1.9117  0.5367 -1.7322
  800TIP3    H2 2407   6.363   4.042   3.581 -0.1044 -1.0810 -1.7632
  801TIP3   OH2 2408   3.016   1.026   2.152 -0.1291  0.7580  0.2567
  801TIP3    H1 2409   3.099   0.978   2.150 -0.3733  0.3250  0.2467
  801TIP3    H2 2410   2.997   1.037   2.245 -0.9663 -0.7766  0.3120
  802TIP3   OH2 2411   4.778   1.714   0.365 -0.4642  0.1254 -0.4945
  802TIP3    H1 2412   4.754   1.622   0.375  0.7847 -0.2933 -1.1324
  802TIP3    H2 2413   4.760   1.752   0.451 -0.4824 -0.8427 -0.0473
  803TIP3   OH2 2414   1.113   0.493   3.406 -0.3586 -0.3508  0.4722
  803TIP3    H1 2415   1.194   0.454   3.440 -0.0150  0.7023  0.9088
  803TIP3    H2 2416   1.142   0.573   3.362 -1.3698  1.5639  3.0370
  804TIP3   OH2 2417   4.007   0.235   0.785  0.4918  0.2863 -0.6199
  804TIP3    H1 2418   3.989   0.146   0.757  1.5406 -0.8016  1.8331
  804TIP3    H2 2419   4.087   0.260   0.738  1.5274 -1.0156  0.3608
  805TIP3   OH2 2420   6.372   1.404   3.493 -0.1274 -0.5036 -0.1405
  805TIP3    H1 2421   6.389   1.381   3.401 -0.5107  2.1337 -0.9405
  805TIP3    H2 2422   6.280   1.385   3.506 -0.0731 -0.8861 -0.3020
  806TIP3   OH2 2423   6.350   2.792   0.000 -0.2406 -0.0251 -0.1304
  806TIP3    H1 2424   6.295   2.773   0.076  0.1383 -1.0776 -0.1098
  806TIP3    H2 2425   6.379   2.882   0.014 -0.1266 -0.2243  1.0064
  807TIP3   OH2 2426   3.012   5.430   2.702  0.3846  0.5333  0.6702
  807TIP3    H1 2427   3.100   5.393   2.699 -0.2474 -0.9971  0.1940
  807TIP3    H2 2428   2.953   5.354   2.706 -1.0983  1.3049 -2.7759
  808TIP3   OH2 2429   2.829   4.742   3.740 -0.4071 -0.9239  0.1433
  808TIP3    H1 2430   2.746   4.695   3.733 -0.7251 -0.1508 -1.7523
  808TIP3    H2 2431   2.833   4.795   3.661  0.8352  0.7949  1.3075
  809TIP3   OH2 2432   5.937   2.307   4.324  0.2993  0.2669  0.2410
  809TIP3    H1 2433   5.991   2.227   4.321 -0.6160 -0.4262  1.3800
  809TIP3    H2 2434   5.900   2.314   4.236  1.1039 -0.0472 -0.1388
  810TIP3   OH2 2435   5.590   0.812   0.665 -0.1331  0.0416 -0.3081
  810TIP3    H1 2436   5.591   0.898   0.708  2.4323 -0.1754  0.2514
  810TIP3    H2 2437   5.605   0.750   0.736  1.8433 -0.5134 -1.1394
  811TIP3   OH2 2438   1.993   0.329   4.140  0.4308 -0.8288 -0.2095
  811TIP3    H1 2439   1.955   0.254   4.094  0.0543  1.0719 -3.2709
  811TIP3    H2 2440   1.944   0.405   4.107 -1.5300  0.7075  5.1925
  812TIP3   OH2 2441   6.210   4.930   1.720  0.4531  0.4232  0.6143
  812TIP3    H1 2442   6.135   4.880   1.755  1.1103 -1.1878 -0.1575
  812TIP3    H2 2443   6.175   4.975   1.644  0.6756 -2.1738 -1.1778
  813TIP3   OH2 2444   3.661   5.975   1.306  0.3218  0.6649 -0.1563
  813TIP3    H1 2445   3.689   6.042   1.244  2.7252 -0.4736 -0.4575
  813TIP3    H2 2446   3.722   5.902   1.291 -2.1995 -1.6436  0.0828
  814TIP3   OH2 2447   2.232   4.405   0.090  0.6148 -0.0664 -0.1272
  814TIP3    H1 2448   2.191   4.396   0.177  1.7835 -0.5717  0.3848
  814TIP3    H2 2449   2.315   4.449   0.107  0.4829  0.5953 -1.1157
  815TIP3   OH2 2450   2.677   4.801   4.491  0.6238  0.6866 -0.1517
  815TIP3    H1 2451   2.664   4.895   4.498  0.7837  0.6016  1.6632
  815TIP3    H2 2452   2.706   4.774   4.578  0.0168 -1.1324 -0.4713
  816TIP3   OH2 2453   4.283   4.256   0.990 -0.1088  0.0370  0.2957
  816TIP3    H1 2454   4.316   4.169   0.966  1.2204  0.5665  0.1055
  816TIP3    H2 2455   4.198   4.239   1.032  1.9624 -1.8208  4.3709
  817TIP3   OH2 2456   1.585   2.968   0.415 -0.0168 -0.3915  0.4685
  817TIP3    H1 2457   1.626   3.038   0.466  0.7046 -1.8629  1.9760
  817TIP3    H2 2458   1.523   2.927   0.474 -1.6881 -0.0068 -0.9270
  818TIP3   OH2 2459   2.199   0.678   3.397  0.1189  0.2293  0.3206
  818TIP3    H1 2460   2.227   0.597   3.354 -1.2948 -0.3721  0.4860
  818TIP3    H2 2461   2.213   0.746   3.331  0.3188 -0.3048 -0.1996
  819TIP3   OH2 2462   1.005   4.790   1.865 -0.2207 -0.5405  0.5536
  819TIP3    H1 2463   1.014   4.884   1.847 -1.1556 -0.6594 -0.6897
  819TIP3    H2 2464   1.091   4.753   1.847 -0.3607 -0.1969 -0.8810
  820TIP3   OH2 2465   5.790   0.532   4.078  0.7363  0.0641 -0.0379
  820TIP3    H1 2466   5.748   0.515   4.162 -0.4508 -2.1435 -1.0041
  820TIP3    H2 2467   5.741   0.606   4.041 -1.3771 -1.4441 -0.4461
  821TIP3   OH2 2468   2.939   4.484   1.522 -0.5825 -0.2655  0.3563
  821TIP3    H1 2469   2.993   4.494   1.443 -1.3689 -0.2160 -0.1908
  821TIP3    H2 2470   2.928   4.573   1.554 -2.0723 -0.0068 -0.7444
  822TIP3   OH2 2471   1.503   4.156   4.435  0.4741 -0.2323 -0.5274
  822TIP3    H1 2472   1.554   4.085   4.474 -0.1459 -0.2032  0.3625
  822TIP3    H2 2473   1.493   4.130   4.343 -0.7878 -1.9492  0.0306
  823TIP3   OH2 2474   3.881   5.747   0.589 -0.5315 -0.1920 -0.2144
  823TIP3    H1 2475   3.883   5.711   0.501 -1.2432 -0.1307 -0.2589
  823TIP3    H2 2476   3.791   5.777   0.601 -0.0426  1.3676 -0.1021
  824TIP3   OH2 2477   2.246   5.637   1.008 -0.1119  0.2145  0.2499
  824TIP3    H1 2478   2.184   5.710   1.009  0.1403  0.4489 -0.3553
  824TIP3    H2 2479   2.322   5.670   1.056  1.0079  1.3033 -2.1100
  825TIP3   OH2 2480   0.334   4.626   3.515  0.6274  0.3532  0.5458
  825TIP3    H1 2481   0.369   4.600   3.600  0.8229 -0.2344  0.2907
  825TIP3    H2 2482   0.354   4.719   3.508 -0.0161  0.5681  1.4431
  826TIP3   OH2 2483   5.078   2.719   2.811  0.1404  0.2323  0.3382
  826TIP3    H1 2484   5.157   2.773   2.815  0.5479 -0.4057  3.3489
  826TIP3    H2 2485   5.041   2.736   2.724  2.2994  2.3591 -0.2563
  827TIP3   OH2 2486   1.638   1.668   1.629 -0.2923  0.4918 -0.3705
  827TIP3    H1 2487   1.624   1.708   1.543  4.2072  1.6169 -0.8414
  827TIP3    H2 2488   1.708   1.604   1.615  0.5420  0.6577  2.4323
  828TIP3   OH2 2489   5.266   5.363   3.837 -0.1100 -0.3598 -0.2529
  828TIP3    H1 2490   5.208   5.354   3.762 -0.6295  0.4934  0.0318
  828TIP3    H2 2491   5.345   5.314   3.812  0.0387  0.5270 -1.6895
  829TIP3   OH2 2492   4.912   2.723   2.573 -0.5206 -0.1286  0.2398
  829TIP3    H1 2493   4.894   2.636   2.607 -0.7059 -1.0051 -1.9193
  829TIP3    H2 2494   4.886   2.718   2.481 -0.3038  2.1428  0.0037
  830TIP3   OH2 2495   3.350   0.903   2.279 -0.0622  0.1814 -0.1501
  830TIP3    H1 2496   3.266   0.882   2.320  0.2725 -1.0412 -0.0668
  830TIP3    H2 2497   3.403   0.940   2.349 -0.2783  0.2456 -0.0212
  831TIP3   OH2 2498   1.853   5.786   1.131  0.3635  0.5682  0.0722
  831TIP3    H1 2499   1.831   5.695   1.111  0.4067  0.3257  1.0841
  831TIP3    H2 2500   1.791   5.837   1.079  0.4611 -0.0333 -0.6476
  832TIP3   OH2 2501   0.793   2.384   2.213 -0.5251  0.1764  0.0046
  832TIP3    H1 2502   0.745   2.453   2.258  0.5776 -0.0012  1.5328
  832TIP3    H2 2503   0.881   2.388   2.250  0.3943 -0.1437 -2.0051
  833TIP3   OH2 2504   4.725   1.641   3.413  0.1585 -0.2378  0.4054
  833TIP3    H1 2505   4.785   1.608   3.346  0.2916  0.1274  0.3365
  833TIP3    H2 2506   4.768   1.623   3.496  0.3645  0.0136  0.3562
  834TIP3   OH2 2507   0.154   4.799   3.006  0.0458  0.8881  0.5772
  834TIP3    H1 2508   0.112   4.774   3.089 -3.8711  0.2893 -1.3680
  834TIP3    H2 2509   0.211   4.726   2.985  1.3592  1.1863  2.8061
  835TIP3   OH2 2510   6.177   5.322   4.552  0.4702 -0.1830 -0.3641
  835TIP3    H1 2511   6.232   5.370   4.491  2.4681 -2.8576 -0.8711
  835TIP3    H2 2512   6.088   5.352   4.535  1.4837  2.5389 -1.2406
  836TIP3   OH2 2513   3.059   3.059   1.229  0.1716  0.1991 -0.2503
  836TIP3    H1 2514   3.087   2.971   1.204 -0.2902  0.6844 -2.7049
  836TIP3    H2 2515   2.987   3.044   1.291 -1.6914 -1.3080 -2.5544
  837TIP3   OH2 2516   4.340   4.783   2.930  0.1323 -0.0713  0.5235
  837TIP3    H1 2517   4.363   4.764   3.021 -1.8535 -0.3043  1.0374
  837TIP3    H2 2518   4.294   4.867   2.934 -0.9605 -0.6158 -0.0732
  838TIP3   OH2 2519   0.777   1.928   0.797 -0.7153  0.4069 -0.3612
  838TIP3    H1 2520   0.847   1.992   0.800  0.3074 -0.6884 -0.2352
  838TIP3    H2 2521   0.765   1.901   0.888 -0.3652 -0.3822 -0.5398
  839TIP3   OH2 2522   0.176   3.426   1.399  0.6392  0.3545  0.2047
  839TIP3    H1 2523   0.188   3.518   1.426 -0.3008  0.3032  0.8321
  839TIP3    H2 2524   0.256   3.382   1.429  0.4087  0.6659  1.3418
  840TIP3   OH2 2525   2.749   1.702   2.672  0.0980  0.2401 -0.6791
  840TIP3    H1 2526   2.662   1.662   2.675  0.1924  0.0836  0.5278
  840TIP3    H2 2527   2.742   1.770   2.606 -1.3527  1.1525  0.3541
  841TIP3   OH2 2528   5.006   1.037   0.100  0.4076 -0.2972 -0.3260
  841TIP3    H1 2529   4.945   1.005   0.033 -0.2212 -0.2680  0.2152
  841TIP3    H2 2530   4.973   1.124   0.121  0.4909 -0.3800  0.1455
  842TIP3   OH2 2531   5.992   4.261   3.579  0.1987 -0.3734  0.4707
  842TIP3    H1 2532   6.022   4.174   3.606  1.1995  0.1765  1.1860
  842TIP3    H2 2533   6.071   4.304   3.546 -0.5601 -0.2295 -1.2670
  843TIP3   OH2 2534   1.447   5.720   2.249 -0.6061  0.3010  0.1334
  843TIP3    H1 2535   1.428   5.690   2.160 -0.3718  1.2297 -0.2321
  843TIP3    H2 2536   1.370   5.771   2.274 -1.2082 -0.9577  0.9319
  844TIP3   OH2 2537   6.076   4.024   1.765 -0.9364 -0.2351  0.3129
  844TIP3    H1 2538   6.026   4.003   1.844 -0.6132 -0.6128  0.4228
  844TIP3    H2 2539   6.101   4.116   1.776  0.6810 -0.7782  1.5504
  845TIP3   OH2 2540   4.995   4.023   4.967  0.8361 -0.4144  0.2842
  845TIP3    H1 2541   4.907   4.058   4.984  2.0021  1.5613  3.2172
  845TIP3    H2 2542   5.027   4.073   4.892  0.5920  1.3086  1.2679
  846TIP3   OH2 2543   3.913   3.375   1.247 -0.3646  0.5705  0.3381
  846TIP3    H1 2544   3.877   3.337   1.327 -1.5092 -0.0867 -0.4645
  846TIP3    H2 2545   3.950   3.459   1.275  1.2424 -0.5908  1.9498
  847TIP3   OH2 2546   3.347   2.793   0.448 -0.0747  0.6145 -0.2387
  847TIP3    H1 2547   3.425   2.824   0.495 -0.4689 -1.5627  2.1008
  847TIP3    H2 2548   3.378   2.720   0.394 -0.4238 -0.3453  0.7988
  848TIP3   OH2 2549   6.058   5.850   2.311  0.1687 -0.3900  0.4873
  848TIP3    H1 2550   6.062   5.794   2.389 -0.5589  1.7941  2.2089
  848TIP3    H2 2551   6.002   5.802   2.250  1.0497 -2.3358  1.1091
  849TIP3   OH2 2552   1.880   5.813   1.680 -0.3330  0.2298 -0.3194
  849TIP3    H1 2553   1.899   5.892   1.731  0.2326 -0.5797  0.7648
  849TIP3    H2 2554   1.789   5.823   1.653 -0.6529  0.6892  0.8671
  850TIP3   OH2 2555   0.644   0.048   2.283  0.1974  0.1182 -0.2258
  850TIP3    H1 2556   0.727   0.012   2.252  0.3837  1.3646 -1.2587
  850TIP3    H2 2557   0.614   0.104   2.212 -2.7491 -2.0906 -0.8905
  851TIP3   OH2 2558   4.645   5.775   0.980  0.9285 -0.1547 -0.0412
  851TIP3    H1 2559   4.716   5.839   0.983 -0.3085  1.2803 -0.1756
  851TIP3    H2 2560   4.636   5.753   0.888 -0.6615  1.9155 -0.4620
  852TIP3   OH2 2561   5.037   0.435   1.713 -0.2327 -0.3836 -0.5811
  852TIP3    H1 2562   5.070   0.426   1.623 -0.6164  2.0447 -1.0479
  852TIP3    H2 2563   5.103   0.393   1.767  0.1770 -1.6000 -1.9635
  853TIP3   OH2 2564   6.225   1.122   5.183 -0.2373  0.2425 -0.5043
  853TIP3    H1 2565   6.137   1.085   5.191 -0.3291  0.6224  0.2501
  853TIP3    H2 2566   6.268   1.066   5.118 -0.2387 -1.4939  0.9154
  854TIP3   OH2 2567   4.336   3.186   3.501 -0.2518 -0.2922 -0.0780
  854TIP3    H1 2568   4.245   3.194   3.472 -0.3721  0.9236  0.5788
  854TIP3    H2 2569   4.388   3.212   3.425 -0.3861 -1.9805 -0.7991
  855TIP3   OH2 2570   5.974   3.844   4.407 -0.2377  0.4332 -0.0012
  855TIP3    H1 2571   5.925   3.842   4.325 -1.0105  2.9653  0.2918
  855TIP3    H2 2572   6.057   3.802   4.387 -0.9432 -0.2415 -1.6807
  856TIP3   OH2 2573   5.286   1.058   5.075  0.1373 -0.3921 -0.2981
  856TIP3    H1 2574   5.192   1.072   5.082  0.4052  1.0692  1.1048
  856TIP3    H2 2575   5.320   1.080   5.162  2.0217  1.6598 -1.4322
  857TIP3   OH2 2576   6.273   3.405   4.600 -0.3519  0.4123 -0.4172
  857TIP3    H1 2577   6.183   3.377   4.588 -0.1338 -0.3121 -0.3987
  857TIP3    H2 2578   6.275   3.495   4.566 -1.5064  1.1530  1.3369
  858TIP3   OH2 2579   1.940   1.398   4.677 -0.5959 -0.5151 -0.2485
  858TIP3    H1 2580   2.031   1.410   4.650 -0.1354  1.8119  1.9859
  858TIP3    H2 2581   1.889   1.433   4.604  0.3922  0.5555 -0.4492
  859TIP3   OH2 2582   3.277   5.169   3.027  0.1208  0.2032  0.0508
  859TIP3    H1 2583   3.343   5.175   2.958 -2.3853 -2.6860 -3.0047
  859TIP3    H2 2584   3.232   5.254   3.024  2.4241  1.5377  0.9571
  860TIP3   OH2 2585   4.505   0.684   0.209 -0.1047  0.0772 -0.1354
  860TIP3    H1 2586   4.569   0.742   0.168 -0.0057 -0.4358 -0.7210
  860TIP3    H2 2587   4.473   0.733   0.285 -0.0106  0.8819 -0.6099
  861TIP3   OH2 2588   0.673   3.019   4.398  0.2321 -0.0833  0.7711
  861TIP3    H1 2589   0.630   3.021   4.313 -1.8719 -0.9131  1.7384
  861TIP3    H2 2590   0.765   3.039   4.379 -0.0831 -0.6483 -1.7198
  862TIP3   OH2 2591   6.247   0.379   0.884  0.2000  0.1585 -0.0062
  862TIP3    H1 2592   6.273   0.289   0.901  1.7739  0.4373 -0.6964
  862TIP3    H2 2593   6.165   0.390   0.931  0.2612 -1.4639  0.5404
  863TIP3   OH2 2594   0.762   2.475   3.468 -0.1096  0.0989  0.2730
  863TIP3    H1 2595   0.767   2.567   3.443 -0.9109  0.0797  0.0224
  863TIP3    H2 2596   0.820   2.468   3.543  0.5274  0.6508 -0.1590
  864TIP3   OH2 2597   2.280   4.915   4.894 -0.1620  0.6078 -1.1424
  864TIP3    H1 2598   2.302   4.895   4.986 -0.8635  1.4790 -0.7772
  864TIP3    H2 2599   2.276   4.829   4.852 -1.1187  0.0993 -0.0594
  865TIP3   OH2 2600   4.020   5.926   1.481 -0.6973 -0.0795  0.0848
  865TIP3    H1 2601   4.072   5.998   1.444  1.4652  0.7392  4.1294
  865TIP3    H2 2602   3.930   5.958   1.479 -0.2480  1.2311 -1.3444
  866TIP3   OH2 2603   2.986   2.580   3.001 -0.4765  0.0119  1.0251
  866TIP3    H1 2604   3.051   2.519   3.035 -1.6259 -0.5113  2.3777
  866TIP3    H2 2605   3.031   2.625   2.930  0.2974 -2.6513 -0.3091
  867TIP3   OH2 2606   0.456   0.984   2.093 -0.6822 -0.0284 -0.1381
  867TIP3    H1 2607   0.482   1.020   2.178 -0.8864 -0.2173  0.0061
  867TIP3    H2 2608   0.397   0.911   2.115 -0.7982 -0.0271 -0.4435
  868TIP3   OH2 2609   4.367   1.333   5.055  0.1154 -0.1512 -0.1284
  868TIP3    H1 2610   4.363   1.279   4.976 -0.6222 -0.2735 -0.0145
  868TIP3    H2 2611   4.456   1.369   5.055  1.1483 -2.5126  0.5753
  869TIP3   OH2 2612   0.174   1.981   0.235  0.1635 -0.7092  0.4253
  869TIP3    H1 2613   0.237   1.956   0.167 -0.4391 -1.2456  0.0457
  869TIP3    H2 2614   0.213   2.057   0.278  0.4159 -0.1606 -0.7303
  870TIP3   OH2 2615   1.638   5.883   4.456 -0.4366  0.1513  0.7961
  870TIP3    H1 2616   1.623   5.977   4.462  0.1442  0.3056  0.0159
  870TIP3    H2 2617   1.551   5.844   4.461 -0.6475  0.6955  1.5457
  871TIP3   OH2 2618   2.537   3.237   3.351  0.2519 -0.2606 -0.4902
  871TIP3    H1 2619   2.599   3.171   3.317  0.0900 -1.3013  1.1249
  871TIP3    H2 2620   2.566   3.319   3.311  2.0626 -0.8816 -0.5810
  872TIP3   OH2 2621   0.855   0.597   5.014  0.7903  0.1198 -0.3887
  872TIP3    H1 2622   0.913   0.672   5.030  1.7907 -0.7997  0.4652
  872TIP3    H2 2623   0.777   0.616   5.066  1.5919 -0.0427  0.9108
  873TIP3   OH2 2624   6.272   4.904   4.669 -0.1113 -0.4908  0.1231
  873TIP3    H1 2625   6.204   4.873   4.609 -1.1762  1.0533  0.4693
  873TIP3    H2 2626   6.239   4.882   4.756 -0.7200  1.1538  0.3533
  874TIP3   OH2 2627   1.996   3.112   3.779 -0.1591 -0.0220  0.1245
  874TIP3    H1 2628   1.941   3.091   3.703  1.4917  0.6232 -1.3238
  874TIP3    H2 2629   2.053   3.182   3.748  1.4912 -0.6837  1.5289
  875TIP3   OH2 2630   3.661   4.093   4.385  0.1740  0.3854  0.8480
  875TIP3    H1 2631   3.683   4.012   4.339 -0.1272  0.3698  0.7305
  875TIP3    H2 2632   3.580   4.073   4.432 -0.4464  0.9126  0.0226
  876TIP3   OH2 2633   3.327   3.873   4.153  0.1703  0.2836  0.0475
  876TIP3    H1 2634   3.272   3.951   4.147  0.1948  0.2383 -1.1315
  876TIP3    H2 2635   3.409   3.898   4.110  0.6387 -0.0079  0.7590
  877TIP3   OH2 2636   0.191   2.619   4.651  0.6763  0.6703 -0.1210
  877TIP3    H1 2637   0.159   2.530   4.667  3.1768 -0.0701  1.1811
  877TIP3    H2 2638   0.117   2.675   4.675 -0.4429 -0.9906  0.5327
  878TIP3   OH2 2639   5.291   1.523   0.687 -0.1954 -0.0140  0.5323
  878TIP3    H1 2640   5.290   1.480   0.772  0.4442  0.7036  0.9108
  878TIP3    H2 2641   5.327   1.610   0.704 -1.1278  0.5558 -0.2819
  879TIP3   OH2 2642   3.045   1.166   3.650  0.7424  0.0015  0.1788
  879TIP3    H1 2643   3.028   1.081   3.690 -0.2913  0.5330  0.9064
  879TIP3    H2 2644   3.117   1.203   3.701  0.6437 -0.0975  0.3907
  880TIP3   OH2 2645   6.049   2.392   4.582  0.3523 -0.5257 -0.4311
  880TIP3    H1 2646   6.009   2.409   4.497  1.9583  0.2195 -1.1004
  880TIP3    H2 2647   5.977   2.397   4.644 -0.5346  1.2709 -1.5009
  881TIP3   OH2 2648   4.209   2.657   3.607  0.6194  0.4680 -0.3011
  881TIP3    H1 2649   4.228   2.711   3.530  0.7441  0.8894  0.0159
  881TIP3    H2 2650   4.293   2.615   3.628  0.4798  0.0083 -0.6523
  882TIP3   OH2 2651   1.707   4.407   1.266 -0.2276 -0.1743 -0.6320
  882TIP3    H1 2652   1.737   4.472   1.329  0.8339 -0.0494 -1.2428
  882TIP3    H2 2653   1.753   4.429   1.185  1.3504 -2.5377 -0.5009
  883TIP3   OH2 2654   4.715   3.530   3.279 -0.2627 -0.2991 -0.5651
  883TIP3    H1 2655   4.731   3.618   3.311 -0.9351 -0.4017  0.0753
  883TIP3    H2 2656   4.722   3.537   3.184  1.9783 -0.0351 -0.4337
  884TIP3   OH2 2657   1.536   3.783   0.177 -0.3156  0.3364 -0.2224
  884TIP3    H1 2658   1.459   3.734   0.149 -0.5935 -0.9838  2.4811
  884TIP3    H2 2659   1.610   3.730   0.147 -0.5019  0.6552 -1.2550
  885TIP3   OH2 2660   4.558   2.184   3.483  0.0445 -1.0723 -0.3577
  885TIP3    H1 2661   4.610   2.107   3.508  0.2539 -1.1480 -1.0230
  885TIP3    H2 2662   4.485   2.148   3.433  0.4630 -0.8017 -1.1860
  886TIP3   OH2 2663   1.318   4.168   4.100  0.2507 -0.0256 -0.5077
  886TIP3    H1 2664   1.262   4.092   4.114  1.4368 -0.9398 -0.5423
  886TIP3    H2 2665   1.275   4.238   4.148 -0.0581 -1.1020  0.8733
  887TIP3   OH2 2666   4.135   0.939   3.621  0.2052  0.7847  0.2835
  887TIP3    H1 2667   4.127   0.883   3.544 -0.9292  3.6092 -1.8019
  887TIP3    H2 2668   4.202   0.895   3.674 -1.4363 -3.1480 -0.5037
  888TIP3   OH2 2669   5.783   4.837   3.777  0.6481 -0.2368 -0.2570
  888TIP3    H1 2670   5.871   4.873   3.785  0.9397 -1.2585  1.9978
  888TIP3    H2 2671   5.781   4.798   3.690  2.3108  0.1061 -0.4898
  889TIP3   OH2 2672   4.276   2.451   1.894 -0.5633  1.0901 -0.6749
  889TIP3    H1 2673   4.273   2.357   1.876  0.1110  0.3783  2.4004
  889TIP3    H2 2674   4.187   2.472   1.923 -0.1034  0.7638  1.0946
  890TIP3   OH2 2675   2.218   0.891   4.425 -0.2580  0.2271 -0.0437
  890TIP3    H1 2676   2.219   0.821   4.491 -0.6651  0.4240  0.1765
  890TIP3    H2 2677   2.309   0.896   4.394 -0.3559 -0.8320 -0.5238
  891TIP3   OH2 2678   0.146   2.204   1.436  0.0608 -1.0772 -0.5146
  891TIP3    H1 2679   0.075   2.268   1.429  0.1996 -1.0548 -1.9662
  891TIP3    H2 2680   0.188   2.225   1.520  0.2541  0.8800 -1.0503
  892TIP3   OH2 2681   1.138   4.559   2.281  0.1509 -0.1664 -0.2498
  892TIP3    H1 2682   1.233   4.556   2.274  0.3448  1.5197  0.9830
  892TIP3    H2 2683   1.115   4.649   2.258 -0.9634 -0.0833  1.0766
  893TIP3   OH2 2684   4.494   4.672   4.630  0.0081 -0.7122  0.2984
  893TIP3    H1 2685   4.544   4.689   4.710 -0.9949 -0.0333  0.8039
  893TIP3    H2 2686   4.423   4.737   4.632 -1.4469 -2.2435  0.0850
  894TIP3   OH2 2687   4.144   4.317   0.432  0.1940 -0.0116  0.4797
  894TIP3    H1 2688   4.104   4.390   0.385 -1.4693  0.8530  2.9870
  894TIP3    H2 2689   4.171   4.355   0.516  2.8375 -1.4871  0.3843
  895TIP3   OH2 2690   0.853   5.578   4.034 -0.4938 -0.2827 -0.0133
  895TIP3    H1 2691   0.831   5.659   3.988  1.2783  0.3580  0.2084
  895TIP3    H2 2692   0.939   5.553   4.000  0.5961 -0.1222  2.4748
  896TIP3   OH2 2693   2.983   1.374   0.740 -0.0852  0.5019 -0.2418
  896TIP3    H1 2694   3.014   1.391   0.651  0.0778 -0.2010 -0.3225
  896TIP3    H2 2695   2.907   1.431   0.749  0.4946  1.3359 -0.4685
  897TIP3   OH2 2696   5.567   4.785   2.382 -0.3760  0.2531 -0.1033
  897TIP3    H1 2697   5.585   4.719   2.315 -1.2276 -1.2373  1.0685
  897TIP3    H2 2698   5.653   4.815   2.411  0.0622 -1.0594 -0.0002
  898TIP3   OH2 2699   5.308   5.839   0.967 -0.1940 -0.1649 -0.2458
  898TIP3    H1 2700   5.268   5.839   1.054  1.5905  0.3257  0.6321
  898TIP3    H2 2701   5.321   5.746   0.947 -0.6066 -0.2794  0.0046
  899TIP3   OH2 2702   0.306   3.337   0.834 -0.2257 -0.4873 -0.0561
  899TIP3    H1 2703   0.241   3.269   0.852 -1.0801  0.5163  0.7955
  899TIP3    H2 2704   0.368   3.329   0.907 -0.7813  0.1583  0.5018
  900TIP3   OH2 2705   6.260   0.843   3.406 -0.9868  0.0319  0.3191
  900TIP3    H1 2706   6.264   0.892   3.488  0.5618  0.5176 -0.0175
  900TIP3    H2 2707   6.322   0.771   3.418 -1.2394 -0.2810 -0.1971
  901TIP3   OH2 2708   3.051   1.627   4.587  0.5865 -0.1017  0.1421
  901TIP3    H1 2709   3.008   1.588   4.663  1.1969  1.1354  1.1606
  901TIP3    H2 2710   2.999   1.597   4.512 -0.8318 -0.2756  1.1559
  902TIP3   OH2 2711   1.646   1.424   0.324  0.1375  0.9274 -0.2250
  902TIP3    H1 2712   1.629   1.347   0.269 -1.1524  0.8908  0.1853
  902TIP3    H2 2713   1.560   1.452   0.354  0.6998  1.7333  0.7280
  903TIP3   OH2 2714   1.100   4.317   3.091 -0.3359  0.0974 -0.0950
  903TIP3    H1 2715   1.062   4.393   3.135  0.6061  1.2092 -1.1126
  903TIP3    H2 2716   1.025   4.271   3.054 -0.8896  0.9419 -0.0701
  904TIP3   OH2 2717   3.549   5.603   1.201  0.7327 -0.0547  0.6536
  904TIP3    H1 2718   3.551   5.662   1.126 -0.2921 -0.0051  0.6486
  904TIP3    H2 2719   3.517   5.657   1.274  1.5711 -0.1403  1.0941
  905TIP3   OH2 2720   4.557   4.017   1.202 -0.1332  0.4597  0.4581
  905TIP3    H1 2721   4.613   4.090   1.178 -0.8707  1.8415  2.6330
  905TIP3    H2 2722   4.616   3.955   1.245  0.4190 -0.0758 -1.0205
  906TIP3   OH2 2723   5.200   0.364   1.933 -0.0971  0.2604 -0.4141
  906TIP3    H1 2724   5.142   0.438   1.952 -1.6643 -1.0155 -0.0825
  906TIP3    H2 2725   5.173   0.296   1.994  3.4778  0.4087  1.6302
  907TIP3   OH2 2726   6.258   0.784   0.250 -0.3133 -0.0649  0.5407
  907TIP3    H1 2727   6.179   0.741   0.281  0.2946 -1.2592  0.4954
  907TIP3    H2 2728   6.309   0.800   0.329  0.3913 -1.3762  0.3791
  908TIP3   OH2 2729   6.049   3.563   0.256 -0.2874  0.3578 -0.1304
  908TIP3    H1 2730   6.139   3.595   0.253 -0.4256  0.8357  0.4807
  908TIP3    H2 2731   5.997   3.634   0.219 -0.3812 -0.0596 -0.8036
  909TIP3   OH2 2732   3.476   4.825   4.585 -0.8467  0.4140  0.8901
  909TIP3    H1 2733   3.476   4.910   4.540 -1.8053  0.1836  0.4330
  909TIP3    H2 2734   3.403   4.829   4.646 -1.9259 -0.6331 -0.2594
  910TIP3   OH2 2735   4.623   2.599   1.830 -0.8353 -0.3095  0.4043
  910TIP3    H1 2736   4.683   2.563   1.895 -2.0913 -0.2585  1.6350
  910TIP3    H2 2737   4.676   2.663   1.781  0.3081 -0.8451  0.9144
  911TIP3   OH2 2738   0.370   4.888   0.914 -0.5029 -0.5801  0.0564
  911TIP3    H1 2739   0.295   4.892   0.854 -0.5233 -1.1827  0.0319
  911TIP3    H2 2740   0.416   4.970   0.900 -0.9214 -0.3897 -0.2438
  912TIP3   OH2 2741   3.858   5.616   1.727 -1.0063 -0.3031 -0.0774
  912TIP3    H1 2742   3.835   5.707   1.742 -3.2559 -0.8734  0.4414
  912TIP3    H2 2743   3.830   5.598   1.637  2.4469  0.2887 -1.4026
  913TIP3   OH2 2744   1.865   1.067   1.344 -0.1855 -0.2045 -0.1404
  913TIP3    H1 2745   1.823   0.984   1.326 -0.5455 -0.1084  0.2441
  913TIP3    H2 2746   1.949   1.062   1.298 -0.9212 -0.0917 -1.5631
  914TIP3   OH2 2747   4.487   5.134   4.873 -0.6893  0.4853  0.5791
  914TIP3    H1 2748   4.555   5.088   4.824 -0.1269 -0.6636  2.3827
  914TIP3    H2 2749   4.463   5.207   4.816 -0.6677 -1.2412 -1.7896
  915TIP3   OH2 2750   1.278   0.329   1.787  0.0399 -0.4642  0.0711
  915TIP3    H1 2751   1.231   0.335   1.871 -1.1935  2.9506 -0.7234
  915TIP3    H2 2752   1.213   0.294   1.726 -0.7582  1.7230 -0.4353
  916TIP3   OH2 2753   0.837   0.770   4.417  0.4891  0.0108 -0.2414
  916TIP3    H1 2754   0.897   0.795   4.347 -1.0437  0.6293 -1.3828
  916TIP3    H2 2755   0.752   0.763   4.375  0.0518 -3.0851  0.8617
  917TIP3   OH2 2756   4.431   4.638   4.367 -0.3366 -0.3428 -0.0247
  917TIP3    H1 2757   4.460   4.648   4.458 -2.0959 -1.1260  0.6708
  917TIP3    H2 2758   4.337   4.658   4.369 -0.1663  0.8574 -1.9215
  918TIP3   OH2 2759   1.249   4.974   3.832  0.1436 -0.1071  0.4906
  918TIP3    H1 2760   1.296   5.044   3.878  0.7230 -0.4495  0.4192
  918TIP3    H2 2761   1.214   5.017   3.754  1.5489 -0.1759 -0.1940
  919TIP3   OH2 2762   6.083   0.604   0.637  0.3206 -0.1637 -1.0415
  919TIP3    H1 2763   6.014   0.605   0.703 -0.8901 -0.9763 -2.2445
  919TIP3    H2 2764   6.123   0.517   0.645 -0.3714 -0.5754 -1.8841
  920TIP3   OH2 2765   5.957   5.052   3.562  0.8084 -0.6124  0.1434
  920TIP3    H1 2766   5.965   5.027   3.469  0.8327 -2.4662  0.6032
  920TIP3    H2 2767   6.034   5.012   3.604  0.5571 -0.1704  1.0360
  921TIP3   OH2 2768   2.251   2.641   4.792  0.4404  0.2498  0.0784
  921TIP3    H1 2769   2.167   2.644   4.745  0.1391 -3.0180  0.1558
  921TIP3    H2 2770   2.239   2.701   4.865 -2.0044 -0.3204  0.2493
  922TIP3   OH2 2771   3.175   3.505   4.595  0.2379 -0.5339 -0.3060
  922TIP3    H1 2772   3.248   3.553   4.555  0.8863 -0.6241  0.7222
  922TIP3    H2 2773   3.217   3.429   4.635 -0.3211 -0.2241  0.9027
  923TIP3   OH2 2774   5.432   5.639   2.771  0.4684 -1.1481  0.0487
  923TIP3    H1 2775   5.459   5.550   2.748 -0.6423 -1.1729 -1.2565
  923TIP3    H2 2776   5.389   5.673   2.692  2.0021  1.0415  0.0345
  924TIP3   OH2 2777   6.106   2.222   3.385  0.0831  0.2047  0.0998
  924TIP3    H1 2778   6.137   2.162   3.318  1.0297  1.2105 -0.3979
  924TIP3    H2 2779   6.121   2.176   3.468  3.9217  0.9484  0.0010
  925TIP3   OH2 2780   3.504   1.976   1.881 -0.1115 -0.3632  0.0813
  925TIP3    H1 2781   3.470   1.983   1.792 -0.2356 -1.8016 -0.0174
  925TIP3    H2 2782   3.477   1.889   1.910 -0.2884  0.1786  1.6336
  926TIP3   OH2 2783   4.259   4.490   2.671 -0.1161 -0.0625  0.4359
  926TIP3    H1 2784   4.254   4.586   2.669 -0.7320 -0.0958 -0.4185
  926TIP3    H2 2785   4.180   4.463   2.718 -0.3827 -0.1726 -0.0707
  927TIP3   OH2 2786   6.146   0.225   1.718  0.4154 -0.1744  0.5984
  927TIP3    H1 2787   6.103   0.258   1.639  1.2512 -2.2279 -0.8017
  927TIP3    H2 2788   6.087   0.248   1.789 -1.8173 -0.7302 -0.9599
  928TIP3   OH2 2789   0.953   5.312   4.374 -0.6111  0.3609  0.1144
  928TIP3    H1 2790   0.916   5.256   4.442  0.0142  0.1819  0.3194
  928TIP3    H2 2791   0.908   5.285   4.294  0.0134 -0.7818  0.1247
  929TIP3   OH2 2792   3.058   4.451   0.046  0.1162  0.2858  0.7466
  929TIP3    H1 2793   2.995   4.522   0.060 -1.1843 -0.5373 -0.6980
  929TIP3    H2 2794   3.079   4.455  -0.047 -0.0055 -1.2288  0.6296
  930TIP3   OH2 2795   1.052   4.797   2.847 -0.3758  0.3863 -0.0371
  930TIP3    H1 2796   1.070   4.888   2.871 -1.3593  0.2345  1.3922
  930TIP3    H2 2797   1.123   4.747   2.887  0.3103  0.5182 -1.0398
  931TIP3   OH2 2798   3.914   4.961   1.447 -0.1150  0.1854 -0.5325
  931TIP3    H1 2799   3.843   4.910   1.408 -0.4659 -0.2887  0.6999
  931TIP3    H2 2800   3.911   5.045   1.401 -1.2511  0.0441 -0.7399
  932TIP3   OH2 2801   5.973   3.348   3.699 -0.4728 -0.0435  0.2242
  932TIP3    H1 2802   5.949   3.416   3.637  0.0214 -1.2450 -1.3431
  932TIP3    H2 2803   6.033   3.391   3.760  0.9686  0.6063 -1.5860
  933TIP3   OH2 2804   0.225   5.306   1.582 -0.2349  0.5603 -0.0744
  933TIP3    H1 2805   0.139   5.315   1.541  0.0900  0.8852 -0.7019
  933TIP3    H2 2806   0.245   5.213   1.576 -0.0677  0.6469 -0.9177
  934TIP3   OH2 2807   2.698   0.995   2.425 -0.2883 -0.3403 -0.1248
  934TIP3    H1 2808   2.789   0.970   2.417 -0.8747 -1.9957 -2.4238
  934TIP3    H2 2809   2.649   0.914   2.412 -2.1419  1.0401 -2.5293
  935TIP3   OH2 2810   1.509   3.415   1.960 -0.1033  0.1976 -0.1879
  935TIP3    H1 2811   1.558   3.477   2.014 -0.3224  0.0173  0.2184
  935TIP3    H2 2812   1.424   3.407   2.003 -0.5870  0.7083 -1.0374
  936TIP3   OH2 2813   5.855   2.650   3.043 -0.2589 -0.1886  0.2160
  936TIP3    H1 2814   5.794   2.686   2.979  1.2711 -0.8904 -1.7327
  936TIP3    H2 2815   5.844   2.555   3.036  0.5413 -0.3005  0.3373
  937TIP3   OH2 2816   2.864   1.917   4.419  0.3214 -0.1998  0.2872
  937TIP3    H1 2817   2.932   1.901   4.484 -2.2341 -0.1361  3.2612
  937TIP3    H2 2818   2.858   2.013   4.414  0.0292 -0.2057  0.5185
  938TIP3   OH2 2819   0.591   4.117   1.989  0.5456  0.2794 -0.0464
  938TIP3    H1 2820   0.676   4.155   2.008  1.0683 -0.6024 -0.5454
  938TIP3    H2 2821   0.606   4.061   1.913 -0.1064 -1.1366  0.8139
  939TIP3   OH2 2822   2.167   5.414   3.587  0.2379 -0.1681 -0.5907
  939TIP3    H1 2823   2.262   5.412   3.579  0.3827 -0.5473  0.9766
  939TIP3    H2 2824   2.146   5.506   3.599  0.2506  0.0840 -2.1987
  940TIP3   OH2 2825   6.066   0.499   2.592  0.3953 -0.4155 -0.5990
  940TIP3    H1 2826   6.007   0.487   2.666  0.7591 -1.6948 -0.4909
  940TIP3    H2 2827   6.092   0.591   2.596 -2.4350  0.5159 -1.3086
  941TIP3   OH2 2828   3.864   0.402   1.897 -0.0411  0.2921 -0.3276
  941TIP3    H1 2829   3.937   0.432   1.843 -0.0674 -0.1979 -0.6507
  941TIP3    H2 2830   3.862   0.462   1.971  2.0749 -0.9382  0.8408
  942TIP3   OH2 2831   5.161   0.319   4.414  0.5842  0.1633 -0.3170
  942TIP3    H1 2832   5.085   0.284   4.459  1.0456  1.6275  1.7362
  942TIP3    H2 2833   5.158   0.279   4.327 -2.9647  0.7653 -0.6181
  943TIP3   OH2 2834   6.251   1.674   0.768 -0.1698  0.1162 -0.3734
  943TIP3    H1 2835   6.179   1.688   0.706 -0.4425  2.3653  0.3389
  943TIP3    H2 2836   6.266   1.580   0.767 -2.7032 -0.3658 -1.0431
  944TIP3   OH2 2837   3.865   2.889   1.558  0.4935 -0.1750 -0.1082
  944TIP3    H1 2838   3.871   2.973   1.603  1.2527 -0.3136  0.0739
  944TIP3    H2 2839   3.784   2.849   1.590 -1.0070  1.3661 -1.7795
  945TIP3   OH2 2840   0.932   0.492   1.020  1.4147 -0.1227  0.0377
  945TIP3    H1 2841   0.964   0.403   1.002  0.2127 -1.1891  2.6106
  945TIP3    H2 2842   0.991   0.525   1.087  1.3676  0.7162 -0.3295
  946TIP3   OH2 2843   3.560   0.302   3.482 -0.1136 -0.1282 -0.3114
  946TIP3    H1 2844   3.649   0.327   3.460  0.1168 -0.7317 -0.0720
  946TIP3    H2 2845   3.525   0.263   3.402 -0.4720  0.9111 -0.6848
  947TIP3   OH2 2846   1.592   1.386   3.645 -0.2688  0.2718  0.2230
  947TIP3    H1 2847   1.603   1.466   3.697  0.7353 -1.2444  2.4453
  947TIP3    H2 2848   1.500   1.362   3.659 -0.8007  1.3933 -1.0863
  948TIP3   OH2 2849   1.214   0.373   2.685 -0.2714  0.6961  0.0854
  948TIP3    H1 2850   1.227   0.328   2.769  0.6651  0.3431 -0.2319
  948TIP3    H2 2851   1.126   0.409   2.690 -0.2470  0.6281  1.2005
  949TIP3   OH2 2852   3.784   2.330   3.318 -0.6332 -0.3481  0.3494
  949TIP3    H1 2853   3.689   2.343   3.320 -0.6527 -0.3331 -0.2863
  949TIP3    H2 2854   3.820   2.416   3.336 -0.7587  0.1310 -1.4876
  950TIP3   OH2 2855   4.952   4.772   1.810  0.3291 -0.2213 -0.3245
  950TIP3    H1 2856   4.936   4.688   1.768 -1.6239 -0.0967  0.0676
  950TIP3    H2 2857   4.995   4.825   1.742  3.9055 -2.1760  0.1591
  951TIP3   OH2 2858   5.972   4.742   1.494 -0.4579 -0.3690  0.3067
  951TIP3    H1 2859   6.004   4.793   1.568 -0.6652 -0.2722  0.3328
  951TIP3    H2 2860   5.879   4.766   1.488 -0.5211 -0.6329  0.2279
  952TIP3   OH2 2861   4.058   4.523   4.622  0.2375 -0.8052 -0.5325
  952TIP3    H1 2862   3.976   4.499   4.664 -0.3067  1.9999  0.2069
  952TIP3    H2 2863   4.122   4.525   4.693 -0.0438  1.1372 -0.2916
  953TIP3   OH2 2864   4.595   3.735   4.388 -0.2823 -0.0617 -0.4589
  953TIP3    H1 2865   4.587   3.668   4.456  0.9081  0.4241  0.1991
  953TIP3    H2 2866   4.566   3.816   4.431 -1.7991 -0.1364 -1.2726
  954TIP3   OH2 2867   1.481   4.467   4.864  0.3737 -0.0131 -0.0326
  954TIP3    H1 2868   1.390   4.492   4.882  0.3800  0.7133 -0.9339
  954TIP3    H2 2869   1.484   4.457   4.769  0.8396 -1.6678  0.1287
  955TIP3   OH2 2870   4.182   1.355   0.753 -0.1332 -0.3027  0.1827
  955TIP3    H1 2871   4.119   1.302   0.704 -1.3923  1.3429 -0.0460
  955TIP3    H2 2872   4.256   1.366   0.693  0.1245 -1.6867  0.2070
  956TIP3   OH2 2873   0.510   4.742   1.988  0.7830  0.8687  0.4948
  956TIP3    H1 2874   0.492   4.814   2.049 -0.0007 -0.1573  1.5238
  956TIP3    H2 2875   0.503   4.663   2.042 -0.8079 -0.1359 -1.0925
  957TIP3   OH2 2876   3.534   5.765   0.580  0.2960  0.1056 -0.4635
  957TIP3    H1 2877   3.474   5.739   0.510 -0.0691  0.0151 -0.1194
  957TIP3    H2 2878   3.554   5.857   0.562 -0.4405  0.3179 -0.2257
  958TIP3   OH2 2879   1.011   0.161   4.905 -0.1584 -0.3159 -0.2357
  958TIP3    H1 2880   0.965   0.148   4.988  2.9095 -0.2442  1.6414
  958TIP3    H2 2881   1.041   0.252   4.908 -0.0343 -0.2996 -1.4557
  959TIP3   OH2 2882   3.959   5.605   3.254 -0.7212 -0.4116 -0.2985
  959TIP3    H1 2883   4.023   5.534   3.251 -0.2045  0.0828 -1.9781
  959TIP3    H2 2884   3.997   5.668   3.315  0.2204 -0.3122 -0.9596
  960TIP3   OH2 2885   3.727   0.099   2.958 -0.4623  0.0420 -1.0845
  960TIP3    H1 2886   3.643   0.059   2.979  0.1625 -0.8191 -0.0761
  960TIP3    H2 2887   3.742   0.162   3.028 -0.0448 -0.1909 -0.9552
  961TIP3   OH2 2888   5.717   2.186   1.122  0.2031  0.1724 -0.0160
  961TIP3    H1 2889   5.709   2.102   1.167  2.6337 -2.3579 -3.6418
  961TIP3    H2 2890   5.627   2.210   1.100 -0.5812 -1.4437  1.1953
  962TIP3   OH2 2891   1.841   0.518   0.921  0.6849  0.1735  0.2205
  962TIP3    H1 2892   1.898   0.503   0.845 -0.9138  1.2131 -1.2547
  962TIP3    H2 2893   1.899   0.555   0.987  1.9995 -0.0754 -0.7549
  963TIP3   OH2 2894   1.580   1.861   0.246  0.4689 -0.7618 -0.1769
  963TIP3    H1 2895   1.597   1.770   0.221 -0.0823 -0.3934 -2.0896
  963TIP3    H2 2896   1.662   1.907   0.225  1.8619 -1.2009  3.5412
  964TIP3   OH2 2897   4.890   2.201   5.050  0.0253 -0.4111  0.6371
  964TIP3    H1 2898   4.806   2.185   5.005 -0.1593  0.5833  0.6150
  964TIP3    H2 2899   4.950   2.139   5.010 -0.5733 -0.7746  0.2762
  965TIP3   OH2 2900   0.079   1.799   1.364 -0.2525  0.0454 -0.2285
  965TIP3    H1 2901   0.042   1.811   1.452 -2.7486 -0.6043 -1.1105
  965TIP3    H2 2902   0.100   1.705   1.360 -0.4097  0.0203 -0.4383
  966TIP3   OH2 2903   5.203   5.536   3.133 -0.0149  0.2854  0.1586
  966TIP3    H1 2904   5.194   5.553   3.227 -0.0595 -2.6833  0.7897
  966TIP3    H2 2905   5.114   5.539   3.100 -0.0079  1.2714  0.1966
  967TIP3   OH2 2906   0.254   5.722   4.033 -0.0825 -0.0075  0.6970
  967TIP3    H1 2907   0.261   5.694   3.942  1.1697 -0.0787  0.7943
  967TIP3    H2 2908   0.251   5.818   4.028  1.4363  0.0635  0.6229
  968TIP3   OH2 2909   4.055   3.016   5.078 -0.1252 -0.3692  0.0946
  968TIP3    H1 2910   4.046   2.922   5.059  0.4954 -0.5503  0.6562
  968TIP3    H2 2911   4.145   3.036   5.051  0.4948 -0.4410  2.0142
  969TIP3   OH2 2912   4.426   5.751   1.155 -0.2469 -0.1294 -0.2386
  969TIP3    H1 2913   4.410   5.668   1.111  0.8758  0.0310 -0.9813
  969TIP3    H2 2914   4.487   5.798   1.098 -0.0267  0.7664  0.6875
  970TIP3   OH2 2915   6.000   5.014   0.042 -0.2348 -0.7067  0.2703
  970TIP3    H1 2916   5.937   4.944   0.063 -0.4872 -0.8774 -0.9882
  970TIP3    H2 2917   6.007   5.012  -0.053 -0.1843  0.9505  0.2098
  971TIP3   OH2 2918   1.024   4.685   5.133  0.0707  0.1770 -0.7662
  971TIP3    H1 2919   0.940   4.730   5.148 -0.8766 -1.3117 -1.4008
  971TIP3    H2 2920   1.084   4.727   5.194 -1.4707  0.3461  0.7157
  972TIP3   OH2 2921   6.201   2.525   3.322 -1.0217 -0.3436  0.1131
  972TIP3    H1 2922   6.139   2.597   3.309 -1.0783 -0.3515  0.3403
  972TIP3    H2 2923   6.162   2.451   3.276 -0.3367  0.0989 -1.2582
  973TIP3   OH2 2924   1.124   2.989   1.209  0.2760  0.2019 -0.3551
  973TIP3    H1 2925   1.161   2.996   1.120 -0.9035  0.8511 -0.8185
  973TIP3    H2 2926   1.053   3.053   1.210  0.0615 -0.0316  0.9706
  974TIP3   OH2 2927   3.805   4.724   4.221  0.6750 -0.1294 -0.1687
  974TIP3    H1 2928   3.857   4.648   4.247 -0.9681 -1.0132  0.7179
  974TIP3    H2 2929   3.761   4.695   4.141 -0.9882 -0.6634  0.8917
  975TIP3   OH2 2930   1.601   0.543   1.304 -0.1080 -0.1403  0.3022
  975TIP3    H1 2931   1.561   0.510   1.385 -0.3141  1.6071  0.9502
  975TIP3    H2 2932   1.693   0.556   1.326 -0.2141  0.5707  0.3484
  976TIP3   OH2 2933   2.072   0.971   2.358 -0.4900 -0.3008 -0.3037
  976TIP3    H1 2934   2.055   1.061   2.384  2.5783  0.5781 -0.8906
  976TIP3    H2 2935   2.094   0.926   2.440 -0.5940 -0.1339 -0.1839
  977TIP3   OH2 2936   4.446   2.032   2.572 -0.4993 -0.1487  0.4994
  977TIP3    H1 2937   4.425   1.969   2.504  0.2538 -0.3926  0.4779
  977TIP3    H2 2938   4.415   1.992   2.653  1.1820 -1.2066  0.6772
  978TIP3   OH2 2939   3.877   4.655   3.146  0.1204  0.8724 -0.2441
  978TIP3    H1 2940   3.969   4.678   3.135 -0.0358  1.3283 -0.6467
  978TIP3    H2 2941   3.866   4.576   3.093  0.8636 -0.6967  1.8510
  979TIP3   OH2 2942   0.971   2.411   1.340 -0.2609 -0.4151 -0.5443
  979TIP3    H1 2943   0.998   2.487   1.289  1.7273  0.4828  1.7074
  979TIP3    H2 2944   0.895   2.441   1.389  0.3167  0.0381  0.0876
  980TIP3   OH2 2945   0.446   0.058   3.947 -0.3101  0.6060  0.0717
  980TIP3    H1 2946   0.516   0.010   3.903 -0.7373  0.8375 -0.9136
  980TIP3    H2 2947   0.370   0.045   3.890 -0.6065  1.8701  0.1385
  981TIP3   OH2 2948   3.361   5.547   4.744 -0.8327 -0.3914  0.3370
  981TIP3    H1 2949   3.367   5.630   4.696  0.5946  0.4144  1.8202
  981TIP3    H2 2950   3.416   5.486   4.693 -0.3469  0.1086  0.2505
  982TIP3   OH2 2951   3.587   5.308   4.488 -0.0310  0.2049 -0.1878
  982TIP3    H1 2952   3.605   5.385   4.544  0.3009 -0.3580  0.4985
  982TIP3    H2 2953   3.510   5.333   4.438 -0.8868  0.4166  1.1662
  983TIP3   OH2 2954   5.022   1.150   5.186  0.5378 -0.3484  0.1505
  983TIP3    H1 2955   4.967   1.136   5.110  0.4110  0.9286 -0.0169
  983TIP3    H2 2956   4.984   1.227   5.230  1.4823 -0.1571  0.6697
  984TIP3   OH2 2957   1.440   0.417   4.429 -0.3500  0.0577 -0.1586
  984TIP3    H1 2958   1.531   0.438   4.408 -0.4065 -0.2672 -0.7664
  984TIP3    H2 2959   1.419   0.344   4.370 -1.0386  0.2135 -0.1102
  985TIP3   OH2 2960   4.323   2.005   3.636  0.6096  0.2072 -0.0500
  985TIP3    H1 2961   4.273   1.975   3.712 -0.0808  1.3062 -0.0501
  985TIP3    H2 2962   4.401   2.047   3.672  0.2626  0.7635  0.0599
  986TIP3   OH2 2963   3.822   5.786   4.917 -0.0797  0.1587  0.2359
  986TIP3    H1 2964   3.747   5.773   4.976  0.0023  0.8768  0.5148
  986TIP3    H2 2965   3.899   5.776   4.973 -0.0177  2.0238  0.5340
  987TIP3   OH2 2966   6.332   5.043   1.037 -0.1301  0.7979  0.0780
  987TIP3    H1 2967   6.284   5.001   0.966 -0.7452  1.6018  0.0057
  987TIP3    H2 2968   6.317   4.986   1.113  0.3718  0.0403 -0.3684
  988TIP3   OH2 2969   0.455   1.779   3.428 -0.0075  0.0513  0.0369
  988TIP3    H1 2970   0.489   1.836   3.359 -1.5263 -1.5575 -2.1592
  988TIP3    H2 2971   0.360   1.791   3.424 -0.5824 -3.8036 -1.7346
  989TIP3   OH2 2972   4.086   0.451   2.248  0.1823 -0.1178  0.4509
  989TIP3    H1 2973   4.076   0.402   2.330  0.1318  0.5131  0.8295
  989TIP3    H2 2974   4.135   0.392   2.191  1.6435  0.0414  1.4850
  990TIP3   OH2 2975   4.632   4.267   0.891 -0.0610  0.2638  0.0780
  990TIP3    H1 2976   4.706   4.224   0.849  1.3650  2.1252  0.5649
  990TIP3    H2 2977   4.567   4.276   0.821  0.5273 -0.5674 -0.5939
  991TIP3   OH2 2978   0.062   2.357   4.156 -0.0275 -0.1983  0.5053
  991TIP3    H1 2979   0.155   2.372   4.142  0.4087 -2.5757  0.5227
  991TIP3    H2 2980   0.021   2.386   4.074  0.7306  0.5671  0.3792
  992TIP3   OH2 2981   4.286   1.060   0.828  0.0161  0.0975  0.5033
  992TIP3    H1 2982   4.237   0.978   0.819  1.5649 -0.8474  0.2806
  992TIP3    H2 2983   4.258   1.114   0.754  0.5751 -1.1049 -0.6087
  993TIP3   OH2 2984   1.177   2.048   0.508  0.2427 -0.3828 -0.2981
  993TIP3    H1 2985   1.113   2.099   0.459 -1.2576 -1.7485  0.1601
  993TIP3    H2 2986   1.260   2.062   0.461 -0.2984  1.6502 -0.7306
  994TIP3   OH2 2987   3.613   5.190   1.453 -0.1495 -0.2459  0.0138
  994TIP3    H1 2988   3.541   5.174   1.393  0.1971 -1.1391 -0.1795
  994TIP3    H2 2989   3.662   5.263   1.414  0.3896 -1.1702 -1.0931
  995TIP3   OH2 2990   5.631   5.686   2.355  0.5450  0.3242  0.5809
  995TIP3    H1 2991   5.639   5.781   2.366  1.1037  0.3899 -0.2945
  995TIP3    H2 2992   5.537   5.670   2.346  0.5115  0.9197 -0.2322
  996TIP3   OH2 2993   0.309   2.913   5.066 -0.3519  0.1718  0.4747
  996TIP3    H1 2994   0.242   2.957   5.118 -0.6021  1.4212 -0.8373
  996TIP3    H2 2995   0.261   2.847   5.016 -0.7127  1.3705 -0.8034
  997TIP3   OH2 2996   1.380   5.659   1.853 -0.5940 -0.7885 -0.0865
  997TIP3    H1 2997   1.413   5.749   1.847 -0.0796 -1.0316 -1.1154
  997TIP3    H2 2998   1.395   5.634   1.944 -0.9478  0.2354  0.2715
  998TIP3   OH2 2999   0.924   2.459   1.707 -0.2745 -0.4436 -0.5957
  998TIP3    H1 3000   0.876   2.479   1.788 -0.1375 -1.2351 -0.3069
  998TIP3    H2 3001   0.998   2.520   1.707  0.8429 -1.7112  0.8947
  999TIP3   OH2 3002   2.893   2.080   4.941 -1.0012 -0.7334 -0.3837
  999TIP3    H1 3003   2.891   2.113   4.851 -2.3574 -0.9612 -0.4547
  999TIP3    H2 3004   2.882   1.985   4.932  0.7141 -0.9971 -0.0600
 1000TIP3   OH2 3005   2.635   1.127   1.348  0.2321 -0.0156  0.2993
 1000TIP3    H1 3006   2.691   1.202   1.330 -0.0681  0.0820 -0.2645
 1000TIP3    H2 3007   2.682   1.052   1.312 -0.1571  0.1169 -0.5111
 1001TIP3   OH2 3008   2.419   0.249   1.668  0.7679 -0.5398 -0.7569
 1001TIP3    H1 3009   2.492   0.242   1.607  1.2209  0.2400 -0.3251
 1001TIP3    H2 3010   2.343   0.266   1.613  0.9926 -0.8842 -1.1775
 1002TIP3   OH2 3011   4.927   2.719   3.261 -0.4284 -0.0447  0.5848
 1002TIP3    H1 3012   4.979   2.789   3.300  0.3058 -0.0570 -0.3310
 1002TIP3    H2 3013   4.984   2.642   3.265  0.2625  0.2729 -1.7637
 1003TIP3   OH2 3014   4.617   1.703   3.005 -0.1310  0.3030 -0.5885
 1003TIP3    H1 3015   4.689   1.648   2.974  0.6624  1.0727 -0.1724
 1003TIP3    H2 3016   4.545   1.642   3.023  0.6992 -0.5913 -0.2075
 1004TIP3   OH2 3017   0.620   1.271   1.443  0.2748  0.3117 -0.0204
 1004TIP3    H1 3018   0.654   1.334   1.506  0.8429  0.1998 -0.2102
 1004TIP3    H2 3019   0.622   1.318   1.359 -1.7766  0.9525  0.2223
 1005TIP3   OH2 3020   1.372   3.499   3.157  0.1399  0.0075  0.3498
 1005TIP3    H1 3021   1.291   3.543   3.130 -0.0027  0.4334  1.3935
 1005TIP3    H2 3022   1.442   3.559   3.131 -0.0946  1.3449  2.5054
 1006TIP3   OH2 3023   5.464   5.521   0.705 -0.3149 -0.2174  0.7196
 1006TIP3    H1 3024   5.398   5.513   0.773 -1.2676  2.0111  0.1501
 1006TIP3    H2 3025   5.467   5.615   0.684  1.5865 -0.5094 -0.7015
 1007TIP3   OH2 3026   1.028   2.376   2.336 -0.4264 -0.1871 -0.0089
 1007TIP3    H1 3027   1.114   2.342   2.358  0.1178  0.6535 -0.7917
 1007TIP3    H2 3028   1.011   2.443   2.402 -0.9405 -1.0372  0.7533
 1008TIP3   OH2 3029   2.832   1.408   2.106  0.2685 -0.1700  0.1813
 1008TIP3    H1 3030   2.781   1.341   2.151  0.9852 -0.2673  0.8723
 1008TIP3    H2 3031   2.777   1.486   2.108 -0.3493 -0.5896 -0.1570
 1009TIP3   OH2 3032   3.557   2.503   4.543  0.1726 -0.3989 -0.6014
 1009TIP3    H1 3033   3.521   2.430   4.594  1.3526 -0.4386  0.1987
 1009TIP3    H2 3034   3.497   2.511   4.468 -2.1567  0.2868  1.2431
 1010TIP3   OH2 3035   1.117   5.903   3.969 -0.1993  0.0875 -0.0132
 1010TIP3    H1 3036   1.041   5.961   3.963  0.3280  0.7835 -0.1666
 1010TIP3    H2 3037   1.112   5.867   4.057  0.4369  1.7768  0.7636
 1011TIP3   OH2 3038   3.076   2.216   1.210  0.4697 -0.0929 -0.0380
 1011TIP3    H1 3039   2.990   2.233   1.172  0.2328 -0.1697  0.4558
 1011TIP3    H2 3040   3.117   2.155   1.149 -0.5732 -1.5846  0.6684
 1012TIP3   OH2 3041   1.991   5.470   1.194  0.1807  1.2020 -0.2350
 1012TIP3    H1 3042   1.992   5.479   1.098 -0.0652  1.3516 -0.2255
 1012TIP3    H2 3043   2.042   5.544   1.226 -0.0107  1.3383 -0.2400
 1013TIP3   OH2 3044   2.300   1.409   3.825 -0.3321  0.0882 -0.4137
 1013TIP3    H1 3045   2.243   1.359   3.885  0.7959  0.8405  1.3773
 1013TIP3    H2 3046   2.268   1.499   3.832  1.1508  0.5614  0.7973
 1014TIP3   OH2 3047   5.817   2.944   0.667 -0.0543 -0.3187  0.3948
 1014TIP3    H1 3048   5.820   2.949   0.762  0.7833 -0.3137  0.3694
 1014TIP3    H2 3049   5.784   3.030   0.640  0.1424 -0.1609  0.6557
 1015TIP3   OH2 3050   1.615   0.648   4.556  0.3469  0.6436  0.1280
 1015TIP3    H1 3051   1.558   0.702   4.501  0.5752  2.1323  1.2838
 1015TIP3    H2 3052   1.646   0.579   4.498 -0.2271  1.5721 -1.3375
 1016TIP3   OH2 3053   0.522   0.576   4.795  0.0023 -0.0573 -0.2528
 1016TIP3    H1 3054   0.597   0.596   4.740  0.4142  0.3379  0.4350
 1016TIP3    H2 3055   0.559   0.563   4.883 -0.7873  0.7665  0.2196
 1017TIP3   OH2 3056   4.262   3.242   2.320 -0.3783  0.1206 -0.6486
 1017TIP3    H1 3057   4.181   3.288   2.343  1.0283  2.1794  0.5827
 1017TIP3    H2 3058   4.328   3.312   2.314  1.5737 -1.6021 -0.2931
 1018TIP3   OH2 3059   5.060   3.159   0.169 -0.3050 -0.1227  0.5203
 1018TIP3    H1 3060   5.118   3.125   0.102  0.4964  0.4227  0.9195
 1018TIP3    H2 3061   5.117   3.175   0.244 -1.0891 -0.2144  1.1505
 1019TIP3   OH2 3062   4.932   5.710   4.925 -0.2460 -0.3591 -0.1925
 1019TIP3    H1 3063   4.860   5.701   4.862 -0.5037 -0.3471  0.0939
 1019TIP3    H2 3064   4.990   5.774   4.886 -1.7515  1.7283  0.7798
 1020TIP3   OH2 3065   5.932   0.346   3.458  0.2539  0.4957  0.0537
 1020TIP3    H1 3066   5.935   0.439   3.436  1.5908  0.3037 -0.6826
 1020TIP3    H2 3067   5.930   0.301   3.374  1.8217 -0.1716  0.3375
 1021TIP3   OH2 3068   3.421   2.692   2.766  0.0143  0.4946  0.1917
 1021TIP3    H1 3069   3.499   2.685   2.821  0.0019  0.6887  0.2338
 1021TIP3    H2 3070   3.442   2.642   2.687 -0.7660 -1.6721  1.2656
 1022TIP3   OH2 3071   3.611   5.940   4.507  0.6698 -0.2250 -0.3015
 1022TIP3    H1 3072   3.684   5.924   4.447  1.1200 -0.7019  0.3451
 1022TIP3    H2 3073   3.650   5.928   4.594  0.1931  1.1124  0.1167
 1023TIP3   OH2 3074   2.711   4.641   1.724  0.2347  0.2201 -0.3450
 1023TIP3    H1 3075   2.703   4.547   1.736 -1.6972  0.3231 -0.3857
 1023TIP3    H2 3076   2.800   4.655   1.691  1.2742 -1.3514  1.6141
 1024TIP3   OH2 3077   4.947   2.479   4.852 -0.2615  0.5537 -0.4381
 1024TIP3    H1 3078   5.014   2.514   4.793 -1.7319  0.9718 -1.9491
 1024TIP3    H2 3079   4.956   2.384   4.844  0.5398  0.5946 -0.1360
 1025TIP3   OH2 3080   1.577   0.751   3.381  0.4798  0.3309  0.0215
 1025TIP3    H1 3081   1.612   0.731   3.468  0.1708  0.7012  0.2349
 1025TIP3    H2 3082   1.515   0.822   3.396  0.9740  0.9145 -0.6020
 1026TIP3   OH2 3083   4.679   5.672   3.432 -0.4639 -0.7815  0.1402
 1026TIP3    H1 3084   4.660   5.700   3.342  0.2590 -0.5102  0.0658
 1026TIP3    H2 3085   4.604   5.617   3.456 -1.1439 -0.0502 -0.2715
 1027TIP3   OH2 3086   2.372   2.656   1.439 -0.9621 -0.3567  0.5280
 1027TIP3    H1 3087   2.361   2.611   1.355 -0.4199  1.1339 -0.3954
 1027TIP3    H2 3088   2.359   2.588   1.505  0.2332 -1.9409 -0.7833
 1028TIP3   OH2 3089   6.088   1.838   1.750 -0.1332 -0.6664  0.1994
 1028TIP3    H1 3090   6.028   1.896   1.704  0.3837  0.2289  0.6260
 1028TIP3    H2 3091   6.072   1.855   1.843  1.2919  0.1563  0.3220
 1029TIP3   OH2 3092   5.445   0.233   3.458 -0.4973 -0.2338 -0.6959
 1029TIP3    H1 3093   5.496   0.241   3.538 -3.0560 -0.4050  1.0544
 1029TIP3    H2 3094   5.471   0.309   3.406  1.0717 -0.0079  0.3295
 1030TIP3   OH2 3095   1.285   5.297   5.043  0.2569  0.2537  0.5699
 1030TIP3    H1 3096   1.257   5.373   4.993  0.8743  0.4561  0.5312
 1030TIP3    H2 3097   1.320   5.237   4.978  0.7290  0.3691  0.7148
 1031TIP3   OH2 3098   6.242   1.947   3.000  0.3777  0.0719 -0.6741
 1031TIP3    H1 3099   6.320   1.893   2.982  0.2684 -0.1417 -0.5109
 1031TIP3    H2 3100   6.216   1.979   2.914  0.1885 -0.4923 -0.8315
 1032TIP3   OH2 3101   3.899   4.420   3.004  0.3691 -0.0700 -0.1137
 1032TIP3    H1 3102   3.818   4.383   2.969  0.1914  1.5698 -1.5719
 1032TIP3    H2 3103   3.932   4.353   3.065 -0.9475 -1.6896 -1.1045
 1033TIP3   OH2 3104   2.628   1.648   3.011  0.3593 -0.1137 -0.1235
 1033TIP3    H1 3105   2.565   1.584   3.046  0.0120  0.4254  0.2659
 1033TIP3    H2 3106   2.590   1.733   3.035  0.4832  0.2557 -1.2086
 1034TIP3   OH2 3107   0.709   2.814   4.083  0.0371 -0.0354 -0.1860
 1034TIP3    H1 3108   0.674   2.894   4.044  1.1356  0.3104 -0.4905
 1034TIP3    H2 3109   0.718   2.754   4.010  1.3771  0.3554 -0.3651
 1035TIP3   OH2 3110   0.431   1.857   2.410  0.3612  0.1469 -0.3910
 1035TIP3    H1 3111   0.485   1.896   2.479  0.8976  0.6124 -1.0625
 1035TIP3    H2 3112   0.375   1.930   2.380 -0.4193 -0.2450  0.0677
 1036TIP3   OH2 3113   3.957   4.288   3.358  0.1020  0.4101  0.5078
 1036TIP3    H1 3114   4.012   4.344   3.413  2.1347 -1.7234  0.8137
 1036TIP3    H2 3115   3.879   4.341   3.340  1.6289  3.0799  1.2071
 1037TIP3   OH2 3116   5.105   2.577   0.423  0.0807 -0.2927 -0.6443
 1037TIP3    H1 3117   5.177   2.590   0.485  0.5871  0.5955 -1.3905
 1037TIP3    H2 3118   5.047   2.515   0.466  0.7822 -0.2376  0.4113
 1038TIP3   OH2 3119   4.657   1.225   4.440  0.0253 -0.3661  0.3409
 1038TIP3    H1 3120   4.594   1.270   4.383  1.7533 -1.0508 -2.3163
 1038TIP3    H2 3121   4.609   1.149   4.473 -0.8983 -0.2563 -0.6703
 1039TIP3   OH2 3122   2.348   4.166   0.028 -0.4497 -0.2701  0.0553
 1039TIP3    H1 3123   2.425   4.202  -0.016  0.1848  0.1643  1.4639
 1039TIP3    H2 3124   2.303   4.242   0.065 -0.5240 -0.6910  0.8383
 1040TIP3   OH2 3125   1.578   3.106   3.811  0.5214 -0.0727  0.3249
 1040TIP3    H1 3126   1.612   3.164   3.879  0.9575  0.0395  0.0192
 1040TIP3    H2 3127   1.656   3.082   3.760  0.3679 -1.0319  0.5288
 1041TIP3   OH2 3128   1.250   0.357   3.811  0.3295  0.2403 -0.0023
 1041TIP3    H1 3129   1.293   0.424   3.865 -1.0879  0.5286  0.8136
 1041TIP3    H2 3130   1.195   0.309   3.873  1.3226 -1.7091 -0.5749
 1042TIP3   OH2 3131   4.513   0.156   4.690 -0.4074 -0.8340 -0.0084
 1042TIP3    H1 3132   4.431   0.205   4.701  0.8962  1.2195  1.1529
 1042TIP3    H2 3133   4.524   0.149   4.595 -1.8600 -1.0960 -0.1870
 1043TIP3   OH2 3134   6.011   2.206   4.054 -0.0480 -0.1554 -0.4232
 1043TIP3    H1 3135   6.056   2.186   4.135 -0.5677  0.1316 -0.0589
 1043TIP3    H2 3136   6.074   2.258   4.003  0.6379 -1.1727 -0.6241
 1044TIP3   OH2 3137   3.400   3.531   2.612  0.1070 -0.6878  0.2405
 1044TIP3    H1 3138   3.416   3.553   2.520  0.2458 -1.1109  0.1632
 1044TIP3    H2 3139   3.439   3.445   2.624  1.1884 -0.1139  1.0213
 1045TIP3   OH2 3140   4.144   4.776   0.183 -0.3092 -0.2698  0.0336
 1045TIP3    H1 3141   4.132   4.870   0.181 -1.8743 -0.4217  0.8930
 1045TIP3    H2 3142   4.214   4.759   0.120 -1.0337  1.3000 -1.2487
 1046TIP3   OH2 3143   4.169   1.926   3.881 -0.2853  0.2394  0.3631
 1046TIP3    H1 3144   4.235   1.930   3.950 -1.5160  0.3781  1.5798
 1046TIP3    H2 3145   4.095   1.881   3.921 -0.1786 -1.9308 -1.6454
 1047TIP3   OH2 3146   2.927   2.525   0.057 -0.3899  0.0198 -0.1484
 1047TIP3    H1 3147   2.860   2.494   0.118 -1.5683  0.5508 -1.1247
 1047TIP3    H2 3148   2.916   2.620   0.056 -0.2296  0.0363 -0.9844
 1048TIP3   OH2 3149   1.591   4.912   1.346 -0.0192 -0.3809 -0.0726
 1048TIP3    H1 3150   1.589   5.007   1.349 -1.0246 -0.3185 -1.5770
 1048TIP3    H2 3151   1.684   4.890   1.341  0.1839  0.6195 -1.1930
 1049TIP3   OH2 3152   5.511   1.033   4.425 -0.9198  0.5711 -0.4842
 1049TIP3    H1 3153   5.446   1.100   4.403 -0.3058  0.6401 -2.2318
 1049TIP3    H2 3154   5.548   1.061   4.509 -0.3994  2.6526 -1.3577
 1050TIP3   OH2 3155   3.480   3.194   1.253  0.4804 -0.4503 -0.0455
 1050TIP3    H1 3156   3.522   3.118   1.213  0.8415  0.2284 -0.9789
 1050TIP3    H2 3157   3.456   3.164   1.341  1.9917 -1.1690  0.1548
 1051TIP3   OH2 3158   3.356   2.519   5.043 -0.3489 -0.2561 -0.1444
 1051TIP3    H1 3159   3.451   2.517   5.033 -0.4232  0.1178 -1.0755
 1051TIP3    H2 3160   3.341   2.560   5.128  0.3054  1.7129 -0.9224
 1052TIP3   OH2 3161   3.767   2.084   1.813 -0.1529  0.1820  0.1881
 1052TIP3    H1 3162   3.685   2.042   1.839 -0.7506  0.3369 -1.3587
 1052TIP3    H2 3163   3.778   2.060   1.721  1.5885  0.1056  0.3764
 1053TIP3   OH2 3164   0.502   3.273   5.055 -0.4756 -0.2517 -0.7381
 1053TIP3    H1 3165   0.455   3.344   5.098 -0.1771 -0.6063  0.2208
 1053TIP3    H2 3166   0.445   3.245   4.984 -1.1340  0.1518 -0.3779
 1054TIP3   OH2 3167   6.351   3.484   2.835 -0.1103  0.0209  0.2820
 1054TIP3    H1 3168   6.344   3.421   2.763  0.6931  0.2489 -0.0002
 1054TIP3    H2 3169   6.311   3.439   2.910 -0.3648 -0.4693 -0.1408
 1055TIP3   OH2 3170   1.407   4.574   2.232 -0.6002  0.4804  0.9618
 1055TIP3    H1 3171   1.473   4.639   2.207 -0.0535 -0.4687 -0.1563
 1055TIP3    H2 3172   1.456   4.505   2.277 -1.0418  0.4002  1.3360
 1056TIP3   OH2 3173   3.826   4.302   2.687 -0.6802  0.1979  0.0591
 1056TIP3    H1 3174   3.834   4.262   2.600  0.2120 -0.9916  0.6541
 1056TIP3    H2 3175   3.751   4.257   2.727  0.2264 -0.8289  0.6702
 1057TIP3   OH2 3176   3.042   2.923   3.448  0.0441  0.2902  0.0168
 1057TIP3    H1 3177   3.003   2.837   3.435 -2.2131  1.0251  1.2314
 1057TIP3    H2 3178   3.136   2.909   3.439 -0.3217 -2.0510 -0.9334
 1058TIP3   OH2 3179   3.068   3.603   3.043  0.6741 -0.3146  0.3548
 1058TIP3    H1 3180   3.141   3.665   3.042 -0.4443  1.2542 -3.8907
 1058TIP3    H2 3181   3.109   3.519   3.024  1.6878 -0.1624  1.6372
 1059TIP3   OH2 3182   1.960   2.182   4.548  0.5336 -0.1343  0.0665
 1059TIP3    H1 3183   2.055   2.195   4.555  0.5873 -0.7651  0.7096
 1059TIP3    H2 3184   1.933   2.163   4.638 -0.1256 -0.4353 -0.1935
 1060TIP3   OH2 3185   5.700   4.888   1.758  0.5495  0.4617  0.1569
 1060TIP3    H1 3186   5.705   4.857   1.667  2.3865 -1.3688  0.7794
 1060TIP3    H2 3187   5.611   4.867   1.786  1.1723 -2.9926 -0.0049
 1061TIP3   OH2 3188   0.716   2.265   1.139  0.3478  0.1885 -0.2081
 1061TIP3    H1 3189   0.747   2.251   1.049 -2.8181  1.7528 -1.7074
 1061TIP3    H2 3190   0.650   2.197   1.152  2.1624 -1.3030  1.8079
 1062TIP3   OH2 3191   2.402   5.882   4.985 -0.1954  0.2194  0.2494
 1062TIP3    H1 3192   2.318   5.924   5.001 -0.5412  0.4447 -1.7866
 1062TIP3    H2 3193   2.385   5.789   4.991 -1.1639  0.1531 -2.1201
 1063TIP3   OH2 3194   3.245   3.505   1.295  0.2506  0.1090  0.5749
 1063TIP3    H1 3195   3.187   3.581   1.292  0.2843  0.1077 -0.6487
 1063TIP3    H2 3196   3.323   3.532   1.247  0.0093 -0.8857 -0.4271
 1064TIP3   OH2 3197   2.761   5.230   0.621  0.3245  0.3442  0.1182
 1064TIP3    H1 3198   2.838   5.228   0.677  1.5344 -1.0985 -1.4792
 1064TIP3    H2 3199   2.710   5.305   0.652  2.2376  1.1844  1.3856
 1065TIP3   OH2 3200   4.850   4.230   4.803  0.2049  0.6242 -0.2156
 1065TIP3    H1 3201   4.776   4.214   4.861  0.4144  1.6279  0.3420
 1065TIP3    H2 3202   4.836   4.170   4.729 -0.6307  0.1079  0.3481
 1066TIP3   OH2 3203   4.684   4.696   1.475  0.0493 -0.2547 -0.2082
 1066TIP3    H1 3204   4.673   4.721   1.383  1.6267 -0.2878 -0.4393
 1066TIP3    H2 3205   4.766   4.739   1.501  0.8186 -2.0798  0.5165
 1067TIP3   OH2 3206   0.234   2.716   4.101  0.5123 -0.6738 -0.2221
 1067TIP3    H1 3207   0.277   2.777   4.161 -1.3297  1.3765 -0.8821
 1067TIP3    H2 3208   0.223   2.636   4.153  0.4363  0.4853  1.6401
 1068TIP3   OH2 3209   3.482   3.855   3.932 -0.0660  0.0966  0.3378
 1068TIP3    H1 3210   3.558   3.799   3.918  0.2373  0.4105  0.7041
 1068TIP3    H2 3211   3.487   3.921   3.863  0.1240  0.2526  0.4994
 1069TIP3   OH2 3212   2.120   0.530   5.064 -0.2076 -0.1837  0.1242
 1069TIP3    H1 3213   2.105   0.458   5.126  0.0321 -1.3414 -1.1190
 1069TIP3    H2 3214   2.035   0.546   5.024 -0.5336  1.0788  1.2306
 1070TIP3   OH2 3215   1.828   0.873   4.413  0.0143  0.1824 -0.0489
 1070TIP3    H1 3216   1.744   0.852   4.374 -0.9539  0.7027  1.6523
 1070TIP3    H2 3217   1.891   0.860   4.343 -1.5944  0.8829 -1.6905
 1071TIP3   OH2 3218   5.347   2.826   5.143 -0.1370  0.5173  0.8114
 1071TIP3    H1 3219   5.398   2.746   5.125  2.5898  1.3439  3.7024
 1071TIP3    H2 3220   5.410   2.897   5.131 -2.1878  2.2174 -0.5670
 1072TIP3   OH2 3221   4.772   5.476   5.067 -0.4185 -0.1300  0.1987
 1072TIP3    H1 3222   4.697   5.535   5.056 -1.0866 -0.7586  1.2156
 1072TIP3    H2 3223   4.848   5.531   5.050 -1.1145  0.2788 -1.9469
 1073TIP3   OH2 3224   4.041   2.349   1.631 -0.2517 -0.2487  0.7538
 1073TIP3    H1 3225   3.987   2.357   1.552 -0.6827  0.4633  1.1072
 1073TIP3    H2 3226   3.999   2.408   1.694  0.0658 -0.8340  1.5258
 1074TIP3   OH2 3227   1.041   2.057   2.473 -0.0863 -0.2752 -0.7094
 1074TIP3    H1 3228   1.042   2.100   2.559 -0.1497  0.2211 -0.9540
 1074TIP3    H2 3229   1.112   2.099   2.425 -0.8689  0.3649 -1.3374
 1075TIP3   OH2 3230   1.132   5.028   0.964  0.2171 -0.0749  0.1965
 1075TIP3    H1 3231   1.085   5.110   0.949 -0.0378  0.0264  1.4407
 1075TIP3    H2 3232   1.186   5.045   1.041  0.0325 -1.1288  0.5781
 1076TIP3   OH2 3233   4.604   2.078   4.126  0.2702 -0.3746  0.1031
 1076TIP3    H1 3234   4.661   2.090   4.050  0.0492 -0.9155 -0.1591
 1076TIP3    H2 3235   4.625   1.990   4.158 -0.3500 -0.5457  0.0513
 1077TIP3   OH2 3236   0.246   4.425   1.959 -0.0302 -0.2072 -0.2004
 1077TIP3    H1 3237   0.213   4.335   1.966  1.1767 -0.6888 -0.5095
 1077TIP3    H2 3238   0.189   4.466   1.894 -1.3771 -0.3554  0.8286
 1078TIP3   OH2 3239   3.258   2.540   0.667  0.3038  0.1948 -0.1591
 1078TIP3    H1 3240   3.248   2.614   0.726  0.1965 -0.7651  1.0679
 1078TIP3    H2 3241   3.225   2.465   0.716  1.2490 -0.8287 -1.0118
 1079TIP3   OH2 3242   4.448   2.282   1.370  0.3384 -0.4131 -0.1977
 1079TIP3    H1 3243   4.454   2.207   1.429  0.5578  0.2814  0.6793
 1079TIP3    H2 3244   4.528   2.332   1.385  0.2993 -0.1058 -0.9358
 1080TIP3   OH2 3245   3.809   5.899   4.326  0.6842  0.0589  0.0286
 1080TIP3    H1 3246   3.830   5.988   4.296  0.1877 -0.0060 -0.5393
 1080TIP3    H2 3247   3.890   5.850   4.315  0.2952 -0.1989 -2.1836
 1081TIP3   OH2 3248   4.009   1.135   2.853  0.7333  0.3108  0.1169
 1081TIP3    H1 3249   4.033   1.101   2.767  0.3935  0.5921 -0.0916
 1081TIP3    H2 3250   4.081   1.195   2.875 -0.1545  1.8050 -0.8849
 1082TIP3   OH2 3251   4.920   2.128   0.553 -0.3535  0.1315 -0.3472
 1082TIP3    H1 3252   4.988   2.064   0.529  0.0992  0.8473 -0.9868
 1082TIP3    H2 3253   4.907   2.114   0.647 -1.8826 -2.4464 -0.8389
 1083TIP3   OH2 3254   1.355   3.665   1.550 -0.2026 -0.2060 -0.2352
 1083TIP3    H1 3255   1.339   3.697   1.461  0.2301 -1.8204 -0.9259
 1083TIP3    H2 3256   1.269   3.669   1.593 -0.2084  1.6273 -0.3317
 1084TIP3   OH2 3257   1.643   5.067   2.349  0.0028 -0.0704  0.3033
 1084TIP3    H1 3258   1.676   5.066   2.439  0.8545  1.0447  0.0380
 1084TIP3    H2 3259   1.714   5.028   2.297 -0.5254 -0.7979  0.1262
 1085TIP3   OH2 3260   5.196   4.273   3.550  0.7456  0.2833 -0.3925
 1085TIP3    H1 3261   5.112   4.229   3.565  1.4665 -0.4230  2.0431
 1085TIP3    H2 3262   5.211   4.323   3.630  3.3005 -0.7853 -0.0939
 1086TIP3   OH2 3263   3.181   1.103   4.428 -0.2081 -0.4126 -0.1559
 1086TIP3    H1 3264   3.188   1.115   4.523 -0.6421  0.1409 -0.1912
 1086TIP3    H2 3265   3.209   1.186   4.391 -1.1762 -0.2193 -0.4754
 1087TIP3   OH2 3266   0.213   0.643   4.379  0.3093 -0.1939  0.0082
 1087TIP3    H1 3267   0.296   0.596   4.388  0.5232 -0.1824 -1.6287
 1087TIP3    H2 3268   0.222   0.720   4.435  0.9519 -0.7675  0.7080
 1088TIP3   OH2 3269   4.068   2.869   4.339  0.8258 -0.1598 -0.2307
 1088TIP3    H1 3270   3.986   2.914   4.321  0.2001 -1.6214 -1.1866
 1088TIP3    H2 3271   4.074   2.800   4.273  2.4931 -0.5220  0.2316
 1089TIP3   OH2 3272   3.681   3.975   2.209 -0.3995 -0.2355  0.7045
 1089TIP3    H1 3273   3.705   3.934   2.292  0.2790 -1.2867  0.0139
 1089TIP3    H2 3274   3.721   4.061   2.212  0.6189 -0.7019  0.9946
 1090TIP3   OH2 3275   1.330   0.187   2.490 -0.2724  0.5261  0.1781
 1090TIP3    H1 3276   1.250   0.207   2.442 -0.6233  0.3308  0.6653
 1090TIP3    H2 3277   1.313   0.219   2.579 -0.2880 -0.6029  0.6002
 1091TIP3   OH2 3278   3.600   0.648   2.481 -0.3195 -0.4033  0.2582
 1091TIP3    H1 3279   3.506   0.638   2.491 -0.2393 -1.4470  0.0605
 1091TIP3    H2 3280   3.626   0.576   2.424  0.5805 -0.0565  0.2168
 1092TIP3   OH2 3281   4.039   0.621   4.720 -0.2381 -0.2260  0.0743
 1092TIP3    H1 3282   3.946   0.611   4.737 -0.2813  0.4712  0.2794
 1092TIP3    H2 3283   4.052   0.715   4.709  0.7356 -0.0863  1.9439
 1093TIP3   OH2 3284   5.305   1.071   0.057  0.2155  0.0919  0.1489
 1093TIP3    H1 3285   5.298   1.014   0.134  0.4233 -0.7400 -0.4381
 1093TIP3    H2 3286   5.219   1.114   0.052  0.3850  0.5891  1.1662
 1094TIP3   OH2 3287   3.244   1.493   4.350  0.3239 -0.0606  0.0295
 1094TIP3    H1 3288   3.156   1.472   4.383  0.0350  0.6133 -0.2776
 1094TIP3    H2 3289   3.290   1.530   4.426 -0.3600  1.5504 -0.3017
 1095TIP3   OH2 3290   5.534   5.233   0.708  0.5452  0.3141 -0.6342
 1095TIP3    H1 3291   5.536   5.325   0.680  0.4784 -0.1738 -2.3640
 1095TIP3    H2 3292   5.450   5.223   0.752  1.0316  1.3343  0.5901
 1096TIP3   OH2 3293   2.974   5.937   1.171 -0.5705 -0.1249  0.1963
 1096TIP3    H1 3294   2.986   5.985   1.089  1.5266 -0.5750  0.1859
 1096TIP3    H2 3295   2.992   6.002   1.239  1.0083 -0.5436  0.2063
 1097TIP3   OH2 3296   0.082   1.393   4.424 -0.1087  0.5620 -0.3922
 1097TIP3    H1 3297   0.052   1.329   4.360  1.4207  0.0964 -0.6912
 1097TIP3    H2 3298   0.079   1.346   4.508  0.8798  0.1168 -0.5913
 1098TIP3   OH2 3299   3.732   4.825   3.011  0.1355 -0.2128 -0.2892
 1098TIP3    H1 3300   3.796   4.778   3.066  1.1334  0.7100 -0.6216
 1098TIP3    H2 3301   3.666   4.856   3.073  1.1195  0.6125  0.3741
 1099TIP3   OH2 3302   6.235   2.535   0.177  0.0471  0.3728 -0.3939
 1099TIP3    H1 3303   6.226   2.563   0.268 -0.1125  0.5018 -0.4499
 1099TIP3    H2 3304   6.148   2.503   0.153  0.1291  0.1940 -0.4522
 1100TIP3   OH2 3305   2.184   0.304   2.015  0.3905  0.2471 -0.2844
 1100TIP3    H1 3306   2.260   0.322   2.070  1.4918 -0.6107 -1.4470
 1100TIP3    H2 3307   2.217   0.314   1.925 -0.6909 -0.7745 -0.8211
 1101TIP3   OH2 3308   5.714   0.675   3.518  1.1181 -0.0786 -0.1118
 1101TIP3    H1 3309   5.792   0.632   3.483  1.1223 -0.6579  0.6049
 1101TIP3    H2 3310   5.664   0.701   3.440  1.4025 -0.8478 -0.5542
 1102TIP3   OH2 3311   0.450   5.342   3.669  0.4768 -0.1416 -0.0003
 1102TIP3    H1 3312   0.452   5.419   3.612 -1.1922 -1.0989 -1.4408
 1102TIP3    H2 3313   0.534   5.345   3.716  0.1750  2.9134  0.5516
 1103TIP3   OH2 3314   5.245   4.705   3.952 -0.3071 -0.0506 -0.4845
 1103TIP3    H1 3315   5.188   4.708   4.030 -0.0059  1.5237 -0.2788
 1103TIP3    H2 3316   5.201   4.645   3.893 -1.6391  0.2945  0.0994
 1104TIP3   OH2 3317   5.280   4.064   0.946 -0.2027 -0.3746 -0.2337
 1104TIP3    H1 3318   5.294   3.987   1.000 -1.9969 -0.5034  0.1201
 1104TIP3    H2 3319   5.185   4.066   0.931 -0.0322  0.9894 -1.3903
 1105TIP3   OH2 3320   3.705   3.635   3.459  0.1080 -0.0522  0.1118
 1105TIP3    H1 3321   3.681   3.657   3.549  1.5282  0.3809  0.4053
 1105TIP3    H2 3322   3.656   3.697   3.405 -1.5461 -0.9599  0.4831
 1106TIP3   OH2 3323   1.348   0.571   4.944 -0.0147 -0.1768  0.3598
 1106TIP3    H1 3324   1.314   0.658   4.964 -0.7643 -0.2893 -0.3563
 1106TIP3    H2 3325   1.290   0.538   4.874  0.5601 -1.0451  0.2756
 1107TIP3   OH2 3326   1.915   3.394   3.337  0.1228 -0.4776  0.1822
 1107TIP3    H1 3327   1.822   3.371   3.338 -0.4633  1.5323 -1.2946
 1107TIP3    H2 3328   1.960   3.313   3.313 -1.4084 -1.1046 -0.7026
 1108TIP3   OH2 3329   5.641   5.850   0.420 -0.0009  0.3552  0.3132
 1108TIP3    H1 3330   5.556   5.854   0.377  0.2914 -0.2317 -0.3395
 1108TIP3    H2 3331   5.663   5.757   0.420 -0.7805  0.0671  3.3161
 1109TIP3   OH2 3332   2.678   3.430   2.048  0.0242 -0.0975  0.2273
 1109TIP3    H1 3333   2.606   3.469   2.098  1.6422  1.5639  1.4037
 1109TIP3    H2 3334   2.657   3.450   1.957 -1.6698 -0.8578  0.4187
 1110TIP3   OH2 3335   5.748   1.250   2.904  0.2004  0.6369  0.2385
 1110TIP3    H1 3336   5.766   1.333   2.948  1.7599  0.3786  0.1385
 1110TIP3    H2 3337   5.778   1.263   2.814 -0.5026  0.2961 -0.0487
 1111TIP3   OH2 3338   0.675   1.672   1.431 -0.2201 -0.0120 -0.2301
 1111TIP3    H1 3339   0.681   1.618   1.510 -0.9079  0.2015 -0.0254
 1111TIP3    H2 3340   0.672   1.762   1.463  2.6787  0.3191 -0.6312
 1112TIP3   OH2 3341   5.253   2.927   2.775  0.3396 -0.3869 -0.5183
 1112TIP3    H1 3342   5.346   2.940   2.760 -0.0031  0.2894 -2.3737
 1112TIP3    H2 3343   5.219   3.013   2.798  0.0178 -0.4118 -0.8813
 1113TIP3   OH2 3344   5.319   3.625   1.741 -0.2610  0.3359  0.6323
 1113TIP3    H1 3345   5.347   3.585   1.823 -0.0548 -0.4385  0.1982
 1113TIP3    H2 3346   5.224   3.609   1.738 -0.0665 -0.9101  0.0753
 1114TIP3   OH2 3347   0.627   4.295   3.816 -0.0230 -0.8321 -0.2716
 1114TIP3    H1 3348   0.579   4.330   3.891 -1.1178  0.2277 -1.4015
 1114TIP3    H2 3349   0.709   4.344   3.815  0.4090 -1.5080  0.7459
 1115TIP3   OH2 3350   2.885   0.479   2.362  0.2588 -0.0955 -0.2028
 1115TIP3    H1 3351   2.942   0.462   2.287  1.1425 -1.1556  0.6643
 1115TIP3    H2 3352   2.842   0.395   2.378  0.1216  0.1080  0.5043
 1116TIP3   OH2 3353   3.980   2.549   4.835 -0.2438 -0.5844 -0.0813
 1116TIP3    H1 3354   4.065   2.510   4.851  0.6436  0.7153 -1.3505
 1116TIP3    H2 3355   3.994   2.607   4.760 -2.3186 -0.5725 -0.5183
 1117TIP3   OH2 3356   5.603   2.949   0.062 -0.1464 -0.0930 -0.3485
 1117TIP3    H1 3357   5.652   3.029   0.042  1.1858 -1.3635 -2.5810
 1117TIP3    H2 3358   5.578   2.915  -0.024 -1.4943 -1.6047  0.5945
 1118TIP3   OH2 3359   4.350   1.031   0.539 -0.0707  0.2875  0.0044
 1118TIP3    H1 3360   4.423   1.090   0.520 -1.1583  0.7622 -3.2340
 1118TIP3    H2 3361   4.379   0.946   0.506 -0.5542  0.2443 -0.3169
 1119TIP3   OH2 3362   3.706   3.733   4.675  0.4521  0.1306 -0.3182
 1119TIP3    H1 3363   3.679   3.746   4.584 -0.9325  0.5768  0.1249
 1119TIP3    H2 3364   3.634   3.683   4.714  1.4754 -0.8992  0.3085
 1120TIP3   OH2 3365   5.806   5.523   0.619  0.0885  0.0309 -0.1909
 1120TIP3    H1 3366   5.851   5.547   0.700  0.3059  1.5561 -0.7291
 1120TIP3    H2 3367   5.727   5.477   0.648  0.0149  0.8071  0.9135
 1121TIP3   OH2 3368   0.888   3.655   4.538 -0.4394  0.7080 -0.0623
 1121TIP3    H1 3369   0.819   3.689   4.481  0.1024  0.4694 -0.8833
 1121TIP3    H2 3370   0.897   3.720   4.607 -0.9014  1.1588 -0.4237
 1122TIP3   OH2 3371   6.303   0.950   4.162 -0.4026 -0.3329  0.5194
 1122TIP3    H1 3372   6.347   0.896   4.096  1.5124  1.0766  0.5509
 1122TIP3    H2 3373   6.250   0.888   4.212  1.4212 -2.1463  0.3434
 1123TIP3   OH2 3374   0.442   2.664   1.019 -0.6589 -0.1164  0.1325
 1123TIP3    H1 3375   0.453   2.659   0.924 -1.8200 -1.6546  0.0318
 1123TIP3    H2 3376   0.481   2.583   1.052 -1.5625 -0.2997  0.8079
 1124TIP3   OH2 3377   0.746   3.425   4.876 -0.3666 -0.2039 -0.4137
 1124TIP3    H1 3378   0.651   3.435   4.874 -0.3833 -0.4418 -0.9078
 1124TIP3    H2 3379   0.776   3.500   4.928 -0.8806 -0.6423  0.5387
 1125TIP3   OH2 3380   1.957   1.396   3.035  0.4964 -0.0232 -0.3891
 1125TIP3    H1 3381   2.031   1.448   3.069 -0.2149  1.0827 -0.4937
 1125TIP3    H2 3382   1.961   1.407   2.941 -0.1909  0.5785 -0.3509
 1126TIP3   OH2 3383   3.938   5.360   4.096 -0.1046  0.4294 -0.1927
 1126TIP3    H1 3384   4.000   5.405   4.153  0.5674  0.0530 -0.6180
 1126TIP3    H2 3385   3.963   5.268   4.100 -1.6806  0.0209  0.9259
 1127TIP3   OH2 3386   0.066   3.693   3.664 -0.1979 -0.1717  0.4478
 1127TIP3    H1 3387   0.098   3.732   3.583 -1.3059 -1.5187 -0.7017
 1127TIP3    H2 3388   0.125   3.726   3.732  2.6169 -1.3073 -1.2874
 1128TIP3   OH2 3389   5.328   4.325   1.600  0.2603 -0.1653  0.5399
 1128TIP3    H1 3390   5.256   4.304   1.659  0.1561  1.0070  0.8451
 1128TIP3    H2 3391   5.291   4.386   1.537  0.9129  0.2427  0.5355
 1129TIP3   OH2 3392   0.232   2.028   4.305 -0.0562  0.1234 -0.0904
 1129TIP3    H1 3393   0.317   2.056   4.340 -1.0516  1.7750  1.1841
 1129TIP3    H2 3394   0.174   2.030   4.381 -1.0799 -1.7709 -0.7796
 1130TIP3   OH2 3395   2.277   5.688   2.597  0.3174  0.2997 -1.3868
 1130TIP3    H1 3396   2.188   5.665   2.569  0.4324 -1.6418 -0.3171
 1130TIP3    H2 3397   2.277   5.784   2.598 -2.2969  0.4057  0.1404
 1131TIP3   OH2 3398   5.041   5.636   2.089 -0.4548  0.5888 -0.0699
 1131TIP3    H1 3399   5.067   5.646   2.180 -2.3623  1.8610  0.3889
 1131TIP3    H2 3400   5.017   5.543   2.080 -0.0415  0.4091  0.6437
 1132TIP3   OH2 3401   3.528   4.098   3.807 -0.2679 -0.5430  0.0918
 1132TIP3    H1 3402   3.543   4.189   3.782  1.0485 -0.9734 -0.8247
 1132TIP3    H2 3403   3.465   4.102   3.879 -2.3379  0.9207 -1.6801
 1133TIP3   OH2 3404   3.534   2.911   0.070  0.3466  0.4380 -0.0815
 1133TIP3    H1 3405   3.554   2.846   0.137  1.4563  0.8918  0.0397
 1133TIP3    H2 3406   3.619   2.938   0.036 -0.1820  0.5186 -1.3896
 1134TIP3   OH2 3407   4.323   5.647   4.473 -0.0833 -0.4568 -0.0173
 1134TIP3    H1 3408   4.241   5.602   4.493  0.2113 -1.3034 -0.6868
 1134TIP3    H2 3409   4.318   5.665   4.379  0.9056 -1.3591 -0.2559
 1135TIP3   OH2 3410   2.433   5.285   1.433  0.0746 -0.4102  0.3391
 1135TIP3    H1 3411   2.403   5.205   1.476 -0.3770 -1.0285 -1.0584
 1135TIP3    H2 3412   2.526   5.290   1.453  0.0699 -1.2008  0.5872
 1136TIP3   OH2 3413   5.114   5.335   3.602  0.3830 -0.0060 -0.0961
 1136TIP3    H1 3414   5.102   5.243   3.581  0.6814 -0.1276  0.2616
 1136TIP3    H2 3415   5.026   5.372   3.604  0.2698 -0.2682 -0.3018
 1137TIP3   OH2 3416   1.090   1.413   1.029  0.0468  0.0689 -0.2224
 1137TIP3    H1 3417   1.108   1.486   1.088 -0.9979 -0.6299  1.0168
 1137TIP3    H2 3418   1.125   1.441   0.944 -1.5730  2.5964 -0.1635
 1138TIP3   OH2 3419   1.089   2.987   4.754  0.2529  0.0377 -0.3883
 1138TIP3    H1 3420   1.147   2.948   4.820  0.5918 -1.5847 -1.5811
 1138TIP3    H2 3421   1.001   2.977   4.792  0.5025 -0.2699  0.1208
 1139TIP3   OH2 3422   5.542   4.806   0.923  0.0725  0.2548 -0.0297
 1139TIP3    H1 3423   5.534   4.895   0.956 -0.6541 -0.1577  0.9573
 1139TIP3    H2 3424   5.611   4.811   0.856  1.5365  1.1517  1.4564
 1140TIP3   OH2 3425   0.387   4.975   2.118 -0.5071 -0.0812 -0.1946
 1140TIP3    H1 3426   0.349   4.987   2.204 -1.3343  3.1368 -0.8694
 1140TIP3    H2 3427   0.312   4.967   2.059 -0.1100  1.5303 -0.9827
 1141TIP3   OH2 3428   4.592   5.692   3.858  0.2174 -0.1182 -0.6807
 1141TIP3    H1 3429   4.594   5.635   3.781 -1.1525 -0.7508 -0.2897
 1141TIP3    H2 3430   4.610   5.779   3.824 -2.6783  0.0143 -2.1691
 1142TIP3   OH2 3431   5.636   0.667   1.289  0.0862  0.3761  0.1945
 1142TIP3    H1 3432   5.548   0.632   1.275  0.1733  0.0011  0.5595
 1142TIP3    H2 3433   5.623   0.761   1.301 -0.6691 -0.0412  3.5250
 1143TIP3   OH2 3434   5.227   3.218   3.303 -0.7241 -0.1451 -0.0071
 1143TIP3    H1 3435   5.280   3.176   3.236 -0.3145 -0.7696  0.6903
 1143TIP3    H2 3436   5.240   3.312   3.290  0.7101 -0.2842  0.2654
 1144TIP3   OH2 3437   5.045   1.904   2.444 -0.7030  0.4880  0.1368
 1144TIP3    H1 3438   5.093   1.951   2.513 -0.6725  1.7031 -0.6912
 1144TIP3    H2 3439   5.107   1.838   2.413 -0.6590  0.0258  1.1419
 1145TIP3   OH2 3440   1.865   1.573   2.147  0.4178 -0.7380 -0.1723
 1145TIP3    H1 3441   1.793   1.624   2.183  0.1569 -2.2620  1.6199
 1145TIP3    H2 3442   1.873   1.603   2.056 -1.2513  0.7459  0.1226
 1146TIP3   OH2 3443   2.175   4.925   3.693  0.4081  0.2426  0.3803
 1146TIP3    H1 3444   2.151   5.018   3.690  1.6902  0.6212  1.1465
 1146TIP3    H2 3445   2.105   4.884   3.744 -0.1294  0.7980  0.0980
 1147TIP3   OH2 3446   1.069   4.585   4.664  0.0485 -0.3212  0.4744
 1147TIP3    H1 3447   1.128   4.631   4.605 -0.0983  1.3033  1.5225
 1147TIP3    H2 3448   1.099   4.609   4.752 -1.6427 -0.0957  1.0308
 1148TIP3   OH2 3449   0.275   0.740   3.670  0.0629 -0.4386 -0.5614
 1148TIP3    H1 3450   0.323   0.813   3.711  0.8121 -1.0389 -0.3353
 1148TIP3    H2 3451   0.247   0.774   3.586 -0.1936  0.3346 -0.1735
 1149TIP3   OH2 3452   6.227   4.091   3.950 -0.2030  0.9177 -0.2776
 1149TIP3    H1 3453   6.317   4.058   3.961 -0.2964  0.3181 -1.2458
 1149TIP3    H2 3454   6.175   4.038   4.011 -0.3758 -0.8888 -1.9106
 1150TIP3   OH2 3455   3.214   0.358   2.432  0.4148  0.5065 -0.2934
 1150TIP3    H1 3456   3.201   0.348   2.338 -0.5283  1.0014 -0.2253
 1150TIP3    H2 3457   3.220   0.268   2.466  0.7344  0.3301 -0.8118
 1151TIP3   OH2 3458   2.688   5.495   3.590 -0.0369 -0.4074  0.4460
 1151TIP3    H1 3459   2.692   5.500   3.495  1.6834  2.2508  0.5611
 1151TIP3    H2 3460   2.730   5.412   3.612 -0.0417 -0.8391 -1.0820
 1152TIP3   OH2 3461   6.252   2.336   2.906 -0.5622  0.3005 -0.0350
 1152TIP3    H1 3462   6.305   2.276   2.958 -1.5309 -2.0633 -1.5861
 1152TIP3    H2 3463   6.163   2.324   2.938 -0.9810 -0.2240 -1.3188
 1153TIP3   OH2 3464   4.488   3.683   0.956  0.2255  0.1274  0.1105
 1153TIP3    H1 3465   4.437   3.652   1.031 -0.2510  0.8574  0.0897
 1153TIP3    H2 3466   4.527   3.603   0.920 -1.1184 -0.4810 -0.0448
 1154TIP3   OH2 3467   4.754   4.217   3.959 -0.3890 -0.6940 -0.3256
 1154TIP3    H1 3468   4.685   4.170   3.912 -0.4347 -0.2977 -0.6574
 1154TIP3    H2 3469   4.831   4.160   3.951 -0.6259 -1.0536 -0.1066
 1155TIP3   OH2 3470   5.582   5.234   0.038 -0.0202 -0.2074  0.3300
 1155TIP3    H1 3471   5.490   5.206   0.032  0.0744 -0.4994  0.1766
 1155TIP3    H2 3472   5.606   5.252  -0.053 -0.2373  0.9187  0.4876
 1156TIP3   OH2 3473   3.270   1.055   4.703  0.2399 -0.4832 -0.2927
 1156TIP3    H1 3474   3.197   0.994   4.713 -0.6419  0.6806  0.7818
 1156TIP3    H2 3475   3.340   1.019   4.756 -0.2254 -0.6502  0.2180
 1157TIP3   OH2 3476   2.994   3.812   3.286  0.3985  0.5063 -0.5871
 1157TIP3    H1 3477   3.054   3.791   3.358  1.1561 -0.0749 -1.3541
 1157TIP3    H2 3478   2.948   3.730   3.268  0.4434  0.5594 -0.9627
 1158TIP3   OH2 3479   3.005   5.886   0.318 -0.1904 -0.3512  0.1035
 1158TIP3    H1 3480   2.984   5.898   0.411  0.0582 -2.6414  0.5014
 1158TIP3    H2 3481   3.077   5.947   0.302  0.4832 -0.6800  1.6976
 1159TIP3   OH2 3482   5.955   1.618   4.116 -0.5392 -0.6756  0.0146
 1159TIP3    H1 3483   6.045   1.589   4.129 -0.7860 -0.8425  1.5709
 1159TIP3    H2 3484   5.939   1.606   4.022  0.6830 -1.7261 -0.0922
 1160TIP3   OH2 3485   5.445   0.673   2.861 -0.0869 -0.7735  0.2697
 1160TIP3    H1 3486   5.402   0.655   2.944  0.4148 -2.3661  0.2111
 1160TIP3    H2 3487   5.399   0.750   2.826  0.3157  0.5288  2.4304
 1161TIP3   OH2 3488   2.331   5.832   4.518  0.4185 -0.3082 -0.5319
 1161TIP3    H1 3489   2.389   5.849   4.592  1.1469 -1.5469 -0.7940
 1161TIP3    H2 3490   2.293   5.917   4.498 -0.8119 -0.1175  2.0864
 1162TIP3   OH2 3491   0.626   1.244   2.796  0.2694  0.0580  0.0373
 1162TIP3    H1 3492   0.663   1.296   2.724 -0.8339  1.2893  0.3179
 1162TIP3    H2 3493   0.696   1.183   2.819  1.2121  0.6680 -1.0570
 1163TIP3   OH2 3494   0.446   0.322   2.209  0.5063  0.2727 -0.2439
 1163TIP3    H1 3495   0.491   0.327   2.125  0.3755  1.4351 -0.2617
 1163TIP3    H2 3496   0.441   0.413   2.239  1.2957 -0.2004  1.4200
 1164TIP3   OH2 3497   1.969   1.999   0.559  0.1318  0.4085 -0.0173
 1164TIP3    H1 3498   2.030   2.058   0.515 -1.1364  0.5558 -1.6800
 1164TIP3    H2 3499   1.887   2.048   0.566 -0.6280 -0.7372 -0.4323
 1165TIP3   OH2 3500   6.240   4.401   4.658 -0.6467 -0.2795  0.6153
 1165TIP3    H1 3501   6.307   4.344   4.696 -0.4657 -0.0053  0.7168
 1165TIP3    H2 3502   6.269   4.490   4.681 -0.4976 -0.1020 -0.2360
 1166TIP3   OH2 3503   1.287   3.843   5.141 -0.3470  0.3660 -0.0487
 1166TIP3    H1 3504   1.253   3.928   5.170  0.1560  0.3964  0.4722
 1166TIP3    H2 3505   1.262   3.783   5.212 -0.7131  0.0738 -0.4215
 1167TIP3   OH2 3506   3.128   4.191   2.306 -0.0518 -0.4691  0.3086
 1167TIP3    H1 3507   3.061   4.249   2.268  0.0844  0.8135  1.9401
 1167TIP3    H2 3508   3.120   4.111   2.255 -0.4612  0.8447 -1.8594
 1168TIP3   OH2 3509   2.840   5.225   1.738  0.0225  0.2244 -0.2471
 1168TIP3    H1 3510   2.931   5.250   1.751  0.2560  0.1454 -1.5539
 1168TIP3    H2 3511   2.793   5.266   1.811  0.7161  2.5287 -1.0128
 1169TIP3   OH2 3512   3.594   5.581   3.389  0.3828  0.2168 -0.2445
 1169TIP3    H1 3513   3.610   5.523   3.464  2.0811  0.1369 -0.6161
 1169TIP3    H2 3514   3.582   5.521   3.315 -1.1212  0.2999 -0.0991
 1170TIP3   OH2 3515   3.320   0.786   2.767 -0.7225 -0.0956 -0.1904
 1170TIP3    H1 3516   3.233   0.758   2.741 -1.3794  1.6172  0.0318
 1170TIP3    H2 3517   3.352   0.839   2.693  0.3051 -1.0133 -0.4349
 1171TIP3   OH2 3518   4.334   4.427   0.649  0.0956 -0.2250 -0.2891
 1171TIP3    H1 3519   4.414   4.479   0.644  0.2809 -0.3280  1.0378
 1171TIP3    H2 3520   4.365   4.337   0.657 -0.1225 -0.2470  0.4371
 1172TIP3   OH2 3521   1.618   2.490   0.555 -0.1582 -0.0196 -0.7812
 1172TIP3    H1 3522   1.609   2.556   0.486 -0.7913  0.0412 -0.6509
 1172TIP3    H2 3523   1.584   2.409   0.515  0.6824 -0.2863 -0.9646
 1173TIP3   OH2 3524   1.642   3.277   4.001  0.2164  0.6596 -0.0478
 1173TIP3    H1 3525   1.693   3.274   4.082  2.1854  0.8065 -1.2349
 1173TIP3    H2 3526   1.603   3.364   4.000 -0.4289  0.4118  1.0505
 1174TIP3   OH2 3527   4.738   4.780   2.248 -0.4827  0.2993  0.9692
 1174TIP3    H1 3528   4.680   4.722   2.198 -0.2991  0.9118  0.0072
 1174TIP3    H2 3529   4.702   4.867   2.233  0.6066  0.6743  0.4553
 1175TIP3   OH2 3530   3.929   2.962   2.643  0.0947  0.5865 -0.0780
 1175TIP3    H1 3531   3.927   3.029   2.574  1.7231  0.2530 -0.4825
 1175TIP3    H2 3532   3.914   3.011   2.724 -0.5122  1.1786 -0.5411
 1176TIP3   OH2 3533   4.502   0.417   3.327  0.3863  0.7583  0.0327
 1176TIP3    H1 3534   4.444   0.342   3.314  0.9406  0.2493  0.4093
 1176TIP3    H2 3535   4.504   0.430   3.421  0.7239  0.8925  0.0100
 1177TIP3   OH2 3536   2.740   0.084   4.961 -0.4795  0.3654  0.5929
 1177TIP3    H1 3537   2.651   0.086   4.995 -0.8114  0.9152 -0.2856
 1177TIP3    H2 3538   2.740   0.146   4.888 -0.0344 -1.5106 -1.0672
 1178TIP3   OH2 3539   0.801   3.599   3.498  0.1562  0.0634 -0.0157
 1178TIP3    H1 3540   0.856   3.521   3.494 -0.4113 -0.4620  1.7086
 1178TIP3    H2 3541   0.733   3.578   3.563 -1.6460  0.9861 -1.5188
 1179TIP3   OH2 3542   2.077   5.265   3.373  0.0255  0.1748 -0.4509
 1179TIP3    H1 3543   2.104   5.299   3.458  1.4490 -2.2128  0.1191
 1179TIP3    H2 3544   2.151   5.283   3.315 -0.0332 -0.1775 -0.6359
 1180TIP3   OH2 3545   1.857   3.536   0.702 -0.3278  0.0130  0.2068
 1180TIP3    H1 3546   1.832   3.515   0.613  0.2251  0.2560 -0.0098
 1180TIP3    H2 3547   1.924   3.604   0.693  2.4778 -2.4520  0.6081
 1181TIP3   OH2 3548   2.051   5.668   0.645 -0.3555 -0.1282 -0.3681
 1181TIP3    H1 3549   2.041   5.707   0.558  0.8852 -0.8711 -0.8697
 1181TIP3    H2 3550   1.962   5.653   0.675 -0.8116  0.6201 -1.2910
 1182TIP3   OH2 3551   2.672   0.514   2.059 -0.2267 -0.0649 -0.0585
 1182TIP3    H1 3552   2.581   0.533   2.034 -0.1572  1.7096  0.9293
 1182TIP3    H2 3553   2.669   0.425   2.094 -1.6382  0.0721  0.2119
 1183TIP3   OH2 3554   3.402   0.802   1.680  0.1534 -0.2159 -0.5972
 1183TIP3    H1 3555   3.374   0.892   1.693  2.5709  0.5958 -0.6897
 1183TIP3    H2 3556   3.435   0.799   1.590  2.5748 -0.4582  0.2528
 1184TIP3   OH2 3557   0.380   3.291   1.163  0.7520  0.1117 -0.5174
 1184TIP3    H1 3558   0.445   3.297   1.233  0.8883 -1.3428 -0.4893
 1184TIP3    H2 3559   0.333   3.209   1.181 -1.2773  1.2314 -0.3885
 1185TIP3   OH2 3560   5.377   4.112   0.327 -0.3879 -0.3195 -0.2469
 1185TIP3    H1 3561   5.409   4.023   0.338 -0.5403 -0.1998  1.3893
 1185TIP3    H2 3562   5.441   4.167   0.372 -0.8776  0.2824 -0.2644
 1186TIP3   OH2 3563   3.361   1.164   3.297 -0.2161  0.4804 -0.4043
 1186TIP3    H1 3564   3.336   1.256   3.304 -0.8032  0.3478 -0.7498
 1186TIP3    H2 3565   3.422   1.161   3.223 -0.5773  0.5137 -0.7047
 1187TIP3   OH2 3566   0.463   2.659   4.687  0.0766 -0.0573 -0.0200
 1187TIP3    H1 3567   0.477   2.753   4.698  1.2978 -0.1674 -0.5288
 1187TIP3    H2 3568   0.370   2.652   4.666 -0.3771  0.8967  1.4717
 1188TIP3   OH2 3569   2.345   2.711   0.419 -0.2809  0.1135 -0.2974
 1188TIP3    H1 3570   2.405   2.641   0.392 -0.2008  0.3691 -0.7968
 1188TIP3    H2 3571   2.276   2.710   0.352 -0.3692  0.3960 -0.2109
 1189TIP3   OH2 3572   5.271   4.091   3.368 -0.2504 -0.0859 -0.3676
 1189TIP3    H1 3573   5.319   4.142   3.303 -2.2486 -0.0968 -1.9776
 1189TIP3    H2 3574   5.234   4.156   3.428 -0.5941  0.1521 -0.8345
 1190TIP3   OH2 3575   3.957   3.764   1.790  0.7912  0.1137 -0.1504
 1190TIP3    H1 3576   3.967   3.779   1.884  2.5630  1.4933 -0.5119
 1190TIP3    H2 3577   3.937   3.850   1.754 -1.3606 -0.6357 -0.9225
 1191TIP3   OH2 3578   6.211   1.677   2.769  0.3412 -0.4103 -0.1240
 1191TIP3    H1 3579   6.273   1.643   2.834  0.7298  0.9437  0.2543
 1191TIP3    H2 3580   6.202   1.770   2.792 -1.9466 -0.6037 -0.0891
 1192TIP3   OH2 3581   2.230   3.598   2.257  0.3432  0.7808 -0.1702
 1192TIP3    H1 3582   2.183   3.526   2.299  0.7452  1.1025  0.8608
 1192TIP3    H2 3583   2.319   3.566   2.246  0.7590  1.4391  1.1513
 1193TIP3   OH2 3584   0.880   2.883   3.356  0.4263 -0.3024  0.0343
 1193TIP3    H1 3585   0.972   2.893   3.332 -0.0436  1.1718 -1.3542
 1193TIP3    H2 3586   0.835   2.869   3.272 -0.9076  1.6691  0.3555
 1194TIP3   OH2 3587   5.526   5.774   1.522 -0.5418  0.9436  0.9719
 1194TIP3    H1 3588   5.463   5.844   1.503 -1.2795  0.0398  0.0122
 1194TIP3    H2 3589   5.611   5.810   1.495 -1.2185  0.6130 -1.8917
 1195TIP3   OH2 3590   3.381   1.127   0.983  0.1624 -0.7737  0.3733
 1195TIP3    H1 3591   3.333   1.183   0.921  2.8310  1.8914  0.4944
 1195TIP3    H2 3592   3.398   1.047   0.934  1.3297  0.8620 -2.1144
 1196TIP3   OH2 3593   3.929   3.633   4.421 -0.4342 -0.3600  0.2808
 1196TIP3    H1 3594   3.993   3.641   4.350  0.0242  1.6091  0.8542
 1196TIP3    H2 3595   3.981   3.642   4.501 -1.4678  2.1987  0.7552
 1197TIP3   OH2 3596   3.483   5.526   2.538 -0.9734  0.2018 -0.8673
 1197TIP3    H1 3597   3.519   5.615   2.545 -1.8992  0.5445 -0.1443
 1197TIP3    H2 3598   3.543   5.480   2.480 -0.3654  1.2488 -1.0976
 1198TIP3   OH2 3599   4.044   1.970   3.067 -0.2137 -0.3519 -0.1288
 1198TIP3    H1 3600   3.959   2.011   3.079  0.8916  2.3123 -0.7551
 1198TIP3    H2 3601   4.053   1.958   2.973  0.3043 -0.0997 -0.1200
 1199TIP3   OH2 3602   5.409   1.977   0.416 -0.6848  0.0040 -0.0128
 1199TIP3    H1 3603   5.397   1.976   0.321  2.1924 -0.7510 -0.4782
 1199TIP3    H2 3604   5.410   2.070   0.438  1.5924  0.3779 -1.2972
 1200TIP3   OH2 3605   3.956   0.142   3.319  0.2328 -0.0371  0.0868
 1200TIP3    H1 3606   4.017   0.209   3.288  0.8553 -1.1904 -1.2523
 1200TIP3    H2 3607   3.872   0.167   3.279  0.5511 -0.2639 -0.7524
 1201TIP3   OH2 3608   5.541   3.432   5.186  0.6555  0.1090 -0.0139
 1201TIP3    H1 3609   5.594   3.457   5.110 -0.5010 -0.1757 -0.9410
 1201TIP3    H2 3610   5.547   3.507   5.245 -1.5075  2.0821 -2.0707
 1202TIP3   OH2 3611   4.288   1.227   2.068 -0.7506  0.2476 -0.1355
 1202TIP3    H1 3612   4.290   1.134   2.089 -0.2809 -0.1181 -1.6717
 1202TIP3    H2 3613   4.232   1.266   2.135 -0.6630 -1.0794  0.7353
 1203TIP3   OH2 3614   3.859   3.815   0.463 -0.4249  0.3143  0.0885
 1203TIP3    H1 3615   3.880   3.836   0.554 -0.2449  0.6228 -0.0247
 1203TIP3    H2 3616   3.935   3.766   0.432 -0.5351  0.1104  0.1361
 1204TIP3   OH2 3617   2.953   2.913   4.460 -0.2438  0.5558  0.4019
 1204TIP3    H1 3618   3.034   2.954   4.489  1.3497 -1.8327 -0.4323
 1204TIP3    H2 3619   2.954   2.924   4.365 -0.6160  0.0368  0.3343
 1205TIP3   OH2 3620   1.196   1.462   2.949  0.0814 -0.5259  0.1208
 1205TIP3    H1 3621   1.125   1.466   2.885 -0.1744 -0.5022  0.4016
 1205TIP3    H2 3622   1.156   1.423   3.027  0.0201  0.7050  0.7414
 1206TIP3   OH2 3623   1.544   2.193   1.582 -0.1982  0.1593 -0.1399
 1206TIP3    H1 3624   1.574   2.284   1.585 -0.4883  0.2762 -0.6781
 1206TIP3    H2 3625   1.497   2.186   1.499 -0.2244 -0.4694 -0.0755
 1207TIP3   OH2 3626   3.685   2.514   0.139  0.5675  0.2603  0.3878
 1207TIP3    H1 3627   3.763   2.476   0.099  0.7859  0.1270  0.9243
 1207TIP3    H2 3628   3.625   2.440   0.149 -0.1969  0.6089 -1.3057
 1208TIP3   OH2 3629   4.172   0.364   3.883  0.4517  0.2623  0.5912
 1208TIP3    H1 3630   4.215   0.343   3.966 -0.5556  2.1992  1.6959
 1208TIP3    H2 3631   4.088   0.402   3.909  0.0311  0.7636 -1.3271
 1209TIP3   OH2 3632   4.478   1.796   1.557 -0.5611 -0.2024  0.2576
 1209TIP3    H1 3633   4.478   1.747   1.640 -2.7370 -0.1306  0.3329
 1209TIP3    H2 3634   4.441   1.881   1.579  0.5049  0.4782 -0.4704
 1210TIP3   OH2 3635   1.138   1.542   4.797 -0.0814 -0.0662 -0.4132
 1210TIP3    H1 3636   1.107   1.496   4.719 -1.0004 -1.1012  0.5293
 1210TIP3    H2 3637   1.228   1.511   4.808  0.2000  0.4054 -1.2833
 1211TIP3   OH2 3638   2.575   2.602   0.177 -0.1799  0.1056 -0.9959
 1211TIP3    H1 3639   2.480   2.595   0.167 -0.1066 -0.5281 -1.2866
 1211TIP3    H2 3640   2.608   2.515   0.152  0.3659 -0.1174  0.4183
 1212TIP3   OH2 3641   2.298   5.043   1.304  0.2034 -0.3359 -0.1664
 1212TIP3    H1 3642   2.255   5.128   1.309 -0.3301 -0.6112 -0.0937
 1212TIP3    H2 3643   2.317   5.019   1.394  1.7814  0.4196 -0.2570
 1213TIP3   OH2 3644   5.297   3.877   4.503  0.1582  0.4479 -0.2734
 1213TIP3    H1 3645   5.332   3.792   4.530 -2.2900  0.3791  3.4748
 1213TIP3    H2 3646   5.360   3.941   4.536  0.6207  0.1877 -0.6345
 1214TIP3   OH2 3647   3.282   3.768   1.476 -0.1316 -0.2002  1.0579
 1214TIP3    H1 3648   3.314   3.855   1.456 -2.1468  0.4149  0.3296
 1214TIP3    H2 3649   3.221   3.747   1.405 -2.1652 -0.8245  2.8745
 1215TIP3   OH2 3650   1.899   3.460   2.610 -0.0242  0.3160  0.3019
 1215TIP3    H1 3651   1.948   3.414   2.543 -3.0063 -1.8369 -0.6143
 1215TIP3    H2 3652   1.852   3.391   2.658 -0.2303  2.0086  2.7521
 1216TIP3   OH2 3653   3.856   5.716   1.021  0.0694  0.3216  0.3832
 1216TIP3    H1 3654   3.895   5.774   0.956  1.3013  1.5035  2.0625
 1216TIP3    H2 3655   3.930   5.663   1.051 -0.2640  0.4330  1.4298
 1217TIP3   OH2 3656   3.740   2.549   2.470 -0.0118 -0.0795  0.1390
 1217TIP3    H1 3657   3.813   2.608   2.490 -0.8610  0.7132  1.0115
 1217TIP3    H2 3658   3.714   2.513   2.555  0.5921 -1.8715 -0.3970
 1218TIP3   OH2 3659   2.030   1.788   4.106 -0.2776 -0.0084  0.1301
 1218TIP3    H1 3660   2.021   1.695   4.125 -0.1049  0.0846  0.6740
 1218TIP3    H2 3661   2.071   1.825   4.184  1.5168  0.1965 -0.8711
 1219TIP3   OH2 3662   5.036   1.774   0.121  0.3565  0.0984 -0.3379
 1219TIP3    H1 3663   4.980   1.697   0.130 -0.3873  0.7436  0.7123
 1219TIP3    H2 3664   4.980   1.848   0.141  2.2959  0.6058  4.4166
 1220TIP3   OH2 3665   4.809   3.638   4.749 -0.5973 -0.1293 -0.4247
 1220TIP3    H1 3666   4.730   3.681   4.715 -0.1176 -0.3053 -1.8206
 1220TIP3    H2 3667   4.816   3.670   4.839 -3.9510 -2.4108  0.8599
 1221TIP3   OH2 3668   4.684   5.036   0.493 -0.5067 -0.1550 -0.5905
 1221TIP3    H1 3669   4.634   4.980   0.553 -0.5521  1.7237  1.2398
 1221TIP3    H2 3670   4.618   5.093   0.454 -0.0869  0.8735  0.1694
 1222TIP3   OH2 3671   3.462   2.418   1.428  0.6974  0.0829  0.0154
 1222TIP3    H1 3672   3.449   2.509   1.400  2.0308  0.4768  0.6341
 1222TIP3    H2 3673   3.373   2.384   1.439  0.1782  1.2047 -0.5343
 1223TIP3   OH2 3674   4.148   0.992   4.198  0.6616 -0.5154  1.0709
 1223TIP3    H1 3675   4.114   0.917   4.247  1.9429 -2.5457 -0.9773
 1223TIP3    H2 3676   4.191   0.954   4.122  1.0800  2.3518 -0.2595
 1224TIP3   OH2 3677   1.849   0.910   5.208  0.1527  0.3988 -0.5462
 1224TIP3    H1 3678   1.799   0.988   5.229  1.3798  1.1367 -0.2406
 1224TIP3    H2 3679   1.840   0.900   5.113 -0.5528  0.5198 -0.4930
 1225TIP3   OH2 3680   3.457   4.023   0.766  0.5721  0.2977 -0.3964
 1225TIP3    H1 3681   3.394   3.961   0.802  1.4178  0.7139  1.9862
 1225TIP3    H2 3682   3.464   3.999   0.674 -0.4564 -1.9933  0.0468
 1226TIP3   OH2 3683   2.493   2.521   0.930 -0.1113 -0.1346 -0.0834
 1226TIP3    H1 3684   2.575   2.571   0.928  0.3681 -0.8559  0.7308
 1226TIP3    H2 3685   2.493   2.472   0.847  0.7913 -0.8948  0.3437
 1227TIP3   OH2 3686  -0.027   2.806   0.782 -0.3531  0.1818 -0.4412
 1227TIP3    H1 3687  -0.030   2.722   0.736  0.0810 -0.0581 -0.0452
 1227TIP3    H2 3688   0.065   2.829   0.784  0.0848 -1.2514  2.7963
 1228TIP3   OH2 3689   1.914   1.026   4.005 -0.8160 -0.2797  0.0891
 1228TIP3    H1 3690   1.895   1.032   3.911  1.0152 -0.3473 -0.3365
 1228TIP3    H2 3691   2.000   0.983   4.009 -0.8225 -0.2077  1.7967
 1229TIP3   OH2 3692   5.274   3.199   0.352 -0.1256  0.1626 -0.2318
 1229TIP3    H1 3693   5.341   3.201   0.284 -1.6547 -1.1400 -1.8806
 1229TIP3    H2 3694   5.305   3.136   0.416 -0.7524 -2.2555 -2.1669
 1230TIP3   OH2 3695   1.243   2.983   0.224  0.1616  0.5329  0.1354
 1230TIP3    H1 3696   1.277   2.967   0.312 -0.9686 -0.9033  0.3574
 1230TIP3    H2 3697   1.248   2.898   0.181 -2.0527  0.4795 -0.1588
 1231TIP3   OH2 3698   2.616   3.516   1.793  0.0051  0.1904 -0.2197
 1231TIP3    H1 3699   2.521   3.517   1.779 -0.0238  0.3390 -0.0014
 1231TIP3    H2 3700   2.650   3.470   1.716 -0.3764 -1.3572  0.4896
 1232TIP3   OH2 3701   5.641   4.998   3.571  0.0667 -0.1058 -0.4458
 1232TIP3    H1 3702   5.735   5.016   3.580 -0.1708  0.7631  0.3481
 1232TIP3    H2 3703   5.613   4.972   3.658 -0.6111  0.4946 -0.4794
 1233TIP3   OH2 3704   0.722   4.813   2.276 -0.1784 -0.2150  0.4792
 1233TIP3    H1 3705   0.812   4.808   2.309  0.8508  0.6815 -1.9495
 1233TIP3    H2 3706   0.720   4.893   2.224 -1.5018 -1.6933 -1.9123
 1234TIP3   OH2 3707   2.460   2.877   4.581  0.0532  0.8562 -0.9279
 1234TIP3    H1 3708   2.418   2.960   4.606  0.1764  1.0216 -1.2740
 1234TIP3    H2 3709   2.552   2.889   4.606  0.0038  0.6970 -0.6682
 1235TIP3   OH2 3710   4.653   1.812   4.147  0.0548 -0.7454 -0.0727
 1235TIP3    H1 3711   4.648   1.768   4.231 -1.0348 -1.2312 -0.3749
 1235TIP3    H2 3712   4.744   1.800   4.119  1.0240  1.1584  1.9201
 1236TIP3   OH2 3713   4.857   2.859   4.166 -0.3626  1.0357  0.4259
 1236TIP3    H1 3714   4.864   2.828   4.076  1.0631  0.9886  0.5326
 1236TIP3    H2 3715   4.775   2.822   4.198 -0.7272  0.7972 -0.7458
 1237TIP3   OH2 3716   5.947   0.632   3.389 -0.7242  0.5402  0.3735
 1237TIP3    H1 3717   5.951   0.718   3.348 -0.0608 -0.9561 -3.0409
 1237TIP3    H2 3718   6.036   0.597   3.378 -1.0132 -0.6514  1.5984
 1238TIP3   OH2 3719   4.728   1.837   5.106  0.1675  0.1851  0.0872
 1238TIP3    H1 3720   4.724   1.794   5.020 -0.2644 -0.4578  0.4215
 1238TIP3    H2 3721   4.699   1.770   5.168  0.5977  0.6018  0.7572
 1239TIP3   OH2 3722   1.726   1.964   4.922 -0.1754 -0.0809  0.1080
 1239TIP3    H1 3723   1.757   2.008   4.843 -0.0595  1.6377  1.0554
 1239TIP3    H2 3724   1.785   1.890   4.933 -1.2390 -1.4153 -2.3241
 1240TIP3   OH2 3725   4.296   5.773   1.386 -0.2589 -0.1010  0.1873
 1240TIP3    H1 3726   4.350   5.758   1.308  0.8325  0.9473  0.6949
 1240TIP3    H2 3727   4.315   5.699   1.443  1.0052  0.4403  0.5209
 1241TIP3   OH2 3728   4.702   5.765   2.182 -0.0831 -0.1674  0.3042
 1241TIP3    H1 3729   4.709   5.739   2.274 -0.5197  0.3258  0.4857
 1241TIP3    H2 3730   4.646   5.699   2.143 -0.8158  0.2261  0.6590
 1242TIP3   OH2 3731   3.557   1.780   3.663  0.2492 -0.5041 -0.3506
 1242TIP3    H1 3732   3.473   1.780   3.616 -0.0877  0.5775  0.2237
 1242TIP3    H2 3733   3.537   1.822   3.747  1.1598 -1.1200  0.1926
 1243TIP3   OH2 3734   5.050   5.468   2.802 -1.1208  0.1353 -0.0491
 1243TIP3    H1 3735   5.008   5.428   2.725  0.3702 -0.7460 -0.4619
 1243TIP3    H2 3736   5.084   5.393   2.852 -0.8614  0.7676  0.7413
 1244TIP3   OH2 3737   0.305   4.850   0.522 -0.1321 -0.1237 -0.4115
 1244TIP3    H1 3738   0.396   4.841   0.494 -0.0903 -0.2858 -0.2263
 1244TIP3    H2 3739   0.276   4.932   0.482 -0.0127 -0.2462 -0.7588
 1245TIP3   OH2 3740   5.465   1.942   3.546  0.1465  0.1374  0.7483
 1245TIP3    H1 3741   5.526   1.980   3.609  0.5859  1.3698 -0.3925
 1245TIP3    H2 3742   5.431   2.017   3.497 -0.8139 -0.7225  0.0577
 1246TIP3   OH2 3743   4.008   2.337   2.418 -0.0072  0.1715  0.0431
 1246TIP3    H1 3744   4.006   2.420   2.465  1.5035 -0.1034  0.6502
 1246TIP3    H2 3745   4.075   2.285   2.463 -0.3391 -1.0715 -0.8349
 1247TIP3   OH2 3746   4.466   3.055   1.622 -0.2343 -0.4750 -0.0318
 1247TIP3    H1 3747   4.547   3.091   1.658 -0.7502  0.1454  0.5412
 1247TIP3    H2 3748   4.460   3.093   1.534 -0.5313  0.4724  0.3922
 1248TIP3   OH2 3749   1.480   5.530   2.474 -0.4375  0.6339  0.7582
 1248TIP3    H1 3750   1.521   5.605   2.517 -0.2219  1.5452 -0.9612
 1248TIP3    H2 3751   1.443   5.565   2.393  0.8617 -1.3323 -0.7965
 1249TIP3   OH2 3752   4.814   0.638  -0.006  0.0110  0.1078  0.0775
 1249TIP3    H1 3753   4.787   0.706   0.056  1.4836  1.2388 -0.4582
 1249TIP3    H2 3754   4.733   0.590  -0.025 -0.6253  0.2391  2.2208
 1250TIP3   OH2 3755   4.575   5.365   2.678  0.3803 -0.2363  0.4601
 1250TIP3    H1 3756   4.588   5.271   2.694  0.9511 -0.0759  0.9971
 1250TIP3    H2 3757   4.491   5.385   2.720  0.0590 -0.5859 -0.0088
 1251TIP3   OH2 3758   2.503   3.428   0.093  0.6849  0.2730 -0.0758
 1251TIP3    H1 3759   2.504   3.474   0.176  1.0098 -0.4211  0.3148
 1251TIP3    H2 3760   2.506   3.335   0.116  0.4793  0.0619 -0.8504
 1252TIP3   OH2 3761   4.627   3.150   0.844 -0.7044 -0.3179  0.1191
 1252TIP3    H1 3762   4.560   3.095   0.804 -0.9206  0.6639 -0.9059
 1252TIP3    H2 3763   4.670   3.193   0.770  0.5007 -0.2948  0.8097
 1253TIP3   OH2 3764   5.509   2.976   2.198  0.0254 -0.2272 -0.2507
 1253TIP3    H1 3765   5.496   3.050   2.259 -0.9178  0.3654 -1.1417
 1253TIP3    H2 3766   5.568   2.917   2.245  1.9661  1.7292 -0.0528
 1254TIP3   OH2 3767   1.356   3.713   3.633  0.1368 -0.4147  0.5962
 1254TIP3    H1 3768   1.279   3.664   3.603  0.3954  0.0936 -0.9728
 1254TIP3    H2 3769   1.332   3.805   3.620  0.4481 -0.1907  1.5458
 1255TIP3   OH2 3770   6.367   3.147   0.387  0.0005  0.5155 -0.2897
 1255TIP3    H1 3771   6.347   3.225   0.334  0.3470  0.4658 -0.4994
 1255TIP3    H2 3772   6.290   3.135   0.442  0.3019  1.5426  0.3885
 1256TIP3   OH2 3773   2.574   1.624   0.955 -0.3513 -0.1234  0.1362
 1256TIP3    H1 3774   2.486   1.586   0.952 -0.4001 -0.0318  0.4296
 1256TIP3    H2 3775   2.611   1.592   1.037 -0.0164 -0.3658 -0.1069
 1257TIP3   OH2 3776   2.625   3.062   1.318  0.5765 -0.1189  0.3948
 1257TIP3    H1 3777   2.580   3.006   1.256  1.1355 -0.6148  0.4337
 1257TIP3    H2 3778   2.566   3.067   1.393 -0.6289  1.4166 -0.6039
 1258TIP3   OH2 3779   6.163   5.459   1.423  0.0389  0.0713  0.5728
 1258TIP3    H1 3780   6.115   5.483   1.502 -1.4227 -1.4846  0.2185
 1258TIP3    H2 3781   6.117   5.504   1.352 -2.2918 -2.8305 -0.0079
 1259TIP3   OH2 3782   3.095   5.830   3.188 -0.2314 -0.3525 -0.2958
 1259TIP3    H1 3783   3.142   5.901   3.231 -0.2810 -0.6604  0.2698
 1259TIP3    H2 3784   3.042   5.874   3.121 -0.2388  0.1377  0.0262
 1260TIP3   OH2 3785   2.479   1.059   0.508  0.4374  0.2174 -0.1483
 1260TIP3    H1 3786   2.415   1.075   0.576 -0.0869  0.0270 -0.5897
 1260TIP3    H2 3787   2.523   0.978   0.535 -0.3535 -0.3304 -0.4603
 1261TIP3   OH2 3788   3.265   2.460   2.833  0.1433 -0.4411  0.3747
 1261TIP3    H1 3789   3.331   2.434   2.898 -2.0979 -0.7435  2.7010
 1261TIP3    H2 3790   3.281   2.553   2.818  1.4900 -0.6582  0.3790
 1262TIP3   OH2 3791   1.732   1.626   4.843  0.4257 -0.4260  0.5251
 1262TIP3    H1 3792   1.718   1.532   4.828  0.3867 -0.2193 -0.8035
 1262TIP3    H2 3793   1.678   1.646   4.920  0.1299 -1.4114  0.5876
 1263TIP3   OH2 3794   1.157   0.941   4.127  0.2711  0.4557  0.3335
 1263TIP3    H1 3795   1.062   0.945   4.138 -0.0054  0.6918 -1.7397
 1263TIP3    H2 3796   1.188   1.026   4.156 -0.6110  1.7687 -2.2848
 1264TIP3   OH2 3797   0.433   4.144   3.680  0.2517  0.0461 -0.1724
 1264TIP3    H1 3798   0.394   4.105   3.758  2.0795 -1.8272 -0.1070
 1264TIP3    H2 3799   0.517   4.179   3.710 -0.2314  1.7967 -0.7765
 1265TIP3   OH2 3800   5.214   3.204   2.898 -0.0194  0.4457  0.1266
 1265TIP3    H1 3801   5.275   3.177   2.967 -0.5850 -0.6142  0.2348
 1265TIP3    H2 3802   5.256   3.279   2.858  0.4692  0.9067  1.4338
 1266TIP3   OH2 3803   0.780   1.309   4.681  0.0859  0.1124 -0.1426
 1266TIP3    H1 3804   0.857   1.253   4.670  0.2141  0.4384 -0.9480
 1266TIP3    H2 3805   0.799   1.386   4.628  0.0011  1.0219  1.1177
 1267TIP3   OH2 3806   5.858   5.374   4.475  0.6025  0.3642 -0.3249
 1267TIP3    H1 3807   5.797   5.428   4.526  1.3013  0.7140  0.1693
 1267TIP3    H2 3808   5.861   5.291   4.523  1.3295  0.7245  0.2859
 1268TIP3   OH2 3809   4.549   5.566   4.597  0.4058 -0.3845  0.5946
 1268TIP3    H1 3810   4.472   5.623   4.592  1.5243  1.2580  1.1461
 1268TIP3    H2 3811   4.585   5.568   4.508  0.4602 -0.2238  0.6211
 1269TIP3   OH2 3812   3.222   4.108   4.217 -0.4269 -0.4272 -0.2976
 1269TIP3    H1 3813   3.235   4.182   4.276 -0.3075  0.6418 -1.6147
 1269TIP3    H2 3814   3.138   4.070   4.243 -0.5859  0.3013  0.2512
 1270TIP3   OH2 3815   2.772   2.304   3.512 -0.2336  0.3102 -0.2093
 1270TIP3    H1 3816   2.740   2.222   3.476 -1.1195  1.8889 -3.4351
 1270TIP3    H2 3817   2.791   2.358   3.435 -0.4980  3.4112  1.7307
 1271TIP3   OH2 3818   5.955   3.801   3.303  0.2564  0.3192  0.7251
 1271TIP3    H1 3819   5.951   3.771   3.394 -1.3169  1.5851  1.1245
 1271TIP3    H2 3820   5.942   3.896   3.309  4.2111  1.1319 -0.5318
 1272TIP3   OH2 3821   2.703   0.982   4.604 -0.0234  0.0077  0.2528
 1272TIP3    H1 3822   2.658   1.003   4.686 -1.8327 -1.3815 -0.3095
 1272TIP3    H2 3823   2.655   0.907   4.569  1.1256  0.1370 -1.7452
 1273TIP3   OH2 3824   4.331   3.217   2.946  0.1004 -0.0659 -0.1861
 1273TIP3    H1 3825   4.411   3.258   2.913  0.1542 -0.5985 -0.7369
 1273TIP3    H2 3826   4.363   3.147   3.004  0.0606 -0.8650 -1.1105
 1274TIP3   OH2 3827   0.570   4.066   2.516 -0.0249 -0.0337 -0.3289
 1274TIP3    H1 3828   0.612   4.078   2.431  2.7908 -0.3349  0.9114
 1274TIP3    H2 3829   0.600   3.979   2.545  2.5757  1.6475  2.6811
 1275TIP3   OH2 3830   0.066   4.276   2.969 -0.1073 -0.7380 -0.1703
 1275TIP3    H1 3831   0.137   4.229   2.926  0.5540 -1.4446  1.6053
 1275TIP3    H2 3832   0.109   4.330   3.034 -0.9938  1.1703 -1.0777
 1276TIP3   OH2 3833   2.725   3.669   0.626 -0.1198 -0.2456 -0.1910
 1276TIP3    H1 3834   2.727   3.630   0.713  1.6316 -0.4681 -0.2912
 1276TIP3    H2 3835   2.683   3.604   0.570  0.8722 -1.1107  0.0536
 1277TIP3   OH2 3836   0.992   5.686   4.788  0.3603  0.0217  0.2108
 1277TIP3    H1 3837   0.947   5.651   4.711 -0.1474  0.0872  0.4719
 1277TIP3    H2 3838   0.929   5.747   4.826  0.8270  0.4127  0.3622
 1278TIP3   OH2 3839   2.800   2.710   1.461  0.3455  0.0566 -0.2581
 1278TIP3    H1 3840   2.827   2.709   1.553  1.0891  0.9015 -0.4442
 1278TIP3    H2 3841   2.832   2.627   1.425  1.9947  0.6300 -0.2444
 1279TIP3   OH2 3842   2.377   2.781   4.272 -0.0380 -0.3192 -0.4177
 1279TIP3    H1 3843   2.304   2.815   4.324 -0.3629  0.9452 -1.6008
 1279TIP3    H2 3844   2.455   2.819   4.312 -0.3279  1.1134 -1.1468
 1280TIP3   OH2 3845   3.374   2.872   5.006  0.0252  0.4346 -0.0409
 1280TIP3    H1 3846   3.427   2.810   4.956  1.0179  0.6407  0.7013
 1280TIP3    H2 3847   3.290   2.828   5.018  0.9026 -1.0937  1.0173
 1281TIP3   OH2 3848   1.042   2.520   2.559 -0.1316 -0.5536  0.2364
 1281TIP3    H1 3849   0.979   2.578   2.602 -0.1672 -0.4565  0.0540
 1281TIP3    H2 3850   1.120   2.526   2.613 -0.6373 -1.5499  1.1023
 1282TIP3   OH2 3851   1.424   2.734   2.946  0.0482 -0.5202 -0.0412
 1282TIP3    H1 3852   1.374   2.782   3.011 -1.1611 -0.8558 -0.6887
 1282TIP3    H2 3853   1.436   2.647   2.984 -0.6928 -0.7288 -0.2613
 1283TIP3   OH2 3854   2.991   3.885   2.849 -0.3788  0.3368  0.3035
 1283TIP3    H1 3855   3.025   3.802   2.816  0.6807  0.5480  0.8279
 1283TIP3    H2 3856   3.053   3.950   2.817 -1.2459  0.9546 -0.1673
 1284TIP3   OH2 3857   5.758   2.397   3.000 -0.1825  0.3006  0.3241
 1284TIP3    H1 3858   5.680   2.443   3.029  0.2470  1.2521  0.0227
 1284TIP3    H2 3859   5.725   2.323   2.948 -0.8863  1.4096 -0.8696
 1285TIP3   OH2 3860   5.601   2.983   1.643  0.3272 -0.2818 -0.4983
 1285TIP3    H1 3861   5.659   2.909   1.622  1.0037 -0.1882  0.9549
 1285TIP3    H2 3862   5.582   2.973   1.736  0.2806  1.2794 -0.3161
 1286TIP3   OH2 3863   5.147   1.719   4.441  0.4982 -0.2863 -0.2350
 1286TIP3    H1 3864   5.157   1.807   4.404 -0.6980  0.1023  0.3339
 1286TIP3    H2 3865   5.067   1.685   4.400 -0.7685  0.0881  1.8169
 1287TIP3   OH2 3866   5.295   5.747   2.563 -0.1338 -0.0523 -0.3032
 1287TIP3    H1 3867   5.199   5.747   2.572 -0.1862  1.4529 -0.6695
 1287TIP3    H2 3868   5.316   5.835   2.533  1.1767 -1.0724 -2.5686
 1288TIP3   OH2 3869   5.088   2.875   1.879  0.0516  0.2290 -0.4833
 1288TIP3    H1 3870   5.010   2.842   1.923 -0.8998 -0.0043 -2.2679
 1288TIP3    H2 3871   5.156   2.874   1.947 -1.3401 -0.0787  0.9587
 1289TIP3   OH2 3872   2.366   1.884   2.400  0.0960 -0.0848 -0.0103
 1289TIP3    H1 3873   2.418   1.956   2.363 -0.3393 -0.3920 -1.2321
 1289TIP3    H2 3874   2.276   1.913   2.391 -0.0026  0.2493  1.7072
 1290TIP3   OH2 3875   4.979   2.265   0.069  0.0966 -0.0699  0.1054
 1290TIP3    H1 3876   5.040   2.318   0.121 -1.0143 -0.7532  2.2443
 1290TIP3    H2 3877   4.893   2.303   0.087 -0.3826 -0.7218 -0.7737
 1291TIP3   OH2 3878   6.223   0.143   4.505  0.0227  0.0303  0.3472
 1291TIP3    H1 3879   6.298   0.174   4.556  1.8913 -2.3203 -0.7429
 1291TIP3    H2 3880   6.181   0.077   4.561 -1.2159  1.2564  0.9066
 1292TIP3   OH2 3881   1.514   0.831   1.307  0.1806 -0.8514  0.0401
 1292TIP3    H1 3882   1.512   0.739   1.333 -0.1745 -0.1480  2.8851
 1292TIP3    H2 3883   1.434   0.868   1.345  0.1179  0.5789 -1.3740
 1293TIP3   OH2 3884   0.457   0.885   2.968 -0.4214  0.4988  0.1560
 1293TIP3    H1 3885   0.537   0.859   3.013  1.2868  0.5750 -2.5840
 1293TIP3    H2 3886   0.457   0.981   2.971 -0.3773  0.5003  0.1049
 1294TIP3   OH2 3887   1.576   1.121   1.337 -0.6016 -0.0882 -0.2936
 1294TIP3    H1 3888   1.561   1.043   1.283 -1.4280  0.8909 -1.5424
 1294TIP3    H2 3889   1.654   1.100   1.388  0.5393 -0.8874 -2.2383
 1295TIP3   OH2 3890   0.796   1.723   4.692 -0.8260  0.1773  0.0768
 1295TIP3    H1 3891   0.823   1.684   4.775  1.1534  0.4941 -0.3701
 1295TIP3    H2 3892   0.838   1.669   4.625 -1.6146  0.4967 -0.6988
 1296TIP3   OH2 3893   3.867   3.349   0.987 -0.0401 -0.3116  0.3663
 1296TIP3    H1 3894   3.872   3.361   1.082  3.1781  0.0489  0.2341
 1296TIP3    H2 3895   3.850   3.255   0.976 -1.3320 -0.2099  1.2548
 1297TIP3   OH2 3896   5.175   0.864   1.330  0.0761 -0.7016  0.4484
 1297TIP3    H1 3897   5.233   0.929   1.291 -1.2649  1.8370  2.4201
 1297TIP3    H2 3898   5.217   0.839   1.412 -0.9240  0.1779  1.2600
 1298TIP3   OH2 3899   3.258   4.380   5.020  0.1176 -0.4010 -0.3413
 1298TIP3    H1 3900   3.221   4.302   4.980  2.8344 -1.0446 -1.8702
 1298TIP3    H2 3901   3.216   4.453   4.975 -0.6117 -1.0240 -0.6955
 1299TIP3   OH2 3902   3.213   5.726   3.978 -0.5633  0.2711 -0.4361
 1299TIP3    H1 3903   3.198   5.753   3.887 -1.1666  0.9970 -0.1315
 1299TIP3    H2 3904   3.172   5.640   3.985  1.1962 -0.7098 -1.3647
 1300TIP3   OH2 3905   4.848   4.154   0.171  0.7000 -0.1147 -0.4914
 1300TIP3    H1 3906   4.777   4.218   0.167  0.8293  0.1063  0.4587
 1300TIP3    H2 3907   4.885   4.166   0.258 -0.0698 -2.3293  0.2018
 1301TIP3   OH2 3908   3.025   1.690   0.750 -0.2077 -0.4746 -0.1779
 1301TIP3    H1 3909   2.949   1.632   0.743 -1.2014  0.9441 -2.2449
 1301TIP3    H2 3910   2.989   1.775   0.777  0.3561  0.6168 -2.5901
 1302TIP3   OH2 3911   2.812   4.810   2.242 -0.1399 -0.4823 -0.2882
 1302TIP3    H1 3912   2.903   4.829   2.220  0.6474  0.0337  2.9475
 1302TIP3    H2 3913   2.803   4.838   2.333 -3.2615 -1.5353 -0.1671
 1303TIP3   OH2 3914   0.281   3.047   1.245  0.4146  0.2129 -0.4894
 1303TIP3    H1 3915   0.366   3.005   1.231  1.2144  1.6806 -0.2336
 1303TIP3    H2 3916   0.243   3.000   1.319  0.7505 -0.8183 -0.9562
 1304TIP3   OH2 3917   1.705   1.209  -0.012  0.1781 -0.9728  0.0921
 1304TIP3    H1 3918   1.709   1.302  -0.037 -0.2692 -0.4904  1.6903
 1304TIP3    H2 3919   1.658   1.209   0.071  1.7497 -2.4410  1.0437
 1305TIP3   OH2 3920   5.218   4.627   1.664  0.2370  0.2461  0.3090
 1305TIP3    H1 3921   5.243   4.715   1.693  3.0609 -0.1868 -0.5483
 1305TIP3    H2 3922   5.263   4.568   1.724  0.0695 -0.6404 -0.4063
 1306TIP3   OH2 3923   6.312   1.122   1.965 -0.3439  0.3954  0.2644
 1306TIP3    H1 3924   6.402   1.123   1.998 -0.1116  1.7061 -0.3665
 1306TIP3    H2 3925   6.273   1.202   2.000 -1.2305 -0.0830  0.4044
 1307TIP3   OH2 3926   5.692   5.961   4.080 -0.2095  0.0300 -0.5302
 1307TIP3    H1 3927   5.632   5.956   4.005 -2.2230 -1.3024  1.0529
 1307TIP3    H2 3928   5.764   6.017   4.050 -1.9736  1.2738 -2.7325
 1308TIP3   OH2 3929   5.157   1.093   1.739  0.3007 -0.0658 -0.1208
 1308TIP3    H1 3930   5.099   1.116   1.666  0.1566 -0.7201 -0.2205
 1308TIP3    H2 3931   5.245   1.099   1.702  0.1917 -1.3924 -0.6650
 1309TIP3   OH2 3932   4.586   3.837   1.648 -0.0978 -0.3877 -0.0381
 1309TIP3    H1 3933   4.567   3.925   1.681 -1.2231 -0.5160 -0.2852
 1309TIP3    H2 3934   4.583   3.781   1.725  1.7210 -0.0860  0.2997
 1310TIP3   OH2 3935   3.447   5.925   1.796  0.5690  0.4641  0.6517
 1310TIP3    H1 3936   3.473   5.996   1.855 -0.7415  2.0524 -0.6047
 1310TIP3    H2 3937   3.352   5.924   1.801  0.4902  0.0000 -0.7111
 1311TIP3   OH2 3938   0.513   2.935   1.000  0.4476 -1.0497  0.2447
 1311TIP3    H1 3939   0.475   2.848   1.006 -0.9637 -0.6923 -2.0674
 1311TIP3    H2 3940   0.586   2.926   0.939  0.6318 -0.7427  0.4178
 1312TIP3   OH2 3941   5.926   5.463   0.866 -0.5157  0.4704 -0.8873
 1312TIP3    H1 3942   6.016   5.441   0.891 -0.9513 -1.5860 -0.8980
 1312TIP3    H2 3943   5.872   5.396   0.908 -2.0449  1.5691 -1.0085
 1313TIP3   OH2 3944   2.759   1.881   2.378 -0.1268 -0.2862 -0.2871
 1313TIP3    H1 3945   2.848   1.904   2.402 -0.3253  0.9683 -0.6475
 1313TIP3    H2 3946   2.709   1.962   2.390 -1.0373 -0.7276 -0.9131
 1314TIP3   OH2 3947   2.201   1.623   4.376  0.4929 -0.2325  0.7155
 1314TIP3    H1 3948   2.264   1.648   4.309  2.8619  0.3911  3.0056
 1314TIP3    H2 3949   2.188   1.702   4.428 -1.7473 -0.5245  0.7089
 1315TIP3   OH2 3950   6.283   4.527   3.069  0.1355 -0.0929  0.0756
 1315TIP3    H1 3951   6.255   4.458   3.130  2.4085 -0.5139  0.7412
 1315TIP3    H2 3952   6.326   4.481   2.998  0.7097  0.5746 -0.0239
 1316TIP3   OH2 3953   2.464   1.486   4.098  0.1052  0.1365 -0.1646
 1316TIP3    H1 3954   2.498   1.563   4.053 -1.6842  0.8972 -0.2780
 1316TIP3    H2 3955   2.372   1.505   4.114 -0.2031 -1.6618  0.5178
 1317TIP3   OH2 3956   2.144   1.656   0.293  0.0471  0.0584  0.1951
 1317TIP3    H1 3957   2.166   1.745   0.320  0.4549 -0.3568  1.2643
 1317TIP3    H2 3958   2.122   1.610   0.374 -0.5738 -0.7086 -0.3859
 1318TIP3   OH2 3959   1.464   4.491   0.923  0.1716  0.3878 -0.4198
 1318TIP3    H1 3960   1.482   4.453   1.009  0.5255 -0.6711 -0.9361
 1318TIP3    H2 3961   1.373   4.468   0.906  0.0930  0.6221 -0.3207
 1319TIP3   OH2 3962   1.542   3.770   4.674  0.3527  0.0538 -0.2270
 1319TIP3    H1 3963   1.514   3.769   4.766 -0.0932  0.3035 -0.3548
 1319TIP3    H2 3964   1.469   3.729   4.627 -0.2224  1.5151 -0.6706
 1320TIP3   OH2 3965   5.271   4.322   4.116 -0.2982 -0.2466 -0.3228
 1320TIP3    H1 3966   5.184   4.354   4.141 -0.5725 -2.3584  1.7652
 1320TIP3    H2 3967   5.330   4.394   4.136 -1.2876  0.2782  0.8299
 1321TIP3   OH2 3968   5.018   3.820   4.589 -0.1275 -0.4430  0.0459
 1321TIP3    H1 3969   5.009   3.725   4.583 -1.4325 -0.2632 -2.9436
 1321TIP3    H2 3970   5.090   3.841   4.529 -0.1513  0.4693  0.3219
 1322TIP3   OH2 3971   0.431   4.723   2.732  0.0387  0.3021  0.5415
 1322TIP3    H1 3972   0.408   4.796   2.675  0.7101  1.5943  1.8628
 1322TIP3    H2 3973   0.504   4.756   2.785  0.9426 -1.6281  0.5760
 1323TIP3   OH2 3974   1.571   2.565   4.818  0.3492 -0.2714 -0.7248
 1323TIP3    H1 3975   1.653   2.581   4.772  0.1650 -1.4683 -1.4904
 1323TIP3    H2 3976   1.582   2.610   4.902  1.7200 -0.2743 -0.8821
 1324TIP3   OH2 3977   3.960   2.404   4.024  0.3027 -0.2415  0.1767
 1324TIP3    H1 3978   3.937   2.323   4.069 -0.4564  0.0773  0.3737
 1324TIP3    H2 3979   3.924   2.393   3.936 -0.6783  0.2739  0.4977
 1325TIP3   OH2 3980   1.893   4.187   1.602  0.3655  0.0219  0.0752
 1325TIP3    H1 3981   1.836   4.182   1.526 -0.1395 -0.1291  0.4566
 1325TIP3    H2 3982   1.930   4.099   1.611 -1.6383 -0.7582  1.5497
 1326TIP3   OH2 3983   2.411   2.368   2.524  0.3414  0.1879  0.2093
 1326TIP3    H1 3984   2.480   2.384   2.588  1.4992 -2.2115 -0.3189
 1326TIP3    H2 3985   2.331   2.364   2.576  1.2897 -2.0469  1.6604
 1327TIP3   OH2 3986   1.044   4.163   1.808  0.5838  0.0887  0.4309
 1327TIP3    H1 3987   1.061   4.114   1.728  1.4740  0.1762  0.5601
 1327TIP3    H2 3988   1.104   4.124   1.872 -0.4672 -0.3231  1.1938
 1328TIP3   OH2 3989   2.669   2.068   3.088  0.0796 -0.0403 -0.3509
 1328TIP3    H1 3990   2.613   1.991   3.100  0.8660 -0.5061  0.4439
 1328TIP3    H2 3991   2.742   2.037   3.034 -0.1797  0.4499 -1.0003
 1329TIP3   OH2 3992   2.239   1.628   1.281  0.3599  0.1369  0.3613
 1329TIP3    H1 3993   2.174   1.586   1.337 -0.5761  0.4830 -0.4558
 1329TIP3    H2 3994   2.212   1.606   1.192  0.8366  1.0438 -0.0159
 1330TIP3   OH2 3995   1.187   1.001   0.910  0.1164 -0.1310 -0.2512
 1330TIP3    H1 3996   1.124   0.950   0.859 -1.2362  0.9440  0.2746
 1330TIP3    H2 3997   1.227   1.060   0.846  1.3371 -1.4820 -0.7706
 1331TIP3   OH2 3998   0.329   2.590   2.299 -0.2388 -0.4024  0.7430
 1331TIP3    H1 3999   0.332   2.664   2.360  1.2302  0.2380 -0.0637
 1331TIP3    H2 4000   0.236   2.582   2.275 -0.6407  0.1685  2.0286
 1332TIP3   OH2 4001   5.556   4.232   4.843  0.6056  0.2925 -0.3117
 1332TIP3    H1 4002   5.605   4.172   4.786  0.0347 -0.0857 -0.4160
 1332TIP3    H2 4003   5.554   4.187   4.928 -1.1290 -0.5931 -0.7667
 1333TIP3   OH2 4004   1.479   2.569   0.775 -0.0045 -0.2119  0.4288
 1333TIP3    H1 4005   1.533   2.538   0.703 -1.3239 -0.5790 -0.4525
 1333TIP3    H2 4006   1.499   2.510   0.848  0.5674 -0.5069  0.0331
 1334TIP3   OH2 4007   2.836   1.916   1.444  0.1191  0.2215 -0.4607
 1334TIP3    H1 4008   2.880   1.847   1.492 -0.7247  0.2059  0.3262
 1334TIP3    H2 4009   2.782   1.960   1.510  1.8739  2.7132 -0.5666
 1335TIP3   OH2 4010   0.512   1.159   2.331 -0.1492  0.4800 -1.2063
 1335TIP3    H1 4011   0.558   1.224   2.278  2.0814  0.4268  0.4934
 1335TIP3    H2 4012   0.464   1.211   2.396  0.0451  0.4977 -1.0733
 1336TIP3   OH2 4013   1.683   4.591   3.830  0.0734  0.4456 -0.4415
 1336TIP3    H1 4014   1.603   4.552   3.794  0.7193 -0.8237 -0.5428
 1336TIP3    H2 4015   1.753   4.559   3.773  1.1723 -1.8538  1.9830
 1337TIP3   OH2 4016   0.428   2.339   1.016 -0.1520  0.1562 -0.1159
 1337TIP3    H1 4017   0.364   2.394   0.972 -0.9767 -0.7140 -0.0348
 1337TIP3    H2 4018   0.416   2.358   1.109 -1.0424 -0.7582 -0.0212
 1338TIP3   OH2 4019   4.172   3.518   0.989 -0.4501  0.2472  0.3589
 1338TIP3    H1 4020   4.228   3.531   1.066  0.9203 -3.2289  0.1303
 1338TIP3    H2 4021   4.090   3.486   1.024 -0.1359 -0.4820  0.4446
 1339TIP3   OH2 4022   0.777   5.154   4.495  0.2292  0.6703  0.2009
 1339TIP3    H1 4023   0.820   5.091   4.553 -1.4554 -3.4205 -2.5407
 1339TIP3    H2 4024   0.707   5.191   4.549 -1.0999 -2.7339  1.0545
 1340TIP3   OH2 4025   5.403   3.145   0.716 -0.3998 -0.4043 -0.4806
 1340TIP3    H1 4026   5.333   3.209   0.729 -0.1716 -0.2918  0.2293
 1340TIP3    H2 4027   5.365   3.079   0.658 -1.8402 -1.4872  1.5584
 1341TIP3   OH2 4028   1.242   5.572   2.811  0.7130  0.3841 -0.2072
 1341TIP3    H1 4029   1.337   5.569   2.821  0.7108  0.3887 -0.1846
 1341TIP3    H2 4030   1.209   5.580   2.901  0.6394 -0.8980 -0.1003
 1342TIP3   OH2 4031   4.426   1.018   2.922  0.0407 -0.0923 -0.2137
 1342TIP3    H1 4032   4.453   0.972   2.843 -0.0357 -0.5489  0.0200
 1342TIP3    H2 4033   4.404   0.948   2.984 -0.4984  0.2607  0.0057
 1343TIP3   OH2 4034   3.933   2.201   3.508  0.2961 -0.3407 -0.1378
 1343TIP3    H1 4035   3.889   2.244   3.435  0.7037  0.2710 -0.0313
 1343TIP3    H2 4036   4.026   2.216   3.492  0.3513  1.1043  1.2815
 1344TIP3   OH2 4037   0.874   1.596   2.885  0.7140 -0.2716  0.0837
 1344TIP3    H1 4038   0.881   1.513   2.931 -1.3585  0.3143  1.5506
 1344TIP3    H2 4039   0.862   1.661   2.954  2.0084  1.2427 -1.0494
 1345TIP3   OH2 4040   3.539   4.653   3.773  0.7111 -0.1581 -0.0243
 1345TIP3    H1 4041   3.608   4.663   3.708  1.0237 -0.4394  0.2626
 1345TIP3    H2 4042   3.489   4.735   3.768  2.3876  1.0102  1.3168
 1346TIP3   OH2 4043   6.084   4.693   3.179 -0.2981  0.0389  0.1363
 1346TIP3    H1 4044   6.011   4.691   3.118 -0.7147 -2.6005  0.6339
 1346TIP3    H2 4045   6.157   4.652   3.132 -0.4583 -1.4827  1.1443
 1347TIP3   OH2 4046   2.972   2.352   3.858  0.0583 -0.0057  0.1748
 1347TIP3    H1 4047   3.057   2.381   3.892 -0.5025 -0.2184  1.8440
 1347TIP3    H2 4048   2.939   2.291   3.924 -0.4852 -1.5263 -1.4427
 1348TIP3   OH2 4049   4.067   5.326   2.470 -0.1907  0.0179  0.2644
 1348TIP3    H1 4050   3.980   5.338   2.432 -0.6373  1.1463  1.5839
 1348TIP3    H2 4051   4.051   5.280   2.553  0.4895  0.0930  0.4432
 1349TIP3   OH2 4052   5.775   0.309   4.276  0.6982  0.3538  0.0186
 1349TIP3    H1 4053   5.834   0.340   4.344  0.9966  0.5849 -0.3433
 1349TIP3    H2 4054   5.688   0.311   4.316  1.0147 -0.7446  0.8140
 1350TIP3   OH2 4055   3.679   1.801   3.999 -0.4227 -0.3297  0.6684
 1350TIP3    H1 4056   3.591   1.839   4.006 -0.1146  0.2058  2.1013
 1350TIP3    H2 4057   3.684   1.741   4.073 -0.6098 -2.6521 -1.0988
 1351TIP3   OH2 4058   1.369   5.199   1.609 -0.0559  0.9109 -0.5885
 1351TIP3    H1 4059   1.290   5.150   1.586 -0.7387  1.7686 -0.1077
 1351TIP3    H2 4060   1.440   5.135   1.600 -0.9280 -0.1768  0.0548
 1352TIP3   OH2 4061   1.600   3.712   0.470  0.8830 -0.1475  0.6497
 1352TIP3    H1 4062   1.526   3.729   0.411  0.5862 -2.4001  0.2951
 1352TIP3    H2 4063   1.668   3.772   0.439 -0.1228  0.5597 -0.3064
 1353TIP3   OH2 4064   0.648   0.983   2.606 -0.8295  0.2729  0.0300
 1353TIP3    H1 4065   0.692   1.029   2.677 -0.7697 -1.0665  0.8926
 1353TIP3    H2 4066   0.555   0.997   2.624 -0.8090  0.8114 -0.2446
 1354TIP3   OH2 4067   6.215   4.948   0.279  0.0336 -0.1726  0.5192
 1354TIP3    H1 4068   6.165   4.966   0.199 -0.2845 -1.0850  0.4926
 1354TIP3    H2 4069   6.243   4.857   0.269 -1.4692 -0.8826  2.1892
 1355TIP3   OH2 4070   2.826   2.791   5.121 -0.5783  0.1419  0.0644
 1355TIP3    H1 4071   2.743   2.778   5.076 -2.5885 -0.0209  3.4708
 1355TIP3    H2 4072   2.814   2.748   5.206  2.9096  0.3886  0.8338
 1356TIP3   OH2 4073   3.863   3.612   1.395  0.1004  0.5723 -0.0498
 1356TIP3    H1 4074   3.796   3.610   1.327  0.4200 -0.6745 -0.3604
 1356TIP3    H2 4075   3.818   3.645   1.473  0.0615  3.4461 -1.1752
 1357TIP3   OH2 4076   4.601   5.748   1.933 -0.0320 -0.2664  0.3088
 1357TIP3    H1 4077   4.578   5.803   2.008  0.5642 -2.9811  2.6522
 1357TIP3    H2 4078   4.697   5.739   1.938 -0.0565 -1.0562 -0.3549
 1358TIP3   OH2 4079   1.094   5.303   2.724 -0.3945  1.1460 -0.6676
 1358TIP3    H1 4080   1.140   5.383   2.749  0.0611  1.1309 -1.4179
 1358TIP3    H2 4081   1.059   5.322   2.637 -0.8723  0.7687 -0.5604
 1359TIP3   OH2 4082   6.011   4.552   4.415 -0.8087 -0.1806 -0.6179
 1359TIP3    H1 4083   6.025   4.503   4.334  0.7945  0.5701 -0.8449
 1359TIP3    H2 4084   6.094   4.598   4.429 -0.7143 -0.9789  1.9288
 1360TIP3   OH2 4085   5.370   0.141   0.520 -0.1903  0.0169 -0.3801
 1360TIP3    H1 4086   5.330   0.186   0.595  1.5780 -0.5988  0.9858
 1360TIP3    H2 4087   5.342   0.050   0.528 -1.8177  0.3268 -1.8029
 1361TIP3   OH2 4088   4.707   5.365   1.408  0.2368 -0.1383 -0.0343
 1361TIP3    H1 4089   4.737   5.450   1.439  1.6659 -0.5286 -0.2919
 1361TIP3    H2 4090   4.733   5.362   1.316 -1.3109 -0.1920 -0.5004
 1362TIP3   OH2 4091   2.336   2.181   3.052  0.1281 -0.2091 -0.5053
 1362TIP3    H1 4092   2.364   2.138   3.133  2.1584 -1.2132 -1.6334
 1362TIP3    H2 4093   2.301   2.110   2.998  1.7695 -0.2128 -1.6684
 1363TIP3   OH2 4094   2.128   5.791   4.914 -0.0990 -0.7363 -0.0686
 1363TIP3    H1 4095   2.114   5.794   5.009  1.1853 -1.2908  0.1628
 1363TIP3    H2 4096   2.175   5.708   4.900 -1.2449 -1.2126 -1.3350
 1364TIP3   OH2 4097   5.937   0.181   3.683  0.3336  0.4517  0.0408
 1364TIP3    H1 4098   5.956   0.240   3.756 -0.7726  0.1655  0.5957
 1364TIP3    H2 4099   5.953   0.234   3.605 -0.3204  1.3978  0.5223
 1365TIP3   OH2 4100   3.286   3.472   2.240 -0.0854  0.5221 -0.2254
 1365TIP3    H1 4101   3.287   3.376   2.237 -0.8734  0.3858  1.8101
 1365TIP3    H2 4102   3.246   3.498   2.157 -1.4293 -1.0106 -0.1295
 1366TIP3   OH2 4103   1.989   5.856   2.380 -0.9195  0.1995  0.1140
 1366TIP3    H1 4104   2.009   5.763   2.370 -0.1566  0.4339 -0.6022
 1366TIP3    H2 4105   1.961   5.884   2.293  1.8507  1.3314 -0.5163
 1367TIP3   OH2 4106   6.135   1.941   0.383  0.0647 -0.1368  0.1882
 1367TIP3    H1 4107   6.176   2.010   0.436 -1.1784 -0.3006  1.4409
 1367TIP3    H2 4108   6.041   1.960   0.389 -0.3901 -2.3149  1.1913
 1368TIP3   OH2 4109   3.808   4.977   4.305  0.4530  0.6291 -0.2361
 1368TIP3    H1 4110   3.796   4.889   4.269  0.9798  0.1060  0.8275
 1368TIP3    H2 4111   3.861   5.022   4.239  1.5341 -0.3661 -0.0801
 1369TIP3   OH2 4112   3.389   2.305   3.033 -0.4996 -0.0761  0.0855
 1369TIP3    H1 4113   3.346   2.220   3.022  2.3298 -1.3598 -2.2971
 1369TIP3    H2 4114   3.434   2.298   3.118 -0.0265 -1.1238 -0.2388
 1370TIP3   OH2 4115   5.009   2.388   0.594  0.1747 -0.0117  0.1185
 1370TIP3    H1 4116   5.005   2.297   0.562 -0.7363  0.4362 -1.0995
 1370TIP3    H2 4117   4.921   2.407   0.625  0.2906  0.5550  0.1091
 1371TIP3   OH2 4118   3.064   5.260   4.046  0.0617  0.1583  0.2141
 1371TIP3    H1 4119   3.021   5.205   4.111 -1.0985  0.5309 -0.2179
 1371TIP3    H2 4120   3.114   5.199   3.992 -1.4406 -0.5239 -0.4419
 1372TIP3   OH2 4121   6.002   3.718   2.337 -0.0931  0.3798 -0.2191
 1372TIP3    H1 4122   6.023   3.796   2.285  0.0428 -0.0081 -0.7531
 1372TIP3    H2 4123   5.973   3.653   2.272  1.4038 -0.5742  0.0346
 1373TIP3   OH2 4124   5.308   0.826   3.265 -0.0678 -0.3190 -0.0523
 1373TIP3    H1 4125   5.294   0.818   3.171 -1.2225  0.5247  0.0294
 1373TIP3    H2 4126   5.230   0.787   3.304 -0.6609  1.3659  0.5002
 1374TIP3   OH2 4127   5.086   5.849   1.634 -0.3720 -0.6516 -0.2976
 1374TIP3    H1 4128   5.101   5.844   1.728 -1.0028 -2.4262 -0.2622
 1374TIP3    H2 4129   4.997   5.884   1.626  0.1310  0.6774 -0.2864
 1375TIP3   OH2 4130   1.778   1.865   2.753 -0.5552  0.0359 -0.2212
 1375TIP3    H1 4131   1.734   1.816   2.822  0.2723  0.1546  0.4123
 1375TIP3    H2 4132   1.709   1.887   2.690 -1.0927 -1.1723 -0.0706
 1376TIP3   OH2 4133   3.553   3.638   5.117  0.3733 -0.2683  0.1882
 1376TIP3    H1 4134   3.585   3.608   5.202  0.0220  0.5011  0.6084
 1376TIP3    H2 4135   3.626   3.687   5.080 -0.8061  3.2904  2.0540
 1377TIP3   OH2 4136   2.547   1.458   2.284  0.6638  0.0195  0.1401
 1377TIP3    H1 4137   2.579   1.372   2.254 -0.1494 -0.8576  1.6577
 1377TIP3    H2 4138   2.530   1.506   2.203  0.8168 -1.3699 -0.7673
 1378TIP3   OH2 4139   5.900   2.583   2.183 -0.3496  0.5492 -0.2971
 1378TIP3    H1 4140   5.872   2.493   2.165  0.0467  0.7950 -2.4467
 1378TIP3    H2 4141   5.916   2.620   2.097  0.3584  2.4241  0.5954
 1379TIP3   OH2 4142   5.582   1.407   1.764 -0.1906  0.1842  0.3270
 1379TIP3    H1 4143   5.660   1.413   1.820 -0.3684  0.0966  0.5814
 1379TIP3    H2 4144   5.516   1.365   1.819 -0.4603  0.3822  0.1517
 1380TIP3   OH2 4145   0.112   3.610   1.030 -0.0400 -0.0784  0.2706
 1380TIP3    H1 4146   0.138   3.611   0.938  0.3196 -1.7472  0.3172
 1380TIP3    H2 4147   0.018   3.588   1.028 -0.3452  1.1874  0.2684
 1381TIP3   OH2 4148   1.321   0.377   3.535 -0.6515  0.4500  0.2090
 1381TIP3    H1 4149   1.318   0.373   3.630 -2.9369 -0.0418  0.1740
 1381TIP3    H2 4150   1.356   0.292   3.508  0.4873  0.7823  0.5932
 1382TIP3   OH2 4151   1.361   5.835   3.844  0.3230  0.4543  0.0965
 1382TIP3    H1 4152   1.316   5.872   3.920  0.2109  0.8505 -0.1609
 1382TIP3    H2 4153   1.383   5.911   3.790  0.8097  0.2155 -0.0484
 1383TIP3   OH2 4154   3.793   2.026   3.656 -0.5650  0.3375 -0.2641
 1383TIP3    H1 4155   3.823   1.969   3.727 -0.3329  0.3302 -0.3666
 1383TIP3    H2 4156   3.871   2.073   3.629 -1.0141  1.7160  0.7362
 1384TIP3   OH2 4157   2.481   1.098   4.414 -0.4227 -0.3402  0.2985
 1384TIP3    H1 4158   2.496   1.088   4.320  0.2055  0.4927  0.2950
 1384TIP3    H2 4159   2.538   1.033   4.455 -0.4948 -0.5188  0.1151
 1385TIP3   OH2 4160   0.075   1.843   1.633  0.1775  0.7273 -0.1217
 1385TIP3    H1 4161   0.167   1.831   1.655  0.1698  1.2389  0.1848
 1385TIP3    H2 4162   0.064   1.937   1.623 -0.8357  0.9288  2.1933
 1386TIP3   OH2 4163   4.854   5.883   3.038  0.5415 -0.4526  0.2179
 1386TIP3    H1 4164   4.844   5.896   2.944  0.8163  0.5112  0.3114
 1386TIP3    H2 4165   4.919   5.947   3.065  1.1901 -1.3695  0.9117
 1387TIP3   OH2 4166   1.822   5.100   3.237  0.2342 -0.2681 -0.1173
 1387TIP3    H1 4167   1.886   5.140   3.295  0.3358  0.2118 -0.5496
 1387TIP3    H2 4168   1.872   5.075   3.159 -0.1629  0.4541 -0.6183
 1388TIP3   OH2 4169   5.902   1.402   4.783 -0.2905  0.2718  0.0050
 1388TIP3    H1 4170   5.948   1.323   4.812  0.6751  0.0359 -1.9999
 1388TIP3    H2 4171   5.875   1.382   4.694 -0.4388  2.0497 -0.3856
 1389TIP3   OH2 4172   2.828   1.777   3.227 -0.1024 -0.0667 -0.1430
 1389TIP3    H1 4173   2.893   1.798   3.160  0.1089  0.0153  0.0887
 1389TIP3    H2 4174   2.849   1.687   3.253  0.1863  0.1072  0.2365
 1390TIP3   OH2 4175   5.604   5.086   0.927  0.1271 -0.2409 -0.2531
 1390TIP3    H1 4176   5.695   5.085   0.959  0.2404  0.3462 -0.5467
 1390TIP3    H2 4177   5.611   5.118   0.837 -0.4638  0.6532  0.0112
 1391TIP3   OH2 4178   3.841   0.033   4.704  0.3916  0.2514  0.1359
 1391TIP3    H1 4179   3.759   0.006   4.662  1.3357 -0.8364 -1.0804
 1391TIP3    H2 4180   3.884   0.090   4.641 -0.4352  2.7778  1.7109
 1392TIP3   OH2 4181   3.115   4.124   2.742  0.4320  0.3595 -0.0952
 1392TIP3    H1 4182   3.169   4.158   2.671  0.7939 -0.0988 -0.0419
 1392TIP3    H2 4183   3.160   4.154   2.822  0.9183 -0.4847 -0.0432
 1393TIP3   OH2 4184   3.564   0.656   2.829 -0.6665  0.6379 -0.3971
 1393TIP3    H1 4185   3.543   0.583   2.771 -2.0894  1.8805 -1.5120
 1393TIP3    H2 4186   3.479   0.684   2.864 -0.1151  1.5979  0.2169
 1394TIP3   OH2 4187   0.690   4.637   3.511  0.5295  0.2278  0.3391
 1394TIP3    H1 4188   0.721   4.550   3.534 -0.0324  0.2513  1.1989
 1394TIP3    H2 4189   0.742   4.697   3.565  2.6484  0.6376 -1.9580
 1395TIP3   OH2 4190   1.624   0.726   0.611 -0.1925 -0.2223  0.0038
 1395TIP3    H1 4191   1.598   0.651   0.665  3.5926 -0.9156  1.1080
 1395TIP3    H2 4192   1.657   0.687   0.531 -1.6262  0.5864 -1.0369
 1396TIP3   OH2 4193   2.989   0.083   3.902  0.1067  0.1190  0.1106
 1396TIP3    H1 4194   3.008   0.068   3.810  1.8053 -0.9977  0.5970
 1396TIP3    H2 4195   2.895   0.070   3.910 -0.2105  1.0458 -1.5866
 1397TIP3   OH2 4196   0.771   3.533   0.240 -0.4476 -0.1418  0.2470
 1397TIP3    H1 4197   0.706   3.603   0.233  0.5310  0.6766 -1.5675
 1397TIP3    H2 4198   0.721   3.456   0.266 -2.0397  0.6121 -0.4235
 1398TIP3   OH2 4199   5.432   5.649   4.705  0.7320 -0.2323  0.1720
 1398TIP3    H1 4200   5.396   5.730   4.741 -1.6996 -0.4888 -1.4054
 1398TIP3    H2 4201   5.440   5.666   4.611  1.8965 -1.2603  0.0546
 1399TIP3   OH2 4202   3.289   2.797   0.739  0.1494 -0.6154 -0.4242
 1399TIP3    H1 4203   3.231   2.873   0.738 -1.0273 -1.4376  0.9136
 1399TIP3    H2 4204   3.314   2.785   0.648 -1.0248  0.3574 -0.9096
 1400TIP3   OH2 4205   5.544   4.033   4.273  0.2863 -0.6150 -0.0134
 1400TIP3    H1 4206   5.539   4.028   4.369 -0.1564  1.2444  0.1152
 1400TIP3    H2 4207   5.452   4.031   4.245 -0.0820  3.9404  0.0791
 1401TIP3   OH2 4208   5.930   1.245   0.734 -0.1172 -0.2854 -0.3353
 1401TIP3    H1 4209   5.952   1.232   0.642 -1.5436 -1.5151 -0.5477
 1401TIP3    H2 4210   5.977   1.175   0.780 -0.0918 -0.2090 -0.2458
 1402TIP3   OH2 4211   6.087   0.561   1.933 -0.3261  0.1907 -0.0697
 1402TIP3    H1 4212   6.173   0.553   1.891 -0.6722  0.6114 -0.8783
 1402TIP3    H2 4213   6.034   0.610   1.870 -1.2927 -0.4411  0.2259
 1403TIP3   OH2 4214   0.314   4.194   2.524 -0.4224  0.3843  0.6669
 1403TIP3    H1 4215   0.272   4.126   2.472 -0.6691  0.2329  1.0603
 1403TIP3    H2 4216   0.397   4.156   2.552 -0.0659  0.6449 -0.0214
 1404TIP3   OH2 4217   1.860   2.764   1.856 -0.0272 -0.2104 -0.0871
 1404TIP3    H1 4218   1.836   2.814   1.933 -3.4068 -1.8450  0.0938
 1404TIP3    H2 4219   1.918   2.695   1.889 -2.1219 -1.4188  1.2559
 1405TIP3   OH2 4220   2.788   4.713   4.746  0.1091  0.0966 -0.4827
 1405TIP3    H1 4221   2.811   4.631   4.701  1.3378 -0.0299  0.3413
 1405TIP3    H2 4222   2.703   4.694   4.787  0.0101 -0.4926 -0.9372
 1406TIP3   OH2 4223   0.488   2.137   0.842  0.4668  0.1709  0.4864
 1406TIP3    H1 4224   0.480   2.222   0.886 -1.2420 -0.2800  1.1269
 1406TIP3    H2 4225   0.524   2.079   0.909  0.8910  0.2033  0.2890
 1407TIP3   OH2 4226   1.682   3.583   2.081 -0.3648 -0.7177 -0.6221
 1407TIP3    H1 4227   1.754   3.525   2.058 -0.2248 -0.4550 -0.8401
 1407TIP3    H2 4228   1.679   3.648   2.011  0.7197  0.7004  0.5994
 1408TIP3   OH2 4229   0.058   3.339   3.785  0.2468  0.1614  0.0906
 1408TIP3    H1 4230   0.056   3.256   3.738 -0.5893  0.8519 -1.1234
 1408TIP3    H2 4231   0.062   3.406   3.717 -2.2423  1.2477  0.9035
 1409TIP3   OH2 4232   1.218   3.297   3.291  0.1997  0.3723 -0.0433
 1409TIP3    H1 4233   1.279   3.253   3.350  0.5866 -0.6542 -1.1817
 1409TIP3    H2 4234   1.273   3.355   3.239  0.2588 -0.6946 -1.2015
 1410TIP3   OH2 4235   0.282   1.221   1.387 -0.2779  0.2667 -0.3539
 1410TIP3    H1 4236   0.362   1.241   1.338  0.9447 -0.5476  1.1914
 1410TIP3    H2 4237   0.276   1.290   1.453 -0.8296  0.2918 -0.4264
 1411TIP3   OH2 4238   4.331   1.009   5.024  0.1338  0.0613 -0.1369
 1411TIP3    H1 4239   4.287   0.928   4.998  1.8904 -1.1386  0.4369
 1411TIP3    H2 4240   4.289   1.034   5.107 -0.2684 -0.3987 -0.2026
 1412TIP3   OH2 4241   0.780   2.870   3.112  0.2268  0.0912  0.5255
 1412TIP3    H1 4242   0.735   2.941   3.066 -1.3991  0.1707  2.1134
 1412TIP3    H2 4243   0.723   2.794   3.100  2.2930 -1.2260 -1.7581
 1413TIP3   OH2 4244   4.983   4.850   4.619 -0.1052 -0.0249  0.1641
 1413TIP3    H1 4245   5.041   4.923   4.643 -1.1936  0.7071  0.6436
 1413TIP3    H2 4246   4.950   4.874   4.532 -0.8733  0.3203  0.5470
 1414TIP3   OH2 4247   4.966   2.008   1.911  0.4999 -0.1876 -0.0221
 1414TIP3    H1 4248   4.989   2.098   1.889 -0.6804 -0.4175 -2.5700
 1414TIP3    H2 4249   4.994   1.957   1.834 -0.7985 -1.6632  0.4369
 1415TIP3   OH2 4250   2.741   1.012   0.915  0.5588  0.4713  0.0554
 1415TIP3    H1 4251   2.831   1.044   0.927  0.5059  1.3318 -1.4954
 1415TIP3    H2 4252   2.689   1.092   0.904 -0.1772 -0.0500 -0.3386
 1416TIP3   OH2 4253   2.375   3.584   3.089  0.0087 -0.1493  0.0650
 1416TIP3    H1 4254   2.348   3.492   3.085  1.4454 -0.5621 -0.9843
 1416TIP3    H2 4255   2.428   3.590   3.168 -1.4918  0.2207  1.0879
 1417TIP3   OH2 4256   3.210   4.341   2.594 -0.0716  0.0101 -0.0358
 1417TIP3    H1 4257   3.276   4.372   2.655 -0.4386 -0.4529  0.6059
 1417TIP3    H2 4258   3.147   4.412   2.587  0.3539  0.3494 -0.4472
 1418TIP3   OH2 4259   4.525   5.311   4.665 -0.7959  0.4236  0.3031
 1418TIP3    H1 4260   4.619   5.299   4.648 -1.4138  0.6703 -4.8714
 1418TIP3    H2 4261   4.507   5.401   4.637 -2.7182 -0.0079  0.0258
 1419TIP3   OH2 4262   1.555   0.471   0.212 -0.4685 -0.0484 -0.3485
 1419TIP3    H1 4263   1.536   0.384   0.176 -1.1914  0.5047 -1.3520
 1419TIP3    H2 4264   1.473   0.496   0.256 -0.2262  0.0855  0.0279
 1420TIP3   OH2 4265   4.100   5.392   0.473  0.1275 -0.1368 -0.1753
 1420TIP3    H1 4266   4.036   5.322   0.482  1.0672 -1.2106 -1.4038
 1420TIP3    H2 4267   4.048   5.471   0.460 -0.9589 -0.5349  1.4289
 1421TIP3   OH2 4268   1.121   2.558   3.225 -0.0413 -0.0150 -0.2187
 1421TIP3    H1 4269   1.082   2.517   3.148 -1.3623 -1.0091  0.9108
 1421TIP3    H2 4270   1.048   2.566   3.287  1.0871  0.2255  1.1357
 1422TIP3   OH2 4271   4.513   0.044   3.630  0.1351 -0.1673 -0.1889
 1422TIP3    H1 4272   4.547   0.066   3.717  1.9787 -0.4675 -0.7911
 1422TIP3    H2 4273   4.565  -0.032   3.602  0.6627  0.8330 -2.1467
 1423TIP3   OH2 4274   0.460   0.536   0.954 -0.4929 -0.1554  0.4735
 1423TIP3    H1 4275   0.479   0.571   1.041  2.1536  2.7130 -1.0514
 1423TIP3    H2 4276   0.534   0.478   0.935 -0.0603  0.6611 -0.4657
 1424TIP3   OH2 4277   5.902   4.632   0.805  0.3072  0.3554  0.0674
 1424TIP3    H1 4278   5.938   4.700   0.862  1.4790  0.3193 -0.5997
 1424TIP3    H2 4279   5.966   4.561   0.808  0.0278  0.0560 -0.7168
 1425TIP3   OH2 4280   4.056   5.838   3.843 -0.2101  0.9244  0.6995
 1425TIP3    H1 4281   4.014   5.755   3.868 -0.2407  0.8175  0.2917
 1425TIP3    H2 4282   4.040   5.895   3.918 -2.0190  1.2300  0.1233
 1426TIP3   OH2 4283   5.590   4.285   0.380  0.3967  0.3770 -0.2240
 1426TIP3    H1 4284   5.670   4.337   0.370  0.5013  1.2658  3.5984
 1426TIP3    H2 4285   5.609   4.226   0.453 -1.5638 -1.3455 -1.0007
 1427TIP3   OH2 4286   5.701   3.853   4.779  0.2268  0.2091 -0.0138
 1427TIP3    H1 4287   5.704   3.878   4.871 -0.6010 -0.2457  0.1451
 1427TIP3    H2 4288   5.789   3.820   4.760 -0.0824 -1.3086  1.0809
 1428TIP3   OH2 4289   1.237   0.827   3.842 -0.2039 -0.1643  0.3803
 1428TIP3    H1 4290   1.148   0.803   3.814 -0.1447 -0.0618  0.0954
 1428TIP3    H2 4291   1.271   0.749   3.886 -0.5474 -0.1015  0.7632
 1429TIP3   OH2 4292   0.395   3.499   2.099  0.4458 -0.3859  0.2792
 1429TIP3    H1 4293   0.467   3.456   2.053  0.7951 -0.7100  1.1128
 1429TIP3    H2 4294   0.323   3.435   2.097 -0.7746  0.8929 -2.8260
 1430TIP3   OH2 4295   0.462   5.691   0.929 -0.0044 -0.2376 -0.3492
 1430TIP3    H1 4296   0.416   5.755   0.985  1.3524  2.6307 -2.2892
 1430TIP3    H2 4297   0.431   5.710   0.841 -0.0525 -2.8406 -0.9652
 1431TIP3   OH2 4298   5.645   4.541   1.556 -0.5605  0.1677  0.0488
 1431TIP3    H1 4299   5.734   4.575   1.546 -0.9420  1.7976  1.6584
 1431TIP3    H2 4300   5.653   4.447   1.537  1.4040  0.3459 -0.2359
 1432TIP3   OH2 4301   3.355   5.701   0.387  0.0442  0.1121 -0.2793
 1432TIP3    H1 4302   3.345   5.686   0.293 -1.2638  0.4534 -0.2130
 1432TIP3    H2 4303   3.328   5.618   0.426 -0.1467  0.2261 -0.1730
 1433TIP3   OH2 4304   5.095   4.650   1.415 -0.4688 -0.1352 -0.1713
 1433TIP3    H1 4305   5.165   4.642   1.349  0.0264  2.0562  0.0151
 1433TIP3    H2 4306   5.138   4.629   1.498  0.3530  2.3302  0.0986
 1434TIP3   OH2 4307   2.671   3.712   3.889  0.1061  0.2314 -0.0255
 1434TIP3    H1 4308   2.742   3.696   3.826  0.0103  0.1846 -0.1219
 1434TIP3    H2 4309   2.602   3.651   3.864  0.8223 -1.1976  1.3393
 1435TIP3   OH2 4310   0.614   5.005   4.307  0.6566  0.5462  0.2216
 1435TIP3    H1 4311   0.678   5.049   4.363  0.9269  2.2295 -1.3305
 1435TIP3    H2 4312   0.531   5.049   4.325  0.3997 -0.0362  0.4963
 1436TIP3   OH2 4313   5.258   2.118   3.160 -0.0824  0.3872 -0.0652
 1436TIP3    H1 4314   5.179   2.147   3.206 -0.9102 -2.1791  0.2368
 1436TIP3    H2 4315   5.316   2.087   3.229  1.0470  1.7769 -0.3335
 1437TIP3   OH2 4316   4.296   4.874   4.645  0.4966  0.3216 -0.4772
 1437TIP3    H1 4317   4.210   4.881   4.603 -0.3436  1.2608  1.2923
 1437TIP3    H2 4318   4.349   4.941   4.602  0.1182  0.2842 -1.0215
 1438TIP3   OH2 4319   2.701   5.588   1.886  0.3418  0.2758  0.5527
 1438TIP3    H1 4320   2.709   5.634   1.969  0.0703  4.5307 -1.4701
 1438TIP3    H2 4321   2.787   5.596   1.845  0.1304 -0.6118 -0.1050
 1439TIP3   OH2 4322   6.195   4.641   1.356 -0.3844  0.3091  0.0459
 1439TIP3    H1 4323   6.107   4.653   1.392 -0.4058 -0.3913  0.2336
 1439TIP3    H2 4324   6.211   4.547   1.362  0.0772  0.3332 -0.6941
 1440TIP3   OH2 4325   5.079   1.339   4.563 -0.0447  0.4060  0.3694
 1440TIP3    H1 4326   5.131   1.269   4.524  0.3528  1.4783 -1.1145
 1440TIP3    H2 4327   5.016   1.294   4.619 -1.3700 -1.3632 -2.3242
 1441TIP3   OH2 4328   5.700   5.582   0.374  0.5046  0.2886  0.2147
 1441TIP3    H1 4329   5.747   5.570   0.456 -0.1320 -1.2152  0.4010
 1441TIP3    H2 4330   5.670   5.494   0.351  1.5035  0.4818 -2.1525
 1442TIP3   OH2 4331   0.814   5.297   1.878 -0.1879 -0.1134 -0.1029
 1442TIP3    H1 4332   0.766   5.281   1.959 -0.0050  1.6486  0.3917
 1442TIP3    H2 4333   0.817   5.211   1.835 -0.8773 -0.9449  1.4127
 1443TIP3   OH2 4334   3.309   4.762   2.051 -0.2180 -0.3168 -0.9038
 1443TIP3    H1 4335   3.380   4.802   2.002  1.1111 -0.0828  1.0708
 1443TIP3    H2 4336   3.346   4.679   2.083 -0.4544  0.2508  0.9410
 1444TIP3   OH2 4337   6.322   1.536   2.443  0.1268 -0.2126  0.2846
 1444TIP3    H1 4338   6.254   1.594   2.410  0.6810 -0.2578 -0.9765
 1444TIP3    H2 4339   6.278   1.481   2.508 -0.7802  0.4854  0.2695
 1445TIP3   OH2 4340   2.599   3.995   0.662  0.6908 -0.5680 -0.3292
 1445TIP3    H1 4341   2.566   3.922   0.610  0.2235 -1.0361  0.6138
 1445TIP3    H2 4342   2.523   4.028   0.708  1.4482 -1.5039  1.6988
 1446TIP3   OH2 4343   4.370   1.708   5.022 -0.7427 -0.4409  0.5208
 1446TIP3    H1 4344   4.375   1.722   5.116  0.7438  1.8024  0.1868
 1446TIP3    H2 4345   4.432   1.638   5.004 -1.0630 -0.9061  1.2008
 1447TIP3   OH2 4346   1.362   4.971   2.258  0.0997 -0.5247  0.1356
 1447TIP3    H1 4347   1.306   4.963   2.335  0.0148 -1.5708 -0.0173
 1447TIP3    H2 4348   1.451   4.971   2.293  0.0379  0.2472  0.3129
 1448TIP3   OH2 4349   6.203   2.275   1.507 -0.3198  0.0075 -0.4909
 1448TIP3    H1 4350   6.219   2.350   1.449 -2.4701 -0.1230 -1.3397
 1448TIP3    H2 4351   6.115   2.245   1.484  0.1216 -2.2294  0.4665
 1449TIP3   OH2 4352   0.392   4.882   1.181 -0.4531  0.1319 -1.0278
 1449TIP3    H1 4353   0.312   4.921   1.218 -0.0461  0.9480 -0.9674
 1449TIP3    H2 4354   0.375   4.874   1.088  0.0970  2.1958 -1.3546
 1450TIP3   OH2 4355   5.593   5.339   0.315  0.5178 -0.3430 -0.1000
 1450TIP3    H1 4356   5.578   5.331   0.220  1.9228 -0.0647 -0.3668
 1450TIP3    H2 4357   5.511   5.310   0.354  0.0385 -0.8375 -1.3970
 1451TIP3   OH2 4358   0.981   0.586   0.755  0.1127  0.2432  0.6330
 1451TIP3    H1 4359   0.945   0.525   0.820  0.3877 -0.1752  0.3980
 1451TIP3    H2 4360   0.971   0.672   0.795 -1.7880  0.2231  0.2890
 1452TIP3   OH2 4361   3.385   0.867   4.371 -0.1577  0.1347 -0.3125
 1452TIP3    H1 4362   3.388   0.954   4.409  0.6413 -0.3332  0.7564
 1452TIP3    H2 4363   3.306   0.827   4.407 -1.1372  0.7617 -1.6663
 1453TIP3   OH2 4364   5.335   3.003   1.211 -0.8368 -0.1021 -0.4081
 1453TIP3    H1 4365   5.333   3.093   1.244 -0.5058 -0.1902 -0.1409
 1453TIP3    H2 4366   5.266   3.001   1.144 -2.7996 -0.3730  1.4820
 1454TIP3   OH2 4367   0.238   3.135   0.563  0.1323  0.0459 -0.6348
 1454TIP3    H1 4368   0.202   3.118   0.650  0.5139  0.1251 -0.4564
 1454TIP3    H2 4369   0.165   3.123   0.504 -0.2398  0.4144 -0.2592
 1455TIP3   OH2 4370   0.619   1.899   3.209  0.1837  0.2537  0.0246
 1455TIP3    H1 4371   0.693   1.916   3.268  1.5879 -0.1478 -1.5544
 1455TIP3    H2 4372   0.590   1.987   3.182  0.3705  0.3991  0.2887
 1456TIP3   OH2 4373   5.977   3.408   5.101 -0.6600 -0.0119 -0.0352
 1456TIP3    H1 4374   5.886   3.436   5.088 -0.3621  1.2690  0.5291
 1456TIP3    H2 4375   6.019   3.425   5.016 -0.8426 -0.2448 -0.1767
 1457TIP3   OH2 4376   0.396   3.610   3.362  0.3889 -0.0239 -0.2610
 1457TIP3    H1 4377   0.389   3.572   3.275 -0.4277  1.6952 -0.9808
 1457TIP3    H2 4378   0.478   3.659   3.361  0.1290  0.4092 -0.2181
 1458TIP3   OH2 4379   0.506   0.940   4.115  0.1311  0.2280 -0.0612
 1458TIP3    H1 4380   0.434   0.877   4.104  0.6784 -0.4727  0.2763
 1458TIP3    H2 4381   0.486   1.010   4.053 -0.5487 -0.2283 -0.3770
 1459TIP3   OH2 4382   2.865   5.181   2.795  0.0633 -0.3270  0.6774
 1459TIP3    H1 4383   2.791   5.224   2.752 -0.0020 -0.5911  0.5185
 1459TIP3    H2 4384   2.834   5.091   2.809 -0.4333  0.0960  2.5112
 1460TIP3   OH2 4385   4.280   2.273   0.534  0.3202 -0.2231 -0.5806
 1460TIP3    H1 4386   4.231   2.354   0.527 -1.3674 -1.1451 -0.0164
 1460TIP3    H2 4387   4.284   2.255   0.628 -1.2522 -1.8574 -0.7606
 1461TIP3   OH2 4388   3.995   4.339   3.810 -0.3196 -0.1471  0.2247
 1461TIP3    H1 4389   3.995   4.256   3.762  2.6971 -0.5172  0.6704
 1461TIP3    H2 4390   3.980   4.313   3.901 -1.1651  0.0078  0.1318
 1462TIP3   OH2 4391   6.229   4.374   1.442 -0.4318 -0.3223 -0.2675
 1462TIP3    H1 4392   6.307   4.386   1.496 -0.4850  1.0587 -0.4433
 1462TIP3    H2 4393   6.211   4.280   1.444  1.4095 -0.7072 -0.4628
 1463TIP3   OH2 4394   5.572   0.367   2.130  0.2045 -0.4057  0.5291
 1463TIP3    H1 4395   5.589   0.421   2.053 -1.8534  1.6396  1.3901
 1463TIP3    H2 4396   5.564   0.278   2.096 -1.0759  0.4931 -1.7003
 1464TIP3   OH2 4397   3.192  -0.006   0.185 -0.2554  0.4877 -0.4665
 1464TIP3    H1 4398   3.173   0.088   0.190  0.5398  0.6431 -0.0176
 1464TIP3    H2 4399   3.213  -0.022   0.093  0.2231  0.8884 -0.4318
 1465TIP3   OH2 4400   2.717   3.064   3.235  0.2578  0.0001 -0.0613
 1465TIP3    H1 4401   2.808   3.069   3.206  0.2231 -0.4361 -0.2546
 1465TIP3    H2 4402   2.669   3.035   3.158  0.0757 -0.5780  0.2681
 1466TIP3   OH2 4403   3.985   1.758   0.209 -0.2197  0.2568 -0.2650
 1466TIP3    H1 4404   3.918   1.804   0.259  0.1058  2.1398 -1.4662
 1466TIP3    H2 4405   4.028   1.701   0.273 -2.6802 -0.7674  0.6180
 1467TIP3   OH2 4406   3.003   0.713   2.892  0.5586 -0.2105  0.4432
 1467TIP3    H1 4407   3.018   0.795   2.846  1.0602  0.0208  1.0115
 1467TIP3    H2 4408   2.954   0.659   2.830  0.3629  0.4585  0.0131
 1468TIP3   OH2 4409   4.052   5.070   3.409  0.2831 -0.2128 -0.2948
 1468TIP3    H1 4410   4.117   5.042   3.474  1.0906  0.6693 -0.6897
 1468TIP3    H2 4411   4.104   5.108   3.338 -0.7030  2.4151  0.2768
 1469TIP3   OH2 4412   0.438   4.091   4.533  0.7080 -0.3684  0.0690
 1469TIP3    H1 4413   0.475   4.097   4.445  1.5308  1.8624  0.5051
 1469TIP3    H2 4414   0.346   4.115   4.521  0.5006 -1.3046 -0.3317
 1470TIP3   OH2 4415   5.866   5.143   2.436  0.2881 -0.2541  0.1640
 1470TIP3    H1 4416   5.816   5.216   2.473  2.5703  1.4973 -0.0070
 1470TIP3    H2 4417   5.886   5.170   2.347  0.3386 -1.5636 -0.2438
 1471TIP3   OH2 4418   3.654   1.805   4.407  0.5520  0.1097 -0.6088
 1471TIP3    H1 4419   3.673   1.757   4.326 -0.1305 -0.4211 -0.4632
 1471TIP3    H2 4420   3.621   1.738   4.467  0.6670  0.5699 -0.0212
 1472TIP3   OH2 4421   5.379   0.117   2.033 -0.1443 -0.1105  0.5048
 1472TIP3    H1 4422   5.285   0.105   2.022 -0.2494 -0.6221  1.8169
 1472TIP3    H2 4423   5.415   0.105   1.945 -1.1630 -1.3418  0.2261
 1473TIP3   OH2 4424   5.198   5.552   4.020 -0.0486 -0.2674  0.1433
 1473TIP3    H1 4425   5.210   5.498   3.942  2.1752 -2.3332  1.7543
 1473TIP3    H2 4426   5.281   5.600   4.029 -0.5124  0.4120  0.8870
 1474TIP3   OH2 4427   1.776   1.055   3.369  0.1224  0.2215 -0.2143
 1474TIP3    H1 4428   1.744   1.022   3.453 -0.6373 -0.0945 -0.6139
 1474TIP3    H2 4429   1.741   1.144   3.363 -2.9462 -0.9309 -1.7493
 1475TIP3   OH2 4430   2.754   0.425   2.929 -0.0242 -0.6777  0.0325
 1475TIP3    H1 4431   2.819   0.397   2.993 -0.2268  0.6350  0.8450
 1475TIP3    H2 4432   2.679   0.452   2.982  0.1655  1.3762 -0.6647
 1476TIP3   OH2 4433   2.903   5.858   4.718 -0.9632 -0.0291  0.4301
 1476TIP3    H1 4434   2.863   5.782   4.759  0.0893 -1.0221 -0.2908
 1476TIP3    H2 4435   2.897   5.840   4.624  3.0771 -1.4435  0.2108
 1477TIP3   OH2 4436   5.178   2.867   2.339 -0.2947  0.1348  0.0304
 1477TIP3    H1 4437   5.221   2.792   2.380  0.2052  0.0451 -0.6327
 1477TIP3    H2 4438   5.160   2.927   2.411 -2.6211 -1.4755  0.9234
 1478TIP3   OH2 4439   6.267   1.638   5.107 -0.1318 -0.3192 -0.1480
 1478TIP3    H1 4440   6.334   1.595   5.160  0.8189 -0.4460 -1.4035
 1478TIP3    H2 4441   6.222   1.696   5.168  1.5165  0.2093  0.6297
 1479TIP3   OH2 4442   4.458   4.963   3.833 -0.0610  0.1093 -0.1493
 1479TIP3    H1 4443   4.386   4.907   3.865  0.9878 -0.0560  2.1084
 1479TIP3    H2 4444   4.528   4.901   3.813  0.2937  0.4454  0.0584
 1480TIP3   OH2 4445   2.968   3.950   4.042 -0.7564 -0.1411 -0.3493
 1480TIP3    H1 4446   2.906   4.009   3.999 -1.0335 -1.4501 -1.8381
 1480TIP3    H2 4447   2.918   3.869   4.055 -0.3863 -0.0896  1.6353
 1481TIP3   OH2 4448   5.302   0.508   0.300 -0.8387 -0.0538 -0.3973
 1481TIP3    H1 4449   5.380   0.563   0.310 -0.7879 -0.2045  0.0580
 1481TIP3    H2 4450   5.257   0.513   0.384 -0.8635 -0.6531 -0.3644
 1482TIP3   OH2 4451   3.155   1.844   1.285  0.7162 -0.5450  0.0916
 1482TIP3    H1 4452   3.174   1.750   1.278 -1.1604 -0.9636 -0.0021
 1482TIP3    H2 4453   3.144   1.873   1.194 -1.4760 -0.9067  0.1930
 1483TIP3   OH2 4454   5.530   3.296   4.762  0.0490  0.3598 -0.2085
 1483TIP3    H1 4455   5.446   3.335   4.739 -0.5666  0.2159  1.6188
 1483TIP3    H2 4456   5.511   3.202   4.768  0.1594  0.3997  0.8819
 1484TIP3   OH2 4457   5.588   0.706   4.633 -0.0013  0.2218 -0.0661
 1484TIP3    H1 4458   5.609   0.712   4.540 -0.3549 -0.1703 -0.1731
 1484TIP3    H2 4459   5.534   0.628   4.640 -0.1744  0.3864  0.4339
 1485TIP3   OH2 4460   4.170   4.933   4.400 -0.6842  0.9075  0.1168
 1485TIP3    H1 4461   4.083   4.968   4.420 -1.7832 -1.4232 -0.2968
 1485TIP3    H2 4462   4.158   4.838   4.396  2.2237  0.3428  1.6728
 1486TIP3   OH2 4463   1.951   1.980   3.171  0.1693  0.0964  0.5254
 1486TIP3    H1 4464   1.959   1.930   3.090  2.7253 -0.6786  1.1634
 1486TIP3    H2 4465   1.866   1.955   3.206 -0.9646  0.3993 -1.8420
 1487TIP3   OH2 4466   6.103   3.833   3.071  0.0788  0.2075  0.4175
 1487TIP3    H1 4467   6.054   3.816   3.152  0.8966 -0.5459  0.7686
 1487TIP3    H2 4468   6.042   3.883   3.017 -1.4708 -1.5463  0.4361
 1488TIP3   OH2 4469   0.032   0.422   2.363 -0.3628 -0.1821 -0.5366
 1488TIP3    H1 4470  -0.063   0.431   2.363 -0.2977  0.6413 -1.5990
 1488TIP3    H2 4471   0.051   0.365   2.289 -0.0786 -1.3567  0.3890
 1489TIP3   OH2 4472   1.660   3.484   0.868  0.3180 -0.1693 -0.1173
 1489TIP3    H1 4473   1.608   3.504   0.791 -0.4721 -0.1949  0.3954
 1489TIP3    H2 4474   1.747   3.464   0.834 -0.0641 -0.3635 -1.0144
 1490TIP3   OH2 4475   3.772   1.351   3.766  0.3956 -0.0335  0.4540
 1490TIP3    H1 4476   3.699   1.308   3.722 -1.0718  0.1373  2.5465
 1490TIP3    H2 4477   3.776   1.438   3.726 -1.2121  0.2969  0.9290
 1491TIP3   OH2 4478   1.212   4.145   0.890  0.1041 -0.1999 -0.4295
 1491TIP3    H1 4479   1.125   4.172   0.859  0.8730  0.9190 -1.7568
 1491TIP3    H2 4480   1.272   4.178   0.823  1.5767 -0.8102  0.5395
 1492TIP3   OH2 4481   2.092   2.986   1.375  0.4109  0.3675  0.0223
 1492TIP3    H1 4482   2.038   3.064   1.392 -0.0611 -0.1779  1.1296
 1492TIP3    H2 4483   2.133   2.967   1.459 -0.3349 -1.2085  0.0595
 1493TIP3   OH2 4484   2.870   3.635   1.451  0.4603  0.1695 -0.1098
 1493TIP3    H1 4485   2.895   3.649   1.542  0.4567  3.0343 -0.4656
 1493TIP3    H2 4486   2.774   3.626   1.454  0.2212  2.2901  0.0442
 1494TIP3   OH2 4487   0.434   1.763   0.421 -0.4074  0.9182 -0.0835
 1494TIP3    H1 4488   0.496   1.776   0.493  0.5823 -1.0730 -0.5028
 1494TIP3    H2 4489   0.348   1.782   0.460 -0.1079 -1.6930  2.1902
 1495TIP3   OH2 4490   5.850   0.528   0.810  0.1113  0.1516 -0.2835
 1495TIP3    H1 4491   5.859   0.433   0.820  1.1922  0.1319 -1.2525
 1495TIP3    H2 4492   5.905   0.565   0.879 -0.1779  0.0715 -0.0101
 1496TIP3   OH2 4493   4.674   3.705   0.044  0.6408 -0.9716 -0.1800
 1496TIP3    H1 4494   4.648   3.613   0.049  0.1957 -1.2378 -4.2523
 1496TIP3    H2 4495   4.612   3.751   0.100 -0.2344 -2.9578  0.5498
 1497TIP3   OH2 4496   1.288   3.754   1.294 -0.0428  0.3000  0.0648
 1497TIP3    H1 4497   1.309   3.828   1.237 -1.7838  0.9044  0.1718
 1497TIP3    H2 4498   1.276   3.681   1.233 -1.6101  0.8780 -0.3725
 1498TIP3   OH2 4499   1.042   5.208   2.302 -0.3375 -0.0533 -0.1627
 1498TIP3    H1 4500   1.009   5.297   2.294 -0.9285 -0.2211  0.3802
 1498TIP3    H2 4501   1.120   5.216   2.356 -0.2564  0.1633 -0.3095
 1499TIP3   OH2 4502   4.491   4.189   0.652 -0.0404 -0.2994 -0.3473
 1499TIP3    H1 4503   4.539   4.177   0.570 -1.3761  1.6996 -1.4993
 1499TIP3    H2 4504   4.432   4.113   0.657 -1.4636  0.5887 -2.4014
 1500TIP3   OH2 4505   4.049   1.565   4.259 -0.1704 -0.4706  0.0853
 1500TIP3    H1 4506   3.996   1.507   4.204 -0.4268  1.0179 -1.3135
 1500TIP3    H2 4507   3.985   1.610   4.314 -0.1471 -0.2115 -0.1007
 1501TIP3   OH2 4508   6.105   2.477   0.533 -0.4490 -0.0307 -0.2701
 1501TIP3    H1 4509   6.077   2.559   0.572 -0.8470 -0.1780 -0.2439
 1501TIP3    H2 4510   6.111   2.415   0.606 -4.7343 -1.3281 -0.7612
 1502TIP3   OH2 4511   4.847   4.546   2.793  0.2589  0.2585  0.2987
 1502TIP3    H1 4512   4.828   4.552   2.699  1.5451  0.9184  0.0650
 1502TIP3    H2 4513   4.780   4.600   2.834 -0.7694 -0.6125 -0.1470
 1503TIP3   OH2 4514   5.149   4.527   0.172  0.2990  0.0017 -0.6996
 1503TIP3    H1 4515   5.231   4.539   0.220 -1.0502  1.3804  1.4515
 1503TIP3    H2 4516   5.136   4.432   0.168  1.9164 -0.2232 -0.9903
 1504TIP3   OH2 4517   3.624   1.035   1.626  0.2082  0.0876  0.1119
 1504TIP3    H1 4518   3.625   1.120   1.671 -1.9867  1.6254 -2.4165
 1504TIP3    H2 4519   3.621   1.057   1.533 -3.2578 -2.5862 -0.6342
 1505TIP3   OH2 4520   1.827   2.519   4.689 -0.2873 -0.4050 -0.2071
 1505TIP3    H1 4521   1.900   2.564   4.646 -0.0076 -0.3328  0.3339
 1505TIP3    H2 4522   1.779   2.477   4.617 -0.3004  0.3813 -0.6684
 1506TIP3   OH2 4523   0.770   3.300   0.472  0.4259 -0.4306 -0.4955
 1506TIP3    H1 4524   0.691   3.250   0.492  0.8611 -0.5332  1.1616
 1506TIP3    H2 4525   0.842   3.247   0.507  1.1182  0.2110 -0.9041
 1507TIP3   OH2 4526   1.211   4.352   4.410 -0.0042 -0.3617 -0.4946
 1507TIP3    H1 4527   1.217   4.356   4.506 -1.8035  2.6345 -0.3677
 1507TIP3    H2 4528   1.274   4.417   4.380 -0.9904  0.2813 -1.2095
 1508TIP3   OH2 4529   1.797   4.840   4.042  0.4199 -0.2745 -0.0743
 1508TIP3    H1 4530   1.793   4.861   4.135 -1.0209  1.9352 -0.5867
 1508TIP3    H2 4531   1.708   4.813   4.019  0.3681  0.7015 -1.1123
 1509TIP3   OH2 4532   3.624   1.717   1.439  0.1431  1.5050  0.6049
 1509TIP3    H1 4533   3.652   1.720   1.348  1.3683 -0.0568  0.8926
 1509TIP3    H2 4534   3.598   1.626   1.454  1.7511  1.2667  2.2914
 1510TIP3   OH2 4535   1.435   5.570   4.865  0.3681 -0.2277 -0.0013
 1510TIP3    H1 4536   1.422   5.502   4.799  0.0236  0.7358 -0.9765
 1510TIP3    H2 4537   1.526   5.561   4.891  0.9622  0.2762 -1.7185
 1511TIP3   OH2 4538   3.373   4.702   3.400 -0.5774  0.2735 -0.3148
 1511TIP3    H1 4539   3.316   4.645   3.453  0.2283  1.3838  1.8977
 1511TIP3    H2 4540   3.313   4.765   3.360 -1.1128  0.3505  0.5657
 1512TIP3   OH2 4541   5.954   1.564   1.547 -0.1817  0.2387 -0.0789
 1512TIP3    H1 4542   5.999   1.493   1.593 -1.2611 -0.7392 -0.4757
 1512TIP3    H2 4543   5.895   1.601   1.613  0.3343  0.7354  0.1097
 1513TIP3   OH2 4544   0.932   5.889   1.422 -0.5527 -0.3391  0.7833
 1513TIP3    H1 4545   0.884   5.880   1.340 -0.0842 -1.2293  0.5999
 1513TIP3    H2 4546   1.013   5.841   1.409 -1.2003 -1.9985  2.3171
 1514TIP3   OH2 4547   0.243   4.114   2.823  0.0963 -0.0733 -0.3294
 1514TIP3    H1 4548   0.332   4.089   2.796  0.2580 -1.0829  1.0514
 1514TIP3    H2 4549   0.187   4.080   2.754  0.7463  0.2399 -1.0274
 1515TIP3   OH2 4550   5.184   0.861   1.927  0.3353 -0.9981  0.0015
 1515TIP3    H1 4551   5.249   0.923   1.894 -1.4985  0.3087 -1.3582
 1515TIP3    H2 4552   5.144   0.906   2.001 -2.0473  0.2330 -1.9053
 1516TIP3   OH2 4553   6.174   1.345   2.068  0.1635 -0.4158  0.2238
 1516TIP3    H1 4554   6.102   1.362   2.007 -1.4465  2.0497  2.6012
 1516TIP3    H2 4555   6.136   1.358   2.154  3.4719  1.0529  1.6146
 1517TIP3   OH2 4556   5.214   1.970   2.651  0.1966  0.5889 -0.0735
 1517TIP3    H1 4557   5.250   1.884   2.673  0.8559  0.5997 -1.0498
 1517TIP3    H2 4558   5.255   2.030   2.715  0.5510  0.3309 -0.0524
 1518TIP3   OH2 4559   1.553   3.880   3.348 -0.0618  0.3986  0.2994
 1518TIP3    H1 4560   1.562   3.863   3.254 -0.2691  3.8371 -0.4666
 1518TIP3    H2 4561   1.459   3.868   3.365 -0.0691  0.0419  0.0250
 1519TIP3   OH2 4562   5.702   2.326   3.801  0.1301 -0.0211 -0.6763
 1519TIP3    H1 4563   5.671   2.364   3.720  0.8928  1.1509 -0.4440
 1519TIP3    H2 4564   5.791   2.361   3.812  0.5523 -1.2092 -0.0145
 1520TIP3   OH2 4565   4.119   1.603   0.413 -0.1016 -0.4619  0.0097
 1520TIP3    H1 4566   4.072   1.582   0.494  0.8255 -2.8145  0.0253
 1520TIP3    H2 4567   4.179   1.674   0.438  0.6599 -1.5969  1.6124
 1521TIP3   OH2 4568   4.207   0.008   4.750  0.2369  0.0468 -0.1172
 1521TIP3    H1 4569   4.272   0.077   4.760  1.2974 -0.6865 -1.5590
 1521TIP3    H2 4570   4.236  -0.061   4.811 -0.6112  0.6756  1.0442
 1522TIP3   OH2 4571   0.765   2.653   3.857 -0.3051  0.8669 -0.1960
 1522TIP3    H1 4572   0.713   2.586   3.811  0.2057  0.2280  0.1397
 1522TIP3    H2 4573   0.760   2.730   3.800 -0.0538  0.2247 -1.1031
 1523TIP3   OH2 4574   4.202   2.379   1.040  0.0470  0.2469  0.4421
 1523TIP3    H1 4575   4.237   2.350   0.956 -0.1853  0.8466  0.1337
 1523TIP3    H2 4576   4.108   2.392   1.024 -0.0683 -0.0094  0.8963
 1524TIP3   OH2 4577   5.760   2.079   2.422  0.0220 -0.0628 -0.2927
 1524TIP3    H1 4578   5.807   2.156   2.454 -0.5112  0.7253 -1.3564
 1524TIP3    H2 4579   5.693   2.063   2.489  0.4370  0.1097  0.1688
 1525TIP3   OH2 4580   1.507   1.152   1.748  0.2055  0.8146  0.0091
 1525TIP3    H1 4581   1.598   1.126   1.731  0.7639  1.9742  1.0703
 1525TIP3    H2 4582   1.514   1.229   1.804 -1.4551  0.4475  0.7775
 1526TIP3   OH2 4583   4.332   4.112   0.322 -0.4007 -0.0106 -0.0295
 1526TIP3    H1 4584   4.288   4.029   0.336 -0.8288  0.3713  0.9991
 1526TIP3    H2 4585   4.329   4.156   0.407  0.0903  0.9248 -0.4730
 1527TIP3   OH2 4586   1.367   0.898   2.218  0.0756  0.2368  0.4620
 1527TIP3    H1 4587   1.418   0.817   2.225 -1.3097 -0.6228  0.9625
 1527TIP3    H2 4588   1.390   0.947   2.298  0.6095  0.1764  0.3535
 1528TIP3   OH2 4589   0.752   5.782   5.156 -0.5197  0.3402 -0.2059
 1528TIP3    H1 4590   0.741   5.826   5.071  0.0394 -2.2551 -1.7322
 1528TIP3    H2 4591   0.847   5.767   5.163 -0.8109 -2.4406 -0.8597
 1529TIP3   OH2 4592   0.161   3.932   2.420 -0.0694 -0.1878 -0.3064
 1529TIP3    H1 4593   0.095   3.944   2.488 -1.0951  1.1454 -1.4727
 1529TIP3    H2 4594   0.211   3.855   2.448 -1.3909 -0.5518  1.1902
 1530TIP3   OH2 4595   2.230   1.144   2.679 -0.4143 -0.2654  0.2001
 1530TIP3    H1 4596   2.257   1.059   2.646  0.4342 -0.6997  1.9097
 1530TIP3    H2 4597   2.140   1.131   2.709 -1.2563  0.1794 -1.9849
 1531TIP3   OH2 4598   0.084   0.941   5.047  0.0409  0.2937  0.7885
 1531TIP3    H1 4599   0.148   0.870   5.043  0.3006  0.5544 -1.7115
 1531TIP3    H2 4600   0.134   1.016   5.078  1.2507  0.6739 -1.7823
 1532TIP3   OH2 4601   3.264   5.593   4.424  0.1882 -0.5848 -0.2833
 1532TIP3    H1 4602   3.310   5.590   4.340  0.9131 -0.4156  0.1001
 1532TIP3    H2 4603   3.199   5.523   4.418  0.6237 -0.9606 -0.7630
 1533TIP3   OH2 4604   2.268   4.025   2.627 -0.3824  0.4514  0.3094
 1533TIP3    H1 4605   2.202   3.956   2.632 -2.7304  2.5874  1.5432
 1533TIP3    H2 4606   2.304   4.018   2.539 -0.9826 -1.9103  0.1916
 1534TIP3   OH2 4607   5.001   0.064   4.970 -0.1950 -0.6354 -0.6138
 1534TIP3    H1 4608   4.916   0.037   4.936 -1.4076 -0.1534  1.7660
 1534TIP3    H2 4609   5.019   0.002   5.041  0.4120  0.5035  0.2656
 1535TIP3   OH2 4610   6.252   4.364   3.881 -0.2617  0.6609  0.1537
 1535TIP3    H1 4611   6.216   4.276   3.891 -2.3244  1.2102 -1.6643
 1535TIP3    H2 4612   6.343   4.349   3.853 -0.7032 -0.9099 -0.5814
 1536TIP3   OH2 4613   4.891   4.697   5.008  0.0319 -0.1948  0.0032
 1536TIP3    H1 4614   4.970   4.653   5.039 -0.8286 -0.9575  1.1924
 1536TIP3    H2 4615   4.882   4.774   5.065  0.3111  0.3096 -0.6191
 1537TIP3   OH2 4616   2.718   3.842   4.483 -0.0410 -0.0185 -0.4969
 1537TIP3    H1 4617   2.656   3.824   4.412  0.9814 -1.8462 -0.9890
 1537TIP3    H2 4618   2.781   3.770   4.480 -0.0119 -0.2439  2.3589
 1538TIP3   OH2 4619   2.310   4.005   4.491  0.3336 -0.5392 -0.4863
 1538TIP3    H1 4620   2.272   4.081   4.534 -1.0087 -1.0295 -0.7449
 1538TIP3    H2 4621   2.374   3.971   4.553  0.4184  0.3571 -0.0681
 1539TIP3   OH2 4622   3.400   0.313   1.496 -0.1622 -0.1847 -0.1305
 1539TIP3    H1 4623   3.470   0.321   1.561 -0.3426 -0.6743  0.1328
 1539TIP3    H2 4624   3.410   0.389   1.440 -0.1467  0.3717  0.6119
 1540TIP3   OH2 4625   0.188   2.039   1.207 -0.0181  0.0493  0.0652
 1540TIP3    H1 4626   0.255   1.982   1.246  0.3152  0.9583  0.8583
 1540TIP3    H2 4627   0.170   2.105   1.275  1.1836  2.1953 -1.5984
 1541TIP3   OH2 4628   4.027   3.538   4.751 -0.2743 -0.2653  0.4332
 1541TIP3    H1 4629   4.002   3.612   4.805 -1.3484  0.2769 -0.7339
 1541TIP3    H2 4630   4.027   3.463   4.810  1.6660  0.7494  1.8210
 1542TIP3   OH2 4631   3.369   4.349   1.926 -0.0966  0.6275  0.2839
 1542TIP3    H1 4632   3.399   4.260   1.945  1.2919  1.1050  0.4705
 1542TIP3    H2 4633   3.342   4.383   2.011 -0.0180  0.5989  0.3208
 1543TIP3   OH2 4634   4.475   2.771   4.881 -0.5981 -0.1729 -0.2589
 1543TIP3    H1 4635   4.526   2.853   4.884  0.6446 -0.9243 -0.1703
 1543TIP3    H2 4636   4.431   2.767   4.966  1.9025 -1.1548  1.0794
 1544TIP3   OH2 4637   4.253   5.301   0.221  0.8313 -0.0827  0.5892
 1544TIP3    H1 4638   4.297   5.329   0.142  0.3127 -1.4846 -0.2429
 1544TIP3    H2 4639   4.221   5.381   0.262  0.6165  0.6213 -0.9219
 1545TIP3   OH2 4640   0.144   0.244   3.595 -0.5377 -0.0824 -0.3119
 1545TIP3    H1 4641   0.214   0.226   3.532 -0.7271  0.4832 -0.6869
 1545TIP3    H2 4642   0.176   0.317   3.647 -0.1971 -0.8193  0.5538
 1546TIP3   OH2 4643   1.242   5.722   5.083 -0.2612 -0.2927  0.0310
 1546TIP3    H1 4644   1.210   5.645   5.036  0.7448  0.8849 -2.7730
 1546TIP3    H2 4645   1.337   5.713   5.082  0.0009  1.8286 -2.0854
 1547TIP3   OH2 4646   1.468   0.447   2.554  0.1346 -0.2278 -0.1276
 1547TIP3    H1 4647   1.393   0.429   2.610  0.7407 -1.0672  0.4528
 1547TIP3    H2 4648   1.434   0.441   2.465 -0.0728 -2.8340  0.0584
 1548TIP3   OH2 4649   2.329   0.921   1.921 -0.3846 -0.7641 -0.0253
 1548TIP3    H1 4650   2.256   0.945   1.863 -0.8174 -0.9836  0.4213
 1548TIP3    H2 4651   2.287   0.883   1.998  0.1695 -0.1719  0.5863
 1549TIP3   OH2 4652   1.908   5.112   2.801 -0.4156  0.7277  0.0544
 1549TIP3    H1 4653   1.830   5.066   2.833 -0.5174  0.5763 -0.3963
 1549TIP3    H2 4654   1.874   5.178   2.741 -0.2193  0.8743  0.1055
 1550TIP3   OH2 4655   4.410   0.468   2.921 -0.0809  0.2022 -0.1196
 1550TIP3    H1 4656   4.495   0.457   2.878  0.3143  2.2027  0.0386
 1550TIP3    H2 4657   4.349   0.420   2.866  0.8843  0.2233 -1.2470
 1551TIP3   OH2 4658   6.076   2.831   2.560 -0.3487 -0.1143 -0.4994
 1551TIP3    H1 4659   6.124   2.795   2.634  1.0610 -0.2358 -1.4250
 1551TIP3    H2 4660   6.028   2.757   2.523  0.4065 -0.4810 -0.7803
 1552TIP3   OH2 4661   2.039   4.187   4.114 -0.1614  0.0886  0.6158
 1552TIP3    H1 4662   2.065   4.096   4.128 -1.2366 -0.1801  0.9629
 1552TIP3    H2 4663   1.953   4.194   4.154 -2.8400 -0.3091 -4.2604
 1553TIP3   OH2 4664   2.988   0.538   3.369  0.6540  0.1490  0.0817
 1553TIP3    H1 4665   2.961   0.478   3.299 -0.5393  0.0256  0.6236
 1553TIP3    H2 4666   2.974   0.625   3.331  2.3737  0.1147 -0.6996
 1554TIP3   OH2 4667   5.983   5.856   4.168  0.4585 -0.3185  0.0599
 1554TIP3    H1 4668   5.991   5.939   4.215  0.2101 -1.5837  2.5177
 1554TIP3    H2 4669   5.929   5.802   4.225 -1.1019 -1.5550 -2.4228
 1555TIP3   OH2 4670   5.033   0.869   4.637  0.2790  0.0164  0.0903
 1555TIP3    H1 4671   5.087   0.937   4.676  1.2596 -1.3610  1.2630
 1555TIP3    H2 4672   4.989   0.912   4.564  1.8231  1.5803  0.0022
 1556TIP3   OH2 4673   4.020   2.441   3.073  0.3445 -0.1698  0.0361
 1556TIP3    H1 4674   4.087   2.508   3.063 -0.7719  0.9712 -0.0366
 1556TIP3    H2 4675   4.060   2.376   3.131  0.7813  1.5346  1.7658
 1557TIP3   OH2 4676   5.796   4.059   3.844 -0.2255  0.5386  0.0805
 1557TIP3    H1 4677   5.848   4.135   3.867 -1.2887  0.4330  3.3198
 1557TIP3    H2 4678   5.745   4.040   3.923  0.4262 -3.9052 -0.3387
 1558TIP3   OH2 4679   3.420   5.633   3.102  0.1649  0.3479  0.2536
 1558TIP3    H1 4680   3.373   5.674   3.175  0.4138  1.8440 -0.3937
 1558TIP3    H2 4681   3.455   5.553   3.138  0.4154  1.1374  1.8338
 1559TIP3   OH2 4682   2.218   0.262   5.046 -0.2933  0.6414  0.2294
 1559TIP3    H1 4683   2.179   0.251   5.133 -1.4353  1.1195 -0.1883
 1559TIP3    H2 4684   2.142   0.265   4.987  0.4954 -0.4730 -0.8788
 1560TIP3   OH2 4685   0.138   4.463   3.619  0.1379  0.0072  0.1332
 1560TIP3    H1 4686   0.201   4.414   3.672  1.0383  1.0171  0.0295
 1560TIP3    H2 4687   0.188   4.536   3.584 -0.3480 -0.7361 -2.3303
 1561TIP3   OH2 4688   2.378   4.927   5.159  0.4129 -0.1220 -0.4530
 1561TIP3    H1 4689   2.473   4.923   5.153  0.6448 -0.3475  2.1068
 1561TIP3    H2 4690   2.359   5.018   5.182 -0.1807  0.3363 -2.5291
 1562TIP3   OH2 4691   5.255   2.135   2.856  0.5108 -0.0463  0.0323
 1562TIP3    H1 4692   5.250   2.102   2.946  0.2132 -0.6887 -0.2148
 1562TIP3    H2 4693   5.311   2.213   2.862  0.5560 -0.1282  0.7586
 1563TIP3   OH2 4694   3.140   2.516   4.863 -0.2367  0.1614  0.1265
 1563TIP3    H1 4695   3.174   2.575   4.796 -0.9829  0.4169 -0.0391
 1563TIP3    H2 4696   3.211   2.508   4.926 -0.5696  2.3603  0.8869
 1564TIP3   OH2 4697   4.563   3.245   0.233  0.3283  0.0900 -0.2683
 1564TIP3    H1 4698   4.619   3.262   0.308 -0.1354 -0.3803  0.1932
 1564TIP3    H2 4699   4.518   3.164   0.255  2.0039 -1.4509 -2.1048
 1565TIP3   OH2 4700   1.076   1.244   3.163 -0.9135 -0.2291 -0.4525
 1565TIP3    H1 4701   1.118   1.215   3.083 -1.7755 -1.7780 -0.3837
 1565TIP3    H2 4702   1.028   1.168   3.194 -1.8184  0.7776  0.7397
 1566TIP3   OH2 4703   1.038   0.605   4.716 -0.3402 -0.5877 -0.9795
 1566TIP3    H1 4704   0.984   0.527   4.727  1.6949 -1.9419  0.2787
 1566TIP3    H2 4705   1.123   0.571   4.686  0.6826  1.0850 -0.1200
 1567TIP3   OH2 4706   0.299   2.086   2.329  0.2969  0.8552 -0.0403
 1567TIP3    H1 4707   0.209   2.101   2.303  0.2639  0.4208 -0.1775
 1567TIP3    H2 4708   0.345   2.068   2.247  0.5411  1.2278  0.0102
 1568TIP3   OH2 4709   6.275   2.091   3.986 -0.2885 -0.1940 -0.2874
 1568TIP3    H1 4710   6.240   2.165   3.936  0.9883  0.6429  0.0081
 1568TIP3    H2 4711   6.212   2.077   4.056 -0.0809  1.2731  0.2306
 1569TIP3   OH2 4712   1.767   2.580   0.951 -0.0348  0.0510  0.3393
 1569TIP3    H1 4713   1.831   2.635   0.907 -1.7678  0.1769 -2.3140
 1569TIP3    H2 4714   1.712   2.641   1.000 -1.3251  0.6906 -1.7644
 1570TIP3   OH2 4715   2.055   1.818   2.972  0.6484 -0.6423  0.0742
 1570TIP3    H1 4716   2.090   1.744   3.021 -2.5034 -2.3883 -0.0181
 1570TIP3    H2 4717   2.041   1.784   2.884  3.1076  1.4644 -1.2598
 1571TIP3   OH2 4718   1.499   5.843   2.532  0.6179  0.3923  0.1647
 1571TIP3    H1 4719   1.588   5.879   2.527  1.0401 -0.7134 -0.7277
 1571TIP3    H2 4720   1.459   5.866   2.449 -0.2520  1.6195  0.8918
 1572TIP3   OH2 4721   6.198   2.892   0.494  0.3752  0.1190 -0.5843
 1572TIP3    H1 4722   6.185   2.978   0.534 -1.2454 -0.7666  0.9568
 1572TIP3    H2 4723   6.145   2.833   0.547  1.5718 -1.8805 -1.5072
 1573TIP3   OH2 4724   0.166   1.545  -0.013 -0.0657  0.2926 -0.1987
 1573TIP3    H1 4725   0.101   1.615  -0.006  0.0584  0.5441 -1.4259
 1573TIP3    H2 4726   0.223   1.559   0.062 -0.2194  1.3293 -0.2557
 1574TIP3   OH2 4727   3.397   3.441   0.676 -0.1360  0.3232  0.1080
 1574TIP3    H1 4728   3.425   3.409   0.590 -0.0596  0.7247 -0.0189
 1574TIP3    H2 4729   3.412   3.368   0.735 -0.1499  0.0567 -0.2138
 1575TIP3   OH2 4730   5.821   3.854   2.644 -0.0091  0.3963  0.1633
 1575TIP3    H1 4731   5.836   3.762   2.663  0.3600  0.8450  2.3501
 1575TIP3    H2 4732   5.908   3.890   2.626 -0.0492  0.4651  0.1068
 1576TIP3   OH2 4733   4.197   2.218   2.924 -0.1590  0.0936  0.1402
 1576TIP3    H1 4734   4.206   2.240   3.017 -1.9825  0.1795  0.3236
 1576TIP3    H2 4735   4.155   2.132   2.924 -1.7097  0.8142 -0.5740
 1577TIP3   OH2 4736   2.960   3.023   4.204 -0.3765 -0.0434  0.2406
 1577TIP3    H1 4737   2.920   3.110   4.214  1.5149  0.9574 -0.3508
 1577TIP3    H2 4738   2.931   2.994   4.117 -2.7007 -0.9969  1.2528
 1578TIP3   OH2 4739   4.422   5.601   1.545 -0.1650  0.1435 -0.2447
 1578TIP3    H1 4740   4.425   5.508   1.569  0.3841  0.7177  2.2101
 1578TIP3    H2 4741   4.514   5.626   1.536 -0.3230  0.0177 -3.1339
 1579TIP3   OH2 4742   5.397   0.752   1.128 -0.0609 -0.0987  0.7237
 1579TIP3    H1 4743   5.347   0.721   1.203 -1.3788 -1.0418 -0.4916
 1579TIP3    H2 4744   5.332   0.763   1.058  0.7613  2.7599  0.2573
 1580TIP3   OH2 4745   3.771   3.504   0.280  0.2304 -0.1421  0.3034
 1580TIP3    H1 4746   3.758   3.498   0.374  0.1720 -1.7196  0.2120
 1580TIP3    H2 4747   3.738   3.591   0.257  2.3014  1.2155  2.0371
 1581TIP3   OH2 4748   0.979   2.198   1.662  0.1748  0.3107  0.1732
 1581TIP3    H1 4749   0.954   2.290   1.674  1.4969  0.9642 -1.5633
 1581TIP3    H2 4750   0.905   2.159   1.615 -0.7651  0.2284  1.6698
 1582TIP3   OH2 4751   3.175   2.838   2.838  0.1067  0.0501 -0.0986
 1582TIP3    H1 4752   3.267   2.834   2.862 -0.1540 -0.2380  0.9143
 1582TIP3    H2 4753   3.172   2.806   2.748  1.0572  0.6130 -0.3431
 1583TIP3   OH2 4754   5.634   2.080   2.169  0.1423 -0.2251  0.1227
 1583TIP3    H1 4755   5.612   1.996   2.128 -1.6873  0.7521 -0.9947
 1583TIP3    H2 4756   5.665   2.055   2.256 -0.3166 -2.0777 -0.1839
 1584TIP3   OH2 4757   4.088   1.885   0.845 -0.0397 -0.0900 -0.0757
 1584TIP3    H1 4758   4.013   1.931   0.809 -0.4879  0.0740  1.0287
 1584TIP3    H2 4759   4.058   1.795   0.857 -0.2515  0.0991  0.8792
 1585TIP3   OH2 4760   5.384   1.293   1.439 -0.0010 -0.1559 -0.2641
 1585TIP3    H1 4761   5.419   1.369   1.486  1.2113 -0.2273 -1.0028
 1585TIP3    H2 4762   5.399   1.313   1.346  2.7772 -2.3345 -0.4451
 1586TIP3   OH2 4763   0.544   1.491   4.078  0.9236 -0.2621  0.3196
 1586TIP3    H1 4764   0.500   1.483   3.993  1.4087  2.9520 -0.3669
 1586TIP3    H2 4765   0.473   1.483   4.142  0.0729  0.1758 -0.5421
 1587TIP3   OH2 4766   4.324   0.589   4.825  0.8893 -0.3722  0.3239
 1587TIP3    H1 4767   4.241   0.617   4.787  0.9916  0.8743  0.9671
 1587TIP3    H2 4768   4.315   0.494   4.836 -0.1108 -0.3744 -0.4077
 1588TIP3   OH2 4769   0.345   0.842   4.786 -0.0747  0.0957 -0.5078
 1588TIP3    H1 4770   0.428   0.816   4.746 -0.1645  1.1630 -1.4646
 1588TIP3    H2 4771   0.369   0.906   4.852 -0.1030  0.0940 -0.4957
 1589TIP3   OH2 4772   1.869   0.844   0.920 -0.1452  0.0837 -0.1496
 1589TIP3    H1 4773   1.855   0.843   1.015  0.1659  1.1724 -0.0844
 1589TIP3    H2 4774   1.780   0.849   0.884 -0.2197  3.6605  0.1995
 1590TIP3   OH2 4775   5.387   5.781   4.457  0.1479  0.2061 -0.1462
 1590TIP3    H1 4776   5.307   5.751   4.500 -0.5226  1.4622 -0.4677
 1590TIP3    H2 4777   5.359   5.857   4.406  1.3569  0.0522 -1.0611
 1591TIP3   OH2 4778   0.984   4.940   4.916  0.1030  0.7571  0.4189
 1591TIP3    H1 4779   1.011   4.926   5.007 -1.0527 -1.8679  0.4229
 1591TIP3    H2 4780   0.899   4.983   4.923 -0.0692  0.3913  0.5728
 1592TIP3   OH2 4781   3.606   0.682   0.587 -0.1496 -0.0830 -0.1782
 1592TIP3    H1 4782   3.563   0.611   0.635 -2.3257  0.9005 -0.5512
 1592TIP3    H2 4783   3.696   0.651   0.575 -0.9060 -2.6152 -0.0233
 1593TIP3   OH2 4784   4.808   1.162   3.206  0.0892 -0.8272 -0.2079
 1593TIP3    H1 4785   4.753   1.085   3.217 -1.3294 -0.1539 -2.0710
 1593TIP3    H2 4786   4.769   1.209   3.132  3.4316 -0.5389 -1.9526
 1594TIP3   OH2 4787   5.431   1.322   1.158  0.0313 -0.7024 -0.2908
 1594TIP3    H1 4788   5.478   1.381   1.099 -0.4032  1.5424  1.4768
 1594TIP3    H2 4789   5.339   1.346   1.147  0.0142  0.7525  2.1377
 1595TIP3   OH2 4790   2.795   0.678   1.488 -0.4311  0.2742  0.3161
 1595TIP3    H1 4791   2.782   0.614   1.418 -0.1923  1.5439 -0.9496
 1595TIP3    H2 4792   2.717   0.671   1.542 -0.5541 -0.8399  0.0109
 1596TIP3   OH2 4793   0.849   3.541   0.583 -0.6739  0.4856 -0.2265
 1596TIP3    H1 4794   0.889   3.492   0.655  0.7646  1.1715 -0.5301
 1596TIP3    H2 4795   0.795   3.476   0.538  1.5952 -1.0461 -0.9335
 1597TIP3   OH2 4796   2.405   3.615   4.588 -0.0666  0.5398 -0.4967
 1597TIP3    H1 4797   2.492   3.581   4.611 -0.9007 -1.7189 -0.4640
 1597TIP3    H2 4798   2.361   3.627   4.673 -0.1918  0.5756 -0.5663
 1598TIP3   OH2 4799   5.198   3.781   2.635 -0.5659 -0.3896 -0.2108
 1598TIP3    H1 4800   5.228   3.691   2.624 -0.7022 -0.4012 -0.5149
 1598TIP3    H2 4801   5.210   3.800   2.728 -1.4922 -1.0681  0.0562
 1599TIP3   OH2 4802   2.904   0.215   0.706 -0.0547  0.2668 -0.0374
 1599TIP3    H1 4803   2.971   0.230   0.639  0.4419  2.0201  0.8049
 1599TIP3    H2 4804   2.922   0.127   0.739 -0.3042 -0.6460 -2.1651
 1600TIP3   OH2 4805   0.660   4.503   4.125 -0.0871  0.3852  0.3329
 1600TIP3    H1 4806   0.694   4.554   4.052  1.7159  0.3511  1.1051
 1600TIP3    H2 4807   0.627   4.569   4.187 -0.0608  0.4939  0.2322
 1601TIP3   OH2 4808   1.370   4.208   0.672  0.0512  0.2881 -0.6685
 1601TIP3    H1 4809   1.305   4.193   0.603 -0.4262  0.8181 -0.3430
 1601TIP3    H2 4810   1.432   4.136   0.663 -1.9615 -1.7459  0.6460
 1602TIP3   OH2 4811   3.141   4.803   0.296 -0.4095 -0.5130  0.0608
 1602TIP3    H1 4812   3.112   4.725   0.342 -0.6853  0.0190  0.8180
 1602TIP3    H2 4813   3.236   4.801   0.302 -0.4147 -0.8117  0.0381
 1603TIP3   OH2 4814   5.270   1.743   0.893 -0.3521  0.5172 -0.1822
 1603TIP3    H1 4815   5.311   1.769   0.810 -0.4296  0.9507 -0.0904
 1603TIP3    H2 4816   5.332   1.772   0.960 -0.3228  0.2319 -0.0870
 1604TIP3   OH2 4817   4.432   0.466   4.444 -0.3426  0.4868  0.6337
 1604TIP3    H1 4818   4.411   0.500   4.531 -0.2856 -0.4006  1.0033
 1604TIP3    H2 4819   4.347   0.443   4.406 -0.6579  3.2562 -0.6077
 1605TIP3   OH2 4820   0.956   0.870   0.800  0.0181 -0.2859  0.6383
 1605TIP3    H1 4821   0.934   0.878   0.893  0.1645  0.2971  0.6298
 1605TIP3    H2 4822   0.882   0.911   0.755  0.8920  1.3536  0.5943
 1606TIP3   OH2 4823   5.570   4.267   1.496 -0.1600 -0.7611 -0.2984
 1606TIP3    H1 4824   5.479   4.278   1.523  0.0485  2.1056 -0.4827
 1606TIP3    H2 4825   5.572   4.296   1.405  1.1820  0.8223  0.1854
 1607TIP3   OH2 4826   2.603   0.244   3.716  0.2932  0.2767 -0.4290
 1607TIP3    H1 4827   2.694   0.270   3.701 -0.2701  2.4643 -0.4758
 1607TIP3    H2 4828   2.574   0.210   3.631  0.9333 -0.0458 -0.5256
 1608TIP3   OH2 4829   0.980   0.203   0.863 -0.3929  0.0016 -0.5270
 1608TIP3    H1 4830   0.921   0.177   0.934 -1.1220 -1.3389 -1.5548
 1608TIP3    H2 4831   0.993   0.122   0.813  2.9601  0.0177  0.0484
 1609TIP3   OH2 4832   3.750   4.481   2.425 -0.5435 -0.3482 -0.7408
 1609TIP3    H1 4833   3.762   4.389   2.399  2.1391 -0.3962  0.3387
 1609TIP3    H2 4834   3.670   4.480   2.478 -0.1091 -2.2864  0.0039
 1610TIP3   OH2 4835   0.109   5.106   4.682  0.0072  0.2424 -0.1871
 1610TIP3    H1 4836   0.191   5.061   4.704 -0.0566  0.2988  0.1722
 1610TIP3    H2 4837   0.042   5.038   4.691 -0.0273  0.2825 -0.1427
 1611TIP3   OH2 4838   4.739   1.484   4.575 -0.2557 -0.1220 -0.2916
 1611TIP3    H1 4839   4.715   1.412   4.517 -0.4999 -1.9696  1.9527
 1611TIP3    H2 4840   4.697   1.462   4.659  0.2337  2.3045  0.6681
 1612TIP3   OH2 4841   1.381   4.596   2.573  0.2108 -0.0684  0.1294
 1612TIP3    H1 4842   1.297   4.559   2.544 -0.1397  0.0492  0.9594
 1612TIP3    H2 4843   1.444   4.526   2.559  0.2189  0.2411 -1.6366
 1613TIP3   OH2 4844   4.642   4.639   1.817  0.8475  0.4325  0.3135
 1613TIP3    H1 4845   4.705   4.663   1.748 -0.6308  0.0149 -1.2358
 1613TIP3    H2 4846   4.595   4.564   1.782 -1.5255  1.6038  0.7670
 1614TIP3   OH2 4847   1.787   3.873   0.752  0.1260 -0.4718  0.2420
 1614TIP3    H1 4848   1.866   3.823   0.732  1.1608  0.3762  2.0069
 1614TIP3    H2 4849   1.730   3.811   0.798 -0.6758 -1.3285 -1.7521
 1615TIP3   OH2 4850   5.444   4.841   2.642  0.1778  0.2284  0.2026
 1615TIP3    H1 4851   5.469   4.933   2.632  0.4992  0.2019  0.7257
 1615TIP3    H2 4852   5.459   4.803   2.555  2.2509  0.1621  0.5218
 1616TIP3   OH2 4853   2.418   1.010   3.410 -0.0800  0.0548 -0.2111
 1616TIP3    H1 4854   2.359   1.085   3.406 -0.7078 -0.4720 -1.3820
 1616TIP3    H2 4855   2.493   1.035   3.356 -0.1186 -0.0325 -0.3034
 1617TIP3   OH2 4856   1.913  -0.005   2.671  0.2579 -0.1364  0.5985
 1617TIP3    H1 4857   1.899   0.090   2.670  1.5635  0.0660  0.3579
 1617TIP3    H2 4858   1.826  -0.042   2.659  0.0119  1.0599 -1.7558
 1618TIP3   OH2 4859   5.341   4.998   0.350 -0.1917 -0.3856 -0.6656
 1618TIP3    H1 4860   5.293   5.078   0.329 -1.0849 -1.3075 -2.4063
 1618TIP3    H2 4861   5.422   5.028   0.390 -2.4672  1.2668  3.2653
 1619TIP3   OH2 4862   3.520   1.278   1.169  0.0411  0.0987  0.5436
 1619TIP3    H1 4863   3.512   1.368   1.137  0.0730 -0.3700 -0.8172
 1619TIP3    H2 4864   3.480   1.224   1.101  0.0962 -0.9356  1.3064
 1620TIP3   OH2 4865   5.327   0.861   2.714  0.3895  0.9139  0.4295
 1620TIP3    H1 4866   5.389   0.934   2.706  0.0459  1.1366 -0.3444
 1620TIP3    H2 4867   5.275   0.865   2.634  1.7296 -1.4781 -0.6736
 1621TIP3   OH2 4868   2.155   3.889   1.106  0.4421 -0.3572  0.4612
 1621TIP3    H1 4869   2.239   3.916   1.068 -0.5197 -0.8954 -2.2391
 1621TIP3    H2 4870   2.152   3.794   1.093 -0.6358 -0.3283  0.4080
 1622TIP3   OH2 4871   1.772   5.955   2.536  0.6441 -0.1616  0.3625
 1622TIP3    H1 4872   1.855   5.924   2.500  0.2847  0.1449 -0.7805
 1622TIP3    H2 4873   1.745   6.025   2.477  0.1049  0.4931  1.3448
 1623TIP3   OH2 4874   5.262   5.702   1.838  0.3699 -0.1171  0.0128
 1623TIP3    H1 4875   5.212   5.629   1.876 -0.4626  0.0332 -0.7595
 1623TIP3    H2 4876   5.217   5.781   1.868  0.9092  0.0588  0.3555
 1624TIP3   OH2 4877   1.046   1.903   2.208  0.1586  0.2582  0.7408
 1624TIP3    H1 4878   1.026   1.967   2.275  1.1317  1.9707 -0.5324
 1624TIP3    H2 4879   1.127   1.861   2.237  0.6286  1.0601  0.6173
 1625TIP3   OH2 4880   2.502   3.915   4.672  0.0871 -1.0814  0.0386
 1625TIP3    H1 4881   2.489   3.882   4.761 -0.3856  0.7559  0.7049
 1625TIP3    H2 4882   2.579   3.869   4.640  0.0189 -2.0896  1.2452
 1626TIP3   OH2 4883   2.336   5.930   1.162  0.4443  0.4817  0.3673
 1626TIP3    H1 4884   2.407   5.866   1.167  0.2103  0.3128  2.8252
 1626TIP3    H2 4885   2.358   5.984   1.086  1.4391 -1.5640 -0.8645
 1627TIP3   OH2 4886   4.452   1.989   2.099  0.2631  0.4117  0.7130
 1627TIP3    H1 4887   4.485   1.905   2.128 -1.1260  0.0565  1.3555
 1627TIP3    H2 4888   4.499   2.007   2.017  1.9791 -0.0330  1.5729
 1628TIP3   OH2 4889   3.181   4.637   4.317  0.0048 -0.5277  0.4918
 1628TIP3    H1 4890   3.197   4.548   4.286  1.4438 -0.3195  0.5811
 1628TIP3    H2 4891   3.088   4.653   4.298  0.0007 -1.6431 -0.5158
 1629TIP3   OH2 4892   1.305   0.024   2.996  0.5655 -0.2995  0.5465
 1629TIP3    H1 4893   1.267   0.052   2.912 -0.2632 -0.0613  0.9925
 1629TIP3    H2 4894   1.324  -0.069   2.983  1.5457  0.0046 -0.3009
 1630TIP3   OH2 4895   1.773   4.107   0.889  0.3891 -0.4694 -0.2649
 1630TIP3    H1 4896   1.769   4.031   0.830 -0.2352  0.9335 -2.1360
 1630TIP3    H2 4897   1.865   4.113   0.915  0.1735 -2.8325  1.3450
 1631TIP3   OH2 4898   5.401   5.613   5.195 -0.0015 -0.1748  0.3694
 1631TIP3    H1 4899   5.382   5.533   5.244  1.2977 -0.3655  0.5942
 1631TIP3    H2 4900   5.406   5.586   5.104 -1.2577 -0.0251  0.2347
 1632TIP3   OH2 4901   3.467   2.601   2.523 -0.1573  0.4601 -0.3691
 1632TIP3    H1 4902   3.417   2.558   2.453 -0.5399 -0.7624  0.6267
 1632TIP3    H2 4903   3.555   2.611   2.485 -0.6784  1.0497 -1.4954
 1633TIP3   OH2 4904   3.021   1.600   2.333 -0.1934  0.2656  0.2716
 1633TIP3    H1 4905   3.064   1.668   2.281  0.0610 -1.6975 -2.2604
 1633TIP3    H2 4906   2.929   1.627   2.335  0.3235  2.1897  1.9585
 1634TIP3   OH2 4907   4.598   5.657   2.827 -0.5356 -0.6939  0.3335
 1634TIP3    H1 4908   4.656   5.586   2.798  1.1975  0.5498  0.5771
 1634TIP3    H2 4909   4.609   5.725   2.760 -1.5028 -0.3191  0.5483
 1635TIP3   OH2 4910   4.736   4.505   3.878  0.2836 -0.0841 -0.0510
 1635TIP3    H1 4911   4.642   4.518   3.888  0.2733 -0.1074 -0.1170
 1635TIP3    H2 4912   4.753   4.419   3.917  0.5706  0.6917  1.6318
 1636TIP3   OH2 4913   2.031   1.840   3.582  0.0190 -0.4878  0.0039
 1636TIP3    H1 4914   2.112   1.884   3.610  0.2814 -1.9423  1.6750
 1636TIP3    H2 4915   1.993   1.804   3.662 -2.1631 -0.1058 -0.7890
 1637TIP3   OH2 4916   5.401   5.932   3.497 -0.1106 -0.1555 -0.3319
 1637TIP3    H1 4917   5.362   6.013   3.463  0.2707 -0.4336 -1.4566
 1637TIP3    H2 4918   5.326   5.881   3.527 -0.3036  0.9682  1.2678
 1638TIP3   OH2 4919   0.387   5.221   1.104 -0.7690 -0.4437  0.1372
 1638TIP3    H1 4920   0.421   5.310   1.117  0.6007 -1.1442  1.7770
 1638TIP3    H2 4921   0.465   5.167   1.094 -1.4476 -1.8094  1.7515
 1639TIP3   OH2 4922   4.128   2.752   1.283  0.5554 -0.5038 -0.1214
 1639TIP3    H1 4923   4.177   2.673   1.258  0.9766  0.0749 -1.1791
 1639TIP3    H2 4924   4.037   2.728   1.269  0.7379 -0.4370 -1.6145
 1640TIP3   OH2 4925   6.126   5.006   2.365  0.3958  0.1243 -0.2065
 1640TIP3    H1 4926   6.144   4.965   2.450 -0.0465 -1.2381 -0.7424
 1640TIP3    H2 4927   6.117   5.099   2.385 -0.7375 -0.2778  1.4238
 1641TIP3   OH2 4928   0.883   4.532   3.226 -0.3309 -0.3082 -0.1758
 1641TIP3    H1 4929   0.944   4.602   3.208  0.0100 -0.9806 -1.8114
 1641TIP3    H2 4930   0.909   4.498   3.312 -0.1502  1.1537  0.3670
 1642TIP3   OH2 4931   6.274   5.708   3.766 -0.1019  0.1852  0.1270
 1642TIP3    H1 4932   6.245   5.749   3.847  0.2827  0.7523 -0.0160
 1642TIP3    H2 4933   6.230   5.757   3.697  0.5756  0.5404 -0.0591
 1643TIP3   OH2 4934   5.622   0.305   1.367 -0.3945  0.6177  0.1569
 1643TIP3    H1 4935   5.703   0.344   1.334 -0.8172 -0.6172 -2.5926
 1643TIP3    H2 4936   5.613   0.222   1.320 -2.7611  0.2207  1.1258
 1644TIP3   OH2 4937   0.889   1.092   0.067 -0.3059 -0.5785  0.5963
 1644TIP3    H1 4938   0.925   1.052  -0.013 -1.3793  1.1649 -0.8498
 1644TIP3    H2 4939   0.795   1.094   0.051 -0.3946  1.3756  1.0985
 1645TIP3   OH2 4940   5.078   2.906   3.041 -0.0681 -0.0606  0.2925
 1645TIP3    H1 4941   5.008   2.845   3.015  0.3693 -0.3984 -0.1101
 1645TIP3    H2 4942   5.158   2.865   3.008  0.5893 -0.7406  2.5562
 1646TIP3   OH2 4943   5.482   3.762   2.978 -0.5122  0.1008 -0.1870
 1646TIP3    H1 4944   5.547   3.761   2.908 -0.6586 -0.7588 -0.3211
 1646TIP3    H2 4945   5.410   3.814   2.943  0.6887  2.4187  0.5436
 1647TIP3   OH2 4946   3.631   3.084   1.477  0.1020  0.0303 -0.6730
 1647TIP3    H1 4947   3.559   3.116   1.531  0.0218  0.3906 -0.9942
 1647TIP3    H2 4948   3.614   2.990   1.468  0.6354 -0.2336  0.7343
 1648TIP3   OH2 4949   2.028   5.909   3.330  0.7276 -0.4309 -0.0456
 1648TIP3    H1 4950   2.089   5.966   3.283 -0.3736 -0.4639 -1.5774
 1648TIP3    H2 4951   2.037   5.823   3.288 -0.1554 -0.5052 -0.1043
 1649TIP3   OH2 4952   2.549   3.232   3.716 -0.0098  0.5214 -0.2152
 1649TIP3    H1 4953   2.600   3.151   3.722 -4.1539 -2.4165 -0.6128
 1649TIP3    H2 4954   2.546   3.251   3.622 -1.8435 -1.0116 -0.5247
 1650TIP3   OH2 4955   5.377   2.184   2.190 -0.2909  0.1515  0.1012
 1650TIP3    H1 4956   5.381   2.224   2.277  1.2913 -0.6584  0.4342
 1650TIP3    H2 4957   5.468   2.170   2.166 -0.6274  1.5191 -2.2601
 1651TIP3   OH2 4958   5.629   4.187   3.101  0.4758 -0.0507 -0.3998
 1651TIP3    H1 4959   5.636   4.183   3.006  0.5306  0.2486 -0.4111
 1651TIP3    H2 4960   5.617   4.280   3.120 -2.4279 -0.3546 -0.2910
 1652TIP3   OH2 4961   6.198   0.798   4.884  0.4279  0.2160 -0.1156
 1652TIP3    H1 4962   6.195   0.707   4.853  1.5000  0.1613 -0.1071
 1652TIP3    H2 4963   6.248   0.794   4.966 -0.3928  0.6816  0.4218
 1653TIP3   OH2 4964   3.376   5.176   1.285 -0.5475  0.0319 -0.2627
 1653TIP3    H1 4965   3.450   5.222   1.245 -0.2878  0.3448  0.5619
 1653TIP3    H2 4966   3.299   5.224   1.255 -0.3901 -0.0234 -0.7652
 1654TIP3   OH2 4967   2.925   2.635   4.542  0.0525 -0.1630  0.4194
 1654TIP3    H1 4968   2.945   2.644   4.635  1.5348 -1.4811  0.2542
 1654TIP3    H2 4969   2.938   2.723   4.506  0.0663  0.2172  1.3436
 1655TIP3   OH2 4970   5.750   2.478   0.459 -0.0421  0.0754 -0.3547
 1655TIP3    H1 4971   5.799   2.396   0.469  0.2965  0.3949  0.7008
 1655TIP3    H2 4972   5.816   2.542   0.433 -0.7584 -0.5567 -4.3920
 1656TIP3   OH2 4973   5.448   3.914   1.173  0.5096 -0.3826  0.3398
 1656TIP3    H1 4974   5.460   3.828   1.131 -0.3631  0.0267 -0.8043
 1656TIP3    H2 4975   5.532   3.957   1.164  0.8356 -0.9591  0.5609
 1657TIP3   OH2 4976   4.690   5.373   2.437  0.0001  0.0025  0.6645
 1657TIP3    H1 4977   4.672   5.381   2.531  0.8195 -1.4558  0.9725
 1657TIP3    H2 4978   4.613   5.328   2.401 -0.3781  0.6894  0.5997
 1658TIP3   OH2 4979   0.362   1.823   1.651  0.1059  0.0252  0.2962
 1658TIP3    H1 4980   0.409   1.894   1.695 -1.2012  0.5936  0.8355
 1658TIP3    H2 4981   0.412   1.744   1.672  0.6025  0.5512  1.1464
 1659TIP3   OH2 4982   5.496   2.941   0.913  0.2277  0.7944  0.3183
 1659TIP3    H1 4983   5.491   3.029   0.873 -0.7451  0.4098 -0.4584
 1659TIP3    H2 4984   5.471   2.955   1.004 -2.7090  0.9911 -0.3916
 1660TIP3   OH2 4985   3.364   5.309   3.451  0.1073 -0.2021  0.0830
 1660TIP3    H1 4986   3.385   5.310   3.357  3.5226  1.5983  0.7030
 1660TIP3    H2 4987   3.333   5.220   3.468  1.4478 -1.2501 -2.3957
 1661TIP3   OH2 4988   3.699   1.720   2.682  0.1541  0.2669  0.1092
 1661TIP3    H1 4989   3.663   1.775   2.612  0.9983 -0.5497 -1.0151
 1661TIP3    H2 4990   3.715   1.781   2.754  1.6919  1.6846 -1.3191
 1662TIP3   OH2 4991   6.205   2.681   1.129 -0.9069  0.0272 -0.0700
 1662TIP3    H1 4992   6.178   2.762   1.085  1.0128 -0.0818 -1.5608
 1662TIP3    H2 4993   6.134   2.620   1.113 -2.1304  1.2065  0.5923
 1663TIP3   OH2 4994   5.993   1.917   2.069  0.0990 -0.5465 -0.8832
 1663TIP3    H1 4995   6.087   1.923   2.086 -0.0261  0.9217 -0.5494
 1663TIP3    H2 4996   5.953   1.907   2.155 -0.2128  1.9081 -0.6798
 1664TIP3   OH2 4997   1.107   0.351   1.991  0.3055  0.3168 -0.8188
 1664TIP3    H1 4998   1.038   0.303   2.038 -1.5497  2.2762 -1.3975
 1664TIP3    H2 4999   1.167   0.379   2.059 -1.4113  1.6141  0.2332
 1665TIP3   OH2 5000   0.397   0.734   5.211  0.1826 -1.0007 -0.0086
 1665TIP3    H1 5001   0.329   0.709   5.148 -1.4134  1.0466  0.7856
 1665TIP3    H2 5002   0.456   0.792   5.162 -1.8643  1.7772  0.5818
 1666TIP3   OH2 5003   5.626   0.723   3.963 -0.1986 -0.3451 -0.0489
 1666TIP3    H1 5004   5.604   0.789   4.029  0.8683 -0.8969  0.8973
 1666TIP3    H2 5005   5.558   0.732   3.897  0.0897  1.9194 -0.1266
 1667TIP3   OH2 5006   3.232   5.033   4.940 -0.5185  0.4570 -0.2980
 1667TIP3    H1 5007   3.268   5.093   4.875  0.8106  1.1812  1.0473
 1667TIP3    H2 5008   3.246   4.946   4.903  1.6606  0.7709 -0.3158
 1668TIP3   OH2 5009   2.944   4.384   4.935  0.0316  0.4595 -0.0400
 1668TIP3    H1 5010   2.968   4.296   4.906 -0.2891 -0.0728  1.2520
 1668TIP3    H2 5011   2.849   4.385   4.933  0.0452  1.3396 -1.6037
 1669TIP3   OH2 5012   0.519   0.067   0.273 -0.5434 -0.3811 -0.5882
 1669TIP3    H1 5013   0.487   0.130   0.338 -1.2396 -0.5565 -0.7461
 1669TIP3    H2 5014   0.557  -0.004   0.326  0.3280  0.2087 -0.4138
 1670TIP3   OH2 5015   4.011   2.007   2.149  0.1949 -0.5269  0.0448
 1670TIP3    H1 5016   4.047   1.975   2.232  0.0639 -2.0261 -0.4531
 1670TIP3    H2 5017   4.032   2.101   2.149  1.3301 -0.7481  1.1887
 1671TIP3   OH2 5018   1.690   3.597   3.376  0.0978 -0.0359 -0.4420
 1671TIP3    H1 5019   1.623   3.534   3.402  0.7958 -1.2290 -1.4348
 1671TIP3    H2 5020   1.643   3.680   3.369 -1.2315 -0.7863 -0.8328
 1672TIP3   OH2 5021   0.580   0.488   3.006  0.1484 -0.3803 -0.2130
 1672TIP3    H1 5022   0.675   0.481   3.010  0.3390  0.5038 -2.3123
 1672TIP3    H2 5023   0.556   0.454   2.920 -1.1427  1.9147 -0.8467
 1673TIP3   OH2 5024   2.380   2.745   2.577  0.7090  0.4899 -0.6836
 1673TIP3    H1 5025   2.469   2.763   2.605  0.7431 -0.4248 -0.1607
 1673TIP3    H2 5026   2.353   2.670   2.630 -0.7764  1.4502  0.0188
 1674TIP3   OH2 5027   3.889   5.331   4.576 -0.1933 -0.7953  0.1463
 1674TIP3    H1 5028   3.794   5.325   4.572 -0.1480 -0.9121 -1.8820
 1674TIP3    H2 5029   3.917   5.254   4.625 -1.0951 -1.3487 -0.1927
 1675TIP3   OH2 5030   3.372   1.947   0.603  0.0556  0.3935 -0.3866
 1675TIP3    H1 5031   3.310   1.874   0.591  0.0237  0.5420 -1.1454
 1675TIP3    H2 5032   3.365   1.998   0.523  1.3393  0.2869 -0.5890
 1676TIP3   OH2 5033   4.797   0.913   0.624 -0.2969  0.1774  0.6220
 1676TIP3    H1 5034   4.856   0.921   0.699  0.8439 -0.1559 -0.2235
 1676TIP3    H2 5035   4.709   0.914   0.663  0.1578  2.3673  1.7748
 1677TIP3   OH2 5036   0.473   5.326   0.448 -0.3839  0.1902 -0.2578
 1677TIP3    H1 5037   0.418   5.367   0.381  1.1867 -0.0684 -1.8061
 1677TIP3    H2 5038   0.551   5.382   0.452  0.6309 -1.1638 -0.4804
 1678TIP3   OH2 5039   2.274   2.634   0.666  0.2651  0.1028  0.5001
 1678TIP3    H1 5040   2.328   2.687   0.727  0.4047  0.3954  0.1279
 1678TIP3    H2 5041   2.295   2.670   0.580  0.3742 -0.5823  0.2392
 1679TIP3   OH2 5042   4.821   2.535   3.473 -0.4582  0.6727 -0.3307
 1679TIP3    H1 5043   4.792   2.590   3.400  0.9192 -0.2686 -1.6491
 1679TIP3    H2 5044   4.834   2.448   3.434  0.5513  0.2036  0.9771
 1680TIP3   OH2 5045   4.108   3.215   1.139  0.5258 -0.6483  0.0487
 1680TIP3    H1 5046   4.040   3.265   1.184  1.8702 -0.2201  1.6980
 1680TIP3    H2 5047   4.152   3.165   1.208  2.0333 -0.7199 -0.9038
 1681TIP3   OH2 5048   1.061   3.664   0.230 -0.3039 -0.0987  0.1040
 1681TIP3    H1 5049   1.019   3.696   0.310  2.3247 -0.7923  1.9316
 1681TIP3    H2 5050   0.990   3.631   0.176 -2.3357  1.7900  1.4717
 1682TIP3   OH2 5051   3.530   4.181   2.652  0.0220  0.2131  0.0362
 1682TIP3    H1 5052   3.523   4.202   2.558 -0.2511 -0.4204 -0.0861
 1682TIP3    H2 5053   3.508   4.263   2.696  0.1571  0.5198 -0.4503
 1683TIP3   OH2 5054   2.857   2.509   1.281  0.1377  0.0595 -0.5829
 1683TIP3    H1 5055   2.779   2.454   1.285 -1.4701  2.2407 -0.1473
 1683TIP3    H2 5056   2.917   2.461   1.222 -2.6852 -0.2841 -3.4712
 1684TIP3   OH2 5057   5.860   3.022   4.898 -0.5425  0.0560  0.4113
 1684TIP3    H1 5058   5.899   2.950   4.849  0.5591  0.8629  0.0794
 1684TIP3    H2 5059   5.824   2.981   4.976  0.0371 -0.8590  0.2095
 1685TIP3   OH2 5060   3.428   4.092   1.587 -0.5469 -0.9404 -0.1728
 1685TIP3    H1 5061   3.367   4.085   1.513 -1.4189 -0.8181  0.5223
 1685TIP3    H2 5062   3.408   4.177   1.626  0.6019 -0.5565 -0.3797
 1686TIP3   OH2 5063   3.290   5.380   2.678 -0.0241 -0.1669  0.6396
 1686TIP3    H1 5064   3.340   5.451   2.637  0.5202 -1.5028 -1.1568
 1686TIP3    H2 5065   3.346   5.349   2.749  0.2744  0.3854  0.6539
 1687TIP3   OH2 5066   0.633   0.314   0.659  0.7086  0.6848  0.3808
 1687TIP3    H1 5067   0.704   0.261   0.622 -0.7488 -1.5920  0.6634
 1687TIP3    H2 5068   0.660   0.331   0.749 -0.1820 -2.5557  1.4138
 1688TIP3   OH2 5069   5.724   5.425   5.012 -0.1132 -0.7888 -0.4267
 1688TIP3    H1 5070   5.654   5.402   4.950  1.0001 -4.2687 -0.6250
 1688TIP3    H2 5071   5.697   5.384   5.094 -0.2866  1.5228  0.7399
 1689TIP3   OH2 5072   4.907   4.937   5.128  0.2312 -0.0352 -0.2335
 1689TIP3    H1 5073   4.927   4.926   5.221 -2.9969 -0.4962  0.5461
 1689TIP3    H2 5074   4.950   5.018   5.103  1.4425 -0.0710  1.5777
 1690TIP3   OH2 5075   5.495   5.026   4.018  0.1603  0.0831 -0.2584
 1690TIP3    H1 5076   5.503   4.931   4.032 -0.6893 -0.0523 -0.6083
 1690TIP3    H2 5077   5.583   5.060   4.034 -0.1348 -0.3290  3.0394
 1691TIP3   OH2 5078   0.933   4.043   3.640 -0.1489 -0.8900  0.3594
 1691TIP3    H1 5079   0.953   3.956   3.605 -0.1387 -0.8988  0.3867
 1691TIP3    H2 5080   0.865   4.077   3.582  1.0081 -0.2460 -0.6523
 1692TIP3   OH2 5081   2.059   3.209   0.031  0.3313 -0.8517  0.2777
 1692TIP3    H1 5082   2.082   3.159   0.109  1.9154  0.6380  0.8235
 1692TIP3    H2 5083   1.963   3.217   0.034  0.2726 -1.8451  1.3987
 1693TIP3   OH2 5084   4.180   1.563   2.671 -0.2962 -0.9628 -0.5687
 1693TIP3    H1 5085   4.091   1.574   2.636 -0.5998 -0.7738  0.2321
 1693TIP3    H2 5086   4.232   1.536   2.596 -1.0306 -1.0574 -1.0579
 1694TIP3   OH2 5087   5.076   0.476   2.763  0.2552  0.2717  0.4467
 1694TIP3    H1 5088   5.043   0.509   2.846 -0.9262  0.1888  0.0250
 1694TIP3    H2 5089   5.137   0.406   2.788  1.1801  1.3408  1.2692
 1695TIP3   OH2 5090   3.543   3.284   2.687 -0.4770  0.1986  0.1209
 1695TIP3    H1 5091   3.511   3.195   2.668  1.3020  0.0198 -2.5257
 1695TIP3    H2 5092   3.565   3.282   2.781  1.2824 -2.8155 -0.2291
 1696TIP3   OH2 5093   4.042   4.532   0.627 -0.1613 -0.1133  0.5158
 1696TIP3    H1 5094   3.952   4.518   0.597 -0.4596 -1.0235  1.7893
 1696TIP3    H2 5095   4.043   4.500   0.717  1.1815  0.8682  0.8756
 1697TIP3   OH2 5096   5.786   2.720   1.088  0.0202 -0.1239 -1.0762
 1697TIP3    H1 5097   5.734   2.747   1.163  0.5562  0.7752 -1.0203
 1697TIP3    H2 5098   5.723   2.716   1.015 -0.7195 -2.0299 -0.3990
 1698TIP3   OH2 5099   0.867   5.151   0.433  0.2808  0.3249  0.8223
 1698TIP3    H1 5100   0.947   5.179   0.390 -0.0274  0.2528  0.1927
 1698TIP3    H2 5101   0.895   5.086   0.497  0.4568 -1.9974 -1.4476
 1699TIP3   OH2 5102   3.431   4.788   2.874 -0.3194 -0.4852 -0.1171
 1699TIP3    H1 5103   3.503   4.729   2.899  1.0660  1.1839  0.0018
 1699TIP3    H2 5104   3.418   4.771   2.780  1.3679  0.2929 -0.5324
 1700TIP3   OH2 5105   4.793   0.880   2.968  1.0573  0.1637 -0.2965
 1700TIP3    H1 5106   4.736   0.910   3.039  0.4986  0.6042 -0.9274
 1700TIP3    H2 5107   4.823   0.961   2.926  2.2745 -0.0540  0.1131
 1701TIP3   OH2 5108   1.503   2.846   1.521 -0.3652 -0.7038  0.0433
 1701TIP3    H1 5109   1.492   2.850   1.426 -1.9738 -2.1261  0.1235
 1701TIP3    H2 5110   1.596   2.865   1.535  0.2908 -2.0926 -1.9369
 1702TIP3   OH2 5111   1.245   0.308   2.957  0.1033  0.8576  0.2093
 1702TIP3    H1 5112   1.203   0.233   2.998  0.1519  1.4765  1.4364
 1702TIP3    H2 5113   1.239   0.378   3.022  0.4827  1.7835 -0.7177
 1703TIP3   OH2 5114   0.051   4.541   1.742 -0.1768 -0.8613  0.2117
 1703TIP3    H1 5115   0.041   4.463   1.688 -1.9778 -0.5368  0.0267
 1703TIP3    H2 5116  -0.037   4.561   1.773 -0.0199  1.8569 -0.8228
 1704TIP3   OH2 5117   2.962   4.384   1.903  0.2681 -0.5497 -0.2485
 1704TIP3    H1 5118   3.007   4.468   1.907  0.3325 -0.4377 -2.3970
 1704TIP3    H2 5119   2.962   4.353   1.994 -1.1652  2.4630  0.9185
 1705TIP3   OH2 5120   3.985   3.725   4.182 -0.0124  0.0124  1.1271
 1705TIP3    H1 5121   4.076   3.742   4.204  0.4813  1.4927 -1.6821
 1705TIP3    H2 5122   3.987   3.687   4.095 -2.1146  1.5198  0.3260
 1706TIP3   OH2 5123   1.690   2.449   4.427  0.0323  0.1170 -0.4733
 1706TIP3    H1 5124   1.747   2.408   4.361  2.2916  1.6390  0.3970
 1706TIP3    H2 5125   1.651   2.523   4.381  0.4591  0.3247 -0.5109
 1707TIP3   OH2 5126   4.273   1.216   4.081  0.0340  0.0561  0.1234
 1707TIP3    H1 5127   4.207   1.152   4.107  0.2138 -1.0847 -2.0090
 1707TIP3    H2 5128   4.222   1.293   4.056 -0.2977  0.1576  1.0776
 1708TIP3   OH2 5129   3.170   3.262   1.420 -0.0823  0.4236 -0.2200
 1708TIP3    H1 5130   3.187   3.349   1.384  0.2992  0.5429  0.2332
 1708TIP3    H2 5131   3.138   3.211   1.346  1.1198  0.5304 -0.8381
 1709TIP3   OH2 5132   4.209   1.485   1.534 -0.2668  0.0920 -0.3747
 1709TIP3    H1 5133   4.239   1.442   1.454 -1.9576  0.1455 -1.0966
 1709TIP3    H2 5134   4.203   1.577   1.511  1.0459  0.3882  0.4230
 1710TIP3   OH2 5135   4.939   3.361   1.768  0.9762  0.4315 -0.0317
 1710TIP3    H1 5136   4.955   3.304   1.843  1.4563  0.6814  0.0616
 1710TIP3    H2 5137   5.016   3.350   1.712  0.3822 -0.1566 -0.7587
 1711TIP3   OH2 5138   1.699   5.542   4.945 -0.0769 -0.0986  0.1323
 1711TIP3    H1 5139   1.741   5.458   4.960 -0.0758 -0.2586 -0.7528
 1711TIP3    H2 5140   1.754   5.586   4.881 -0.0488  0.6055  0.6185
 1712TIP3   OH2 5141   1.468   5.378   0.041 -0.0636  0.4398  0.3832
 1712TIP3    H1 5142   1.512   5.463   0.032  0.1773  0.2496 -0.3565
 1712TIP3    H2 5143   1.476   5.356   0.133 -0.7148  1.5394  0.7211
 1713TIP3   OH2 5144   1.210   5.899   3.189  0.0067  0.3044  0.4770
 1713TIP3    H1 5145   1.134   5.946   3.223  2.1035  2.1761  2.9733
 1713TIP3    H2 5146   1.251   5.861   3.266  1.6021 -0.6764 -0.7918
 1714TIP3   OH2 5147   1.593   5.723   3.925 -0.1933  0.2815  0.6151
 1714TIP3    H1 5148   1.640   5.795   3.884  0.2242 -1.1658 -1.6194
 1714TIP3    H2 5149   1.501   5.741   3.905 -0.5377  2.0389  3.2492
 1715TIP3   OH2 5150   4.864   3.895   3.706 -0.6058  0.7341 -0.1773
 1715TIP3    H1 5151   4.935   3.841   3.670 -0.6886 -0.4175  1.2715
 1715TIP3    H2 5152   4.794   3.832   3.725 -2.2711  1.8986 -2.0326
 1716TIP3   OH2 5153   0.909   2.129   0.249 -0.1031  0.3409 -0.3370
 1716TIP3    H1 5154   0.867   2.054   0.292  0.4484 -1.2660 -2.4199
 1716TIP3    H2 5155   0.951   2.177   0.320 -1.0071 -0.9742  1.1575
 1717TIP3   OH2 5156   5.856   2.751   1.957 -0.1024  0.4743  0.3155
 1717TIP3    H1 5157   5.783   2.701   1.921 -0.6067  0.1994  1.6576
 1717TIP3    H2 5158   5.829   2.843   1.948 -1.0455  0.3552  1.6009
 1718TIP3   OH2 5159   2.550   0.700   2.415 -0.1942  0.1631  0.1058
 1718TIP3    H1 5160   2.546   0.633   2.483 -0.1252 -0.5288 -0.5510
 1718TIP3    H2 5161   2.643   0.714   2.401 -0.2044 -0.0067 -0.1385
 1719TIP3   OH2 5162   0.314   0.315   1.565  0.5505  0.0759  0.4290
 1719TIP3    H1 5163   0.330   0.362   1.647 -0.3327 -1.1115  1.3191
 1719TIP3    H2 5164   0.223   0.286   1.571  0.8439 -1.1218 -0.3937
 1720TIP3   OH2 5165   4.374   0.509   1.594 -0.1692 -0.2804  0.7879
 1720TIP3    H1 5166   4.299   0.546   1.639  0.3017  2.5737 -0.5882
 1720TIP3    H2 5167   4.436   0.487   1.664 -2.0345 -2.4043  1.9178
 1721TIP3   OH2 5168   6.026   4.615   1.068  0.1823 -0.0559 -0.1456
 1721TIP3    H1 5169   6.030   4.635   1.161  0.1263 -1.0274  0.0755
 1721TIP3    H2 5170   5.962   4.544   1.061 -1.0457  1.0774 -1.1180
 1722TIP3   OH2 5171   4.681   2.924   4.838 -0.5278 -0.0250  0.1348
 1722TIP3    H1 5172   4.730   2.842   4.844  0.6623  0.6600 -0.0206
 1722TIP3    H2 5173   4.694   2.966   4.923 -0.2747  0.4779 -0.1494
 1723TIP3   OH2 5174   1.474   5.296   2.627  0.3095  0.3631 -0.6391
 1723TIP3    H1 5175   1.505   5.346   2.703 -1.5523  0.6234  0.0036
 1723TIP3    H2 5176   1.466   5.362   2.558  0.4295  0.4427 -0.5781
 1724TIP3   OH2 5177   3.494   3.367   0.443 -0.0648  0.1128  0.1346
 1724TIP3    H1 5178   3.511   3.297   0.380  0.5392  1.0395 -0.7614
 1724TIP3    H2 5179   3.475   3.444   0.389 -0.6630  0.6579  1.0969
 1725TIP3   OH2 5180   2.493   5.292   1.176 -0.3866 -0.3700  0.0222
 1725TIP3    H1 5181   2.467   5.291   1.268 -2.2901 -2.5485 -0.4501
 1725TIP3    H2 5182   2.569   5.233   1.172 -1.8171 -2.3091 -0.0974
 1726TIP3   OH2 5183   4.514   5.184   3.659  0.2662 -0.0163 -0.5820
 1726TIP3    H1 5184   4.444   5.191   3.724  2.1627  0.2935  1.5842
 1726TIP3    H2 5185   4.507   5.095   3.625 -1.3697  0.1338 -0.6710
 1727TIP3   OH2 5186   4.617   3.378   1.716  0.0733 -0.0627  0.4944
 1727TIP3    H1 5187   4.633   3.329   1.798  0.3105 -1.0656 -0.1285
 1727TIP3    H2 5188   4.703   3.384   1.675 -0.3588 -1.5939 -0.7598
 1728TIP3   OH2 5189   5.121   5.866   3.470  0.0073  0.6411  0.4694
 1728TIP3    H1 5190   5.062   5.885   3.397  0.4111 -0.0231 -0.0353
 1728TIP3    H2 5191   5.095   5.928   3.538 -0.0972  1.5748 -0.3858
 1729TIP3   OH2 5192   4.507   5.275   3.076 -0.1032 -0.0201  0.2619
 1729TIP3    H1 5193   4.504   5.371   3.071  0.5324 -0.0551 -1.5112
 1729TIP3    H2 5194   4.600   5.255   3.087 -0.1010 -0.4537 -0.4833
 1730TIP3   OH2 5195   3.104   5.805   4.914 -0.1267 -0.8811 -0.7481
 1730TIP3    H1 5196   3.045   5.835   4.845 -1.4889  0.6482  0.9769
 1730TIP3    H2 5197   3.053   5.742   4.964  0.0301 -0.3149  0.1512
 1731TIP3   OH2 5198   4.878   1.396   1.305 -0.0383  0.1665  0.7188
 1731TIP3    H1 5199   4.892   1.457   1.378  0.4477 -2.5527  3.0905
 1731TIP3    H2 5200   4.784   1.378   1.307  0.1757 -0.9597  1.6569
 1732TIP3   OH2 5201   1.682   2.953   4.233  0.0618 -0.8436 -0.0308
 1732TIP3    H1 5202   1.626   2.945   4.156 -0.0475 -1.8847  0.1460
 1732TIP3    H2 5203   1.631   3.008   4.293 -0.0712 -0.4505 -0.4992
 1733TIP3   OH2 5204   0.711   3.109   3.338  0.2553 -0.8645 -0.1637
 1733TIP3    H1 5205   0.774   3.051   3.380 -0.1711 -2.2679 -1.3766
 1733TIP3    H2 5206   0.634   3.054   3.324 -1.0413  0.6397  0.7222
 1734TIP3   OH2 5207   5.202   1.019   4.790  0.3181 -0.0456  0.0464
 1734TIP3    H1 5208   5.283   1.056   4.755 -1.1838  1.0984 -2.4717
 1734TIP3    H2 5209   5.160   1.091   4.836 -0.5668  0.1919 -1.1023
 1735TIP3   OH2 5210   1.930   4.662   4.657 -0.5393  0.1692 -0.6957
 1735TIP3    H1 5211   1.981   4.724   4.605 -0.7765  0.3296 -0.7346
 1735TIP3    H2 5212   1.863   4.715   4.701 -0.7681 -0.0636 -0.7604
 1736TIP3   OH2 5213   0.952   1.341   4.927 -0.7725 -0.3346 -0.4641
 1736TIP3    H1 5214   0.941   1.270   4.864  0.7765 -0.1292 -1.0049
 1736TIP3    H2 5215   0.955   1.420   4.873  1.4732 -0.2303 -0.2794
 1737TIP3   OH2 5216   1.520   5.464   2.857  0.0251 -0.2609  0.9800
 1737TIP3    H1 5217   1.554   5.466   2.947 -1.5263  2.1689  1.6286
 1737TIP3    H2 5218   1.533   5.554   2.826 -0.7487 -0.7076 -0.7163
 1738TIP3   OH2 5219   1.841   1.261   3.634 -0.4208 -0.0586 -0.0050
 1738TIP3    H1 5220   1.763   1.304   3.597  0.6418  0.1369 -2.1434
 1738TIP3    H2 5221   1.913   1.322   3.615  0.7334 -1.6205 -0.8741
 1739TIP3   OH2 5222   4.114   2.254   2.153 -0.2786 -0.9604  0.5173
 1739TIP3    H1 5223   4.205   2.278   2.140 -0.5606  0.1233  0.4411
 1739TIP3    H2 5224   4.084   2.311   2.224 -2.2536  2.3556 -2.6746
 1740TIP3   OH2 5225   2.231   2.254   0.104  0.1301 -0.6038 -0.6733
 1740TIP3    H1 5226   2.153   2.209   0.137 -0.9122  2.2031  1.0231
 1740TIP3    H2 5227   2.302   2.221   0.158 -0.8822  0.8216  1.6897
 1741TIP3   OH2 5228   3.703   4.997   1.130 -0.2319 -0.0131  0.4762
 1741TIP3    H1 5229   3.776   5.048   1.166  1.1906 -1.4836 -0.2264
 1741TIP3    H2 5230   3.684   5.040   1.047 -1.0484  1.1325  1.2168
 1742TIP3   OH2 5231   3.707   5.752   2.190  0.5722 -0.6264 -0.0784
 1742TIP3    H1 5232   3.790   5.709   2.168  0.4191 -0.0712 -1.9774
 1742TIP3    H2 5233   3.641   5.704   2.140  0.0081  0.0554 -0.0132
 1743TIP3   OH2 5234   0.998   2.958   3.920  0.0038 -0.0251  0.0087
 1743TIP3    H1 5235   0.929   3.022   3.903 -0.9444 -0.9559  0.2430
 1743TIP3    H2 5236   0.994   2.943   4.015  1.8747  1.3657  0.3733
 1744TIP3   OH2 5237   0.031   1.892   3.799 -0.3121 -0.5181  0.3511
 1744TIP3    H1 5238   0.118   1.906   3.762  0.0059 -0.3176  1.1569
 1744TIP3    H2 5239   0.018   1.966   3.859  0.3885 -2.2668  2.8328
 1745TIP3   OH2 5240   1.695   5.219   1.977 -0.2948  0.4968 -0.0282
 1745TIP3    H1 5241   1.664   5.199   1.889  0.3566  1.1739 -0.4191
 1745TIP3    H2 5242   1.695   5.315   1.982 -0.2218  0.4703  0.6731
 1746TIP3   OH2 5243   4.722   2.660   0.367  0.4328  0.2829  0.3491
 1746TIP3    H1 5244   4.784   2.727   0.338  0.5893 -0.1225 -0.2712
 1746TIP3    H2 5245   4.721   2.596   0.296  0.3767 -0.4384  0.9887
 1747TIP3   OH2 5246   3.484   4.846   2.530 -0.2919 -0.2832  0.4261
 1747TIP3    H1 5247   3.394   4.840   2.497  0.0668  2.1015 -1.1847
 1747TIP3    H2 5248   3.523   4.762   2.507 -1.9736 -1.2581  0.8893
 1748TIP3   OH2 5249   3.012   1.179   1.417  0.0850 -0.2538  0.1287
 1748TIP3    H1 5250   3.031   1.172   1.511  0.3125 -0.7320  0.0478
 1748TIP3    H2 5251   3.098   1.190   1.376  0.0017 -0.2564 -0.0447
 1749TIP3   OH2 5252   0.037   5.214   3.980 -0.2026 -0.0566  0.2196
 1749TIP3    H1 5253  -0.041   5.180   4.024 -0.0647  0.7170  1.0979
 1749TIP3    H2 5254   0.006   5.291   3.932  0.0357  0.3825  0.7468
 1750TIP3   OH2 5255   4.125   1.623   0.010 -0.1463  0.6385  0.7086
 1750TIP3    H1 5256   4.085   1.537  -0.004 -2.5345  1.7801  0.0388
 1750TIP3    H2 5257   4.073   1.663   0.079  0.2900  1.9371  0.3083
 1751TIP3   OH2 5258   3.023   2.047   3.659  0.4342 -0.6991  0.0072
 1751TIP3    H1 5259   3.058   2.071   3.745 -0.5268  0.1712  0.1771
 1751TIP3    H2 5260   2.929   2.034   3.675  0.4691 -1.8739 -0.6526
 1752TIP3   OH2 5261   2.097   3.507   4.834  0.1182  0.6579  0.3669
 1752TIP3    H1 5262   2.161   3.579   4.835  0.7589  0.1218 -0.8253
 1752TIP3    H2 5263   2.072   3.496   4.926  1.1720  1.3749  0.7531
 1753TIP3   OH2 5264   2.875   1.797   4.913 -0.4290 -0.1554 -0.4035
 1753TIP3    H1 5265   2.879   1.760   5.001  1.7889  1.7228  0.4090
 1753TIP3    H2 5266   2.912   1.729   4.857 -0.7227 -0.9106  0.2900
 1754TIP3   OH2 5267   1.649   5.063   4.750 -0.0904  0.1428 -0.0886
 1754TIP3    H1 5268   1.576   5.060   4.688 -0.3766 -1.0714  0.2876
 1754TIP3    H2 5269   1.709   5.128   4.712 -0.8260  0.3335 -0.9845
 1755TIP3   OH2 5270   5.555   4.871   4.515  0.3000  0.1681  0.1211
 1755TIP3    H1 5271   5.508   4.872   4.432  0.5526 -0.2098 -0.0318
 1755TIP3    H2 5272   5.522   4.946   4.564  1.0625  1.1597 -0.8438
 1756TIP3   OH2 5273   5.277   3.391   5.156  0.6882 -0.2071 -0.2566
 1756TIP3    H1 5274   5.249   3.482   5.169  0.3116 -0.1413 -1.3832
 1756TIP3    H2 5275   5.372   3.394   5.168  0.8415  0.6032 -1.4884
 1757TIP3   OH2 5276   0.182   1.834   3.376 -0.3010 -0.4634 -0.1672
 1757TIP3    H1 5277   0.196   1.859   3.284  0.4004  0.1183  0.0911
 1757TIP3    H2 5278   0.132   1.906   3.413  1.6032  0.5456  0.5454
 1758TIP3   OH2 5279   0.927   5.274   3.483 -0.5527  0.2885  0.2001
 1758TIP3    H1 5280   0.946   5.283   3.577  3.1455  0.0194 -0.3566
 1758TIP3    H2 5281   0.996   5.216   3.451 -1.3202  0.9066 -2.8137
 1759TIP3   OH2 5282   5.953   0.378   4.462 -0.4638 -0.3647 -0.1244
 1759TIP3    H1 5283   5.930   0.459   4.507 -0.4531 -0.5668  0.2433
 1759TIP3    H2 5284   5.954   0.311   4.530  0.2571 -0.5423 -0.2952
 1760TIP3   OH2 5285   5.584   4.362   1.174 -0.0839  0.4780 -0.0366
 1760TIP3    H1 5286   5.547   4.409   1.100  1.2341  1.7457  0.0689
 1760TIP3    H2 5287   5.521   4.293   1.193 -1.5877  1.5947 -0.8279
 1761TIP3   OH2 5288   0.970   1.060   3.797  0.4602  0.4944 -0.6804
 1761TIP3    H1 5289   0.887   1.104   3.785  0.8169  1.1342 -0.8355
 1761TIP3    H2 5290   0.947   0.968   3.808 -0.4301  0.9390  1.5937
 1762TIP3   OH2 5291   2.244   2.241   4.735 -0.2912 -0.1565 -0.1904
 1762TIP3    H1 5292   2.315   2.218   4.795  0.1799  0.4596 -0.5013
 1762TIP3    H2 5293   2.164   2.227   4.786  0.0905  0.0507  0.4729
 1763TIP3   OH2 5294   0.778   0.837   2.116 -0.3660 -0.3619  0.3503
 1763TIP3    H1 5295   0.794   0.899   2.188 -0.3246 -0.6613  0.5975
 1763TIP3    H2 5296   0.761   0.894   2.040  1.3298 -0.0217  0.1801
 1764TIP3   OH2 5297   0.777   4.454   0.910 -0.4810  0.4887  0.5227
 1764TIP3    H1 5298   0.798   4.544   0.886  0.1960  0.7071  1.7947
 1764TIP3    H2 5299   0.721   4.462   0.987 -1.0467 -0.1698  0.1838
 1765TIP3   OH2 5300   0.891   0.703   2.735 -0.5273  0.1988  0.3276
 1765TIP3    H1 5301   0.886   0.795   2.762 -1.4939  0.3902 -0.4437
 1765TIP3    H2 5302   0.841   0.700   2.653 -0.8780 -1.1051  0.5741
 1766TIP3   OH2 5303   0.404   5.179   4.963 -0.3072 -0.1592  0.1477
 1766TIP3    H1 5304   0.417   5.248   4.897  0.4235 -0.6045 -0.1915
 1766TIP3    H2 5305   0.323   5.136   4.938 -0.1334 -0.1978 -0.3559
 1767TIP3   OH2 5306   4.000   1.564   2.992  0.6145 -0.2726 -0.5342
 1767TIP3    H1 5307   3.993   1.520   2.907 -0.1298 -0.7047 -0.2616
 1767TIP3    H2 5308   3.909   1.575   3.020  0.8282  0.6931 -0.2056
 1768TIP3   OH2 5309   1.445   3.731   4.929 -0.4919  0.0525 -0.0985
 1768TIP3    H1 5310   1.394   3.651   4.930 -0.0743 -0.2176 -0.0384
 1768TIP3    H2 5311   1.411   3.782   5.003 -1.1660  0.1973 -0.5067
 1769TIP3   OH2 5312   5.971   1.899   0.757 -0.3354 -0.0460  0.6875
 1769TIP3    H1 5313   5.949   1.890   0.850  0.4859 -0.3932  0.8549
 1769TIP3    H2 5314   5.976   1.809   0.725  0.2125  0.0502  0.5036
 1770TIP3   OH2 5315   0.260   0.614   0.304  0.1083 -0.2147  0.0777
 1770TIP3    H1 5316   0.234   0.638   0.393 -0.5421 -1.1279  0.1480
 1770TIP3    H2 5317   0.332   0.674   0.283 -0.3330  0.6255  0.8716
 1771TIP3   OH2 5318   0.758   5.719   0.950  0.2047  0.1859 -0.3163
 1771TIP3    H1 5319   0.668   5.721   0.915 -0.0314  1.2405  0.2875
 1771TIP3    H2 5320   0.811   5.687   0.878 -0.6193 -0.1806 -0.7802
 1772TIP3   OH2 5321   2.583   5.644   2.714 -0.4969  0.7624 -0.2092
 1772TIP3    H1 5322   2.568   5.718   2.773 -1.3120 -0.1497  0.7801
 1772TIP3    H2 5323   2.558   5.676   2.627 -1.4465  1.4642  0.3118
 1773TIP3   OH2 5324   1.977   3.501   3.647 -0.6953  0.0518  0.2100
 1773TIP3    H1 5325   2.036   3.429   3.625 -0.5406  0.0489  0.6210
 1773TIP3    H2 5326   1.994   3.518   3.739 -0.9046  0.4577  0.1745
 1774TIP3   OH2 5327   5.267   4.899   3.696  0.1714 -0.5313 -0.4837
 1774TIP3    H1 5328   5.261   4.867   3.786 -1.0802  1.5972  0.2554
 1774TIP3    H2 5329   5.339   4.849   3.658 -0.9109 -3.3455  0.8598
 1775TIP3   OH2 5330   3.293   3.144   4.446  0.0297  0.2978 -0.5865
 1775TIP3    H1 5331   3.385   3.126   4.424 -0.1849 -1.1374 -0.3669
 1775TIP3    H2 5332   3.252   3.165   4.362  0.8310  2.4232 -0.5255
 1776TIP3   OH2 5333   4.511   0.821   4.316 -0.1756 -0.5306  0.2129
 1776TIP3    H1 5334   4.525   0.731   4.285  0.2734 -0.8070  1.1705
 1776TIP3    H2 5335   4.479   0.868   4.239  0.6466 -1.2461 -0.5929
 1777TIP3   OH2 5336   6.198   1.252   4.797  0.2389  0.3252  0.3537
 1777TIP3    H1 5337   6.235   1.164   4.796  1.7685  0.9478  0.1108
 1777TIP3    H2 5338   6.184   1.271   4.890 -1.6225 -0.7542  0.3422
 1778TIP3   OH2 5339   4.844   0.460   3.116  0.2493  0.8791  0.3336
 1778TIP3    H1 5340   4.755   0.486   3.140  0.5076  1.4720  0.6472
 1778TIP3    H2 5341   4.836   0.366   3.098 -0.6341  1.1119 -0.5958
 1779TIP3   OH2 5342   4.768   4.194   1.132 -0.0324  0.4384  0.1519
 1779TIP3    H1 5343   4.833   4.263   1.146 -0.0515  0.5661 -0.3707
 1779TIP3    H2 5344   4.738   4.207   1.042  0.3866 -0.6028 -0.1499
 1780TIP3   OH2 5345   5.830   5.854   0.636  0.7119 -0.5577  0.1005
 1780TIP3    H1 5346   5.890   5.795   0.592  0.5663  0.3638 -1.4069
 1780TIP3    H2 5347   5.774   5.888   0.566 -0.3716 -0.0135  1.1973
 1781TIP3   OH2 5348   5.033   2.982   5.044 -0.0032 -0.3091 -0.0825
 1781TIP3    H1 5349   5.009   3.005   5.134 -0.8370 -0.6449 -0.2096
 1781TIP3    H2 5350   5.008   2.890   5.035  0.3295 -0.3524 -0.5681
 1782TIP3   OH2 5351   1.786   1.892   4.256  0.6093 -0.6376 -0.1116
 1782TIP3    H1 5352   1.837   1.968   4.284  0.0293  0.0143 -0.7815
 1782TIP3    H2 5353   1.842   1.847   4.193  0.3221  0.1463 -0.9415
 1783TIP3   OH2 5354   3.494   2.017   2.161  0.0949 -0.1804  0.2020
 1783TIP3    H1 5355   3.499   2.014   2.066 -0.3163 -3.5914  0.1525
 1783TIP3    H2 5356   3.584   2.006   2.191  0.0807 -0.3555  0.1817
 1784TIP3   OH2 5357   5.019   0.519   4.962 -0.2222 -0.1665 -0.2344
 1784TIP3    H1 5358   4.956   0.456   4.997 -1.6889  0.4410 -1.6779
 1784TIP3    H2 5359   4.991   0.533   4.871  0.5249  1.9958 -0.1756
 1785TIP3   OH2 5360   4.384   3.403   3.684 -0.1640  0.5931  0.0821
 1785TIP3    H1 5361   4.473   3.408   3.650  0.0562  0.3313  0.6003
 1785TIP3    H2 5362   4.344   3.331   3.635  0.0330  0.4658  0.1048
 1786TIP3   OH2 5363   0.031   0.191   2.777 -0.3296  0.1373 -0.5254
 1786TIP3    H1 5364   0.044   0.276   2.819 -1.2015  0.0933 -0.1416
 1786TIP3    H2 5365  -0.060   0.169   2.795  0.2542 -1.5403  0.6271
 1787TIP3   OH2 5366   2.414   3.145   1.488 -0.0456  0.0590 -0.4868
 1787TIP3    H1 5367   2.373   3.141   1.401  1.5168 -0.9006 -1.2195
 1787TIP3    H2 5368   2.355   3.095   1.545 -0.9075  0.3999 -1.0540
 1788TIP3   OH2 5369   4.490   5.557   2.144 -0.5531  0.8543  0.3989
 1788TIP3    H1 5370   4.408   5.520   2.178  0.4553 -0.9070  1.0150
 1788TIP3    H2 5371   4.482   5.548   2.049  0.2492 -2.4735  0.5315
 1789TIP3   OH2 5372   3.987   2.428   2.766 -0.0336  0.2440 -0.1538
 1789TIP3    H1 5373   4.063   2.376   2.739 -0.7637 -0.9203 -0.0386
 1789TIP3    H2 5374   4.001   2.444   2.860  0.7390  1.2336 -0.4204
 1790TIP3   OH2 5375   0.802   0.187   1.058  0.4132 -0.7272 -0.1359
 1790TIP3    H1 5376   0.725   0.130   1.066 -2.2187  2.6082  1.3220
 1790TIP3    H2 5377   0.831   0.201   1.148  0.3667  0.8942 -0.3426
 1791TIP3   OH2 5378   4.214   4.495   1.723  0.0668 -0.0875  0.0457
 1791TIP3    H1 5379   4.211   4.473   1.817  3.2216 -0.2809  0.2085
 1791TIP3    H2 5380   4.218   4.590   1.720 -0.8882 -0.0346  0.0162
 1792TIP3   OH2 5381   2.743   1.112   0.293 -0.8037  0.0798 -0.0125
 1792TIP3    H1 5382   2.819   1.113   0.235 -0.1838  1.6930  0.7901
 1792TIP3    H2 5383   2.688   1.042   0.257  0.1360  0.1669 -1.7748
 1793TIP3   OH2 5384   5.880   4.480   5.065 -0.2494  0.6070 -0.1547
 1793TIP3    H1 5385   5.812   4.433   5.017 -0.6619  1.2626 -0.2194
 1793TIP3    H2 5386   5.885   4.566   5.023 -0.6382  1.2059  0.9706
 1794TIP3   OH2 5387   3.472   5.924   3.700  0.5632  0.6888 -0.4631
 1794TIP3    H1 5388   3.378   5.904   3.703  0.7893 -0.5398 -0.8632
 1794TIP3    H2 5389   3.514   5.851   3.745  1.2850  1.7206  0.5839
 1795TIP3   OH2 5390   6.154   4.968   4.908 -0.0049  0.1783  0.2798
 1795TIP3    H1 5391   6.085   5.033   4.892 -0.2850 -0.0597  0.5117
 1795TIP3    H2 5392   6.127   4.924   4.988  1.6826  1.7650  1.8034
 1796TIP3   OH2 5393   0.596   5.959   1.040  0.0413 -0.1994 -0.3313
 1796TIP3    H1 5394   0.537   5.969   0.966  2.3577  2.5054 -2.0398
 1796TIP3    H2 5395   0.555   6.008   1.111 -1.2169 -1.0523 -0.4471
 1797TIP3   OH2 5396   4.254   2.728   1.768  0.3426  0.3140  0.3010
 1797TIP3    H1 5397   4.180   2.728   1.829  0.3539 -1.4202  0.3722
 1797TIP3    H2 5398   4.219   2.766   1.688  0.2850  2.4878  1.2822
 1798TIP3   OH2 5399   5.890   4.481   1.721 -0.0519 -0.1210  0.4685
 1798TIP3    H1 5400   5.827   4.485   1.792  1.5554 -1.2159  2.0537
 1798TIP3    H2 5401   5.941   4.402   1.739  0.7668 -0.1263 -1.6114
 1799TIP3   OH2 5402   6.300   5.809   2.530 -0.0123 -0.2380 -0.7092
 1799TIP3    H1 5403   6.286   5.881   2.590  0.3860  0.2588 -1.1933
 1799TIP3    H2 5404   6.216   5.764   2.525 -0.4008  0.4858 -0.7810
 1800TIP3   OH2 5405   0.837   0.596   0.197 -0.0243  0.0328 -0.1662
 1800TIP3    H1 5406   0.931   0.603   0.180 -0.3455  0.6482 -1.8925
 1800TIP3    H2 5407   0.820   0.502   0.198  0.5509 -0.0758 -0.2130
 1801TIP3   OH2 5408   1.005   2.521   3.934 -0.0724 -0.5760 -0.0688
 1801TIP3    H1 5409   1.001   2.458   4.005 -0.9585 -2.4675 -1.7078
 1801TIP3    H2 5410   0.936   2.584   3.953 -0.4179 -1.1558  0.6293
 1802TIP3   OH2 5411   4.240   5.780   4.764  0.4114  0.0383  0.2416
 1802TIP3    H1 5412   4.293   5.719   4.713 -0.0334 -0.3910  0.2832
 1802TIP3    H2 5413   4.304   5.840   4.803  0.9395 -0.8535  0.8043
 1803TIP3   OH2 5414   5.110   3.933   3.179 -0.0824 -0.4659  0.3041
 1803TIP3    H1 5415   5.180   3.951   3.241  1.2855 -1.3752 -0.9215
 1803TIP3    H2 5416   5.100   4.014   3.130  1.7000 -0.9886 -1.0061
 1804TIP3   OH2 5417   5.727   0.586   4.851 -0.0996  0.6705  0.1825
 1804TIP3    H1 5418   5.665   0.554   4.917 -0.2111  2.2322  0.8814
 1804TIP3    H2 5419   5.675   0.642   4.794  0.1163 -0.2337 -0.9381
 1805TIP3   OH2 5420   5.676   2.437   0.104  0.1003  0.0052  0.1827
 1805TIP3    H1 5421   5.632   2.489   0.172 -2.7147 -0.6349 -1.0197
 1805TIP3    H2 5422   5.605   2.403   0.050  2.2035  0.6105 -3.2195
 1806TIP3   OH2 5423   2.785   3.733   1.846  0.2339 -0.3472  0.0467
 1806TIP3    H1 5424   2.721   3.667   1.820  0.1939 -0.3789  0.2199
 1806TIP3    H2 5425   2.778   3.801   1.779  0.2886 -0.5261 -0.1423
 1807TIP3   OH2 5426   4.993   5.929   0.631  0.1688  0.4079 -0.0931
 1807TIP3    H1 5427   4.985   5.838   0.659  1.2598  0.1948 -0.4382
 1807TIP3    H2 5428   5.084   5.952   0.649  0.5954  0.6399 -2.2887
 1808TIP3   OH2 5429   5.595   2.752   4.669  0.6855  0.1818 -0.3141
 1808TIP3    H1 5430   5.562   2.706   4.746  2.0251  0.6410  0.5660
 1808TIP3    H2 5431   5.665   2.695   4.636  2.0041  1.2716  0.4768
 1809TIP3   OH2 5432   4.186   3.312   4.818  0.1816  0.6561  0.4854
 1809TIP3    H1 5433   4.153   3.243   4.876  0.6618  0.4519  0.5227
 1809TIP3    H2 5434   4.226   3.376   4.878  1.8257 -0.1793  0.3154
 1810TIP3   OH2 5435   0.626   0.386   1.993  0.1594 -0.4162 -0.3769
 1810TIP3    H1 5436   0.680   0.311   1.970  0.7611 -0.1180  0.0314
 1810TIP3    H2 5437   0.687   0.448   2.033 -0.0364  0.9090 -2.0007
 1811TIP3   OH2 5438   1.562   0.973   0.262 -0.1045  0.2530  0.1182
 1811TIP3    H1 5439   1.498   0.906   0.237  0.5887  0.2304 -1.7974
 1811TIP3    H2 5440   1.525   1.055   0.229  0.5309  0.3256 -0.4435
 1812TIP3   OH2 5441   4.160   5.300   1.590  0.7798  0.1076  0.8071
 1812TIP3    H1 5442   4.152   5.300   1.685 -0.1054 -0.4577  0.7412
 1812TIP3    H2 5443   4.190   5.212   1.568  0.1313 -0.0465  0.5066
 1813TIP3   OH2 5444   0.598   5.473   3.250 -0.1724 -0.2498  0.0369
 1813TIP3    H1 5445   0.623   5.441   3.337  0.0304  1.2353  0.5455
 1813TIP3    H2 5446   0.524   5.531   3.267 -1.6485 -1.7045 -1.0516
 1814TIP3   OH2 5447   5.806   0.557   0.502 -0.0948 -0.4456  0.7283
 1814TIP3    H1 5448   5.741   0.500   0.542  0.4612 -1.0272  0.8004
 1814TIP3    H2 5449   5.853   0.596   0.576  1.2815 -1.9164  0.6846
 1815TIP3   OH2 5450   0.036   5.204   2.620 -0.3192  0.1804  0.1396
 1815TIP3    H1 5451   0.087   5.196   2.539  0.0799  1.5017  0.2415
 1815TIP3    H2 5452   0.030   5.114   2.653  0.0292 -0.2996 -1.0330
 1816TIP3   OH2 5453   1.274   4.184   2.365 -0.0851 -0.1300  0.2119
 1816TIP3    H1 5454   1.245   4.219   2.280 -0.8844  0.0677  0.5585
 1816TIP3    H2 5455   1.225   4.234   2.430  0.8138 -0.0095  0.8191
 1817TIP3   OH2 5456   1.816   5.617   1.986 -0.2384  0.4297 -0.3423
 1817TIP3    H1 5457   1.795   5.558   1.915 -1.9684  1.7406 -0.9710
 1817TIP3    H2 5458   1.893   5.665   1.955  1.0741 -1.2976  0.1072
 1818TIP3   OH2 5459   0.961   1.342   0.398  0.0962  1.3182  0.0705
 1818TIP3    H1 5460   1.003   1.342   0.312  0.3894  2.5304  0.1897
 1818TIP3    H2 5461   0.895   1.411   0.392 -0.1314  1.1624  0.7045
 1819TIP3   OH2 5462   0.397   3.997   0.835 -0.1863 -0.0683 -0.5694
 1819TIP3    H1 5463   0.406   4.092   0.827 -0.2722  0.1025  0.9704
 1819TIP3    H2 5464   0.478   3.969   0.877  0.5400 -0.9280 -2.4307
 1820TIP3   OH2 5465   4.200   0.289   1.807  0.2498 -0.0180 -0.2273
 1820TIP3    H1 5466   4.231   0.244   1.728  3.2099 -0.1186  0.8729
 1820TIP3    H2 5467   4.147   0.361   1.774  1.7127  0.1922 -2.3582
 1821TIP3   OH2 5468   0.942   3.290   1.894 -0.1630 -0.1388 -0.0535
 1821TIP3    H1 5469   1.000   3.317   1.823  0.0481 -0.7341 -0.1156
 1821TIP3    H2 5470   0.934   3.367   1.949 -1.6494  0.8757 -1.5800
 1822TIP3   OH2 5471   5.159   3.036   3.683 -0.3070  0.1290  0.3125
 1822TIP3    H1 5472   5.108   3.117   3.684 -1.7983 -0.7678  1.9702
 1822TIP3    H2 5473   5.099   2.971   3.647 -0.4452 -0.9963  2.4529
 1823TIP3   OH2 5474   3.090   3.133   3.655  0.0638  0.2423  0.2908
 1823TIP3    H1 5475   3.059   3.059   3.601 -0.1119 -0.1587  0.9323
 1823TIP3    H2 5476   3.017   3.152   3.713  0.4199  0.3743  0.6984
 1824TIP3   OH2 5477   0.492   0.297   0.412 -0.8064 -0.2280  0.2228
 1824TIP3    H1 5478   0.407   0.336   0.430 -0.7935 -0.7989  1.6655
 1824TIP3    H2 5479   0.546   0.318   0.489  0.6424  0.8491 -1.0274
 1825TIP3   OH2 5480   6.048   1.659   4.759  0.0115 -0.4301  0.1974
 1825TIP3    H1 5481   6.074   1.571   4.787 -0.0691 -1.3854 -2.4044
 1825TIP3    H2 5482   6.131   1.707   4.752  0.1743 -0.6607  0.5291
 1826TIP3   OH2 5483   0.253   0.860   1.173  0.4503  0.3493 -0.7084
 1826TIP3    H1 5484   0.332   0.890   1.218  0.1661 -0.3906  0.3113
 1826TIP3    H2 5485   0.231   0.931   1.113  0.6817  1.4933  0.5207
 1827TIP3   OH2 5486   3.748   5.439   1.927 -0.2959 -0.4795  0.0346
 1827TIP3    H1 5487   3.808   5.384   1.877 -0.0378  0.3759 -0.6284
 1827TIP3    H2 5488   3.749   5.523   1.881 -0.3227  0.2295  1.2959
 1828TIP3   OH2 5489   4.617   4.443   4.997 -0.4940 -0.6353  0.3129
 1828TIP3    H1 5490   4.697   4.427   5.048 -0.6334 -0.0872  0.7124
 1828TIP3    H2 5491   4.631   4.528   4.956 -0.6947 -0.7345  0.0351
 1829TIP3   OH2 5492   0.911   4.703   1.135  0.4131  0.1990  0.4202
 1829TIP3    H1 5493   0.855   4.779   1.121  1.4206  0.8684 -0.0921
 1829TIP3    H2 5494   0.851   4.633   1.162 -0.9140  0.4518 -1.6253
 1830TIP3   OH2 5495   5.606   1.232   3.802  0.4207 -0.1258 -0.4560
 1830TIP3    H1 5496   5.573   1.142   3.792  0.3043 -0.2030  0.5443
 1830TIP3    H2 5497   5.527   1.286   3.795  0.5649 -0.0462 -1.6498
 1831TIP3   OH2 5498   4.272   3.399   4.255 -0.1384 -0.8379  0.5161
 1831TIP3    H1 5499   4.210   3.341   4.300 -2.8169  0.8263 -0.8122
 1831TIP3    H2 5500   4.323   3.341   4.199 -0.2489 -2.3112  1.8760
 1832TIP3   OH2 5501   2.548   1.826   4.495  0.6480 -0.2104  0.1549
 1832TIP3    H1 5502   2.620   1.815   4.433  0.2075  1.9486 -0.8187
 1832TIP3    H2 5503   2.567   1.908   4.541 -1.1121  0.3623 -0.0512
 1833TIP3   OH2 5504   5.795   4.742   3.255  0.0470 -0.5096 -0.0362
 1833TIP3    H1 5505   5.842   4.820   3.284 -1.7371  0.7758 -0.4444
 1833TIP3    H2 5506   5.841   4.713   3.176 -0.6714  1.5836 -1.2802
 1834TIP3   OH2 5507   4.728   2.965   2.777 -0.6111 -0.8416  0.4476
 1834TIP3    H1 5508   4.815   2.999   2.795 -1.4977  1.3435  0.9570
 1834TIP3    H2 5509   4.730   2.874   2.809  1.1863 -0.5411  1.2921
 1835TIP3   OH2 5510   4.243   0.287   2.097 -0.2055 -0.7673  0.1267
 1835TIP3    H1 5511   4.324   0.237   2.102  1.4644  1.5097 -1.6669
 1835TIP3    H2 5512   4.211   0.274   2.008  0.8382  1.9391 -0.7577
 1836TIP3   OH2 5513   3.856   5.064   0.049 -0.3899  0.0262 -0.1033
 1836TIP3    H1 5514   3.839   5.001  -0.022  0.5127  0.4062 -0.6662
 1836TIP3    H2 5515   3.824   5.019   0.128 -0.8808 -0.6379 -0.6639
 1837TIP3   OH2 5516   0.309   2.393   4.052  0.1968  0.1902 -0.5907
 1837TIP3    H1 5517   0.378   2.457   4.068  1.2814 -0.2247 -2.9941
 1837TIP3    H2 5518   0.299   2.393   3.956 -1.1335 -1.8168 -0.5127
 1838TIP3   OH2 5519   3.230   3.678   3.997  0.5008  0.2532  0.5831
 1838TIP3    H1 5520   3.148   3.663   4.044  0.5513 -1.0706  0.3003
 1838TIP3    H2 5521   3.277   3.742   4.050 -0.2957  0.2720  1.2793
 1839TIP3   OH2 5522   3.962   0.851   1.012 -0.3528 -0.3687 -0.6530
 1839TIP3    H1 5523   3.868   0.839   1.025 -0.2327  0.2153  1.0291
 1839TIP3    H2 5524   3.998   0.763   1.006 -1.2211 -0.6204 -3.5427
 1840TIP3   OH2 5525   3.183   2.235   1.684  0.6323  0.0787 -0.3426
 1840TIP3    H1 5526   3.171   2.262   1.593  0.4927  0.8417 -0.1120
 1840TIP3    H2 5527   3.114   2.171   1.700 -0.1249  0.8557 -0.4242
 1841TIP3   OH2 5528   0.361   2.652   2.836 -0.4465  0.2157  0.0154
 1841TIP3    H1 5529   0.414   2.610   2.768 -0.1137 -0.0771  0.4470
 1841TIP3    H2 5530   0.425   2.692   2.895 -0.7048 -0.0444  0.4770
 1842TIP3   OH2 5531   0.172   5.370   4.704  0.2168 -0.3175  0.8560
 1842TIP3    H1 5532   0.156   5.276   4.698  0.6058 -0.2932 -1.2923
 1842TIP3    H2 5533   0.096   5.404   4.751  0.2584 -1.7289  2.0183
 1843TIP3   OH2 5534   3.032   3.856   1.939  0.2056  0.1218  0.0071
 1843TIP3    H1 5535   3.063   3.901   1.860 -3.3471  1.9777 -0.5547
 1843TIP3    H2 5536   2.960   3.802   1.908  0.5336 -1.3058  1.6383
 1844TIP3   OH2 5537   0.242   0.299   0.856  0.7767 -0.2252 -0.3107
 1844TIP3    H1 5538   0.293   0.359   0.802  1.4802  0.0508  0.6318
 1844TIP3    H2 5539   0.188   0.250   0.794  0.8669  0.7419 -1.1694
 1845TIP3   OH2 5540   3.132   2.459   2.588 -0.3201 -0.0789 -0.2908
 1845TIP3    H1 5541   3.180   2.454   2.670 -1.2212 -0.2610  0.2369
 1845TIP3    H2 5542   3.128   2.369   2.557  0.2329  0.0204 -0.6738
 1846TIP3   OH2 5543   2.284   3.311   5.095  0.1120  0.4583 -0.1455
 1846TIP3    H1 5544   2.256   3.377   5.158  0.6079 -0.1538  0.7374
 1846TIP3    H2 5545   2.207   3.257   5.081  0.3171 -0.1258  0.8779
 1847TIP3   OH2 5546   4.077   5.825   4.234 -0.0452 -0.0779 -0.6678
 1847TIP3    H1 5547   4.073   5.901   4.176  0.5131  0.7393  0.3374
 1847TIP3    H2 5548   4.116   5.756   4.181 -0.7736  0.2529 -1.6663
 1848TIP3   OH2 5549   3.710   1.315   1.710  0.4163  0.6041 -0.2504
 1848TIP3    H1 5550   3.765   1.390   1.687  1.0332  0.4403  0.6177
 1848TIP3    H2 5551   3.768   1.240   1.702  0.7425  0.5602  1.9458
 1849TIP3   OH2 5552   5.256   1.417   5.089 -0.2799 -0.0663  0.0464
 1849TIP3    H1 5553   5.177   1.401   5.037 -0.6508 -0.9025  0.8347
 1849TIP3    H2 5554   5.238   1.375   5.173  1.0099 -0.2605  0.2413
 1850TIP3   OH2 5555   3.293   5.789   2.067 -0.2930  0.1950 -0.3151
 1850TIP3    H1 5556   3.332   5.850   2.130  0.0286 -0.0291 -0.2905
 1850TIP3    H2 5557   3.354   5.714   2.067 -1.0991 -0.4863  0.2794
 1851TIP3   OH2 5558   5.515   5.372   4.061 -0.2092 -0.0853 -0.3604
 1851TIP3    H1 5559   5.460   5.295   4.077 -1.3201  0.8377  0.3360
 1851TIP3    H2 5560   5.575   5.344   3.991  0.7748 -2.2531  1.2192
 1852TIP3   OH2 5561   4.741   4.918   4.200  0.0167  0.1518  0.3729
 1852TIP3    H1 5562   4.773   4.978   4.132 -0.3876  0.3744  0.3796
 1852TIP3    H2 5563   4.810   4.921   4.267  0.4450 -0.1122 -0.0470
 1853TIP3   OH2 5564   0.329   1.491   5.086  0.0313 -0.2924  0.7329
 1853TIP3    H1 5565   0.311   1.575   5.128 -1.0146  0.0415 -0.3170
 1853TIP3    H2 5566   0.384   1.444   5.148 -1.2540  0.2708  2.3709
 1854TIP3   OH2 5567   1.094   4.009   1.576  0.4252  0.1612 -0.1644
 1854TIP3    H1 5568   1.124   4.078   1.516  2.1256 -0.3012  0.1126
 1854TIP3    H2 5569   1.023   3.966   1.529  0.5659  0.9261 -1.1176
 1855TIP3   OH2 5570   1.791   5.839   3.194 -0.4190  0.1481  0.1269
 1855TIP3    H1 5571   1.876   5.803   3.170 -1.3073 -0.8533 -1.7711
 1855TIP3    H2 5572   1.810   5.904   3.261  1.9380  0.5202 -0.8168
 1856TIP3   OH2 5573   3.104   1.270   1.686 -0.1998 -0.3867  0.4925
 1856TIP3    H1 5574   3.098   1.295   1.778  2.8888  2.0443  0.2085
 1856TIP3    H2 5575   3.176   1.206   1.684  1.1988  1.1429 -0.3828
 1857TIP3   OH2 5576   1.060   3.206   4.393 -0.3994 -0.0771  0.4819
 1857TIP3    H1 5577   0.997   3.278   4.405  0.6703  0.8100  0.9254
 1857TIP3    H2 5578   1.008   3.127   4.408 -2.2170  0.3997 -2.4516
 1858TIP3   OH2 5579   1.271   1.107   4.811  0.6790  0.1301  0.1662
 1858TIP3    H1 5580   1.230   1.146   4.889  0.9626  1.2338 -0.2235
 1858TIP3    H2 5581   1.364   1.103   4.833  0.9136  1.4469 -0.5066
 1859TIP3   OH2 5582   3.231   5.322   4.378  0.6504 -0.4068  0.2137
 1859TIP3    H1 5583   3.218   5.304   4.284  0.0963 -0.5402  0.3129
 1859TIP3    H2 5584   3.239   5.236   4.418  0.1317 -0.3781  0.3907
 1860TIP3   OH2 5585   5.899   0.947   2.245 -0.3219 -0.0883 -0.2131
 1860TIP3    H1 5586   5.989   0.978   2.230  0.3351 -0.8916  1.6919
 1860TIP3    H2 5587   5.886   0.881   2.177  0.6472 -0.1474 -0.3656
 1861TIP3   OH2 5588   5.634   5.269   3.426  0.3832  0.4515  0.0096
 1861TIP3    H1 5589   5.612   5.198   3.486 -0.3968  0.5439 -0.1575
 1861TIP3    H2 5590   5.717   5.303   3.459  0.8034 -0.5730  0.0542
 1862TIP3   OH2 5591   5.899   2.439   0.799  0.5578  0.1067 -0.2490
 1862TIP3    H1 5592   5.804   2.442   0.806  0.6678  0.5142  1.4703
 1862TIP3    H2 5593   5.920   2.346   0.791  0.1636 -0.3349  2.9143
 1863TIP3   OH2 5594   0.957   3.092   1.494 -0.1665 -0.2384 -0.8892
 1863TIP3    H1 5595   0.920   3.178   1.474 -0.4244 -0.1057  0.1156
 1863TIP3    H2 5596   0.931   3.037   1.420 -0.1394  0.5072 -1.4561
 1864TIP3   OH2 5597   3.703   4.441   4.617  0.3160  0.1378  0.1409
 1864TIP3    H1 5598   3.652   4.433   4.536 -0.0974  0.4709  0.3673
 1864TIP3    H2 5599   3.641   4.419   4.687  0.4380  0.7094  0.4296
 1865TIP3   OH2 5600   0.257   3.460   3.579  0.3079 -0.1489  0.1561
 1865TIP3    H1 5601   0.303   3.376   3.590 -0.5834 -0.8324 -1.0990
 1865TIP3    H2 5602   0.288   3.493   3.495 -0.4747  0.0455 -0.0598
 1866TIP3   OH2 5603   6.110   0.072   0.703  0.2762 -0.0608 -0.5519
 1866TIP3    H1 5604   6.104  -0.020   0.729  0.6038 -0.3153 -1.3166
 1866TIP3    H2 5605   6.175   0.072   0.632  1.4278  0.9852  0.4494
 1867TIP3   OH2 5606   4.600   0.739   3.866  0.2947 -0.3599 -0.0736
 1867TIP3    H1 5607   4.665   0.670   3.877  0.6177 -0.2196 -0.9820
 1867TIP3    H2 5608   4.546   0.734   3.945  1.3447 -0.5345  0.6628
 1868TIP3   OH2 5609   2.619   0.744   3.271 -0.1554 -0.1184 -0.1245
 1868TIP3    H1 5610   2.668   0.776   3.347 -0.3865 -1.1067  0.4707
 1868TIP3    H2 5611   2.652   0.795   3.197  2.5888 -1.4565  0.0371
 1869TIP3   OH2 5612   1.959   2.301   3.214  0.0766 -0.7061 -0.3087
 1869TIP3    H1 5613   2.052   2.324   3.219 -0.5478  1.9360  0.3670
 1869TIP3    H2 5614   1.947   2.234   3.282  1.1023  0.3867  1.0015
 1870TIP3   OH2 5615   3.211   2.586   4.231 -0.3233  0.1931  0.0904
 1870TIP3    H1 5616   3.238   2.499   4.262  2.2381  0.3921 -1.3439
 1870TIP3    H2 5617   3.116   2.578   4.220 -0.1126 -2.6485 -0.5578
 1871TIP3   OH2 5618   5.440   1.879   1.118  0.3204 -0.0444 -0.1976
 1871TIP3    H1 5619   5.399   1.828   1.188 -0.0948 -0.3211 -0.6370
 1871TIP3    H2 5620   5.523   1.834   1.102  0.7919  0.4860  0.6574
 1872TIP3   OH2 5621   3.427   2.689   1.311 -0.3305  1.2456  0.0966
 1872TIP3    H1 5622   3.421   2.725   1.222  1.1915  1.2708 -0.0156
 1872TIP3    H2 5623   3.366   2.741   1.362  0.8670  3.1506 -0.3303
 1873TIP3   OH2 5624   2.659   2.780   2.299 -0.5483  0.0561 -0.4806
 1873TIP3    H1 5625   2.567   2.763   2.281 -0.5035  0.0045 -0.6586
 1873TIP3    H2 5626   2.697   2.802   2.215 -0.0192 -1.6793 -0.7435
 1874TIP3   OH2 5627   2.040   3.744   0.689 -0.1478 -0.3273  0.0952
 1874TIP3    H1 5628   2.115   3.755   0.748  0.7422 -1.9801 -0.6354
 1874TIP3    H2 5629   2.059   3.802   0.615  0.2476 -0.4893  0.0671
 1875TIP3   OH2 5630   1.275   4.935   4.165  0.0708 -0.1239 -0.0433
 1875TIP3    H1 5631   1.309   4.846   4.179  0.5701 -0.1980 -1.5004
 1875TIP3    H2 5632   1.342   4.977   4.110 -0.7477  0.7499 -0.3851
 1876TIP3   OH2 5633   2.279   2.049   0.657  0.4676 -0.1488  0.5818
 1876TIP3    H1 5634   2.201   2.058   0.603  0.3118  0.0962  0.8483
 1876TIP3    H2 5635   2.260   1.976   0.716  0.8791 -0.8224 -0.1068
 1877TIP3   OH2 5636   5.029   3.087   0.791  0.0196 -0.1526 -0.3369
 1877TIP3    H1 5637   5.078   3.165   0.766 -1.8740  0.6037 -1.9139
 1877TIP3    H2 5638   4.974   3.067   0.715 -1.7296 -1.2603  1.1266
 1878TIP3   OH2 5639   4.482   3.265   4.988  0.0854  0.7589  0.3803
 1878TIP3    H1 5640   4.487   3.343   4.933 -1.7733  0.1351 -0.7762
 1878TIP3    H2 5641   4.573   3.247   5.013  0.6485  2.7821 -0.0028
 1879TIP3   OH2 5642   4.926   4.679   4.014  0.7877  0.8107  0.4711
 1879TIP3    H1 5643   4.854   4.733   4.047  0.2040  0.0090  0.5508
 1879TIP3    H2 5644   4.885   4.624   3.947  0.9580 -0.7428  1.5877
 1880TIP3   OH2 5645   5.595   5.486   3.620 -0.4758 -0.1199  0.3942
 1880TIP3    H1 5646   5.647   5.559   3.655  0.0592 -0.9167  1.3003
 1880TIP3    H2 5647   5.595   5.421   3.690  1.5035 -2.2094 -1.3704
 1881TIP3   OH2 5648   5.489   4.894   4.868 -0.7171  0.8680 -0.2025
 1881TIP3    H1 5649   5.515   4.841   4.792 -1.2079 -1.5158  1.1789
 1881TIP3    H2 5650   5.393   4.896   4.863 -0.8337 -0.2990  0.9002
 1882TIP3   OH2 5651   2.523   0.530   0.891 -0.2492  0.3990 -0.0138
 1882TIP3    H1 5652   2.571   0.450   0.868 -1.2129 -0.5938  1.2330
 1882TIP3    H2 5653   2.591   0.596   0.904  0.5125  0.1475 -2.2190
 1883TIP3   OH2 5654   3.134   0.197   2.850 -0.3153  0.1863  1.1406
 1883TIP3    H1 5655   3.196   0.162   2.915 -0.8551 -0.9683  1.0619
 1883TIP3    H2 5656   3.048   0.173   2.884 -0.5811 -1.2227 -0.4035
 1884TIP3   OH2 5657   4.255   5.339   1.282 -0.0173  0.7641  0.3401
 1884TIP3    H1 5658   4.319   5.275   1.312  0.7993  2.2573  1.9522
 1884TIP3    H2 5659   4.206   5.363   1.360 -1.7092  0.6187 -0.6210
 1885TIP3   OH2 5660   0.815   1.071   3.449 -0.4155 -0.3506  0.3072
 1885TIP3    H1 5661   0.740   1.073   3.509 -0.3757 -0.9939  0.3850
 1885TIP3    H2 5662   0.787   1.124   3.374 -0.9856 -0.6580  0.2984
 1886TIP3   OH2 5663   2.576   0.886   1.831 -0.4727 -0.7712 -0.3651
 1886TIP3    H1 5664   2.483   0.887   1.851 -0.5091  0.4624 -0.4994
 1886TIP3    H2 5665   2.589   0.960   1.771  0.4802 -1.3286 -0.8788
 1887TIP3   OH2 5666   1.028   3.790   1.417 -0.1115 -0.4228 -0.1987
 1887TIP3    H1 5667   1.108   3.828   1.381  0.6085 -1.2200  0.5025
 1887TIP3    H2 5668   0.958   3.842   1.379  0.8250  2.1159  1.2482
 1888TIP3   OH2 5669   1.924   0.740   2.776  0.3006  0.1299 -0.1278
 1888TIP3    H1 5670   1.924   0.648   2.800  0.7861 -0.1228 -1.0315
 1888TIP3    H2 5671   1.849   0.777   2.821  0.7380 -0.4691  1.1280
 1889TIP3   OH2 5672   2.025   4.226   2.778 -0.7486  0.8271  0.2716
 1889TIP3    H1 5673   1.944   4.212   2.826 -1.2073  1.5817 -0.2687
 1889TIP3    H2 5674   2.002   4.207   2.687  0.2154 -1.0353  0.3553
 1890TIP3   OH2 5675   2.905   5.776   0.804 -0.5116 -0.0160 -0.2199
 1890TIP3    H1 5676   2.903   5.854   0.859 -0.1550 -1.2119  1.5805
 1890TIP3    H2 5677   2.988   5.734   0.826 -0.8987 -1.1377 -0.8208
 1891TIP3   OH2 5678   2.439   0.157   1.150  0.0977  0.4077 -0.1692
 1891TIP3    H1 5679   2.484   0.114   1.223 -2.6782  0.4018  1.7155
 1891TIP3    H2 5680   2.431   0.090   1.083  2.1702  0.2182 -0.2744
 1892TIP3   OH2 5681   1.254   0.079   0.629 -0.0548  0.1527 -0.6854
 1892TIP3    H1 5682   1.256   0.165   0.672 -1.9672  0.0713 -0.3389
 1892TIP3    H2 5683   1.326   0.082   0.566  2.2002  0.6798  1.7257
 1893TIP3   OH2 5684   0.131   0.597   4.118  0.2785  0.5079  0.3164
 1893TIP3    H1 5685   0.101   0.507   4.105 -0.5913  0.6635  1.1445
 1893TIP3    H2 5686   0.170   0.597   4.206  0.5057  0.8805  0.2178
 1894TIP3   OH2 5687   6.282   5.599   0.816  0.1112  0.0424 -0.0363
 1894TIP3    H1 5688   6.279   5.548   0.897 -0.9014 -0.3761 -0.3228
 1894TIP3    H2 5689   6.294   5.534   0.747  1.4040  0.4326 -0.2131
 1895TIP3   OH2 5690   5.839   2.314   2.125 -0.0813  0.2639 -0.2316
 1895TIP3    H1 5691   5.922   2.286   2.086  0.8305  2.1565  0.2458
 1895TIP3    H2 5692   5.783   2.237   2.120  2.2137 -1.5918  0.9241
 1896TIP3   OH2 5693   3.233   6.008   4.195 -0.1539 -0.5049 -0.2260
 1896TIP3    H1 5694   3.326   6.008   4.218 -0.1487 -0.6933 -0.2457
 1896TIP3    H2 5695   3.226   5.943   4.126 -0.6161 -1.8683  1.0616
 1897TIP3   OH2 5696   2.659   0.697   4.268 -0.4101 -0.0165 -0.3272
 1897TIP3    H1 5697   2.690   0.634   4.333  0.4391 -0.1367 -0.8235
 1897TIP3    H2 5698   2.722   0.690   4.196  0.4835  2.2774  0.1197
 1898TIP3   OH2 5699   4.420   0.281   5.082 -0.1948  0.0291  0.1761
 1898TIP3    H1 5700   4.509   0.304   5.056  0.0487  0.6559  1.5020
 1898TIP3    H2 5701   4.385   0.361   5.122 -0.5930 -0.8282  1.6056
 1899TIP3   OH2 5702   3.512   2.979   4.316 -0.3716  0.8218  0.8636
 1899TIP3    H1 5703   3.578   2.910   4.320 -0.1750  1.0589  2.2323
 1899TIP3    H2 5704   3.488   2.984   4.224  1.0018  0.2361  0.4493
 1900TIP3   OH2 5705   1.156   0.160   1.598  0.1919 -0.0136  0.3112
 1900TIP3    H1 5706   1.084   0.222   1.593 -0.4682 -0.7723  0.1941
 1900TIP3    H2 5707   1.157   0.116   1.513  1.7302  0.9718 -0.2379
 1901TIP3   OH2 5708   2.430   3.843   3.685  0.7480  0.2355 -0.1759
 1901TIP3    H1 5709   2.414   3.895   3.763  1.0215  0.0653 -0.0076
 1901TIP3    H2 5710   2.474   3.764   3.717  0.5973  0.0317 -0.4633
 1902TIP3   OH2 5711   2.405   3.646   5.158  0.1646 -0.6256  0.3166
 1902TIP3    H1 5712   2.332   3.586   5.166 -1.0153  0.4291 -1.6270
 1902TIP3    H2 5713   2.483   3.590   5.152 -0.8896 -2.0053 -1.5110
 1903TIP3   OH2 5714   2.230   0.560   2.522 -0.2999  0.1221 -0.0141
 1903TIP3    H1 5715   2.272   0.604   2.448 -1.5599 -0.5281 -1.1565
 1903TIP3    H2 5716   2.173   0.627   2.560 -2.6811 -0.5636 -2.1206
 1904TIP3   OH2 5717   1.928   0.266   2.753  0.5758  0.1483  0.2294
 1904TIP3    H1 5718   1.967   0.315   2.680  0.2579 -0.4899 -0.3838
 1904TIP3    H2 5719   1.837   0.253   2.727  0.5077 -0.2545  0.6538
 1905TIP3   OH2 5720   5.391   2.036   1.959 -0.2412  0.4420 -0.0533
 1905TIP3    H1 5721   5.347   1.957   1.990  0.2155 -0.2135 -1.0513
 1905TIP3    H2 5722   5.373   2.101   2.027 -0.3630 -0.5981  0.9389
 1906TIP3   OH2 5723   2.027   4.160   0.306  0.3621  0.2960  0.3551
 1906TIP3    H1 5724   2.030   4.147   0.212 -2.1087  2.2727 -0.1147
 1906TIP3    H2 5725   2.079   4.239   0.322  0.8071 -0.0535  0.6780
 1907TIP3   OH2 5726   4.273   2.982   2.615 -0.2521 -0.7115  0.4182
 1907TIP3    H1 5727   4.219   2.906   2.595 -0.8467  0.2152 -1.8857
 1907TIP3    H2 5728   4.209   3.053   2.627  0.3457 -0.0115 -0.3839
 1908TIP3   OH2 5729   5.790   5.373   2.567  0.0274  0.2237 -0.5222
 1908TIP3    H1 5730   5.783   5.468   2.554 -0.7618  0.2864  0.2536
 1908TIP3    H2 5731   5.796   5.362   2.662  0.0337 -0.5066 -0.6022
 1909TIP3   OH2 5732   4.436   0.400   0.350 -0.2064  0.3186  0.0628
 1909TIP3    H1 5733   4.419   0.416   0.443 -1.1865  0.7949 -0.1821
 1909TIP3    H2 5734   4.518   0.350   0.348 -0.0142  0.5720  1.1617
 1910TIP3   OH2 5735   1.094   5.297   0.274  0.2340 -0.1661  0.7332
 1910TIP3    H1 5736   1.139   5.218   0.306 -1.3165 -0.9669  1.0514
 1910TIP3    H2 5737   1.061   5.272   0.187 -0.2871  0.1072  0.8457
 1911TIP3   OH2 5738   0.415   1.636   2.954 -0.6993 -0.2153 -0.3830
 1911TIP3    H1 5739   0.343   1.626   2.891  1.0363 -0.4675 -2.4221
 1911TIP3    H2 5740   0.457   1.550   2.956  1.5288  0.7570 -1.8112
 1912TIP3   OH2 5741   2.275   2.546   2.788  0.0085  0.3990  0.2446
 1912TIP3    H1 5742   2.216   2.475   2.765  0.7989 -1.2896  2.9556
 1912TIP3    H2 5743   2.277   2.546   2.884  2.8499  1.6859  0.2938
 1913TIP3   OH2 5744   4.043   2.985   1.884 -0.1605  0.1879 -1.0484
 1913TIP3    H1 5745   4.106   3.028   1.827  0.4928 -0.4602 -0.8281
 1913TIP3    H2 5746   3.958   3.021   1.857  0.3429  1.4707 -0.9807
 1914TIP3   OH2 5747   0.187   5.354   4.161 -0.0958  0.1408  0.0321
 1914TIP3    H1 5748   0.270   5.323   4.197 -0.7727 -1.2150  0.4872
 1914TIP3    H2 5749   0.167   5.293   4.091 -2.2697 -1.6298  2.0092
 1915TIP3   OH2 5750   0.092   1.181   0.778  0.4387  0.0974  0.2209
 1915TIP3    H1 5751   0.164   1.220   0.828 -0.0494  1.8713 -0.3530
 1915TIP3    H2 5752   0.078   1.242   0.706 -0.6763 -0.9813 -0.5074
 1916TIP3   OH2 5753   1.757   3.343   1.312  0.8891 -0.1976  0.3881
 1916TIP3    H1 5754   1.765   3.421   1.257  1.8597 -1.2034 -0.9524
 1916TIP3    H2 5755   1.724   3.376   1.395 -1.2358  1.3081 -0.9521
 1917TIP3   OH2 5756   0.190   0.443   5.058  0.0156 -0.1576 -0.6513
 1917TIP3    H1 5757   0.248   0.442   5.134  1.4177 -1.0700 -1.6783
 1917TIP3    H2 5758   0.101   0.446   5.095  0.6809  0.4981  0.9740
 1918TIP3   OH2 5759   3.822   1.922   1.014 -0.2464  0.6169 -0.0449
 1918TIP3    H1 5760   3.914   1.895   1.009 -0.0611  1.2216  0.0032
 1918TIP3    H2 5761   3.797   1.940   0.924 -0.4873 -0.0916 -0.1217
 1919TIP3   OH2 5762   4.085   1.499   1.886  0.1424  0.1953 -0.0759
 1919TIP3    H1 5763   4.104   1.405   1.888  0.6392  0.2467 -1.4720
 1919TIP3    H2 5764   4.010   1.509   1.946  0.2047 -1.0503  0.2427
 1920TIP3   OH2 5765   4.031   0.215   3.025 -0.1022 -0.1740 -0.0857
 1920TIP3    H1 5766   4.049   0.277   3.096  0.4370  1.3363 -1.4708
 1920TIP3    H2 5767   3.936   0.206   3.025 -0.2437  1.1034 -0.1803
 1921TIP3   OH2 5768   3.857   0.960   2.573 -0.2362 -0.0816 -0.1450
 1921TIP3    H1 5769   3.806   0.950   2.654  1.0461  0.0033  0.6920
 1921TIP3    H2 5770   3.806   1.023   2.521  0.1348  1.7940  1.6321
 1922TIP3   OH2 5771   2.181   5.193   3.100  0.1998 -0.7230 -0.5676
 1922TIP3    H1 5772   2.249   5.154   3.155 -0.1680  0.0151  0.4397
 1922TIP3    H2 5773   2.113   5.125   3.093 -0.5328 -0.2512  1.3444
 1923TIP3   OH2 5774   3.694   2.755   4.475  0.5010  0.0955 -0.0756
 1923TIP3    H1 5775   3.636   2.682   4.500  0.4673  0.0309 -0.3359
 1923TIP3    H2 5776   3.780   2.715   4.467  0.4501  0.0510 -0.3896
 1924TIP3   OH2 5777   1.799   3.483   0.441  0.4432 -0.1834 -0.1611
 1924TIP3    H1 5778   1.865   3.549   0.420 -0.8876  1.2860  0.0296
 1924TIP3    H2 5779   1.719   3.517   0.401 -0.0413 -2.3431 -1.1330
 1925TIP3   OH2 5780   0.150   2.468   2.982  0.2290 -0.4292 -0.3403
 1925TIP3    H1 5781   0.083   2.444   2.918  0.3166 -0.4987 -0.4064
 1925TIP3    H2 5782   0.201   2.538   2.939  0.1654 -0.3391 -0.2695
 1926TIP3   OH2 5783   5.998   4.389   4.102 -0.4104 -0.8916 -0.0481
 1926TIP3    H1 5784   6.003   4.363   4.010 -0.1487 -0.3922 -0.1800
 1926TIP3    H2 5785   5.906   4.408   4.117 -0.7012 -2.3995  0.1989
 1927TIP3   OH2 5786   3.603   0.740   3.479  0.2641  0.0442  0.0259
 1927TIP3    H1 5787   3.649   0.741   3.395 -1.4125  1.5447 -0.9507
 1927TIP3    H2 5788   3.531   0.678   3.465 -0.7961  1.2779 -0.1337
 1928TIP3   OH2 5789   1.763   3.415   1.566  0.0412 -0.0295  0.0467
 1928TIP3    H1 5790   1.680   3.428   1.612  0.5080 -0.2364  0.9529
 1928TIP3    H2 5791   1.791   3.327   1.591  0.1819 -0.2423 -0.8365
 1929TIP3   OH2 5792   3.346   1.428   0.139  0.6040  0.0301 -0.4987
 1929TIP3    H1 5793   3.412   1.496   0.121  1.1713 -0.6492 -1.0744
 1929TIP3    H2 5794   3.397   1.347   0.149 -0.1854 -0.6095 -1.4900
 1930TIP3   OH2 5795   2.851   1.623   5.125 -0.4107  0.3560 -0.2233
 1930TIP3    H1 5796   2.884   1.583   5.206 -0.0504 -1.6079 -1.2829
 1930TIP3    H2 5797   2.759   1.600   5.123 -1.3040  3.2260  1.1856
 1931TIP3   OH2 5798   4.392   4.507   0.343 -0.4693  0.3956 -0.1305
 1931TIP3    H1 5799   4.356   4.547   0.264 -0.5893 -0.7930 -0.6981
 1931TIP3    H2 5800   4.352   4.420   0.347  1.0387 -0.3216  0.1337
 1932TIP3   OH2 5801   5.313   5.576   0.301  0.3690 -0.1928  0.1983
 1932TIP3    H1 5802   5.272   5.490   0.294  0.1734 -0.0869  0.0379
 1932TIP3    H2 5803   5.368   5.582   0.223 -1.0306  0.5750 -0.7769
 1933TIP3   OH2 5804   1.868   2.975   1.149 -0.0869  0.6991  0.4413
 1933TIP3    H1 5805   1.950   2.930   1.130 -0.1708  0.0334  1.5143
 1933TIP3    H2 5806   1.878   3.062   1.111  0.1363 -0.1594 -1.5928
 1934TIP3   OH2 5807   5.945   1.881   4.551  0.0499  0.0620  0.2293
 1934TIP3    H1 5808   6.039   1.892   4.536 -0.1706  1.4968 -0.2847
 1934TIP3    H2 5809   5.936   1.792   4.586  1.6389  0.0754  0.7443
 1935TIP3   OH2 5810   5.495   3.663   0.750  0.1291 -0.4481  0.5350
 1935TIP3    H1 5811   5.582   3.692   0.777 -0.6512  0.5711  2.1094
 1935TIP3    H2 5812   5.474   3.591   0.809 -0.2653 -0.3971  0.4587
 1936TIP3   OH2 5813   1.807   0.055   4.377  0.0182 -0.2596  0.2149
 1936TIP3    H1 5814   1.853  -0.016   4.422 -1.0959  0.5041  2.7794
 1936TIP3    H2 5815   1.857   0.134   4.399  0.1302  0.0224 -0.9685
 1937TIP3   OH2 5816   1.093   1.233   2.752 -0.0464  0.2353  0.0315
 1937TIP3    H1 5817   1.174   1.202   2.793 -0.8507 -2.1006 -0.0182
 1937TIP3    H2 5818   1.023   1.191   2.802 -1.2717  2.1605  0.0282
 1938TIP3   OH2 5819   4.091   1.887   1.441  0.1787  0.3665 -0.2821
 1938TIP3    H1 5820   4.060   1.920   1.525 -0.1427  0.3048 -0.3775
 1938TIP3    H2 5821   4.061   1.951   1.376 -0.8003 -0.3064 -0.5161
 1939TIP3   OH2 5822   1.626   4.159   2.384  0.1768 -0.2222 -0.4294
 1939TIP3    H1 5823   1.599   4.069   2.402 -1.5310 -0.0908 -2.0218
 1939TIP3    H2 5824   1.710   4.149   2.338 -0.3036 -1.0719 -1.1661
 1940TIP3   OH2 5825   5.798   0.524   1.629 -0.7582  0.3002  0.0995
 1940TIP3    H1 5826   5.791   0.619   1.635 -0.3611  0.2368  2.3242
 1940TIP3    H2 5827   5.891   0.508   1.613 -0.7777  0.2680  0.0165
 1941TIP3   OH2 5828   0.270   0.750   3.145  0.6063  0.1392 -0.0835
 1941TIP3    H1 5829   0.176   0.738   3.136  0.6998 -0.7708  0.0903
 1941TIP3    H2 5830   0.287   0.834   3.103  0.0755 -0.8494 -2.4506
 1942TIP3   OH2 5831   0.552   1.253   1.752 -0.5400  0.1983  0.5157
 1942TIP3    H1 5832   0.516   1.224   1.669 -0.3417  0.1135  0.4580
 1942TIP3    H2 5833   0.476   1.272   1.806 -0.6877  1.9084 -0.2524
 1943TIP3   OH2 5834   3.213   1.224   4.116  0.1915  0.2123 -0.3017
 1943TIP3    H1 5835   3.129   1.266   4.134  0.5251 -0.3899  3.4123
 1943TIP3    H2 5836   3.197   1.131   4.129  0.9057 -0.2444 -2.2649
 1944TIP3   OH2 5837   3.881   1.635   4.991  0.6576  0.5176  0.0861
 1944TIP3    H1 5838   3.909   1.669   4.906 -0.5779 -0.1972 -0.6222
 1944TIP3    H2 5839   3.962   1.601   5.031  1.1542  0.3442 -1.0424
 1945TIP3   OH2 5840   1.256   3.297   5.072 -0.2577 -0.3456 -0.6887
 1945TIP3    H1 5841   1.188   3.297   5.004 -0.2982 -1.8306 -0.6704
 1945TIP3    H2 5842   1.279   3.205   5.084 -1.1117 -0.2885  2.1728
 1946TIP3   OH2 5843   3.760   1.601   3.647  0.4452 -0.1959 -0.0057
 1946TIP3    H1 5844   3.836   1.625   3.594  1.5105 -2.1225  0.5306
 1946TIP3    H2 5845   3.708   1.681   3.653  1.6288  0.7636 -1.7052
 1947TIP3   OH2 5846   0.860   4.456   5.016 -0.9738 -0.1679  0.0455
 1947TIP3    H1 5847   0.893   4.491   5.099  0.4521  0.8999 -0.9160
 1947TIP3    H2 5848   0.812   4.528   4.976 -1.8263 -0.7391  0.0029
 1948TIP3   OH2 5849   3.783   0.307   3.152  0.0804  0.2116 -0.1408
 1948TIP3    H1 5850   3.791   0.386   3.099  2.5959  1.0042  1.2222
 1948TIP3    H2 5851   3.777   0.339   3.242  2.5880 -1.0876  0.5769
 1949TIP3   OH2 5852   1.522   4.673   1.759 -0.0878  0.1422 -0.1648
 1949TIP3    H1 5853   1.468   4.703   1.686  2.9237  0.9683 -2.2989
 1949TIP3    H2 5854   1.541   4.753   1.808  1.3050  0.3945 -1.0474
 1950TIP3   OH2 5855   3.152   0.095   5.165  0.0787  0.2450  0.6151
 1950TIP3    H1 5856   3.184   0.066   5.080  3.1275  0.7812  1.4786
 1950TIP3    H2 5857   3.208   0.169   5.188 -1.0832  0.5170  2.8359
 1951TIP3   OH2 5858   3.704   0.792   1.000 -0.3368 -0.5038 -0.6228
 1951TIP3    H1 5859   3.643   0.856   0.964 -1.5276 -0.1550  1.8140
 1951TIP3    H2 5860   3.653   0.712   1.008 -0.2946 -0.4180  0.7446
 1952TIP3   OH2 5861   1.509   1.028   4.885 -0.2289 -0.4690  0.4963
 1952TIP3    H1 5862   1.570   0.969   4.842 -0.6912  0.1718 -1.1127
 1952TIP3    H2 5863   1.496   0.990   4.972  0.4656 -2.0195 -0.0396
 1953TIP3   OH2 5864   2.514   0.558   1.206  0.1211  0.3766 -0.1858
 1953TIP3    H1 5865   2.514   0.537   1.112  0.0127  0.4593 -0.2048
 1953TIP3    H2 5866   2.437   0.613   1.218 -0.7960 -0.9547  0.2410
 1954TIP3   OH2 5867   2.436   2.602   4.601 -0.2964  0.0957  0.0039
 1954TIP3    H1 5868   2.379   2.603   4.677 -1.4157  0.4357 -0.8182
 1954TIP3    H2 5869   2.441   2.693   4.573  0.5480  0.0515 -0.0223
 1955TIP3   OH2 5870   0.350   1.390   3.530  0.0310 -0.0061 -0.2634
 1955TIP3    H1 5871   0.305   1.306   3.536  0.6719 -0.2749  2.0298
 1955TIP3    H2 5872   0.282   1.454   3.552  0.0424 -0.1454  0.2005
 1956TIP3   OH2 5873   1.903   1.226   4.190 -0.6739 -0.5058  0.1115
 1956TIP3    H1 5874   1.901   1.151   4.131 -0.2291  1.1827 -2.2424
 1956TIP3    H2 5875   1.982   1.213   4.243  0.5628 -0.7393 -1.6989
 1957TIP3   OH2 5876   5.053   1.077   2.841  0.0074  0.4511 -0.0232
 1957TIP3    H1 5877   5.056   1.071   2.745 -0.2049  0.1766 -0.0167
 1957TIP3    H2 5878   4.960   1.083   2.861  0.0051 -0.2444  0.2029
 1958TIP3   OH2 5879   2.015   0.373   0.778  0.0620  0.0366  0.2987
 1958TIP3    H1 5880   2.042   0.281   0.767  0.1804  0.1238 -0.1560
 1958TIP3    H2 5881   2.088   0.414   0.824  0.7989  0.3028 -1.0492
 1959TIP3   OH2 5882   5.353   1.772   3.808 -0.0969 -0.5120  0.1532
 1959TIP3    H1 5883   5.388   1.830   3.741  0.9989  0.1526  1.2532
 1959TIP3    H2 5884   5.428   1.720   3.836 -0.1000  0.4422  2.0714
 1960TIP3   OH2 5885   3.599   1.993   4.892 -0.0599 -0.0434  0.0090
 1960TIP3    H1 5886   3.576   1.932   4.822  1.0525  0.9545 -1.2639
 1960TIP3    H2 5887   3.692   1.978   4.907  0.6161  2.2963 -1.3685
 1961TIP3   OH2 5888   4.557   1.532   4.997 -0.0658 -0.3572  0.4309
 1961TIP3    H1 5889   4.623   1.480   5.043  1.0232  1.0017  0.4686
 1961TIP3    H2 5890   4.607   1.600   4.952 -1.4731  1.0822  0.9563
 1962TIP3   OH2 5891   5.331   3.765   4.136 -0.2148  0.2665  0.0534
 1962TIP3    H1 5892   5.303   3.839   4.190 -2.4025 -0.6210  0.2542
 1962TIP3    H2 5893   5.291   3.782   4.051  0.5295  0.0332 -0.3533
 1963TIP3   OH2 5894   3.662   5.684   4.185 -0.0537 -0.3293 -0.1439
 1963TIP3    H1 5895   3.713   5.761   4.211 -0.4497  0.3867 -1.3845
 1963TIP3    H2 5896   3.690   5.615   4.244  0.4708  0.7180  0.8656
 1964TIP3   OH2 5897   3.602   3.834   0.372 -0.0802  0.2878 -0.4290
 1964TIP3    H1 5898   3.615   3.835   0.277 -0.7243  0.0434 -0.5292
 1964TIP3    H2 5899   3.690   3.839   0.409  0.0975  2.5338 -1.0133
 1965TIP3   OH2 5900   4.909   0.807   2.661 -0.3301  0.2748  0.0049
 1965TIP3    H1 5901   4.960   0.888   2.662 -0.4734  0.3663  0.0239
 1965TIP3    H2 5902   4.955   0.749   2.601 -0.7833  0.7336 -0.7979
 1966TIP3   OH2 5903   2.024   3.752   0.076 -0.0601  0.2324 -0.1732
 1966TIP3    H1 5904   2.073   3.671   0.072 -0.3962  0.0441 -0.5031
 1966TIP3    H2 5905   2.089   3.821   0.061  0.0643 -0.0263 -0.8314
 1967TIP3   OH2 5906   3.655   5.975   4.762  0.2785  0.1569  0.4706
 1967TIP3    H1 5907   3.714   5.911   4.802  0.0366  1.0979  2.4871
 1967TIP3    H2 5908   3.568   5.940   4.779  0.1292  1.1565  1.9452
 1968TIP3   OH2 5909   5.145   1.422   1.192  0.4162  0.4911  0.0836
 1968TIP3    H1 5910   5.170   1.494   1.250 -0.7362 -0.8471  2.3780
 1968TIP3    H2 5911   5.059   1.395   1.223 -1.8589  1.6908 -4.3076
 1969TIP3   OH2 5912   3.637   1.257   4.083  0.5012  0.2446 -0.1191
 1969TIP3    H1 5913   3.574   1.197   4.045  0.0732  0.1656  0.6855
 1969TIP3    H2 5914   3.688   1.289   4.009  0.8258 -1.2116 -0.5533
 1970TIP3   OH2 5915   2.232   1.625   3.615 -0.6290 -0.4834  0.2446
 1970TIP3    H1 5916   2.173   1.686   3.571 -1.6843 -1.5601  0.1042
 1970TIP3    H2 5917   2.319   1.664   3.606 -1.2734  1.0096  0.2230
 1971TIP3   OH2 5918   4.731   2.053   2.094  0.2965 -0.1254  0.0059
 1971TIP3    H1 5919   4.752   1.998   2.169  0.0182  0.4794  0.5359
 1971TIP3    H2 5920   4.812   2.056   2.043  0.3434 -0.9352  0.0197
 1972TIP3   OH2 5921   0.524   2.626   1.589  0.0921 -0.4490  0.1615
 1972TIP3    H1 5922   0.434   2.605   1.564 -0.0384  0.5205 -0.2300
 1972TIP3    H2 5923   0.532   2.720   1.572  1.1843 -0.5297  0.1733
 1973TIP3   OH2 5924   1.782   4.964   0.074 -0.3780  0.3803  0.2178
 1973TIP3    H1 5925   1.781   5.050   0.116  0.3071 -0.2215  1.5202
 1973TIP3    H2 5926   1.860   4.921   0.108 -1.5998 -1.3962  0.9390
 1974TIP3   OH2 5927   5.859   4.084   4.487  0.1690 -0.3713 -0.0229
 1974TIP3    H1 5928   5.875   4.012   4.426  2.1445 -0.5137  0.5858
 1974TIP3    H2 5929   5.934   4.142   4.476 -1.3893  1.6479 -0.5049
 1975TIP3   OH2 5930   5.103   4.242   0.544  0.2379  0.5018 -0.4887
 1975TIP3    H1 5931   5.188   4.200   0.560 -0.1454  0.0452  0.4436
 1975TIP3    H2 5932   5.120   4.335   0.554  0.5389  0.3834  0.1563
 1976TIP3   OH2 5933   2.261   3.242   4.205 -0.1823 -0.2988 -0.0875
 1976TIP3    H1 5934   2.168   3.256   4.189  0.3904  2.7829 -1.4542
 1976TIP3    H2 5935   2.276   3.280   4.292 -0.1815 -0.7949  0.1323
 1977TIP3   OH2 5936   0.035   5.129   3.046  0.3746 -0.1465  0.7748
 1977TIP3    H1 5937   0.103   5.072   3.011 -0.0382  0.6108 -1.4316
 1977TIP3    H2 5938   0.082   5.202   3.086  1.0624  1.7865 -3.0889
 1978TIP3   OH2 5939   3.160   1.504   5.093 -0.1677 -0.0135  0.1811
 1978TIP3    H1 5940   3.094   1.438   5.072 -0.3381 -0.0920  0.9643
 1978TIP3    H2 5941   3.117   1.565   5.152 -0.5983  1.8789 -1.9283
 1979TIP3   OH2 5942   3.100   3.889   4.511 -0.1322 -0.2646  0.1259
 1979TIP3    H1 5943   3.132   3.937   4.588  1.6887 -0.0098 -0.7306
 1979TIP3    H2 5944   3.044   3.951   4.465 -0.6107 -0.1595  0.8411
 1980TIP3   OH2 5945   1.402   2.474   5.104 -0.2693  0.0097 -0.0029
 1980TIP3    H1 5946   1.392   2.505   5.194 -0.5679 -0.9115  0.2876
 1980TIP3    H2 5947   1.319   2.497   5.062 -0.3209 -0.0098  0.0872
 1981TIP3   OH2 5948   1.857   5.724   4.801  0.9862 -0.8083  0.3251
 1981TIP3    H1 5949   1.833   5.809   4.765  0.4170 -1.5056 -1.0122
 1981TIP3    H2 5950   1.939   5.740   4.848  0.1187  0.7572  1.3740
 1982TIP3   OH2 5951   0.453   4.865   5.058 -0.4409  0.0896 -0.5102
 1982TIP3    H1 5952   0.480   4.776   5.038  1.6273  0.3663  0.7201
 1982TIP3    H2 5953   0.435   4.864   5.152  1.3307  1.3130 -0.1156
 1983TIP3   OH2 5954   1.986   4.773   3.834  0.1141 -0.5163  0.1237
 1983TIP3    H1 5955   1.911   4.756   3.891 -0.3265  0.7286 -0.0520
 1983TIP3    H2 5956   1.981   4.705   3.767 -0.9257 -0.3953  0.0622
 1984TIP3   OH2 5957   5.442   2.384   1.882  0.4119 -0.0596 -0.0908
 1984TIP3    H1 5958   5.367   2.444   1.885 -0.1944 -0.8246  0.7326
 1984TIP3    H2 5959   5.499   2.415   1.952 -0.1173 -0.6875  0.6401
 1985TIP3   OH2 5960   3.394   0.732   0.114  0.4034  0.1785  0.1722
 1985TIP3    H1 5961   3.408   0.818   0.076  1.9695  0.4355  1.2169
 1985TIP3    H2 5962   3.304   0.710   0.092 -0.4571  2.6213  0.9117
 1986TIP3   OH2 5963   4.268   1.304   2.963  0.0683  0.3463  0.1054
 1986TIP3    H1 5964   4.286   1.212   2.943 -1.6133 -0.2477  1.1674
 1986TIP3    H2 5965   4.314   1.352   2.894  0.5322 -1.3032 -0.8016
 1987TIP3   OH2 5966   2.067   3.787   2.509 -0.0073  0.8245 -0.1402
 1987TIP3    H1 5967   2.098   3.800   2.419  0.7576 -0.2553 -0.0606
 1987TIP3    H2 5968   1.972   3.795   2.503  0.0108  0.5010 -1.1001
 1988TIP3   OH2 5969   3.712   0.523   1.672  0.2342 -0.3510 -0.1575
 1988TIP3    H1 5970   3.689   0.482   1.589  0.4010 -0.6328 -0.0675
 1988TIP3    H2 5971   3.777   0.464   1.711  0.4303 -0.0332  0.0050
 1989TIP3   OH2 5972   1.500   4.621   3.575  0.2463  0.0109 -0.0710
 1989TIP3    H1 5973   1.546   4.688   3.525  0.1584 -1.3969 -2.1352
 1989TIP3    H2 5974   1.425   4.598   3.521 -0.4489 -0.8494  1.2075
 1990TIP3   OH2 5975   0.275   2.984   3.736  0.1230 -0.2853 -0.8825
 1990TIP3    H1 5976   0.273   2.889   3.751 -1.3826 -0.0207  0.9330
 1990TIP3    H2 5977   0.185   3.013   3.747  0.6083  1.4177 -1.0287
 1991TIP3   OH2 5978   5.018   0.566   2.237  0.5676  0.0561 -0.0703
 1991TIP3    H1 5979   4.988   0.475   2.240 -0.1076  0.2573 -0.4777
 1991TIP3    H2 5980   4.998   0.595   2.148 -0.1070  0.8989  0.3449
 1992TIP3   OH2 5981   2.909   1.535   3.309  0.0378  0.5476 -0.4886
 1992TIP3    H1 5982   3.001   1.561   3.319  0.3344 -0.9466  1.2471
 1992TIP3    H2 5983   2.872   1.542   3.397 -1.2170  0.0511 -0.9541
 1993TIP3   OH2 5984   5.348   5.749   1.251  0.1139 -0.3899  0.4929
 1993TIP3    H1 5985   5.424   5.696   1.223  1.6089  1.6553  0.4427
 1993TIP3    H2 5986   5.297   5.690   1.307  2.4662 -1.4674  1.6582
 1994TIP3   OH2 5987   4.648   0.891   1.141 -0.0179 -0.5186  0.2446
 1994TIP3    H1 5988   4.699   0.929   1.070  1.7418  0.0545  1.7181
 1994TIP3    H2 5989   4.704   0.901   1.218 -1.6539 -1.5114  1.6346
 1995TIP3   OH2 5990   0.203   1.379   2.383 -0.2330  0.5798  0.0903
 1995TIP3    H1 5991   0.253   1.430   2.320  0.1631  0.6339  0.4427
 1995TIP3    H2 5992   0.115   1.415   2.379 -0.4802 -0.0989 -1.1852
 1996TIP3   OH2 5993   4.145   2.573   5.135  0.3121  0.3210 -0.0147
 1996TIP3    H1 5994   4.104   2.633   5.073 -1.4462 -1.9221 -1.1552
 1996TIP3    H2 5995   4.082   2.564   5.206  0.9496  0.4641  0.5843
 1997TIP3   OH2 5996   5.602   5.930   2.616 -0.2872  0.3070  0.8118
 1997TIP3    H1 5997   5.609   6.007   2.560 -1.1742 -1.1365 -1.3705
 1997TIP3    H2 5998   5.520   5.943   2.665 -0.7315  0.4750  0.0289
 1998TIP3   OH2 5999   1.857   0.221   1.958 -0.1298 -0.3181 -0.1113
 1998TIP3    H1 6000   1.895   0.224   2.045 -1.2451 -2.7637  0.5388
 1998TIP3    H2 6001   1.922   0.264   1.902  2.7553 -2.5967  1.2175
 1999TIP3   OH2 6002   2.679   3.891   0.903  0.1232 -0.2197 -0.1049
 1999TIP3    H1 6003   2.704   3.804   0.873  0.6275  0.6471 -2.4032
 1999TIP3    H2 6004   2.677   3.944   0.824 -2.1052  1.4368  0.9609
 2000TIP3   OH2 6005   0.131   4.024   4.091 -0.1887  0.8081  0.4195
 2000TIP3    H1 6006   0.127   3.935   4.124  3.1213  0.5318  0.3380
 2000TIP3    H2 6007   0.172   4.074   4.161  0.0917  1.7697 -0.4021
 2001TIP3   OH2 6008   5.958   2.013   1.598  0.0874  0.1444 -0.2144
 2001TIP3    H1 6009   5.937   2.042   1.687 -0.9484 -1.6272  0.1649
 2001TIP3    H2 6010   5.952   2.092   1.545 -1.3989  0.8509  0.9340
 2002TIP3   OH2 6011   4.624   4.886   0.244  0.9275  0.9179 -0.3632
 2002TIP3    H1 6012   4.625   4.907   0.337 -0.1142 -2.0984  0.4506
 2002TIP3    H2 6013   4.534   4.903   0.216  0.3556 -1.0882  0.0566
 2003TIP3   OH2 6014   6.201   1.120   0.909  0.1101 -0.2198 -0.3889
 2003TIP3    H1 6015   6.265   1.115   0.838 -0.4285 -1.1925 -0.8183
 2003TIP3    H2 6016   6.231   1.194   0.963  1.8061 -0.8799 -0.3722
 2004TIP3   OH2 6017   5.191   0.120   1.375  0.3988  0.6041 -0.1079
 2004TIP3    H1 6018   5.184   0.211   1.345  1.5992  0.7612  0.0425
 2004TIP3    H2 6019   5.137   0.118   1.455 -1.3231  0.6335 -1.2147
 2005TIP3   OH2 6020   2.283   0.817   0.715 -0.2675  0.4953 -0.1566
 2005TIP3    H1 6021   2.356   0.792   0.657 -1.3836 -2.0277 -0.6292
 2005TIP3    H2 6022   2.205   0.808   0.660 -1.2826 -1.0956  1.4398
 2006TIP3   OH2 6023   1.459   3.578   4.250 -0.2310 -0.4002  0.1082
 2006TIP3    H1 6024   1.374   3.620   4.262  1.2372  2.0968  2.7217
 2006TIP3    H2 6025   1.467   3.517   4.323 -0.8090 -2.7548 -1.6615
 2007TIP3   OH2 6026   2.396   5.400   3.384  0.0364  0.6056 -0.8607
 2007TIP3    H1 6027   2.404   5.488   3.348  1.1576  0.5389 -0.8240
 2007TIP3    H2 6028   2.478   5.356   3.358  1.0340  0.6295  1.9189
 2008TIP3   OH2 6029   5.064   5.619   1.079 -0.0795  0.2061 -0.3831
 2008TIP3    H1 6030   4.987   5.650   1.126 -0.2163 -0.9948  0.1967
 2008TIP3    H2 6031   5.095   5.543   1.128 -0.3107 -1.1923 -2.2807
 2009TIP3   OH2 6032   2.236   2.096   1.924  0.2245 -0.0282 -0.2865
 2009TIP3    H1 6033   2.155   2.146   1.937  0.9809  1.3088 -0.5489
 2009TIP3    H2 6034   2.211   2.005   1.943 -0.9922  0.5379  1.0355
 2010TIP3   OH2 6035   0.771   1.879   3.636  0.3139  0.0031  0.2390
 2010TIP3    H1 6036   0.800   1.841   3.719 -1.8466  0.0478  1.0697
 2010TIP3    H2 6037   0.728   1.961   3.660  0.6435  0.5924 -1.0643
 2011TIP3   OH2 6038   5.985   0.265   1.471  0.4434 -0.1011  0.1908
 2011TIP3    H1 6039   5.901   0.287   1.430  0.7200 -1.7038 -1.3547
 2011TIP3    H2 6040   6.051   0.304   1.414  0.7997  2.2352  2.0770
 2012TIP3   OH2 6041   4.124   4.596   1.256  0.2218  0.0427  0.0201
 2012TIP3    H1 6042   4.043   4.546   1.264  0.6171 -0.8421 -1.1141
 2012TIP3    H2 6043   4.191   4.540   1.294  0.4706  0.2995 -0.0335
 2013TIP3   OH2 6044   0.434   0.652   2.189  0.1673  0.2552 -0.2961
 2013TIP3    H1 6045   0.526   0.658   2.163  0.9944 -5.2234  0.2559
 2013TIP3    H2 6046   0.430   0.702   2.271  2.7363  0.5195 -0.2345
 2014TIP3   OH2 6047   5.700   4.627   2.164 -0.3955  0.0295 -0.2878
 2014TIP3    H1 6048   5.673   4.694   2.102 -0.4313  1.7031  1.4554
 2014TIP3    H2 6049   5.791   4.648   2.185 -0.7993  0.3498  1.2516
 2015TIP3   OH2 6050   1.744   4.667   0.923 -0.1658 -0.0451 -0.0237
 2015TIP3    H1 6051   1.788   4.655   1.007 -1.5318 -1.0986  0.5784
 2015TIP3    H2 6052   1.792   4.738   0.881  1.9030 -0.9111  0.7228
 2016TIP3   OH2 6053   4.723   2.445   2.949 -0.3713 -0.3691  0.2596
 2016TIP3    H1 6054   4.633   2.439   2.917 -0.7885 -1.0492  1.4861
 2016TIP3    H2 6055   4.750   2.354   2.961  0.7200 -0.1912 -0.7117
 2017TIP3   OH2 6056   5.848   1.415   3.130 -1.0329  0.1573 -0.2460
 2017TIP3    H1 6057   5.871   1.332   3.172 -0.7113 -0.2282 -1.1491
 2017TIP3    H2 6058   5.918   1.430   3.067  0.5963  2.6762  1.9355
 2018TIP3   OH2 6059   3.065   5.753   4.460 -0.4775 -0.5716 -0.5983
 2018TIP3    H1 6060   3.137   5.690   4.462  0.3822  0.2882 -2.1729
 2018TIP3    H2 6061   2.986   5.699   4.452 -0.0957 -1.5436  1.5582
 2019TIP3   OH2 6062   3.929   3.857   0.759  0.0994 -0.0325  0.2529
 2019TIP3    H1 6063   4.022   3.856   0.783 -0.0746  0.2196  0.9393
 2019TIP3    H2 6064   3.895   3.774   0.792 -0.1131  0.2611  0.7791
 2020TIP3   OH2 6065   4.815   3.007   0.262 -0.5442 -0.3069 -0.6436
 2020TIP3    H1 6066   4.874   3.068   0.218 -2.6949  2.0205 -0.5648
 2020TIP3    H2 6067   4.856   2.922   0.251  2.6580  1.1114 -0.7517
 2021TIP3   OH2 6068   6.250   2.968   1.930 -0.2406  0.0914 -0.2456
 2021TIP3    H1 6069   6.194   3.043   1.952  0.0094  0.6024 -1.3064
 2021TIP3    H2 6070   6.197   2.892   1.952 -0.8369  0.5743  0.0237
 2022TIP3   OH2 6071   0.046   2.313   3.464 -0.0776 -0.2266 -0.3113
 2022TIP3    H1 6072  -0.032   2.364   3.441  0.3488  0.9175  0.6897
 2022TIP3    H2 6073   0.102   2.374   3.511  1.2801 -1.1267 -0.6881
 2023TIP3   OH2 6074   2.040   4.013   1.319 -0.0449  0.5376  0.2101
 2023TIP3    H1 6075   1.951   3.978   1.331 -0.8097  2.0925 -0.6373
 2023TIP3    H2 6076   2.077   3.960   1.248  0.1729 -0.8939  1.3444
 2024TIP3   OH2 6077   2.210   1.683   4.943  0.3760  0.5116  0.1632
 2024TIP3    H1 6078   2.255   1.611   4.987 -0.2895  0.0487  0.1123
 2024TIP3    H2 6079   2.264   1.702   4.866  0.6626  0.1997  0.2867
 2025TIP3   OH2 6080   5.206   4.134   5.084  0.0642 -0.3081  0.4078
 2025TIP3    H1 6081   5.145   4.108   5.015  2.2735 -0.4992 -1.6004
 2025TIP3    H2 6082   5.222   4.227   5.068 -0.6777  0.0823  1.7683
 2026TIP3   OH2 6083   4.268   0.626   2.099  0.2512 -0.5648  0.1919
 2026TIP3    H1 6084   4.337   0.646   2.162 -1.1138 -0.7014  1.8041
 2026TIP3    H2 6085   4.198   0.586   2.151 -1.8943  1.3866 -0.9635
 2027TIP3   OH2 6086   4.438   0.706   2.316 -0.0457 -0.3682 -0.4979
 2027TIP3    H1 6087   4.514   0.743   2.360 -0.9467 -0.6956  1.4177
 2027TIP3    H2 6088   4.433   0.616   2.348 -0.6181 -0.6933 -1.4518
 2028TIP3   OH2 6089   1.017   2.751   0.341  0.1879  0.2892 -0.1731
 2028TIP3    H1 6090   1.011   2.662   0.308  1.9500 -0.2176  0.7538
 2028TIP3    H2 6091   1.013   2.806   0.263  0.7824 -0.6899 -0.9216
 2029TIP3   OH2 6092   1.961   4.493   3.324  0.0275 -0.3268  0.1108
 2029TIP3    H1 6093   1.958   4.489   3.228 -3.4186  0.0700  0.1036
 2029TIP3    H2 6094   1.993   4.406   3.350  1.6755 -0.2219 -1.3349
 2030TIP3   OH2 6095   1.045   3.537   2.438 -0.0339  0.4769  0.0932
 2030TIP3    H1 6096   1.010   3.453   2.468  0.7573 -0.7635 -2.1979
 2030TIP3    H2 6097   1.041   3.594   2.515 -1.7188 -1.2758  1.4028
 2031TIP3   OH2 6098   1.342   3.257   3.799 -0.3341 -0.2042  0.1448
 2031TIP3    H1 6099   1.416   3.197   3.790 -0.5142 -0.4263  0.1440
 2031TIP3    H2 6100   1.330   3.267   3.894 -0.6880 -0.6460  0.1495
 2032TIP3   OH2 6101   5.730   0.701   4.365 -0.0737 -0.7117  0.0733
 2032TIP3    H1 6102   5.657   0.737   4.316 -0.2841  0.6402  1.2968
 2032TIP3    H2 6103   5.807   0.747   4.332 -0.4514  1.7112  2.2706
 2033TIP3   OH2 6104   5.323   1.079   0.401 -0.1566  0.7148 -0.4929
 2033TIP3    H1 6105   5.229   1.090   0.417  0.1420 -0.9623  3.4540
 2033TIP3    H2 6106   5.364   1.149   0.451  0.7816  1.6103 -2.4188
 2034TIP3   OH2 6107   0.383   1.292   1.982 -0.0561 -0.2142  0.2322
 2034TIP3    H1 6108   0.428   1.286   2.066 -0.1095 -1.4186  0.1986
 2034TIP3    H2 6109   0.352   1.203   1.966  1.5801 -0.4724 -1.9420
 2035TIP3   OH2 6110   3.895   4.163   3.116 -0.6069  0.1177 -0.2849
 2035TIP3    H1 6111   3.915   4.207   3.198 -1.3795  1.2258 -0.6695
 2035TIP3    H2 6112   3.902   4.069   3.136  0.0261  0.3833  0.8119
 2036TIP3   OH2 6113   3.915   0.858   4.601 -0.3820 -0.2486 -0.3748
 2036TIP3    H1 6114   3.827   0.881   4.570  0.1467 -0.4258 -2.1180
 2036TIP3    H2 6115   3.974   0.896   4.535  0.8472 -0.3068  0.6591
 2037TIP3   OH2 6116   3.144   4.573   4.830  0.2923  0.4792 -0.2784
 2037TIP3    H1 6117   3.138   4.577   4.734 -0.7118 -2.1833 -0.4333
 2037TIP3    H2 6118   3.073   4.514   4.855  1.2775  0.1654  1.9914
 2038TIP3   OH2 6119   1.890   1.536   5.150  0.2320 -0.3095  0.0260
 2038TIP3    H1 6120   1.812   1.481   5.157  0.3072 -0.4910 -0.4893
 2038TIP3    H2 6121   1.933   1.506   5.069 -1.3211  2.5075 -2.0285
 2039TIP3   OH2 6122   4.164   0.814   3.964 -0.2315  0.2276 -0.1031
 2039TIP3    H1 6123   4.225   0.818   3.890 -2.0746  2.8313 -1.6604
 2039TIP3    H2 6124   4.106   0.741   3.944  2.1237 -2.1790  1.3183
 2040TIP3   OH2 6125   4.917   4.083   3.433 -0.0202  0.3791  0.5878
 2040TIP3    H1 6126   4.848   4.082   3.367  1.3079 -1.8481 -0.8854
 2040TIP3    H2 6127   4.888   4.148   3.497 -3.9066 -1.0196  0.5148
 2041TIP3   OH2 6128   5.125   5.893   2.216  0.1492 -1.0057  0.4842
 2041TIP3    H1 6129   5.112   5.898   2.121 -0.3292 -0.0450  0.5847
 2041TIP3    H2 6130   5.219   5.877   2.226 -0.1807 -3.9293 -0.1854
 2042TIP3   OH2 6131   1.183   2.368   1.093 -0.2656  0.3009 -0.0418
 2042TIP3    H1 6132   1.275   2.343   1.088 -0.6120 -0.8734 -1.0465
 2042TIP3    H2 6133   1.137   2.287   1.115 -1.0805  0.8569  0.3830
 2043TIP3   OH2 6134   2.119   4.519   4.864 -0.3063  0.1937  0.1048
 2043TIP3    H1 6135   2.057   4.493   4.796 -0.1152  1.9142 -0.8017
 2043TIP3    H2 6136   2.066   4.569   4.926 -0.0148  0.9951 -0.2657
 2044TIP3   OH2 6137   0.076   0.795   3.968 -0.0565  0.4560 -0.2270
 2044TIP3    H1 6138   0.108   0.718   4.016  0.2215  0.7210  0.0132
 2044TIP3    H2 6139   0.146   0.814   3.905  0.2410  1.0058  0.2639
 2045TIP3   OH2 6140   4.155   0.760   2.696  0.1444  0.2495 -0.1721
 2045TIP3    H1 6141   4.149   0.854   2.717 -0.6577  0.0545  0.5140
 2045TIP3    H2 6142   4.243   0.735   2.725  0.0789  0.6178  0.3556
 2046TIP3   OH2 6143   4.567   2.362   1.682  0.0054 -0.4281  0.2066
 2046TIP3    H1 6144   4.640   2.359   1.621  1.5025  0.8241  1.8232
 2046TIP3    H2 6145   4.604   2.332   1.765 -1.3951 -0.0766  0.9883
 2047TIP3   OH2 6146   1.116   4.717   3.198 -0.0689  0.1287  0.1120
 2047TIP3    H1 6147   1.057   4.783   3.161  0.4160  0.3751 -0.2483
 2047TIP3    H2 6148   1.202   4.740   3.161  0.2083 -0.3499  0.4562
 2048TIP3   OH2 6149   3.033   0.040   3.624  0.2416 -0.2152 -0.1235
 2048TIP3    H1 6150   3.110  -0.018   3.625 -0.7706 -1.6605  1.9343
 2048TIP3    H2 6151   2.969  -0.006   3.570  0.4543  0.4936 -0.9928
 2049TIP3   OH2 6152   2.382   2.530   4.351  0.0375  0.6487 -0.1553
 2049TIP3    H1 6153   2.392   2.546   4.445  2.7458 -0.6157 -0.1383
 2049TIP3    H2 6154   2.399   2.615   4.311  1.9628  0.5840  0.4190
 2050TIP3   OH2 6155   4.720   2.460   0.172 -0.1152 -0.1614 -0.2275
 2050TIP3    H1 6156   4.666   2.406   0.115 -0.8147 -0.0715  0.3463
 2050TIP3    H2 6157   4.713   2.420   0.258  0.1460  0.2749  0.0011
 2051TIP3   OH2 6158   6.014   3.875   0.946  0.1765 -0.1442  0.1520
 2051TIP3    H1 6159   5.937   3.928   0.963 -1.2668 -1.8275 -0.8143
 2051TIP3    H2 6160   6.031   3.830   1.029 -0.4671 -0.4847  0.1019
 2052TIP3   OH2 6161   1.947   3.711   3.216 -0.1609 -0.0383  0.1868
 2052TIP3    H1 6162   1.951   3.645   3.147  0.1969  1.8169 -1.6514
 2052TIP3    H2 6163   1.910   3.788   3.173  1.2987  1.5835  1.7272
 2053TIP3   OH2 6164   0.432   5.284   2.962  0.2240  0.1948  0.0866
 2053TIP3    H1 6165   0.366   5.224   2.927  0.9398 -0.1027 -0.8081
 2053TIP3    H2 6166   0.397   5.371   2.943  1.2237  0.0924 -2.8633
 2054TIP3   OH2 6167   6.022   0.577   1.495 -0.3046  0.3630 -0.5244
 2054TIP3    H1 6168   6.115   0.560   1.511 -0.4510 -0.2745 -0.3085
 2054TIP3    H2 6169   6.021   0.657   1.443  0.3777  0.2613 -0.7082
 2055TIP3   OH2 6170   3.028   2.445   0.552 -0.3765  0.2835 -0.4572
 2055TIP3    H1 6171   3.116   2.482   0.560  0.7319 -2.0902 -0.9256
 2055TIP3    H2 6172   3.042   2.354   0.526 -3.0203  0.1049 -1.5742
 2056TIP3   OH2 6173   4.996   2.927   4.724  0.2028 -0.1539  0.1900
 2056TIP3    H1 6174   5.074   2.871   4.716 -1.2272 -2.4458  1.1399
 2056TIP3    H2 6175   4.992   2.949   4.818  0.4291  1.1212 -0.0808
 2057TIP3   OH2 6176   1.129   0.676   1.237  0.7804  0.0409  0.2912
 2057TIP3    H1 6177   1.153   0.699   1.327  0.5289  1.8934 -0.0665
 2057TIP3    H2 6178   1.211   0.675   1.189  0.7336  0.9185  0.1784
 2058TIP3   OH2 6179   4.762   1.573   2.111  0.0239  0.4000  0.1661
 2058TIP3    H1 6180   4.817   1.649   2.094 -1.3818  1.4508  0.1089
 2058TIP3    H2 6181   4.823   1.499   2.115  1.3565  1.4273 -0.4135
 2059TIP3   OH2 6182   3.291   1.062   2.621  0.0658 -0.6343 -0.7766
 2059TIP3    H1 6183   3.368   1.019   2.585  1.1805  1.9055 -1.6936
 2059TIP3    H2 6184   3.323   1.148   2.650 -2.3806  0.5135 -1.1655
 2060TIP3   OH2 6185   2.528   5.516   2.978  0.3523  0.6710  0.2385
 2060TIP3    H1 6186   2.617   5.547   2.962  0.0265  1.5252  0.0366
 2060TIP3    H2 6187   2.486   5.517   2.892  0.3892 -0.5768  0.1766
 2061TIP3   OH2 6188   0.393   0.457   0.690  0.1557  0.1297 -0.5615
 2061TIP3    H1 6189   0.404   0.491   0.779 -0.3043 -1.7063  0.2519
 2061TIP3    H2 6190   0.481   0.434   0.662  0.5203  2.2196 -1.2638
 2062TIP3   OH2 6191   6.056   4.880   5.147 -0.2390  0.4590 -0.3586
 2062TIP3    H1 6192   5.961   4.887   5.141 -0.3164 -0.4592 -0.2481
 2062TIP3    H2 6193   6.072   4.819   5.218  0.4465  0.7526 -0.2464
 2063TIP3   OH2 6194   1.032   0.394   1.426 -0.1741  0.5157 -0.2040
 2063TIP3    H1 6195   1.034   0.484   1.393 -1.3907  1.1039  1.2025
 2063TIP3    H2 6196   0.958   0.392   1.485  2.4484 -0.1114  3.4121
 2064TIP3   OH2 6197   0.114   0.130   0.397  0.4898  0.0029 -0.0937
 2064TIP3    H1 6198   0.072   0.127   0.311 -0.8672 -0.7765  0.5756
 2064TIP3    H2 6199   0.183   0.196   0.387 -0.8865  1.3407 -1.2206
 2065TIP3   OH2 6200   2.952   3.661   4.526  0.3638 -0.3452 -0.1818
 2065TIP3    H1 6201   3.018   3.593   4.538  0.6467 -0.0911 -0.2595
 2065TIP3    H2 6202   3.002   3.743   4.531  0.1018 -0.1605 -0.5835
 2066TIP3   OH2 6203   0.029   0.358   3.011  0.1139  0.0140 -0.3284
 2066TIP3    H1 6204  -0.059   0.389   2.990  0.3903 -0.0524 -1.6536
 2066TIP3    H2 6205   0.071   0.433   3.053  0.1601  0.8549 -1.7876
 2067TIP3   OH2 6206   3.445   2.678   3.416  0.4109 -0.0479  0.0592
 2067TIP3    H1 6207   3.465   2.654   3.325 -0.4033  0.8797 -0.3898
 2067TIP3    H2 6208   3.440   2.594   3.462 -1.0969 -0.6867 -1.1780
 2068TIP3   OH2 6209   2.953   5.553   3.937 -0.4359 -0.0794  0.5644
 2068TIP3    H1 6210   2.970   5.544   4.030  2.3776  1.4238  0.3049
 2068TIP3    H2 6211   2.989   5.474   3.897  1.5929  0.8177  0.5043
 2069TIP3   OH2 6212   3.442   4.885   1.357 -0.0993 -0.4101  0.1497
 2069TIP3    H1 6213   3.426   4.977   1.334  1.6256  0.1879  1.1359
 2069TIP3    H2 6214   3.356   4.844   1.353 -0.5620  0.6307 -2.8477
 2070TIP3   OH2 6215   4.829   1.907   3.137 -0.4245  0.3575 -0.3016
 2070TIP3    H1 6216   4.863   1.818   3.122  3.4525  1.8144 -1.3879
 2070TIP3    H2 6217   4.818   1.912   3.232  1.1915 -0.7462 -0.0014
 2071TIP3   OH2 6218   3.980   5.939   5.094 -0.5594 -0.0998 -0.0288
 2071TIP3    H1 6219   4.048   5.990   5.049  0.3013 -0.2709  1.0276
 2071TIP3    H2 6220   3.901   5.992   5.087  0.3502  1.4978  1.1883
 2072TIP3   OH2 6221   0.746   0.427   3.957  0.0116  0.1376  0.0610
 2072TIP3    H1 6222   0.734   0.499   3.895  0.5874  0.1087 -0.0900
 2072TIP3    H2 6223   0.780   0.355   3.905  1.7695  0.5243  0.6182
 2073TIP3   OH2 6224   1.188   2.196   3.357 -0.6250 -0.4261 -0.5526
 2073TIP3    H1 6225   1.258   2.259   3.374 -2.5301  1.8923 -0.7422
 2073TIP3    H2 6226   1.197   2.130   3.426  1.2094  0.2560 -0.0826
 2074TIP3   OH2 6227   2.243   2.243   1.461  0.5342  0.0987 -0.6364
 2074TIP3    H1 6228   2.176   2.291   1.411 -0.1153  0.5745  0.6391
 2074TIP3    H2 6229   2.238   2.154   1.428 -1.5111 -0.1383  0.1338
 2075TIP3   OH2 6230   0.934   2.424   3.684 -0.0134  0.2377 -0.0928
 2075TIP3    H1 6231   0.937   2.328   3.684 -0.6879  0.1929  1.2936
 2075TIP3    H2 6232   0.948   2.448   3.776  1.5921  1.5435 -0.6344
 2076TIP3   OH2 6233   0.595   0.070   4.826 -0.2600 -0.1425  0.4405
 2076TIP3    H1 6234   0.552   0.087   4.742  1.9311 -0.3726 -0.8140
 2076TIP3    H2 6235   0.608   0.156   4.865  2.6816  0.5447 -1.6510
 2077TIP3   OH2 6236   5.422   3.172   4.447  0.1769  0.2849  0.9115
 2077TIP3    H1 6237   5.440   3.078   4.457  0.4382  0.2962  0.5835
 2077TIP3    H2 6238   5.331   3.182   4.476 -1.2431 -0.7321 -2.7157
 2078TIP3   OH2 6239   2.382   5.965   0.278 -0.4634  0.1911 -0.3735
 2078TIP3    H1 6240   2.322   5.960   0.353 -0.8217  2.7914 -0.3971
 2078TIP3    H2 6241   2.325   5.959   0.201 -0.5462  1.1621 -0.3994
 2079TIP3   OH2 6242   4.668   0.691   0.822 -0.7065  0.2078  0.0438
 2079TIP3    H1 6243   4.746   0.697   0.767 -0.2418  1.8304  0.8299
 2079TIP3    H2 6244   4.609   0.758   0.787 -1.1538 -0.0195  0.3606
 2080TIP3   OH2 6245   1.360   3.215   2.585 -0.1128  0.2216  0.1882
 2080TIP3    H1 6246   1.411   3.295   2.578  0.9059 -0.3808  0.4109
 2080TIP3    H2 6247   1.315   3.207   2.501 -1.0351  1.5303  0.5250
 2081TIP3   OH2 6248   3.092   1.095   3.400 -0.3262 -0.0421 -0.2104
 2081TIP3    H1 6249   3.185   1.105   3.378 -0.2209 -2.4875 -1.2741
 2081TIP3    H2 6250   3.076   1.159   3.469  1.9342  1.0117 -0.5751
 2082TIP3   OH2 6251   2.711   4.328   1.486 -0.4602 -0.1908 -1.1323
 2082TIP3    H1 6252   2.778   4.395   1.501 -0.5547 -0.0084 -1.4921
 2082TIP3    H2 6253   2.727   4.298   1.397 -1.5097  0.6305 -1.6321
 2083TIP3   OH2 6254  -0.014   5.779   1.854  0.5814 -0.0183 -0.4789
 2083TIP3    H1 6255   0.028   5.797   1.770  0.7077  0.5104 -0.3118
 2083TIP3    H2 6256  -0.009   5.863   1.901 -0.5291  0.0202 -0.3983
 2084TIP3   OH2 6257   0.256   4.592   2.395 -0.1190 -0.1088  0.3943
 2084TIP3    H1 6258   0.297   4.534   2.459  0.0906 -1.2513 -0.7443
 2084TIP3    H2 6259   0.329   4.631   2.348 -0.2848  0.0693  0.2819
 2085TIP3   OH2 6260   5.857   1.662   3.259 -0.8516  0.2509 -0.4172
 2085TIP3    H1 6261   5.922   1.712   3.209  0.9336  0.2222  1.7229
 2085TIP3    H2 6262   5.820   1.601   3.195  0.5964  0.8869 -1.9358
 2086TIP3   OH2 6263   5.265   0.555   0.007 -0.1877  0.4882  0.0205
 2086TIP3    H1 6264   5.294   0.531   0.095 -2.1849  0.2611  0.6927
 2086TIP3    H2 6265   5.211   0.634   0.021 -1.7510 -0.3913 -0.7364
 2087TIP3   OH2 6266   6.039   3.276   4.609  0.1864 -0.1117  0.1347
 2087TIP3    H1 6267   5.995   3.195   4.583 -1.7275  0.4617  1.4048
 2087TIP3    H2 6268   5.986   3.310   4.681  1.5459  1.7467  0.3259
 2088TIP3   OH2 6269   6.209   5.369   2.462 -0.0635  0.3476 -0.4642
 2088TIP3    H1 6270   6.292   5.326   2.482 -0.1013  1.0779  1.4066
 2088TIP3    H2 6271   6.202   5.363   2.367  1.8326 -0.2735 -0.6100
 2089TIP3   OH2 6272   1.524   3.270   1.106  0.1215 -0.9118  0.2755
 2089TIP3    H1 6273   1.464   3.245   1.176 -1.1464 -1.0403 -0.8262
 2089TIP3    H2 6274   1.499   3.359   1.082  1.3088 -0.4250  0.7350
 2090TIP3   OH2 6275   6.054   1.448   1.107  0.4015  0.0459 -0.0805
 2090TIP3    H1 6276   5.992   1.459   1.035  1.2119 -0.4374 -0.8663
 2090TIP3    H2 6277   6.015   1.498   1.180 -0.1725  0.9538 -0.9880
 2091TIP3   OH2 6278   3.713   4.815   1.324  0.6485  0.0626 -0.4432
 2091TIP3    H1 6279   3.716   4.870   1.246 -0.0575 -1.8324 -1.9063
 2091TIP3    H2 6280   3.645   4.854   1.379 -1.4474 -0.4929 -2.4467
 2092TIP3   OH2 6281   4.245   5.143   4.197  0.1814  0.0112  0.3268
 2092TIP3    H1 6282   4.329   5.130   4.152  0.9410  1.5718  1.2194
 2092TIP3    H2 6283   4.252   5.089   4.276  0.4115  0.2659  0.4809
 2093TIP3   OH2 6284   5.887   0.288   2.546  0.1475  0.3770  0.3112
 2093TIP3    H1 6285   5.976   0.298   2.582  0.8951 -0.0959 -1.3167
 2093TIP3    H2 6286   5.848   0.219   2.600  0.2363  1.5357  1.9467
 2094TIP3   OH2 6287   0.245   2.763   1.199  0.4689 -0.8934 -0.1349
 2094TIP3    H1 6288   0.279   2.712   1.124  1.4280  0.6776 -0.8134
 2094TIP3    H2 6289   0.323   2.783   1.251  0.2280  0.5383 -0.3035
 2095TIP3   OH2 6290   1.246   2.198   2.677  0.1427 -0.7100 -0.6589
 2095TIP3    H1 6291   1.300   2.182   2.599 -0.0061  1.0938 -1.1903
 2095TIP3    H2 6292   1.275   2.284   2.708 -1.9801  0.0433 -0.5987
 2096TIP3   OH2 6293   2.214   3.454   0.329  1.0250 -0.0011 -0.3765
 2096TIP3    H1 6294   2.172   3.523   0.379  0.8055 -0.8041  0.5649
 2096TIP3    H2 6295   2.308   3.465   0.347  1.0259  0.3018 -0.5609
 2097TIP3   OH2 6296   2.568   2.042   4.686  0.6781 -0.0975  0.1522
 2097TIP3    H1 6297   2.586   1.983   4.760 -0.5336 -0.9956 -0.2278
 2097TIP3    H2 6298   2.504   2.104   4.720 -1.9938 -2.1408 -0.7797
 2098TIP3   OH2 6299   2.180   5.628   4.419 -0.1262  0.7419  0.3117
 2098TIP3    H1 6300   2.096   5.673   4.421  0.8856  2.9407 -1.3984
 2098TIP3    H2 6301   2.240   5.688   4.463  0.9772  0.3600 -0.6010
 2099TIP3   OH2 6302   1.552   5.747   3.125 -0.1204  0.1692  0.1421
 2099TIP3    H1 6303   1.545   5.656   3.153  1.7437 -1.6819 -4.4269
 2099TIP3    H2 6304   1.639   5.775   3.153  0.2994 -0.3954 -0.5615
 2100TIP3   OH2 6305   5.920   4.117   2.526  0.1048 -0.2741  0.2112
 2100TIP3    H1 6306   5.970   4.096   2.447  1.1210 -2.5055  1.3891
 2100TIP3    H2 6307   5.985   4.121   2.596 -0.9320  0.4492  1.1692
 2101TIP3   OH2 6308   5.836   1.783   2.732 -0.2632  0.0885 -0.5191
 2101TIP3    H1 6309   5.883   1.820   2.807 -0.8586 -1.9004  0.9265
 2101TIP3    H2 6310   5.747   1.819   2.740 -1.2895 -2.5208  1.7816
 2102TIP3   OH2 6311   6.128   2.368   1.782  0.0178 -0.0029 -0.1636
 2102TIP3    H1 6312   6.202   2.320   1.746  0.2604  0.6310 -0.5347
 2102TIP3    H2 6313   6.148   2.378   1.875 -1.5305 -3.3597  0.6885
 2103TIP3   OH2 6314   1.338   5.755   3.369 -0.0002 -0.1728 -0.3229
 2103TIP3    H1 6315   1.386   5.702   3.305  0.5864 -0.4410  0.3335
 2103TIP3    H2 6316   1.369   5.724   3.454 -0.6286  0.3208  0.0892
 2104TIP3   OH2 6317   3.094   1.884   4.552 -0.2926 -0.3105  0.0527
 2104TIP3    H1 6318   3.143   1.911   4.630 -1.6761 -1.0374  1.2130
 2104TIP3    H2 6319   3.089   1.788   4.559 -0.1811 -0.4234 -1.1138
 2105TIP3   OH2 6320   6.036   1.115   0.472  0.2495  0.1982  0.3579
 2105TIP3    H1 6321   5.981   1.046   0.434 -0.4082  0.6850  0.4212
 2105TIP3    H2 6322   6.103   1.067   0.521 -0.3798 -0.3985  0.6526
 2106TIP3   OH2 6323   1.173   5.044   1.529 -0.1952 -0.5369  0.3436
 2106TIP3    H1 6324   1.103   5.089   1.481 -1.4422 -2.8922 -0.1655
 2106TIP3    H2 6325   1.132   5.018   1.611  0.8090  0.0899  1.0607
 2107TIP3   OH2 6326   4.992   3.959  -0.013 -0.2842  0.2089  0.0894
 2107TIP3    H1 6327   4.923   4.008   0.032  0.4595  2.4998 -1.0635
 2107TIP3    H2 6328   5.074   3.999   0.018  0.3203  0.3621 -1.5759
 2108TIP3   OH2 6329   5.889   4.323   2.194  0.1150 -0.0373 -0.3601
 2108TIP3    H1 6330   5.916   4.384   2.263 -1.1982  0.0504  0.1035
 2108TIP3    H2 6331   5.908   4.236   2.229  0.1689  0.0328 -0.2147
 2109TIP3   OH2 6332   3.896   2.487   1.796 -0.1994  0.1658  0.2387
 2109TIP3    H1 6333   3.847   2.568   1.804 -0.7474 -0.1943  0.6574
 2109TIP3    H2 6334   3.874   2.438   1.876 -2.1340 -1.5854 -1.2358
 2110TIP3   OH2 6335   5.874   2.728   0.382  0.2598 -0.4447  0.0568
 2110TIP3    H1 6336   5.867   2.815   0.423  0.5339 -0.4308  0.0729
 2110TIP3    H2 6337   5.908   2.745   0.294  0.9498 -0.5941  0.2922
 2111TIP3   OH2 6338   3.531   1.591   0.585 -0.3363 -0.3717  0.0819
 2111TIP3    H1 6339   3.468   1.530   0.625 -0.0276  0.4688  1.9969
 2111TIP3    H2 6340   3.476   1.657   0.543 -0.8934  0.9406  2.6301
 2112TIP3   OH2 6341   3.188   4.745   5.045 -0.5255  0.0828 -0.0243
 2112TIP3    H1 6342   3.272   4.719   5.006 -0.1116 -1.1106  1.5304
 2112TIP3    H2 6343   3.212   4.781   5.130 -1.3852  2.7013 -0.8125
 2113TIP3   OH2 6344   4.466   5.931   4.869 -0.7958  0.2370 -0.1454
 2113TIP3    H1 6345   4.441   6.024   4.871  1.0068  0.7975 -1.0741
 2113TIP3    H2 6346   4.561   5.932   4.882 -0.4693 -1.3267 -1.9392
 2114TIP3   OH2 6347   3.400   1.765   2.250  0.2267 -0.5102  0.3314
 2114TIP3    H1 6348   3.324   1.743   2.198 -0.6627 -1.4371  1.9380
 2114TIP3    H2 6349   3.422   1.855   2.225 -1.3738 -0.2397 -0.1778
 2115TIP3   OH2 6350   2.789   4.543   1.227  0.1705  0.2685 -0.2072
 2115TIP3    H1 6351   2.737   4.615   1.261 -0.0104  0.6322 -1.2074
 2115TIP3    H2 6352   2.878   4.579   1.218 -0.2944  1.0471 -2.5388
 2116TIP3   OH2 6353   1.081   2.719   2.771  0.6343  0.0102  0.4539
 2116TIP3    H1 6354   1.004   2.695   2.823  1.0118 -0.5831  0.7570
 2116TIP3    H2 6355   1.130   2.779   2.828  1.3343 -1.0808  1.0417
 2117TIP3   OH2 6356   1.063   1.907   0.120  0.3975 -0.5800 -0.3484
 2117TIP3    H1 6357   1.126   1.977   0.135  0.7306 -1.3427  2.2827
 2117TIP3    H2 6358   0.978   1.952   0.112  0.9540  0.2944 -2.0204
 2118TIP3   OH2 6359   3.624   2.866   2.488  0.0100 -0.4912 -0.1490
 2118TIP3    H1 6360   3.705   2.893   2.446  0.8361 -0.1428  1.5868
 2118TIP3    H2 6361   3.560   2.864   2.417  1.9227 -2.7057 -1.9533
 2119TIP3   OH2 6362   2.061   1.610   0.997  0.2691 -0.0386 -0.3664
 2119TIP3    H1 6363   2.026   1.665   0.927  1.2659 -1.4017 -2.0590
 2119TIP3    H2 6364   1.998   1.538   1.005 -0.8039  1.0358  1.5220
 2120TIP3   OH2 6365   3.551   3.108   4.741  0.0800 -0.1255  0.1202
 2120TIP3    H1 6366   3.585   3.155   4.665  3.6121 -2.6614 -0.1141
 2120TIP3    H2 6367   3.540   3.176   4.808  1.6276  1.5094 -1.1928
 2121TIP3   OH2 6368   3.400   2.986   2.925 -0.2337 -0.3417  0.1983
 2121TIP3    H1 6369   3.329   3.049   2.915  0.5892  0.5451 -0.1975
 2121TIP3    H2 6370   3.405   2.970   3.019 -0.0679  0.6355  0.3589
 2122TIP3   OH2 6371   5.591   3.496   3.363  0.3619 -0.2518  0.0624
 2122TIP3    H1 6372   5.499   3.472   3.377  0.6167 -1.0325  0.5056
 2122TIP3    H2 6373   5.592   3.591   3.370 -0.0870 -0.3417  2.2840
 2123TIP3   OH2 6374   1.358   5.917   4.550  0.2755 -0.2293 -0.9175
 2123TIP3    H1 6375   1.310   5.860   4.610  0.0294 -1.0331 -1.8536
 2123TIP3    H2 6376   1.349   6.005   4.589 -2.0683 -0.3221 -1.0845
 2124TIP3   OH2 6377   4.369   3.006   3.906  0.1922  0.0078  0.1675
 2124TIP3    H1 6378   4.316   3.021   3.985  0.9682  2.1588  0.3414
 2124TIP3    H2 6379   4.447   3.060   3.919  1.5265 -1.5519 -0.9814
 2125TIP3   OH2 6380   1.988   1.389   4.952 -0.2514  0.5691  0.0778
 2125TIP3    H1 6381   1.943   1.413   4.871  0.2855 -0.8951 -0.6910
 2125TIP3    H2 6382   2.070   1.350   4.923  0.4252  0.9604  1.3825
 2126TIP3   OH2 6383   5.290   0.640   4.065 -0.2087  0.4350 -0.9567
 2126TIP3    H1 6384   5.304   0.647   3.971  1.3285  1.9467 -0.6606
 2126TIP3    H2 6385   5.350   0.571   4.093 -0.0172  0.5964 -0.9668
 2127TIP3   OH2 6386   0.888   3.442   3.175  0.4898 -0.2340 -0.1253
 2127TIP3    H1 6387   0.927   3.367   3.129  0.9963  0.5508 -1.0096
 2127TIP3    H2 6388   0.827   3.479   3.112  2.2152  1.7047 -0.7693
 2128TIP3   OH2 6389   2.230   0.246   4.247 -0.1982  0.3903  0.3217
 2128TIP3    H1 6390   2.243   0.304   4.322  1.4046 -1.3837  1.4967
 2128TIP3    H2 6391   2.146   0.274   4.210 -0.0852  2.6263  1.5380
 2129TIP3   OH2 6392   5.848   3.930   2.910 -0.2500 -0.6481 -0.2998
 2129TIP3    H1 6393   5.836   3.849   2.960  2.4217 -0.1487  1.2983
 2129TIP3    H2 6394   5.835   3.903   2.819 -1.0077 -2.5045  0.3077
 2130TIP3   OH2 6395   2.208   4.455   1.661 -0.1736 -0.2934  0.0783
 2130TIP3    H1 6396   2.145   4.435   1.592  0.4558 -0.8552 -0.3482
 2130TIP3    H2 6397   2.293   4.453   1.617 -0.0094  4.3504 -0.2983
 2131TIP3   OH2 6398   1.481   2.178   2.523  0.3448 -0.0862 -0.2840
 2131TIP3    H1 6399   1.575   2.159   2.528  0.5239  0.7255 -0.3831
 2131TIP3    H2 6400   1.476   2.265   2.483 -0.4375 -0.0053 -0.0342
 2132TIP3   OH2 6401   4.492   4.896   2.501  0.5783  0.4381 -0.1428
 2132TIP3    H1 6402   4.546   4.817   2.512 -1.1377 -0.8238 -0.3686
 2132TIP3    H2 6403   4.483   4.906   2.407  1.1680  1.1999 -0.1265
 2133TIP3   OH2 6404   0.960   4.050   3.924  0.3836  0.2741  0.2373
 2133TIP3    H1 6405   1.048   4.015   3.910  0.5584 -0.1277  2.1141
 2133TIP3    H2 6406   0.920   4.049   3.837  0.8329 -3.3507 -0.0864
 2134TIP3   OH2 6407   0.090   2.050   3.509 -0.2197 -0.3964 -0.2638
 2134TIP3    H1 6408   0.008   2.043   3.558  0.1244  0.8837  0.5526
 2134TIP3    H2 6409   0.101   2.144   3.495  1.5565 -0.4655  0.4559
 2135TIP3   OH2 6410   5.259   0.899   4.074  0.3453  0.1378 -0.0926
 2135TIP3    H1 6411   5.286   0.807   4.078  0.7369  0.2301 -0.5034
 2135TIP3    H2 6412   5.227   0.918   4.162 -0.4329 -0.5999 -0.1992
 2136TIP3   OH2 6413   4.807   2.145   2.998 -0.0444  0.2427  0.3183
 2136TIP3    H1 6414   4.754   2.090   2.940  1.3056 -0.9505  0.1684
 2136TIP3    H2 6415   4.842   2.084   3.064  0.6709  1.0948  0.7527
 2137TIP3   OH2 6416   5.557   5.423   4.333 -0.0405 -0.2154 -0.3015
 2137TIP3    H1 6417   5.618   5.497   4.333  1.6682 -1.5039 -1.9909
 2137TIP3    H2 6418   5.537   5.409   4.240 -1.0684 -1.2815  0.0621
 2138TIP3   OH2 6419   4.276   3.231   0.662  0.2303 -0.0986 -0.5970
 2138TIP3    H1 6420   4.325   3.174   0.721  1.2522 -0.2474 -1.5469
 2138TIP3    H2 6421   4.202   3.177   0.632 -0.4951  0.0946  0.7771
 2139TIP3   OH2 6422   1.939   1.027   3.709 -0.1905 -0.3656 -0.4003
 2139TIP3    H1 6423   1.920   1.114   3.673  1.4386 -0.1876 -0.9239
 2139TIP3    H2 6424   1.961   0.974   3.632  0.4300 -0.7925  0.0646
 2140TIP3   OH2 6425   1.865   3.817   3.514 -0.2781 -0.1672 -0.0938
 2140TIP3    H1 6426   1.807   3.811   3.590 -1.1019  0.7289 -0.6290
 2140TIP3    H2 6427   1.855   3.908   3.483 -0.3329 -0.6447 -1.5577
 2141TIP3   OH2 6428   4.545   4.888   1.196 -0.0660  0.1634  0.6419
 2141TIP3    H1 6429   4.516   4.803   1.230 -1.9357  0.4531 -0.0987
 2141TIP3    H2 6430   4.502   4.896   1.111  0.9363  1.4026  0.2215
 2142TIP3   OH2 6431   3.753   1.999   2.278  0.2115  0.4874  0.0048
 2142TIP3    H1 6432   3.756   2.090   2.307  1.8590  1.0338 -1.6589
 2142TIP3    H2 6433   3.829   1.990   2.221 -0.4665 -1.6695 -0.6472
 2143TIP3   OH2 6434   1.024   5.061   3.332  0.0757 -0.1528 -0.3781
 2143TIP3    H1 6435   0.958   5.053   3.263 -0.8755  3.2946 -0.0757
 2143TIP3    H2 6436   1.107   5.053   3.286 -0.5354 -0.5813 -1.4531
 2144TIP3   OH2 6437   4.207   3.307   0.122  0.0408 -0.0822  0.2291
 2144TIP3    H1 6438   4.148   3.369   0.164 -2.3173 -1.0655 -1.3415
 2144TIP3    H2 6439   4.195   3.225   0.171  0.7528 -0.0841  0.4057
 2145TIP3   OH2 6440   3.913   2.169   4.805  0.0249  0.2367 -0.0561
 2145TIP3    H1 6441   3.856   2.235   4.845 -0.5470  1.1206 -2.1759
 2145TIP3    H2 6442   3.974   2.220   4.751 -0.4158 -0.9360 -1.7385
 2146TIP3   OH2 6443   1.273   0.059   0.981  0.1320  0.0380  0.1263
 2146TIP3    H1 6444   1.338  -0.006   0.954  0.2512 -0.2126  0.9769
 2146TIP3    H2 6445   1.190   0.011   0.979 -0.1503  0.5245 -1.5662
 2147TIP3   OH2 6446   1.020   3.558   1.224 -0.4564  0.1337 -0.6093
 2147TIP3    H1 6447   1.013   3.627   1.290 -1.3029  0.2528 -0.8177
 2147TIP3    H2 6448   1.097   3.583   1.173  0.9306 -0.5840  1.0301
 2148TIP3   OH2 6449   6.181   3.245   3.539  0.2927  0.1292  0.4646
 2148TIP3    H1 6450   6.103   3.276   3.586  0.1664  1.5793 -0.6417
 2148TIP3    H2 6451   6.222   3.325   3.506  1.1431 -0.7532 -0.6781
 2149TIP3   OH2 6452   0.092   2.788   0.451 -0.0123  0.1384 -0.4378
 2149TIP3    H1 6453  -0.001   2.811   0.453  0.0494  0.3420  0.8292
 2149TIP3    H2 6454   0.113   2.764   0.541  1.3867  0.9565 -0.5203
 2150TIP3   OH2 6455   4.744   3.796   4.171 -0.2346 -0.5299  0.9371
 2150TIP3    H1 6456   4.705   3.750   4.097 -0.2167  0.4804  0.2919
 2150TIP3    H2 6457   4.699   3.760   4.248 -0.2975 -1.5348  0.4531
 2151TIP3   OH2 6458   0.780   2.666   0.917  0.7397  0.2259 -0.3737
 2151TIP3    H1 6459   0.782   2.737   0.981  1.4518 -0.3096  0.2216
 2151TIP3    H2 6460   0.872   2.652   0.894  0.5480 -0.0353 -1.0145
 2152TIP3   OH2 6461   0.357   4.186   2.121  0.1517 -0.6432 -0.2947
 2152TIP3    H1 6462   0.432   4.148   2.075  0.5036 -1.5409  0.9601
 2152TIP3    H2 6463   0.395   4.234   2.194 -0.4512 -0.1619 -0.2833
 2153TIP3   OH2 6464   1.772   2.742   0.057  0.4842 -0.1868  0.1692
 2153TIP3    H1 6465   1.682   2.774   0.043  0.8118  0.4176 -0.6989
 2153TIP3    H2 6466   1.826   2.801   0.003  1.3490 -0.8424  0.3078
 2154TIP3   OH2 6467   6.258   4.671   0.228 -0.1023  0.3227 -0.4436
 2154TIP3    H1 6468   6.183   4.652   0.172 -0.3101 -0.8798  0.2204
 2154TIP3    H2 6469   6.268   4.593   0.283  1.5221  0.5229 -0.3937
 2155TIP3   OH2 6470   1.340   4.324   2.949 -0.5859  0.2200 -0.4339
 2155TIP3    H1 6471   1.245   4.323   2.960 -0.6066 -1.5785 -0.5428
 2155TIP3    H2 6472   1.355   4.284   2.863  0.2872 -0.2036 -0.0992
 2156TIP3   OH2 6473   0.478   4.112   1.624 -0.1031 -0.2630  0.2699
 2156TIP3    H1 6474   0.530   4.044   1.666  0.5626 -0.2512 -0.5162
 2156TIP3    H2 6475   0.388   4.082   1.631  0.0741 -0.6296  1.0102
 2157TIP3   OH2 6476   5.117   2.415   1.008  0.1280 -0.3876 -0.0587
 2157TIP3    H1 6477   5.183   2.451   1.066 -0.7359  0.3600  0.4799
 2157TIP3    H2 6478   5.145   2.440   0.920 -1.2515  3.0937  0.3551
 2158TIP3   OH2 6479   4.534   3.896   5.118 -0.9649 -0.3795  0.0188
 2158TIP3    H1 6480   4.507   3.986   5.134  1.1686  0.3305 -0.1650
 2158TIP3    H2 6481   4.451   3.848   5.111 -2.1716  1.6375 -0.4420
 2159TIP3   OH2 6482   3.754   1.381   5.032  0.0133  0.3314  0.4293
 2159TIP3    H1 6483   3.797   1.464   5.012 -0.8867  1.3758  2.5813
 2159TIP3    H2 6484   3.661   1.403   5.035 -0.4082 -1.1366 -0.5639
 2160TIP3   OH2 6485   3.326   1.434   3.388 -0.3495  0.2154  0.1750
 2160TIP3    H1 6486   3.329   1.456   3.295  0.3206  1.3580  0.4383
 2160TIP3    H2 6487   3.272   1.503   3.427  0.8694  0.8267  0.8742
 2161TIP3   OH2 6488   4.069   3.204   3.406  0.3953  0.2990 -0.0712
 2161TIP3    H1 6489   4.095   3.275   3.347 -2.1055  0.7952 -0.7127
 2161TIP3    H2 6490   4.019   3.145   3.351  1.7156 -1.5711  0.6568
 2162TIP3   OH2 6491   3.336   1.317   2.729 -0.0008 -0.0766 -0.0945
 2162TIP3    H1 6492   3.281   1.361   2.665 -0.2600 -0.6548 -0.2767
 2162TIP3    H2 6493   3.398   1.384   2.757 -0.5484  0.4772 -0.1712
 2163TIP3   OH2 6494   2.782   4.259   1.226 -0.3217  0.1121  0.6052
 2163TIP3    H1 6495   2.789   4.353   1.214  2.6421 -0.1616 -0.8159
 2163TIP3    H2 6496   2.755   4.225   1.141 -1.5573 -0.3421  1.1571
 2164TIP3   OH2 6497   1.356   4.315   0.269 -0.0008 -0.5095  0.7904
 2164TIP3    H1 6498   1.381   4.405   0.290  0.0187 -0.1213 -0.7647
 2164TIP3    H2 6499   1.436   4.264   0.282 -0.0052 -0.3023  1.6544
 2165TIP3   OH2 6500   3.342   4.387   4.320 -0.0517  0.3822  0.2201
 2165TIP3    H1 6501   3.377   4.403   4.408  0.3515  1.0216 -0.0506
 2165TIP3    H2 6502   3.414   4.409   4.261 -0.0168 -0.9017 -0.2507
 2166TIP3   OH2 6503   0.847   5.978   0.857 -0.2347 -0.5800  0.1545
 2166TIP3    H1 6504   0.910   6.000   0.926 -0.1973  0.0163 -0.0614
 2166TIP3    H2 6505   0.777   5.932   0.903  1.5368 -3.6272  0.0067
 2167TIP3   OH2 6506   0.840   0.144   4.536 -0.2128 -0.0275  0.4569
 2167TIP3    H1 6507   0.769   0.173   4.479 -0.7708 -0.7897  0.7505
 2167TIP3    H2 6508   0.880   0.071   4.489  0.9111  0.8939 -0.0822
 2168TIP3   OH2 6509   0.093   3.375   1.754  0.5094 -0.6359 -0.1354
 2168TIP3    H1 6510   0.064   3.412   1.837 -0.0210 -0.6460 -0.3082
 2168TIP3    H2 6511   0.014   3.375   1.699  1.1104  0.5266 -1.0568
 2169TIP3   OH2 6512   1.022   4.450   1.779 -0.2159  0.2627 -0.5428
 2169TIP3    H1 6513   1.062   4.363   1.788  0.6487  0.4730 -2.0166
 2169TIP3    H2 6514   0.999   4.456   1.686 -1.8555  0.9574 -0.1194
 2170TIP3   OH2 6515   1.236   2.247   4.704 -0.1425  0.2206 -0.0759
 2170TIP3    H1 6516   1.200   2.335   4.695 -1.1979 -0.2044 -0.1890
 2170TIP3    H2 6517   1.310   2.246   4.643 -1.3708  0.4060 -1.6552
 2171TIP3   OH2 6518   0.511   5.462   1.090  0.2139  0.0110 -0.6458
 2171TIP3    H1 6519   0.498   5.488   0.998  1.1639  2.6512 -0.1171
 2171TIP3    H2 6520   0.528   5.544   1.136 -2.1483 -0.9734  2.3054
 2172TIP3   OH2 6521   1.850   2.391   4.189  0.0823 -0.1894 -0.3334
 2172TIP3    H1 6522   1.926   2.448   4.195  1.9769 -2.6109  0.3127
 2172TIP3    H2 6523   1.783   2.445   4.147  1.3924  2.7509  1.0244
 2173TIP3   OH2 6524   2.487   0.285   4.461 -0.1602  0.0796  0.6315
 2173TIP3    H1 6525   2.455   0.374   4.449 -1.1840 -0.2882  0.4609
 2173TIP3    H2 6526   2.474   0.268   4.555  0.9103  0.4235  0.8489
 2174TIP3   OH2 6527   1.246   5.516   0.194 -0.1184 -0.0676 -0.1914
 2174TIP3    H1 6528   1.306   5.543   0.264 -0.7365  2.1175 -0.4281
 2174TIP3    H2 6529   1.195   5.445   0.232  1.9595 -1.3519  0.3233
 2175TIP3   OH2 6530   4.865   5.480   3.579 -0.2510 -0.7800 -0.9075
 2175TIP3    H1 6531   4.807   5.494   3.504 -0.2039  0.9719 -0.6611
 2175TIP3    H2 6532   4.806   5.477   3.654 -0.1028  0.4984 -0.7128
 2176TIP3   OH2 6533   3.661   5.757   1.897  0.2200  0.2904  0.6276
 2176TIP3    H1 6534   3.709   5.821   1.949 -0.4001  2.1868 -1.0056
 2176TIP3    H2 6535   3.584   5.805   1.865 -0.7680 -1.5562  0.0869
 2177TIP3   OH2 6536   3.884   5.576   0.336 -0.1390 -0.4389 -0.0964
 2177TIP3    H1 6537   3.801   5.612   0.305 -0.2499  0.5966  1.3112
 2177TIP3    H2 6538   3.911   5.515   0.267 -0.7681  1.1129 -1.7780
 2178TIP3   OH2 6539   2.746   2.883   2.053  0.4743  0.5532 -0.3031
 2178TIP3    H1 6540   2.685   2.850   1.987  0.3677 -0.1804  0.1509
 2178TIP3    H2 6541   2.732   2.978   2.054 -1.1109  0.3447  0.2298
 2179TIP3   OH2 6542   4.771   1.352   1.711 -0.6197  0.6527  0.0349
 2179TIP3    H1 6543   4.716   1.372   1.786 -0.7541 -0.7129  0.3258
 2179TIP3    H2 6544   4.757   1.259   1.695  3.1616 -0.3253  1.4339
 2180TIP3   OH2 6545   1.403   0.067   3.573  0.1378 -0.2355 -0.5582
 2180TIP3    H1 6546   1.465  -0.000   3.602  0.3018  0.8116  1.7470
 2180TIP3    H2 6547   1.318   0.025   3.577  0.4303 -0.9400 -1.3254
 2181TIP3   OH2 6548   6.083   5.679   2.960 -0.1856 -0.1818 -0.1206
 2181TIP3    H1 6549   6.157   5.719   3.005  0.4149 -1.0278 -0.3210
 2181TIP3    H2 6550   6.018   5.749   2.953  1.1414  0.9843 -1.2038
 2182TIP3   OH2 6551   6.151   0.432   0.187  0.0961 -0.2988 -0.5450
 2182TIP3    H1 6552   6.117   0.497   0.248  0.8831 -0.4333  0.0617
 2182TIP3    H2 6553   6.172   0.357   0.243  2.5301  0.2150 -0.6659
 2183TIP3   OH2 6554   2.589   0.244   2.079  0.1789  0.1998 -0.2540
 2183TIP3    H1 6555   2.541   0.227   2.160  1.4502 -0.6941  0.3494
 2183TIP3    H2 6556   2.537   0.201   2.011  0.9071 -2.2451  0.6180
 2184TIP3   OH2 6557   0.587   2.626   2.147 -0.0541 -0.2070 -0.5424
 2184TIP3    H1 6558   0.505   2.597   2.187  1.0739  0.1715  2.2851
 2184TIP3    H2 6559   0.647   2.638   2.221  1.9269  1.6050 -2.3013
 2185TIP3   OH2 6560   5.242   2.564   4.416 -0.5057  0.0274 -0.5714
 2185TIP3    H1 6561   5.205   2.537   4.332  1.4178  0.3527 -1.5849
 2185TIP3    H2 6562   5.166   2.584   4.471 -1.8637 -1.9325 -1.6117
 2186TIP3   OH2 6563   4.231   3.690   4.298 -0.1269  0.5953  0.1979
 2186TIP3    H1 6564   4.265   3.694   4.387  0.0011  1.5423  0.1079
 2186TIP3    H2 6565   4.251   3.600   4.269  0.4458  0.5015  0.8695
 2187TIP3   OH2 6566   1.445   5.513   3.233 -0.0405  0.1383 -0.0987
 2187TIP3    H1 6567   1.374   5.476   3.180 -0.2139  2.2076 -1.4181
 2187TIP3    H2 6568   1.508   5.441   3.240 -1.4226 -1.1817 -0.4243
 2188TIP3   OH2 6569   0.325   4.954   3.958 -0.5601  0.1010  0.5338
 2188TIP3    H1 6570   0.310   5.048   3.964  1.8091  0.5535  0.4107
 2188TIP3    H2 6571   0.272   4.916   4.027 -1.6781  1.5060  0.4768
 2189TIP3   OH2 6572   0.167   2.010   4.565 -0.3921 -0.1487  0.4676
 2189TIP3    H1 6573   0.245   1.968   4.601  0.6559  0.4718 -0.9636
 2189TIP3    H2 6574   0.110   2.024   4.640  0.8551 -0.6528  1.5486
 2190TIP3   OH2 6575   0.299   5.866   1.095  0.4276  0.0855 -0.4399
 2190TIP3    H1 6576   0.273   5.787   1.142 -0.9075  0.8160  0.1182
 2190TIP3    H2 6577   0.226   5.884   1.036  0.1490  1.5122  0.2745
 2191TIP3   OH2 6578   5.610   5.611   3.323  0.0944 -0.0998  0.3222
 2191TIP3    H1 6579   5.646   5.569   3.401  2.4034  0.6533 -0.2508
 2191TIP3    H2 6580   5.524   5.643   3.351  0.2405 -1.1040  2.1059
 2192TIP3   OH2 6581   5.944   4.307   3.838  0.3614 -0.0579  0.1037
 2192TIP3    H1 6582   5.996   4.387   3.833 -0.5069  0.5794  0.8657
 2192TIP3    H2 6583   5.940   4.275   3.748 -0.8765  1.8094 -0.5608
 2193TIP3   OH2 6584   2.708   5.153   0.102 -0.2569 -0.1359 -0.3371
 2193TIP3    H1 6585   2.749   5.173   0.186  1.9427  0.2391 -1.4226
 2193TIP3    H2 6586   2.719   5.232   0.050 -2.6253  0.0504 -0.6709
 2194TIP3   OH2 6587   3.889   1.829   3.837  0.3895  0.1569  0.1948
 2194TIP3    H1 6588   3.915   1.743   3.805 -2.0297  0.0222 -1.6950
 2194TIP3    H2 6589   3.809   1.812   3.888 -0.4286  1.3189 -0.6671
 2195TIP3   OH2 6590   5.421   1.548   1.583 -0.5660  0.0012  0.4226
 2195TIP3    H1 6591   5.464   1.497   1.652  2.6560  2.4822  0.4833
 2195TIP3    H2 6592   5.470   1.630   1.579  1.5653 -0.8903 -6.7033
 2196TIP3   OH2 6593   3.932   4.188   4.809  0.1114 -0.0214  0.3154
 2196TIP3    H1 6594   4.026   4.209   4.809 -0.5069  3.3242  0.2679
 2196TIP3    H2 6595   3.908   4.186   4.717  0.6228 -4.5251  0.0263
 2197TIP3   OH2 6596   5.975   2.402   0.137  0.1881 -0.0936  0.6184
 2197TIP3    H1 6597   5.975   2.310   0.114 -0.7442  0.0450  0.0241
 2197TIP3    H2 6598   5.886   2.432   0.119  0.5784  1.0143  0.4327
 2198TIP3   OH2 6599   6.020   4.916   3.295  0.2776 -0.9498  0.3109
 2198TIP3    H1 6600   6.057   4.855   3.231 -0.4378 -0.6634 -0.3830
 2198TIP3    H2 6601   6.034   5.003   3.257 -0.4365 -0.7965  0.3938
 2199TIP3   OH2 6602   0.174   1.363   4.900 -0.1009  0.1851  0.4826
 2199TIP3    H1 6603   0.105   1.328   4.955  0.2174 -0.4377  0.4914
 2199TIP3    H2 6604   0.225   1.420   4.958 -0.2605  0.1866  0.6196
 2200TIP3   OH2 6605   4.708   4.217   2.305  0.3798 -0.6358 -0.2596
 2200TIP3    H1 6606   4.660   4.300   2.306  1.0276 -0.2543 -0.8636
 2200TIP3    H2 6607   4.689   4.179   2.391  3.0141  1.8336  1.6067
 2201TIP3   OH2 6608   5.854   2.310   1.753  0.7232 -0.1354  0.6628
 2201TIP3    H1 6609   5.943   2.340   1.738  1.0620 -0.9005  1.0448
 2201TIP3    H2 6610   5.865   2.225   1.796 -0.1858  0.1204  1.4448
 2202TIP3   OH2 6611   6.034   3.514   4.854  0.4227  0.1616  0.8377
 2202TIP3    H1 6612   6.127   3.527   4.873  0.4038  0.5787  0.6623
 2202TIP3    H2 6613   6.014   3.580   4.787  0.4249 -1.0713 -0.4310
 2203TIP3   OH2 6614   6.279   5.185   3.719 -0.1475  0.2175  0.2789
 2203TIP3    H1 6615   6.357   5.232   3.748  0.2160  0.8764 -1.6437
 2203TIP3    H2 6616   6.242   5.149   3.800  2.1787 -0.2194  1.2442
 2204TIP3   OH2 6617   4.216   1.491   4.050  0.3991 -0.0240  0.1208
 2204TIP3    H1 6618   4.304   1.470   4.082  0.2922 -0.6554  0.0289
 2204TIP3    H2 6619   4.166   1.512   4.129  0.2256 -1.2395  0.3620
 2205TIP3   OH2 6620   3.032   5.345   0.522 -0.2529 -0.2395 -0.3736
 2205TIP3    H1 6621   3.117   5.371   0.489 -0.0370 -0.3982  0.0505
 2205TIP3    H2 6622   2.980   5.425   0.521  0.1547  0.0370  0.1545
 2206TIP3   OH2 6623   4.323   1.962   3.108  0.4726 -0.0925  0.2268
 2206TIP3    H1 6624   4.250   1.901   3.102  0.5571 -0.3250  1.3466
 2206TIP3    H2 6625   4.285   2.043   3.141  0.7386 -0.2742  0.9999
 2207TIP3   OH2 6626   5.544   2.611   2.697  0.3762 -0.1753  0.4307
 2207TIP3    H1 6627   5.549   2.638   2.789  0.5332  0.8130  0.1497
 2207TIP3    H2 6628   5.559   2.517   2.699  5.0750  0.3574  1.0676
 2208TIP3   OH2 6629   4.146   0.017   1.304  0.2810 -0.1784  0.2539
 2208TIP3    H1 6630   4.194   0.097   1.285  0.7705 -0.9830 -2.4305
 2208TIP3    H2 6631   4.076   0.014   1.238 -1.9216 -0.3448  2.4200
 2209TIP3   OH2 6632   2.933   4.028   0.808  0.4098  0.5783  0.1011
 2209TIP3    H1 6633   2.981   3.957   0.765 -0.2952  0.4686 -0.5211
 2209TIP3    H2 6634   2.996   4.065   0.869  1.0171 -0.1190 -0.0835
 2210TIP3   OH2 6635   4.338   2.949   0.787  0.3043  0.3491  0.5415
 2210TIP3    H1 6636   4.274   2.973   0.721  1.2410 -0.6607 -0.7766
 2210TIP3    H2 6637   4.292   2.959   0.870 -0.4089  3.2983 -0.0810
 2211TIP3   OH2 6638   3.203   0.876   0.283  0.1048 -0.0243  0.1678
 2211TIP3    H1 6639   3.260   0.839   0.350  1.0932  0.1005 -0.5738
 2211TIP3    H2 6640   3.165   0.800   0.239 -0.3917 -0.1073  0.7274
 2212TIP3   OH2 6641   0.770   3.432   5.190  0.4465  0.0676 -0.1197
 2212TIP3    H1 6642   0.702   3.492   5.161 -0.6464 -1.2907 -0.5058
 2212TIP3    H2 6643   0.852   3.475   5.167 -0.2961 -0.3687 -4.3431
 2213TIP3   OH2 6644   2.791   5.805   4.070  0.0182 -0.4325  0.0608
 2213TIP3    H1 6645   2.708   5.773   4.106 -0.6303  0.1527 -0.8847
 2213TIP3    H2 6646   2.821   5.735   4.012  0.8342 -1.1784  1.3240
 2214TIP3   OH2 6647   4.581   2.058   4.610 -0.2264  0.2610  0.4040
 2214TIP3    H1 6648   4.622   2.070   4.695 -1.3738 -1.2347  1.2345
 2214TIP3    H2 6649   4.654   2.048   4.549  0.6360 -0.0488  1.4497
 2215TIP3   OH2 6650   4.482   3.743   3.058  0.1839  0.0002  0.4638
 2215TIP3    H1 6651   4.573   3.758   3.033  0.1983 -0.6514  0.0779
 2215TIP3    H2 6652   4.441   3.709   2.978 -0.3389  0.0512  0.7041
 2216TIP3   OH2 6653   5.407   0.810   2.266  0.3829  0.4253  0.5481
 2216TIP3    H1 6654   5.328   0.863   2.274 -0.3089 -0.4134 -0.4410
 2216TIP3    H2 6655   5.377   0.720   2.275  0.8782 -0.0373 -1.6731
 2217TIP3   OH2 6656   5.222   2.404   2.685  0.6544 -0.3860 -0.4930
 2217TIP3    H1 6657   5.157   2.407   2.755  0.1388 -1.0387 -0.9286
 2217TIP3    H2 6658   5.178   2.358   2.614  1.6123 -0.8833 -0.7813
 2218TIP3   OH2 6659   4.631   4.668   4.170  0.4945  0.2334 -0.1672
 2218TIP3    H1 6660   4.558   4.646   4.229  0.5097  1.2418  0.2470
 2218TIP3    H2 6661   4.655   4.758   4.194  0.9983  0.3903 -1.2071
 2219TIP3   OH2 6662   4.878   3.656   0.971  0.0096 -0.3972 -0.1577
 2219TIP3    H1 6663   4.854   3.605   1.049  0.4586  0.2347  0.4095
 2219TIP3    H2 6664   4.830   3.738   0.980  0.9229  0.1264  0.0360
 2220TIP3   OH2 6665   2.323   3.559   0.609 -0.3909  0.1104  0.0952
 2220TIP3    H1 6666   2.350   3.525   0.694 -1.2916 -0.1693  0.2788
 2220TIP3    H2 6667   2.399   3.544   0.552 -0.4104 -1.3206  0.4092
 2221TIP3   OH2 6668   1.395   5.810   4.313  0.1417  0.4860  0.1289
 2221TIP3    H1 6669   1.324   5.816   4.248  1.0060 -0.1219 -0.9022
 2221TIP3    H2 6670   1.362   5.859   4.388 -1.9373 -0.8690  0.1934
 2222TIP3   OH2 6671   3.923   1.634   1.373  0.2655 -0.2041  0.1956
 2222TIP3    H1 6672   3.924   1.589   1.458  2.5823 -1.7138 -0.5153
 2222TIP3    H2 6673   3.969   1.716   1.389  0.2659 -0.2648  0.5182
 2223TIP3   OH2 6674   5.391   0.264   4.644  0.1099  0.4323 -0.4360
 2223TIP3    H1 6675   5.403   0.226   4.731  0.2975  1.2435 -0.0972
 2223TIP3    H2 6676   5.329   0.205   4.601  0.1905 -0.1079  0.1606
 2224TIP3   OH2 6677   5.380   5.901   4.826  0.3560  0.0846  0.3612
 2224TIP3    H1 6678   5.328   5.979   4.844  0.7817  0.1774  1.2700
 2224TIP3    H2 6679   5.422   5.880   4.910  0.0661 -1.2604  0.2036
 2225TIP3   OH2 6680   5.194   2.501   0.731  0.1619  0.1538  0.4541
 2225TIP3    H1 6681   5.124   2.465   0.677 -0.7228  0.2999  1.4604
 2225TIP3    H2 6682   5.262   2.433   0.731 -0.1258 -0.1392 -0.2455
 2226TIP3   OH2 6683   4.900   0.252   2.813 -0.3391  0.1239 -0.4030
 2226TIP3    H1 6684   4.884   0.210   2.897 -0.1048  0.7590 -0.0392
 2226TIP3    H2 6685   4.980   0.303   2.826 -0.7859  0.9349 -0.7479
 2227TIP3   OH2 6686   4.710   5.905   4.525  0.3612  0.2474  0.4269
 2227TIP3    H1 6687   4.619   5.917   4.498  0.8643  3.0674 -0.2497
 2227TIP3    H2 6688   4.753   5.987   4.503  2.8951 -0.6745  1.5826
 2228TIP3   OH2 6689   3.216   1.730   0.561  0.8566 -0.5494  0.0400
 2228TIP3    H1 6690   3.164   1.732   0.641  0.7673 -0.1180 -0.0263
 2228TIP3    H2 6691   3.167   1.673   0.501 -2.2710  3.6069 -1.8340
 2229TIP3   OH2 6692   3.931   3.798   3.621  0.2135 -0.1285 -0.4869
 2229TIP3    H1 6693   3.970   3.813   3.707  2.3671  0.8840 -1.5420
 2229TIP3    H2 6694   3.971   3.716   3.591 -1.0538 -0.8494 -0.2870
 2230TIP3   OH2 6695   4.242   0.515   3.638 -0.4966  0.0617 -0.0627
 2230TIP3    H1 6696   4.254   0.424   3.610 -0.3077  0.1099 -0.1402
 2230TIP3    H2 6697   4.229   0.509   3.733  1.9213  0.1348  0.3259
 2231TIP3   OH2 6698   4.082   2.739   3.851  0.0647 -0.2162  0.2450
 2231TIP3    H1 6699   4.124   2.706   3.772 -0.0501  3.1057 -1.3772
 2231TIP3    H2 6700   3.989   2.742   3.829  0.2466  3.0210 -0.6048
 2232TIP3   OH2 6701   0.102   5.867   0.908  0.8742 -0.4973 -0.0685
 2232TIP3    H1 6702   0.043   5.805   0.866  1.4958 -1.4015  0.3732
 2232TIP3    H2 6703   0.045   5.923   0.961  0.2643 -0.3974 -0.8109
 2233TIP3   OH2 6704   0.170   3.579   4.447  0.1368 -0.1098  0.4042
 2233TIP3    H1 6705   0.201   3.500   4.403 -1.1311  0.5273 -1.7582
 2233TIP3    H2 6706   0.217   3.651   4.406 -1.8756  0.5964 -0.8078
 2234TIP3   OH2 6707   1.173   2.582   1.622  0.1920 -0.0780  0.2087
 2234TIP3    H1 6708   1.171   2.659   1.565  0.3036  1.9251  2.7203
 2234TIP3    H2 6709   1.250   2.533   1.592  0.0689  0.6963 -1.5431
 2235TIP3   OH2 6710   4.194   2.394   4.906 -0.3658 -0.1858  0.2191
 2235TIP3    H1 6711   4.279   2.351   4.897 -0.4554 -0.4873  0.7659
 2235TIP3    H2 6712   4.201   2.446   4.986 -0.6970 -0.2261  0.2787
 2236TIP3   OH2 6713   0.318   1.065   1.808 -0.3174  0.4858  0.2893
 2236TIP3    H1 6714   0.391   1.046   1.748 -0.9113 -2.2316  0.2707
 2236TIP3    H2 6715   0.248   1.095   1.750 -0.1939  0.0196 -0.1138
 2237TIP3   OH2 6716   5.022   1.095   2.589  0.2042  0.1623  0.0638
 2237TIP3    H1 6717   4.985   1.183   2.586 -1.1422 -0.3969 -0.8452
 2237TIP3    H2 6718   5.049   1.078   2.499 -0.8088 -0.8445 -0.0683
 2238TIP3   OH2 6719   3.127   4.919   0.013 -0.3679  0.0029  0.3988
 2238TIP3    H1 6720   3.142   4.884   0.100  1.0978 -1.5790 -0.4519
 2238TIP3    H2 6721   3.155   5.011   0.019 -0.6742  0.0356  1.6606
 2239TIP3   OH2 6722   4.976   1.051   0.934 -0.0207 -0.0307 -0.0251
 2239TIP3    H1 6723   4.963   1.002   1.016 -3.4389  2.0450  0.8769
 2239TIP3    H2 6724   4.976   1.143   0.961 -1.1427  0.7232 -2.3624
 2240TIP3   OH2 6725   4.708   2.213   1.205  0.1667 -0.3893 -0.5803
 2240TIP3    H1 6726   4.719   2.285   1.267  2.3897 -1.3114  0.1749
 2240TIP3    H2 6727   4.728   2.252   1.120 -1.3887  0.5115 -0.5726
 2241TIP3   OH2 6728   2.397   5.117   4.161  0.1189 -0.2816 -0.5325
 2241TIP3    H1 6729   2.489   5.097   4.145  1.4856  3.1792  1.8052
 2241TIP3    H2 6730   2.381   5.198   4.113 -1.5687 -0.5513 -0.4783
 2242TIP3   OH2 6731   2.136   4.716   3.298 -0.2248 -0.0233 -0.6265
 2242TIP3    H1 6732   2.065   4.655   3.318  0.1143  0.0581  0.9092
 2242TIP3    H2 6733   2.173   4.684   3.216  0.2923 -2.1868  0.4054
 2243TIP3   OH2 6734   4.157   5.564   1.766 -0.2718 -0.6118 -0.4885
 2243TIP3    H1 6735   4.073   5.610   1.772 -0.8605 -1.6644 -0.4943
 2243TIP3    H2 6736   4.200   5.603   1.690 -0.8575 -0.2330 -0.6320
 2244TIP3   OH2 6737   0.916   1.740   0.490 -0.1541 -0.2555 -0.3276
 2244TIP3    H1 6738   0.987   1.728   0.427  0.9991  1.8576  0.4913
 2244TIP3    H2 6739   0.957   1.728   0.576 -0.7886  0.9079  0.1599
 2245TIP3   OH2 6740   0.413   5.847   3.699 -0.2373  0.2148 -0.1695
 2245TIP3    H1 6741   0.363   5.896   3.765  1.0059  0.1598  0.8750
 2245TIP3    H2 6742   0.375   5.759   3.700  0.0001  0.0997  0.8029
 2246TIP3   OH2 6743   3.529   1.720   3.120 -0.0882 -0.2809  0.3966
 2246TIP3    H1 6744   3.500   1.677   3.201  1.9635 -3.1868 -0.2631
 2246TIP3    H2 6745   3.463   1.695   3.055  0.1539 -0.9958  0.4147
 2247TIP3   OH2 6746   6.083   1.385   2.552  0.2492  0.2009 -0.0897
 2247TIP3    H1 6747   6.155   1.340   2.596 -0.4228 -0.1912  0.6192
 2247TIP3    H2 6748   6.005   1.362   2.602 -0.3898  0.5693 -0.8860
 2248TIP3   OH2 6749   4.440   5.609   4.206 -0.2454  0.2845 -0.3572
 2248TIP3    H1 6750   4.529   5.643   4.199 -0.2656  0.1230 -1.6618
 2248TIP3    H2 6751   4.450   5.527   4.254  0.4087 -0.0410 -1.0186
 2249TIP3   OH2 6752   2.301   3.677   4.856 -0.2993  0.2864 -0.0454
 2249TIP3    H1 6753   2.318   3.768   4.882  0.3420  0.5874 -1.3826
 2249TIP3    H2 6754   2.382   3.631   4.880 -0.5182  0.1237  0.3829
 2250TIP3   OH2 6755   1.647   3.453   4.804  0.2592 -0.3077 -0.1213
 2250TIP3    H1 6756   1.552   3.457   4.800  0.0810 -3.1593 -1.0461
 2250TIP3    H2 6757   1.671   3.507   4.879 -2.1223  0.0776  0.4271
 2251TIP3   OH2 6758   2.063   4.150   0.925 -0.4947  0.0182 -0.1615
 2251TIP3    H1 6759   2.074   4.061   0.960 -0.8371 -0.5791 -1.4944
 2251TIP3    H2 6760   2.084   4.207   0.998  1.2514 -1.1409  0.3155
 2252TIP3   OH2 6761   0.564   0.970   0.174 -0.2082  0.0353 -0.2577
 2252TIP3    H1 6762   0.568   1.061   0.205  0.5495  0.4431 -1.4646
 2252TIP3    H2 6763   0.544   0.978   0.081 -2.6900 -1.1617  0.0994
 2253TIP3   OH2 6764   6.017   4.539   0.173 -0.0978 -0.4971  0.2512
 2253TIP3    H1 6765   5.935   4.507   0.211  0.0370 -0.1963  0.8059
 2253TIP3    H2 6766   6.066   4.459   0.152 -0.4421 -0.6743  0.1070
 2254TIP3   OH2 6767   5.423   5.363   2.719  0.8084  0.2291 -0.1742
 2254TIP3    H1 6768   5.338   5.330   2.692  1.6072 -1.1822 -1.0581
 2254TIP3    H2 6769   5.420   5.362   2.815 -1.6420  4.2120  0.0528
 2255TIP3   OH2 6770   4.648   0.088   2.721 -0.1842 -0.3556  0.3348
 2255TIP3    H1 6771   4.654   0.183   2.709  1.5206 -0.5197 -0.3918
 2255TIP3    H2 6772   4.654   0.075   2.816 -0.8991  0.2797  0.4739
 2256TIP3   OH2 6773   3.782   2.918   3.083 -0.4123 -0.5490 -0.1322
 2256TIP3    H1 6774   3.846   2.968   3.135 -0.8900  0.0768 -0.1272
 2256TIP3    H2 6775   3.809   2.827   3.093  0.5898 -0.2852 -0.2806
 2257TIP3   OH2 6776   0.345   2.351   2.174 -0.1763  0.2251  0.1294
 2257TIP3    H1 6777   0.342   2.419   2.241 -0.9117  0.0499  0.2851
 2257TIP3    H2 6778   0.296   2.278   2.212  0.2049 -0.2197 -0.2259
 2258TIP3   OH2 6779   3.064   4.404   0.308 -0.4366  0.4266 -0.5003
 2258TIP3    H1 6780   3.048   4.310   0.297  1.2656  0.0300  0.0780
 2258TIP3    H2 6781   3.053   4.441   0.221 -1.7999 -0.1786 -0.6110
 2259TIP3   OH2 6782   4.924   5.322   0.172 -0.1208 -0.0105 -0.2665
 2259TIP3    H1 6783   4.839   5.302   0.212 -0.8035  1.8546 -0.6930
 2259TIP3    H2 6784   4.988   5.286   0.233 -1.1832 -1.8499 -0.1482
 2260TIP3   OH2 6785   2.005   1.698   2.469 -0.2548 -0.4386  0.4989
 2260TIP3    H1 6786   2.015   1.756   2.394 -0.9329  0.0670  0.7863
 2260TIP3    H2 6787   1.923   1.651   2.453  0.2432 -1.2501  0.3141
 2261TIP3   OH2 6788   2.045   1.412   2.257 -0.1196  0.3963  0.2743
 2261TIP3    H1 6789   1.976   1.471   2.225  0.6133  0.6035 -1.0025
 2261TIP3    H2 6790   2.079   1.371   2.177  1.3623  0.4531  0.8554
 2262TIP3   OH2 6791   2.384   3.104   4.947 -0.0933 -0.1024 -0.3345
 2262TIP3    H1 6792   2.479   3.103   4.958  0.2924  0.8476 -2.8433
 2262TIP3    H2 6793   2.352   3.163   5.015  1.0289 -0.7577  0.8062
 2263TIP3   OH2 6794   4.158   5.033   2.975  0.2693 -0.4229  0.0664
 2263TIP3    H1 6795   4.096   5.096   2.939 -0.9054  0.0489  2.6892
 2263TIP3    H2 6796   4.232   5.086   3.005 -1.0650 -0.0004  3.0159
 2264TIP3   OH2 6797   6.156   0.811   2.531 -0.0469  0.4591  0.9079
 2264TIP3    H1 6798   6.243   0.802   2.570  0.7114 -0.3572 -0.8491
 2264TIP3    H2 6799   6.133   0.903   2.545  1.5333  0.9346  0.5724
 2265TIP3   OH2 6800   0.701   1.606   2.110 -0.2871  0.3208 -0.1077
 2265TIP3    H1 6801   0.756   1.603   2.032  0.3167  2.0307  0.2234
 2265TIP3    H2 6802   0.627   1.660   2.086  0.6039  2.0732  0.8813
 2266TIP3   OH2 6803   1.639   5.909   1.569 -0.1996 -0.7445 -0.2644
 2266TIP3    H1 6804   1.649   5.999   1.535  0.2188 -0.0783  1.5086
 2266TIP3    H2 6805   1.644   5.854   1.491  2.2428  0.6015 -1.1995
 2267TIP3   OH2 6806   1.804   1.729   1.897 -0.0133  0.2318 -0.1461
 2267TIP3    H1 6807   1.865   1.770   1.836 -1.5398  2.0555 -0.5363
 2267TIP3    H2 6808   1.717   1.747   1.861 -0.8560 -2.6180  0.1733
 2268TIP3   OH2 6809   4.412   0.071   2.276 -0.6077 -0.2650 -0.5947
 2268TIP3    H1 6810   4.350   0.096   2.344 -0.0760 -0.8409  0.1117
 2268TIP3    H2 6811   4.455  -0.007   2.310  2.4244  1.5489  0.1483
 2269TIP3   OH2 6812   3.819   5.296   3.391  0.0105  0.7404  0.1003
 2269TIP3    H1 6813   3.892   5.237   3.371  0.4574  0.6281  1.8565
 2269TIP3    H2 6814   3.858   5.366   3.442 -0.8292  1.6360 -0.4533
 2270TIP3   OH2 6815   0.262   2.508   4.384  0.1772  0.6561  0.1136
 2270TIP3    H1 6816   0.329   2.575   4.402 -0.3873  1.1220  0.4941
 2270TIP3    H2 6817   0.243   2.470   4.469  0.1943  0.2963 -0.0444
 2271TIP3   OH2 6818   4.990   3.224   1.464  0.0481  0.5768 -0.1615
 2271TIP3    H1 6819   4.915   3.269   1.424 -2.2423 -2.0755  0.8820
 2271TIP3    H2 6820   5.012   3.154   1.403  1.0567  0.6810  0.0516
 2272TIP3   OH2 6821   5.364   5.250   3.450  0.1551 -0.2948 -0.1534
 2272TIP3    H1 6822   5.325   5.329   3.488  0.8637 -0.4220  0.9026
 2272TIP3    H2 6823   5.450   5.279   3.418  0.6193 -0.7085  0.6676
 2273TIP3   OH2 6824   1.474   3.275   0.777 -0.0647  0.4412 -0.3183
 2273TIP3    H1 6825   1.500   3.357   0.734  0.2863  0.5399  0.0707
 2273TIP3    H2 6826   1.431   3.303   0.858 -1.9022  0.2965 -1.1975
 2274TIP3   OH2 6827   2.616   5.022   3.478 -0.4138  0.4849 -0.5422
 2274TIP3    H1 6828   2.563   4.977   3.411 -2.2799 -1.0197  1.7545
 2274TIP3    H2 6829   2.683   4.959   3.502 -0.8958  0.2501  0.2471
 2275TIP3   OH2 6830   5.350   1.325   4.051  0.3251 -0.1700 -0.1588
 2275TIP3    H1 6831   5.439   1.302   4.079  0.5819  0.5452 -0.3543
 2275TIP3    H2 6832   5.355   1.327   3.956 -0.0830 -0.8053 -0.1991
 2276TIP3   OH2 6833   4.833   0.585   4.671  0.3684 -0.0730 -0.1413
 2276TIP3    H1 6834   4.801   0.498   4.695  0.0705  0.6059  2.2425
 2276TIP3    H2 6835   4.817   0.592   4.577 -0.7941 -2.0831 -0.1509
 2277TIP3   OH2 6836   3.813   1.819   2.001  0.2383  0.0209 -0.3827
 2277TIP3    H1 6837   3.843   1.906   1.972 -0.0228 -0.0333 -0.8140
 2277TIP3    H2 6838   3.722   1.814   1.972  0.4953 -0.7253 -1.0917
 2278TIP3   OH2 6839   2.184   1.901   4.305  0.6318  0.4139  0.2733
 2278TIP3    H1 6840   2.237   1.926   4.228 -1.2104  0.8842 -0.9036
 2278TIP3    H2 6841   2.179   1.981   4.357 -0.5027  0.9451 -0.6076
 2279TIP3   OH2 6842   5.891   2.853   0.133 -0.1678  0.0240 -0.3513
 2279TIP3    H1 6843   5.849   2.939   0.140  1.3450  0.8294 -0.7947
 2279TIP3    H2 6844   5.830   2.800   0.082 -0.4392  1.2950 -1.3754
 2280TIP3   OH2 6845   6.174   2.617   2.778 -0.4904 -0.3442 -0.0756
 2280TIP3    H1 6846   6.251   2.617   2.722 -0.7005 -1.0986 -0.3728
 2280TIP3    H2 6847   6.169   2.528   2.813 -0.4527  0.0606  1.0289
 2281TIP3   OH2 6848   3.023   5.488   5.140 -0.4208  0.1051 -0.2426
 2281TIP3    H1 6849   2.997   5.396   5.134  1.1146 -0.3334 -0.7412
 2281TIP3    H2 6850   3.063   5.507   5.055  1.2899  0.5472  0.6138
 2282TIP3   OH2 6851   3.354   0.599   3.012 -0.1562 -0.2273 -0.0026
 2282TIP3    H1 6852   3.273   0.632   3.052  0.5607  2.2601 -0.4515
 2282TIP3    H2 6853   3.324   0.546   2.939 -1.4452  1.9552 -1.1730
 2283TIP3   OH2 6854   4.249   5.193   4.703  0.2259  0.3930 -0.4279
 2283TIP3    H1 6855   4.317   5.149   4.753  1.3495  2.3624 -0.1317
 2283TIP3    H2 6856   4.296   5.248   4.641 -1.0806  1.6426 -0.3612
 2284TIP3   OH2 6857   4.778   1.325   3.436  0.2579  0.7536 -0.0022
 2284TIP3    H1 6858   4.787   1.288   3.524 -0.4677 -0.9389 -0.6022
 2284TIP3    H2 6859   4.803   1.254   3.377 -0.1489  1.5650 -1.1917
 2285TIP3   OH2 6860   3.471   0.080   3.678  0.2121 -0.4378  0.2302
 2285TIP3    H1 6861   3.507   0.133   3.607  0.3277  0.4176  0.9078
 2285TIP3    H2 6862   3.421   0.143   3.731 -1.5506 -1.4203 -0.2000
 2286TIP3   OH2 6863   0.314   0.464   3.676 -0.0730 -0.3399  0.1461
 2286TIP3    H1 6864   0.290   0.556   3.659  0.3769 -0.3614 -0.6473
 2286TIP3    H2 6865   0.360   0.466   3.760  0.1534  0.2014  0.0142
 2287TIP3   OH2 6866   4.398   2.552   0.288  0.5866  0.1338  0.3555
 2287TIP3    H1 6867   4.451   2.490   0.338  0.0183 -1.5071 -0.9912
 2287TIP3    H2 6868   4.308   2.531   0.312  0.4164  1.6907  1.2381
 2288TIP3   OH2 6869   4.677   5.380   1.759  0.2496  0.4198  0.1199
 2288TIP3    H1 6870   4.589   5.413   1.779 -0.3434  1.2714 -3.1475
 2288TIP3    H2 6871   4.721   5.455   1.718  2.4754 -0.0694  1.4524
 2289TIP3   OH2 6872   5.097   1.655   1.869 -0.4601  0.2547  0.0870
 2289TIP3    H1 6873   5.143   1.723   1.821 -0.5781  1.4222  1.5748
 2289TIP3    H2 6874   5.108   1.576   1.816  2.7294  0.6045  0.0670
 2290TIP3   OH2 6875   5.878   2.398   4.808 -0.3597  0.2443 -0.7677
 2290TIP3    H1 6876   5.859   2.309   4.837  0.2515 -0.6476 -2.9281
 2290TIP3    H2 6877   5.953   2.425   4.861 -0.8786 -0.2987  0.2723
 2291TIP3   OH2 6878   4.816   1.530   2.900 -0.3675 -0.2183 -0.3241
 2291TIP3    H1 6879   4.873   1.605   2.878  0.6775 -0.9446 -0.1693
 2291TIP3    H2 6880   4.875   1.466   2.940 -1.1056 -1.4172 -1.0913
 2292TIP3   OH2 6881   5.832   0.924   4.609  0.2400 -0.1705 -0.7997
 2292TIP3    H1 6882   5.836   0.976   4.529 -1.3211  0.4544 -0.5095
 2292TIP3    H2 6883   5.882   0.845   4.588  1.9051  1.0001 -1.5511
 2293TIP3   OH2 6884   2.795   3.886   0.484  0.2597 -1.1953 -0.2642
 2293TIP3    H1 6885   2.804   3.969   0.531  0.2963  0.7857 -3.4102
 2293TIP3    H2 6886   2.756   3.826   0.547 -0.6883  1.4874  1.9058
 2294TIP3   OH2 6887   5.245   5.953   0.728  0.3280  0.0231 -0.1393
 2294TIP3    H1 6888   5.319   5.966   0.668  0.5025  1.5693  0.3477
 2294TIP3    H2 6889   5.274   5.885   0.788  0.7431 -0.4784 -0.9006
 2295TIP3   OH2 6890   2.446   1.765   4.235 -0.1208 -0.2994  0.3490
 2295TIP3    H1 6891   2.540   1.781   4.243  0.2997 -0.8247 -2.4452
 2295TIP3    H2 6892   2.406   1.824   4.299  2.0545  0.6139  0.9549
 2296TIP3   OH2 6893   1.551   5.576   0.590  0.0655 -0.8281  0.1162
 2296TIP3    H1 6894   1.616   5.628   0.543 -0.5720  1.0291  1.1828
 2296TIP3    H2 6895   1.555   5.608   0.680 -2.3037 -0.6162  0.2104
 2297TIP3   OH2 6896   0.496   0.950   1.267  0.3413  0.2884 -0.0003
 2297TIP3    H1 6897   0.572   0.952   1.325  1.2736 -2.8912 -0.8600
 2297TIP3    H2 6898   0.534   0.938   1.179 -1.0736 -1.2337 -0.4625
 2298TIP3   OH2 6899   1.464   2.865   4.937 -0.0030 -0.8032  0.3862
 2298TIP3    H1 6900   1.378   2.824   4.944  0.1728 -1.3385 -0.5232
 2298TIP3    H2 6901   1.455   2.946   4.987 -0.7220 -1.3416  1.1710
 2299TIP3   OH2 6902   1.966   2.253   0.196 -0.0775  0.1050 -0.1276
 2299TIP3    H1 6903   2.001   2.334   0.160 -0.8778  0.0256 -1.1358
 2299TIP3    H2 6904   1.871   2.262   0.188 -0.1831 -0.8819 -0.1623
 2300TIP3   OH2 6905   5.019   4.681   0.595 -0.2459 -0.0115  0.2254
 2300TIP3    H1 6906   5.085   4.612   0.584  1.7201  1.7249  0.5698
 2300TIP3    H2 6907   5.004   4.714   0.507 -2.9085 -2.2398 -0.3119
 2301TIP3   OH2 6908   4.225   3.973   3.821  0.1314  0.3208  0.4106
 2301TIP3    H1 6909   4.226   3.938   3.910  0.5962  0.6510  0.5384
 2301TIP3    H2 6910   4.267   4.059   3.828  0.1024  0.3837 -0.1121
 2302TIP3   OH2 6911   1.766   4.478   4.559  1.0368 -0.1271 -0.0873
 2302TIP3    H1 6912   1.737   4.430   4.637  0.3008 -1.3723 -1.0726
 2302TIP3    H2 6913   1.817   4.551   4.593  0.9450 -0.7756  1.5455
 2303TIP3   OH2 6914   5.447   1.533   4.844  0.2460 -0.1473 -0.3179
 2303TIP3    H1 6915   5.376   1.543   4.781 -0.6099  0.8849  0.7770
 2303TIP3    H2 6916   5.489   1.619   4.848 -1.0963  0.4743  2.0913
 2304TIP3   OH2 6917   6.318   3.203   2.302 -0.3251 -0.3028 -0.2639
 2304TIP3    H1 6918   6.372   3.143   2.251  0.7501  0.0625  0.4062
 2304TIP3    H2 6919   6.271   3.146   2.363 -1.5309 -0.7308 -1.5267
 2305TIP3   OH2 6920   6.124   5.639   4.698  0.0132  0.1151 -0.5625
 2305TIP3    H1 6921   6.132   5.561   4.752  2.8703  0.5937 -0.1703
 2305TIP3    H2 6922   6.032   5.639   4.670 -1.1641 -1.0528  2.8392
 2306TIP3   OH2 6923   4.417   3.445   2.647 -0.6293 -0.6138 -0.1825
 2306TIP3    H1 6924   4.404   3.468   2.555 -0.5385 -1.9455 -0.5482
 2306TIP3    H2 6925   4.445   3.354   2.645  2.2672  0.1579  1.0111
 2307TIP3   OH2 6926   5.640   2.760   2.331 -0.0037 -0.1151  0.1064
 2307TIP3    H1 6927   5.684   2.691   2.381 -1.3443 -0.8082  0.3735
 2307TIP3    H2 6928   5.557   2.720   2.304 -1.0406  1.5546  0.6964
 2308TIP3   OH2 6929   3.473   1.524   1.035  0.2458  0.1286  0.0567
 2308TIP3    H1 6930   3.417   1.525   1.112  0.0649  0.7419 -0.0716
 2308TIP3    H2 6931   3.513   1.612   1.034  0.1894  0.1498 -0.5840
 2309TIP3   OH2 6932   1.821   5.609   2.690  1.0439 -0.7607  0.3664
 2309TIP3    H1 6933   1.906   5.609   2.733  1.5842  0.7883 -0.6219
 2309TIP3    H2 6934   1.768   5.670   2.740  1.6074  0.8770 -0.9148
 2310TIP3   OH2 6935   3.844   1.415   2.836 -0.0242 -0.4964 -0.6119
 2310TIP3    H1 6936   3.813   1.389   2.749  0.0107 -0.4374 -0.6419
 2310TIP3    H2 6937   3.854   1.332   2.883 -0.0173 -0.5309 -0.6729
 2311TIP3   OH2 6938   5.151   5.348   1.718  0.1961 -0.0227 -0.2964
 2311TIP3    H1 6939   5.111   5.429   1.749 -0.1780  0.2104 -1.3464
 2311TIP3    H2 6940   5.092   5.279   1.747 -0.1431  0.1894 -0.4787
 2312TIP3   OH2 6941   3.966   4.687   5.019 -0.0840 -0.3271 -0.2718
 2312TIP3    H1 6942   3.939   4.776   4.996  0.4878 -0.0876 -0.0508
 2312TIP3    H2 6943   4.018   4.698   5.099 -1.3259 -1.0476  0.6636
 2313TIP3   OH2 6944   2.007   4.402   1.452  0.4729  0.3419 -1.2849
 2313TIP3    H1 6945   1.927   4.453   1.466  1.7584  1.6409  2.2551
 2313TIP3    H2 6946   1.983   4.313   1.478  0.2626  0.8182  0.2093
 2314TIP3   OH2 6947   1.300   5.654   3.643 -0.1747 -0.4209  0.5473
 2314TIP3    H1 6948   1.303   5.689   3.732  1.0673  0.4721  0.1801
 2314TIP3    H2 6949   1.373   5.592   3.639  1.9227  1.9561 -0.7640
 2315TIP3   OH2 6950   4.809   0.908   1.890 -0.0167  0.2351  0.1667
 2315TIP3    H1 6951   4.808   0.855   1.811  1.1776 -0.6586  0.7252
 2315TIP3    H2 6952   4.790   0.846   1.961 -0.1714  0.8456  0.6664
 2316TIP3   OH2 6953   1.100   1.706   4.453  0.5459  0.1326  0.1658
 2316TIP3    H1 6954   1.180   1.742   4.491  0.9814  0.4628 -1.0178
 2316TIP3    H2 6955   1.117   1.612   4.447  1.7513  0.4395 -2.0755
 2317TIP3   OH2 6956   1.386   1.789   4.363 -0.4651  0.2903 -0.2404
 2317TIP3    H1 6957   1.321   1.769   4.297 -2.4850  1.7268  1.1806
 2317TIP3    H2 6958   1.358   1.874   4.399  2.2285  1.0022  0.4187
 2318TIP3   OH2 6959   3.824   5.757   3.050 -0.6641 -0.1336  0.0553
 2318TIP3    H1 6960   3.817   5.726   3.140 -1.0318  1.3466  0.5733
 2318TIP3    H2 6961   3.888   5.699   3.009 -0.5662 -0.8877  1.2420
 2319TIP3   OH2 6962   0.434   5.604   4.213 -0.0271 -0.3691 -0.3221
 2319TIP3    H1 6963   0.357   5.647   4.176  0.2649  1.2042  0.7945
 2319TIP3    H2 6964   0.448   5.528   4.157 -1.3458  0.2730 -1.5970
 2320TIP3   OH2 6965   0.582   1.958   2.603 -0.3788 -0.3859  0.2875
 2320TIP3    H1 6966   0.566   1.931   2.693  0.2136  1.3948  0.9639
 2320TIP3    H2 6967   0.675   1.940   2.588  0.1066  1.4413  0.8569
 2321TIP3   OH2 6968   5.478   1.496   2.452 -0.4256 -0.3267  0.4295
 2321TIP3    H1 6969   5.470   1.420   2.394 -2.0087  0.0676  0.0851
 2321TIP3    H2 6970   5.389   1.509   2.485  0.1473  0.4104  1.7397
 2322TIP3   OH2 6971   1.901   0.201   4.703 -0.1646 -0.0700 -0.0109
 2322TIP3    H1 6972   1.831   0.136   4.709  0.4687 -0.8605 -0.8775
 2322TIP3    H2 6973   1.900   0.230   4.611  1.9123 -1.5942 -0.5924
 2323TIP3   OH2 6974   3.642   5.674   0.252 -0.4253 -0.1853 -0.3862
 2323TIP3    H1 6975   3.596   5.739   0.198 -0.7019  0.4182  0.5551
 2323TIP3    H2 6976   3.573   5.617   0.285 -0.4793  0.5289  0.7700
 2324TIP3   OH2 6977   4.764   1.284   3.709 -0.6227 -0.2973  0.1964
 2324TIP3    H1 6978   4.698   1.323   3.766 -0.1547  1.0630 -0.1460
 2324TIP3    H2 6979   4.845   1.285   3.761 -0.1611  1.0859 -0.4956
 2325TIP3   OH2 6980   5.979   4.872   0.434 -0.0368 -0.6357  0.2225
 2325TIP3    H1 6981   5.984   4.777   0.430  0.6264 -0.5938 -0.0209
 2325TIP3    H2 6982   6.061   4.903   0.394 -0.5238  0.0439 -0.2810
 2326TIP3   OH2 6983   2.716   1.772   4.228 -0.2813  0.8554  0.6008
 2326TIP3    H1 6984   2.767   1.833   4.282  0.0917 -0.3221  1.6069
 2326TIP3    H2 6985   2.779   1.706   4.200 -1.0101 -0.0057  0.9394
 2327TIP3   OH2 6986   0.662   0.652   0.512 -0.3294 -0.9393  0.8095
 2327TIP3    H1 6987   0.603   0.703   0.568 -0.8588 -1.9645  1.2234
 2327TIP3    H2 6988   0.625   0.661   0.424  2.0099  2.9168 -0.0092
 2328TIP3   OH2 6989   0.265   0.725   2.814 -0.0206  0.4321  0.2022
 2328TIP3    H1 6990   0.301   0.647   2.770  0.7095  0.6948  0.3353
 2328TIP3    H2 6991   0.338   0.762   2.862 -0.7160  0.3849  1.3261
 2329TIP3   OH2 6992   2.908   1.125   1.905  0.3722 -0.2140  0.8093
 2329TIP3    H1 6993   2.954   1.109   1.988  1.0127  1.2006  0.7538
 2329TIP3    H2 6994   2.836   1.183   1.929  0.0572 -0.4692  0.4927
 2330TIP3   OH2 6995   5.931   0.404   3.865 -0.1568  0.1706 -0.5905
 2330TIP3    H1 6996   5.890   0.430   3.947  0.5101 -0.1372 -0.1549
 2330TIP3    H2 6997   5.935   0.485   3.813 -1.0866  0.2511 -0.5481
 2331TIP3   OH2 6998   6.120   1.368   1.699 -0.0724  0.6322  0.4768
 2331TIP3    H1 6999   6.101   1.317   1.778  0.0905  0.2222  0.2547
 2331TIP3    H2 7000   6.158   1.449   1.731 -1.8903  1.3450  0.9324
 2332TIP3   OH2 7001   4.256   5.903   0.934  0.2609  0.4275 -0.5349
 2332TIP3    H1 7002   4.197   5.871   0.866  1.3317 -1.3811 -0.6966
 2332TIP3    H2 7003   4.281   5.825   0.983  1.1596  1.3900  0.6111
 2333TIP3   OH2 7004   1.167   4.620   4.906 -0.1225 -0.6930  0.4371
 2333TIP3    H1 7005   1.209   4.680   4.968 -0.8530 -0.1121  0.3707
 2333TIP3    H2 7006   1.116   4.560   4.961  0.2460 -0.9803  0.4725
 2334TIP3   OH2 7007   4.340   5.850   2.395  0.4130 -0.3625  0.2079
 2334TIP3    H1 7008   4.381   5.775   2.437  0.9839 -0.1722 -0.0019
 2334TIP3    H2 7009   4.370   5.848   2.305 -0.9468 -0.8616 -0.2577
 2335TIP3   OH2 7010   0.970   5.410   3.248  0.7295 -0.1040 -0.7123
 2335TIP3    H1 7011   0.947   5.362   3.168  0.3773 -1.5463  0.2224
 2335TIP3    H2 7012   0.936   5.356   3.319  0.4251  1.4992  0.4067
 2336TIP3   OH2 7013   4.869   4.167   0.811 -0.1978  0.1540 -0.3581
 2336TIP3    H1 7014   4.921   4.118   0.876  0.7515  1.6293  0.0495
 2336TIP3    H2 7015   4.916   4.154   0.729 -0.1473  0.0791 -0.3179
 2337TIP3   OH2 7016   0.583   0.773   5.016 -0.1049 -0.2245  0.6553
 2337TIP3    H1 7017   0.584   0.804   4.925 -2.1940 -1.5366  0.1001
 2337TIP3    H2 7018   0.612   0.848   5.067  1.9846  0.2960 -1.1133
 2338TIP3   OH2 7019   6.183   0.670   2.286 -0.0295  0.3771  0.0222
 2338TIP3    H1 7020   6.142   0.716   2.360  1.3895  0.7603  0.6118
 2338TIP3    H2 7021   6.277   0.689   2.295  0.2450 -0.0728 -1.5404
 2339TIP3   OH2 7022   0.758   1.514   0.440  0.3862  0.2759 -0.1438
 2339TIP3    H1 7023   0.796   1.590   0.483  0.7021  0.3066 -0.4718
 2339TIP3    H2 7024   0.753   1.539   0.348  0.8679 -0.2503 -0.3164
 2340TIP3   OH2 7025   3.908   4.568   2.724  0.3607  0.1145 -0.1366
 2340TIP3    H1 7026   3.912   4.474   2.705 -1.0514 -0.2940  1.2831
 2340TIP3    H2 7027   3.973   4.581   2.793  0.3689  0.1136 -0.1443
 2341TIP3   OH2 7028   0.215   0.143   2.250  0.0592 -0.5451  0.1517
 2341TIP3    H1 7029   0.275   0.213   2.222  0.0796 -0.3030  0.7759
 2341TIP3    H2 7030   0.172   0.179   2.328  0.4328 -1.4183  0.7788
 2342TIP3   OH2 7031   3.024   3.487   1.650  0.4810  0.0255 -0.0328
 2342TIP3    H1 7032   2.933   3.460   1.637  0.4051  0.2920 -0.0774
 2342TIP3    H2 7033   3.062   3.419   1.705  0.6830 -0.8924 -1.2710
 2343TIP3   OH2 7034   2.326   1.522   0.978  0.2813  0.1631  0.6700
 2343TIP3    H1 7035   2.235   1.549   0.967  0.1014  0.5282  2.7440
 2343TIP3    H2 7036   2.335   1.445   0.921 -0.8479  1.0412 -0.7784
 2344TIP3   OH2 7037   5.619   2.087   1.782  0.3380  0.0743 -0.3708
 2344TIP3    H1 7038   5.558   2.152   1.747  0.5918  0.3340 -0.3303
 2344TIP3    H2 7039   5.575   2.054   1.861 -0.1590 -0.3966 -0.8419
 2345TIP3   OH2 7040   6.149   2.815   0.230  0.0529 -0.0505 -0.5613
 2345TIP3    H1 7041   6.056   2.826   0.208  0.2609  0.5624 -1.1740
 2345TIP3    H2 7042   6.157   2.853   0.318 -0.4575 -0.9710 -0.1089
 2346TIP3   OH2 7043   0.786   0.568   2.118 -0.7475 -0.1218  0.2419
 2346TIP3    H1 7044   0.878   0.544   2.130 -0.6051 -0.6236 -1.5313
 2346TIP3    H2 7045   0.786   0.663   2.112 -0.3706 -0.1083  0.4547
 2347TIP3   OH2 7046   0.870   0.294   0.154  0.8975 -0.2231 -0.5191
 2347TIP3    H1 7047   0.898   0.269   0.242  0.5053  2.0424  0.3346
 2347TIP3    H2 7048   0.821   0.219   0.121 -0.3007 -0.5653  1.8501
 2348TIP3   OH2 7049   2.168   3.576   2.670 -0.0418  0.4455 -0.2742
 2348TIP3    H1 7050   2.089   3.530   2.640 -0.7040  0.2866  1.6136
 2348TIP3    H2 7051   2.173   3.652   2.613 -0.3108 -0.6604 -1.8574
 2349TIP3   OH2 7052   1.553   3.378   4.500  0.2876  0.0023  0.0059
 2349TIP3    H1 7053   1.540   3.419   4.585  0.3588  1.9108 -0.8382
 2349TIP3    H2 7054   1.468   3.340   4.478  0.0467  0.2047  0.5847
 2350TIP3   OH2 7055   5.313   2.962   0.500  1.7569  0.0889  0.1600
 2350TIP3    H1 7056   5.308   2.883   0.554 -0.4903  0.1963  0.1906
 2350TIP3    H2 7057   5.376   2.940   0.431  2.4374 -1.1010  1.1134
 2351TIP3   OH2 7058   4.694   4.957   2.956 -0.2505  0.6066 -0.5242
 2351TIP3    H1 7059   4.675   4.863   2.963 -1.1758  0.7926 -0.3984
 2351TIP3    H2 7060   4.785   4.965   2.985 -0.2063 -0.2351 -0.4030
 2352TIP3   OH2 7061   5.334   5.367   1.109 -0.2501 -0.4144  0.3170
 2352TIP3    H1 7062   5.360   5.276   1.094 -1.8616 -0.5331 -2.2431
 2352TIP3    H2 7063   5.243   5.362   1.138 -0.6639  0.4147 -0.7870
 2353TIP3   OH2 7064   2.889   2.748   0.221  0.2271  0.0737  0.2822
 2353TIP3    H1 7065   2.956   2.763   0.288  0.6914 -0.1795 -0.1219
 2353TIP3    H2 7066   2.816   2.708   0.269 -0.4954  2.2775  1.1237
 2354TIP3   OH2 7067   3.470   4.859   1.829 -0.3782  0.0997 -0.1757
 2354TIP3    H1 7068   3.464   4.953   1.812  0.5879  0.3152  0.5832
 2354TIP3    H2 7069   3.558   4.835   1.802 -1.1949 -0.9823 -2.0450
 2355TIP3   OH2 7070   1.004   1.361   0.134 -0.1710 -0.0360 -0.1610
 2355TIP3    H1 7071   0.973   1.272   0.122 -0.5637  0.1331 -0.4161
 2355TIP3    H2 7072   1.045   1.384   0.050  0.5008 -0.1968  0.1131
 2356TIP3   OH2 7073   5.847   0.502   1.290 -0.5528  0.0249  0.4191
 2356TIP3    H1 7074   5.903   0.567   1.332  0.5194 -0.5851 -0.0121
 2356TIP3    H2 7075   5.763   0.545   1.281 -0.8048  0.2504  3.0075
 2357TIP3   OH2 7076   1.429   0.975   3.468 -0.1930  0.5677 -0.1706
 2357TIP3    H1 7077   1.489   1.001   3.538  0.4356 -2.3442  0.5146
 2357TIP3    H2 7078   1.344   0.968   3.510 -0.5816  2.2915 -0.5863
 2358TIP3   OH2 7079   0.000   2.130   1.678 -0.2496 -0.1367  0.2638
 2358TIP3    H1 7080  -0.039   2.168   1.599 -1.8209  0.5386  1.3262
 2358TIP3    H2 7081   0.066   2.195   1.704 -0.7719  0.3765  0.3335
 2359TIP3   OH2 7082   2.256   2.145   4.472  0.0394  0.6191 -0.0119
 2359TIP3    H1 7083   2.277   2.201   4.546  0.4759  0.1133  0.2583
 2359TIP3    H2 7084   2.323   2.165   4.407 -0.2676  0.9709 -0.2208
 2360TIP3   OH2 7085   1.649   4.277   4.153 -0.3696 -0.5152  0.0832
 2360TIP3    H1 7086   1.654   4.371   4.174 -0.4466 -0.3371 -0.6704
 2360TIP3    H2 7087   1.593   4.273   4.076 -1.2164 -1.2949  0.7264
 2361TIP3   OH2 7088   3.868   4.722   3.689 -0.4056  0.1388  0.3632
 2361TIP3    H1 7089   3.859   4.805   3.644 -1.5588  0.2310  0.7401
 2361TIP3    H2 7090   3.931   4.739   3.759  3.5668 -0.6541 -2.6453
 2362TIP3   OH2 7091   3.177   3.128   2.041  0.3812  0.1602 -0.1919
 2362TIP3    H1 7092   3.240   3.162   2.105  0.9421  1.2090 -1.2679
 2362TIP3    H2 7093   3.127   3.205   2.013 -1.9978 -0.7481  1.2198
 2363TIP3   OH2 7094   0.401   0.165   4.655 -0.0219 -0.3269  0.0171
 2363TIP3    H1 7095   0.319   0.148   4.702 -0.6236 -3.7032 -1.9577
 2363TIP3    H2 7096   0.373   0.187   4.566  1.1965 -1.2204 -0.6012
 2364TIP3   OH2 7097   5.838   3.140   3.503 -1.1831  0.0605  0.6796
 2364TIP3    H1 7098   5.849   3.214   3.443 -1.0273 -1.3546 -1.1096
 2364TIP3    H2 7099   5.921   3.135   3.551 -0.5787  0.0723 -0.3401
 2365TIP3   OH2 7100   5.791   2.068   3.061  0.1990 -0.7017 -0.3005
 2365TIP3    H1 7101   5.741   2.069   2.979  0.1342 -1.1081 -0.2655
 2365TIP3    H2 7102   5.741   2.126   3.119  1.3277  1.2657 -1.1771
 2366TIP3   OH2 7103   2.894   1.914   0.812  0.4092 -0.3761 -0.1007
 2366TIP3    H1 7104   2.808   1.900   0.853  0.7489 -1.4064  0.2835
 2366TIP3    H2 7105   2.874   1.964   0.732 -0.5494 -0.5973 -0.0148
 2367TIP3   OH2 7106   1.563   2.029   4.240 -0.0735 -0.5946  0.3989
 2367TIP3    H1 7107   1.643   1.976   4.245 -0.6047 -1.3804  0.7737
 2367TIP3    H2 7108   1.520   2.014   4.324 -0.3966  0.1828  0.3756
 2368TIP3   OH2 7109   5.590   1.478   3.590 -0.4247  0.6751  0.3587
 2368TIP3    H1 7110   5.590   1.557   3.536  0.2467  0.5305  0.1312
 2368TIP3    H2 7111   5.681   1.448   3.588 -0.0259  1.5033  2.8338
 2369TIP3   OH2 7112   5.523   0.369   3.922 -0.7549 -0.4717 -0.0170
 2369TIP3    H1 7113   5.544   0.459   3.898 -0.0989 -0.7208 -0.4222
 2369TIP3    H2 7114   5.550   0.317   3.846  1.0028 -1.2598  1.0768
 2370TIP3   OH2 7115   2.232   4.795   1.137  0.1931  0.3839 -0.0013
 2370TIP3    H1 7116   2.289   4.846   1.195 -0.8113  2.2696 -0.6035
 2370TIP3    H2 7117   2.291   4.761   1.070  0.9471  0.4538  0.6097
 2371TIP3   OH2 7118   6.109   5.222   4.020 -0.1914 -0.3394  0.7707
 2371TIP3    H1 7119   6.046   5.289   4.044  0.2595 -0.5915  2.9211
 2371TIP3    H2 7120   6.077   5.142   4.064 -0.6100 -1.5317 -1.5502
 2372TIP3   OH2 7121   2.220   2.880   2.040  0.3945 -0.1673  0.1217
 2372TIP3    H1 7122   2.147   2.941   2.051  0.7788  0.0405  1.8819
 2372TIP3    H2 7123   2.293   2.935   2.011 -0.0904 -0.3570 -1.5234
 2373TIP3   OH2 7124   0.935   5.465   2.484  0.2909  0.0761  0.4776
 2373TIP3    H1 7125   1.011   5.521   2.473 -0.2508  0.8315  0.5175
 2373TIP3    H2 7126   0.880   5.510   2.548 -0.7711  0.1676 -0.4601
 2374TIP3   OH2 7127   4.648   0.617   0.464 -0.3206  0.6294 -0.7047
 2374TIP3    H1 7128   4.659   0.580   0.376  1.9676  1.6912 -0.9141
 2374TIP3    H2 7129   4.725   0.588   0.512 -1.3139  0.4480  0.8544
 2375TIP3   OH2 7130   6.264   4.103   0.331  0.1680  0.1827  0.4892
 2375TIP3    H1 7131   6.348   4.136   0.362 -0.3297  1.4986  0.5150
 2375TIP3    H2 7132   6.205   4.178   0.339 -1.1053 -0.8286  0.8494
 2376TIP3   OH2 7133   5.524   0.162   1.593  0.3191 -0.5791  0.2575
 2376TIP3    H1 7134   5.565   0.219   1.528 -0.0579  0.9290  1.2955
 2376TIP3    H2 7135   5.572   0.180   1.674 -0.9821 -0.3935  1.0021
 2377TIP3   OH2 7136   1.148   4.886   3.503  0.4314  0.2042 -0.5821
 2377TIP3    H1 7137   1.234   4.929   3.503 -0.1953  1.5171  0.6100
 2377TIP3    H2 7138   1.094   4.940   3.445  0.4732 -0.8491 -1.6593
 2378TIP3   OH2 7139   2.199   3.025   1.621 -0.1958  0.3044  0.5977
 2378TIP3    H1 7140   2.182   3.109   1.662 -0.3432  0.1649  0.8241
 2378TIP3    H2 7141   2.182   2.961   1.690 -1.6496 -0.0128 -0.0149
 2379TIP3   OH2 7142   2.831   2.026   2.651 -0.3747 -0.0543 -0.4818
 2379TIP3    H1 7143   2.757   2.046   2.594 -0.9944  1.2379  0.6882
 2379TIP3    H2 7144   2.853   2.110   2.691  1.3979 -0.5242 -0.4002
 2380TIP3   OH2 7145   1.808   0.816   1.472  0.0357  0.8193  0.1027
 2380TIP3    H1 7146   1.886   0.768   1.500  0.4142  0.8195 -0.8939
 2380TIP3    H2 7147   1.743   0.798   1.540  0.7085  0.3067  0.6299
 2381TIP3   OH2 7148   5.940   0.982   0.045 -0.3337 -0.0149 -0.0926
 2381TIP3    H1 7149   5.897   1.063   0.018  0.2475  0.1561 -0.5441
 2381TIP3    H2 7150   6.034   1.001   0.035 -0.2268 -1.4009 -2.1610
 2382TIP3   OH2 7151   1.945   3.830   5.027 -0.3624  0.3205  0.0362
 2382TIP3    H1 7152   1.903   3.910   4.995 -0.9349  0.2013  0.4717
 2382TIP3    H2 7153   1.955   3.844   5.121 -0.4093 -0.0923  0.1071
 2383TIP3   OH2 7154   4.945   1.681   0.867 -0.1117 -0.0809  0.0183
 2383TIP3    H1 7155   5.038   1.686   0.890  0.3014  1.4708 -1.7276
 2383TIP3    H2 7156   4.942   1.704   0.774 -2.2225 -0.4742 -0.0713
 2384TIP3   OH2 7157   4.100   5.181   0.834 -0.2978 -1.0151 -0.7051
 2384TIP3    H1 7158   4.042   5.117   0.792  1.1553 -1.8994 -1.4557
 2384TIP3    H2 7159   4.153   5.129   0.894 -0.7554 -0.1076  0.5195
 2385TIP3   OH2 7160   4.399   2.139   1.107  0.0420 -0.6624 -0.2637
 2385TIP3    H1 7161   4.402   2.207   1.174  0.3353 -1.3271  0.4140
 2385TIP3    H2 7162   4.388   2.186   1.025  0.0258  0.1861  0.2194
 2386TIP3   OH2 7163   0.042   5.828   5.178 -0.1209  0.0393  0.5209
 2386TIP3    H1 7164   0.058   5.824   5.083  0.4537 -2.1818  0.6469
 2386TIP3    H2 7165   0.127   5.808   5.217 -0.2886  1.2262  1.5347
 2387TIP3   OH2 7166   2.486   4.760   3.962 -0.2702 -0.0082 -0.4314
 2387TIP3    H1 7167   2.495   4.796   3.874 -1.7240 -0.0489 -0.6227
 2387TIP3    H2 7168   2.421   4.817   4.004 -1.3202 -1.3578 -0.1653
 2388TIP3   OH2 7169   5.627   2.678   0.251 -0.0905  0.9964  0.4802
 2388TIP3    H1 7170   5.684   2.694   0.326 -0.8853  0.7728  1.1527
 2388TIP3    H2 7171   5.629   2.759   0.201 -2.0459  2.3560  2.4507
 2389TIP3   OH2 7172   5.095   4.811   3.098  0.4297  0.0339  0.4720
 2389TIP3    H1 7173   5.185   4.842   3.109  0.9876 -1.1913 -0.3429
 2389TIP3    H2 7174   5.103   4.738   3.036 -1.2299  0.3980 -0.2089
 2390TIP3   OH2 7175   5.657   2.608   4.975  0.3585 -0.3034 -0.3295
 2390TIP3    H1 7176   5.722   2.539   4.962  0.1076 -0.7736  0.7813
 2390TIP3    H2 7177   5.582   2.563   5.014 -0.0639  0.4972 -0.1908
 2391TIP3   OH2 7178   0.918   4.560   2.014  0.1791 -0.2660  0.5667
 2391TIP3    H1 7179   0.942   4.652   2.005 -0.9612 -0.0472 -0.4919
 2391TIP3    H2 7180   0.889   4.534   1.927 -0.5098 -1.3329  1.0961
 2392TIP3   OH2 7181   1.125   3.480   3.813 -0.0354 -0.1973 -0.4310
 2392TIP3    H1 7182   1.150   3.436   3.894 -0.4503 -0.1289 -0.2614
 2392TIP3    H2 7183   1.156   3.570   3.823 -0.4249 -0.0848 -0.1771
 2393TIP3   OH2 7184   4.719   1.425   3.935 -0.0693 -0.8030 -0.1472
 2393TIP3    H1 7185   4.692   1.358   3.998 -0.7384  1.0126  1.5826
 2393TIP3    H2 7186   4.637   1.458   3.898  0.1053  0.5415  0.6269
 2394TIP3   OH2 7187   1.035   0.007   3.781  0.5770  0.1404  0.5323
 2394TIP3    H1 7188   1.004   0.068   3.714  0.6697 -1.1986 -0.7761
 2394TIP3    H2 7189   1.010   0.048   3.864 -1.9685  0.5691 -0.3683
 2395TIP3   OH2 7190   5.508   2.102   4.466  0.1723 -0.1262  0.0937
 2395TIP3    H1 7191   5.596   2.089   4.432  1.1246  2.1005  1.4213
 2395TIP3    H2 7192   5.522   2.130   4.557 -2.0294 -1.8742  1.0629
 2396TIP3   OH2 7193   2.802   0.850   3.013 -0.1887  0.4382 -0.2260
 2396TIP3    H1 7194   2.822   0.944   3.014  2.4788 -0.0457 -0.1593
 2396TIP3    H2 7195   2.887   0.808   2.999 -1.0553 -2.0532  1.3879
 2397TIP3   OH2 7196   4.439   4.330   4.337 -0.6507 -0.2539  0.1363
 2397TIP3    H1 7197   4.347   4.349   4.357 -0.3750  2.0666 -0.4798
 2397TIP3    H2 7198   4.457   4.380   4.257  0.8710 -1.5388 -0.3721
 2398TIP3   OH2 7199   5.522   3.924   3.226 -0.6603 -0.5034  0.5508
 2398TIP3    H1 7200   5.525   3.889   3.137  1.7590 -0.2385  0.4651
 2398TIP3    H2 7201   5.554   4.014   3.216  0.8731 -0.8760  1.8309
 2399TIP3   OH2 7202   4.264   5.264   2.036  0.3983 -0.1037  0.2461
 2399TIP3    H1 7203   4.268   5.204   2.110 -0.6720 -1.3057 -0.6217
 2399TIP3    H2 7204   4.289   5.210   1.960 -2.3869 -0.0132 -0.8444
 2400TIP3   OH2 7205   2.607   3.610   1.402 -0.0988 -0.0657 -0.0014
 2400TIP3    H1 7206   2.548   3.667   1.352  0.6276  0.6949 -0.0051
 2400TIP3    H2 7207   2.549   3.544   1.440 -0.6161 -1.1218 -2.4248
 2401TIP3   OH2 7208   5.456   1.424   4.505 -0.3458  0.8397  0.6681
 2401TIP3    H1 7209   5.378   1.473   4.531 -0.2426  1.8059 -0.7574
 2401TIP3    H2 7210   5.521   1.491   4.486 -0.4225  0.2601 -2.0514
 2402TIP3   OH2 7211   3.641   1.493   4.501 -0.1033 -0.2895 -0.2620
 2402TIP3    H1 7212   3.562   1.488   4.555  0.5180 -0.5586  0.6540
 2402TIP3    H2 7213   3.609   1.493   4.411 -1.1980  0.7799  0.0983
 2403TIP3   OH2 7214   2.466   2.360   3.750 -0.0315 -0.3216 -0.0030
 2403TIP3    H1 7215   2.537   2.296   3.749  0.2636 -0.2182  3.5135
 2403TIP3    H2 7216   2.510   2.444   3.735  0.5061 -0.3620  1.2106
 2404TIP3   OH2 7217   6.306   3.282   1.254 -0.3447  0.1325 -0.4915
 2404TIP3    H1 7218   6.319   3.205   1.308 -0.3282 -0.4757 -1.3389
 2404TIP3    H2 7219   6.366   3.348   1.289  1.1913 -0.9224 -1.0725
 2405TIP3   OH2 7220   3.813   0.984   0.777 -0.2752  0.1434 -0.2200
 2405TIP3    H1 7221   3.862   0.917   0.823 -1.2089  0.3320  1.0930
 2405TIP3    H2 7222   3.841   0.975   0.685  2.2613  0.3204  0.4510
 2406TIP3   OH2 7223   5.380   2.132   4.829 -0.1742  0.0737 -0.5888
 2406TIP3    H1 7224   5.330   2.115   4.750 -0.4487  1.3579 -0.7142
 2406TIP3    H2 7225   5.471   2.116   4.804 -0.3238 -0.1990 -0.9647
 2407TIP3   OH2 7226   2.523   1.225   4.004  0.2614 -0.0862  0.2027
 2407TIP3    H1 7227   2.617   1.216   3.990  0.3133  0.4221  0.2214
 2407TIP3    H2 7228   2.506   1.319   3.999 -0.3444 -0.2129 -0.4295
 2408TIP3   OH2 7229   4.861   0.590   1.453 -0.1918  0.0834  0.2449
 2408TIP3    H1 7230   4.907   0.608   1.371 -0.6099  0.4563  0.0847
 2408TIP3    H2 7231   4.880   0.499   1.471 -1.1298 -0.3881 -0.9588
 2409TIP3   OH2 7232   4.243   4.969   0.493 -0.5797  0.2045  0.4077
 2409TIP3    H1 7233   4.233   4.874   0.497  0.8482 -0.0155 -0.5579
 2409TIP3    H2 7234   4.256   4.995   0.585  0.2074 -0.6906  0.5656
 2410TIP3   OH2 7235   4.080   5.833   4.510  0.1460 -0.2713 -0.0106
 2410TIP3    H1 7236   4.159   5.804   4.555  1.0030  1.1728 -0.5439
 2410TIP3    H2 7237   4.105   5.837   4.418  0.4066  3.0621  0.1153
 2411TIP3   OH2 7238   5.048   1.290   3.216  0.0857 -0.2587  0.2551
 2411TIP3    H1 7239   4.964   1.245   3.226 -0.7688  1.2642  0.2957
 2411TIP3    H2 7240   5.048   1.357   3.285 -0.4386  2.3345 -2.0569
 2412TIP3   OH2 7241   3.776   5.426   0.967 -0.0105 -0.7848 -0.5488
 2412TIP3    H1 7242   3.752   5.512   1.002  2.7418  0.1058 -0.6136
 2412TIP3    H2 7243   3.814   5.445   0.881  1.4395 -1.9299 -0.2009
 2413TIP3   OH2 7244   5.246   5.763   2.955 -0.1291 -0.1392  0.4005
 2413TIP3    H1 7245   5.322   5.737   2.902  0.7602  1.7767  0.6586
 2413TIP3    H2 7246   5.236   5.691   3.018  1.3177 -0.5510  0.2044
 2414TIP3   OH2 7247   2.520   0.547   2.701  0.0961  0.0035  0.2646
 2414TIP3    H1 7248   2.550   0.487   2.769 -1.7637 -1.5757 -0.2000
 2414TIP3    H2 7249   2.486   0.623   2.749 -0.4535 -0.7278  1.0603
 2415TIP3   OH2 7250   1.853   4.797   3.384 -0.0580  0.7829  0.3292
 2415TIP3    H1 7251   1.941   4.810   3.347 -0.7372  2.7019 -0.8038
 2415TIP3    H2 7252   1.802   4.760   3.312 -0.2680 -0.0101  0.8765
 2416TIP3   OH2 7253   0.212   0.450   1.096  0.3813  0.3514 -0.5887
 2416TIP3    H1 7254   0.190   0.393   1.021  3.5058 -2.0155  0.0564
 2416TIP3    H2 7255   0.293   0.494   1.069  0.4320  1.0498  0.6361
 2417TIP3   OH2 7256   1.420   4.912   1.605  0.2566  0.5544 -0.5022
 2417TIP3    H1 7257   1.450   4.894   1.516 -0.0907  1.0699 -0.7277
 2417TIP3    H2 7258   1.331   4.944   1.595 -0.1444 -0.3126  0.1164
 2418TIP3   OH2 7259   5.211   4.026   2.277 -0.6846 -0.9081 -0.2177
 2418TIP3    H1 7260   5.210   4.119   2.299 -1.3841 -0.2056 -2.8275
 2418TIP3    H2 7261   5.303   4.007   2.256 -0.6471 -0.6154 -0.3249
 2419TIP3   OH2 7262   5.779   1.836   4.155 -0.1137 -0.7866 -0.2003
 2419TIP3    H1 7263   5.858   1.782   4.161 -0.3184 -0.9797  1.0495
 2419TIP3    H2 7264   5.708   1.773   4.141 -0.1862 -0.7148 -0.1519
 2420TIP3   OH2 7265   2.951   2.684   0.641  0.2703  0.2070  0.3650
 2420TIP3    H1 7266   2.866   2.689   0.598  0.9407 -1.0201 -1.1998
 2420TIP3    H2 7267   2.964   2.591   0.657  1.2672  0.3914  0.6778
 2421TIP3   OH2 7268   2.559   1.724   3.317  0.2715  0.0889  0.4732
 2421TIP3    H1 7269   2.565   1.634   3.284 -2.0891 -0.0725  0.2898
 2421TIP3    H2 7270   2.645   1.762   3.300  0.8355 -1.6670 -0.8641
 2422TIP3   OH2 7271   0.776   3.910   1.474 -0.2843 -0.0678  0.0479
 2422TIP3    H1 7272   0.777   3.947   1.385  0.1521 -2.5115 -1.0482
 2422TIP3    H2 7273   0.747   3.983   1.529 -3.4747  0.8476 -2.4536
 2423TIP3   OH2 7274   5.974   2.222   1.172 -0.2542 -0.1774  0.1290
 2423TIP3    H1 7275   5.959   2.222   1.267 -1.4610  0.6438 -0.0400
 2423TIP3    H2 7276   5.893   2.186   1.135  0.9316 -2.3291 -0.5274
 2424TIP3   OH2 7277   5.504   3.684  -0.026 -0.2549 -0.7246  0.0612
 2424TIP3    H1 7278   5.455   3.663   0.054 -1.3014 -0.6066 -0.5274
 2424TIP3    H2 7279   5.537   3.772  -0.011 -1.4844 -0.2127 -0.1044
 2425TIP3   OH2 7280   6.232   3.404   1.580 -0.5939 -0.1235  0.3087
 2425TIP3    H1 7281   6.229   3.476   1.518 -0.3949 -0.5717 -0.2298
 2425TIP3    H2 7282   6.270   3.331   1.531  0.7824 -0.1236  1.3101
 2426TIP3   OH2 7283   4.884   0.628   4.407  0.0164  0.2416  0.1657
 2426TIP3    H1 7284   4.972   0.608   4.373 -0.5354  0.1869 -1.3308
 2426TIP3    H2 7285   4.885   0.722   4.422  0.6879  0.0731  1.3181
 2427TIP3   OH2 7286   1.825   5.968   4.224  0.0678 -0.2101  0.0657
 2427TIP3    H1 7287   1.790   5.919   4.298 -0.6090 -2.9040 -1.8963
 2427TIP3    H2 7288   1.748   6.012   4.187  0.2372  0.3595  0.3778
 2428TIP3   OH2 7289   4.044   1.956   2.804  0.2000 -0.0119 -0.0264
 2428TIP3    H1 7290   4.116   1.895   2.790  0.9081  0.9333 -0.6043
 2428TIP3    H2 7291   3.990   1.948   2.725  1.9989  2.3439 -1.6473
 2429TIP3   OH2 7292   4.633   1.957   3.737 -0.0287  0.6659 -0.1841
 2429TIP3    H1 7293   4.593   1.913   3.811  0.4161 -0.9122 -0.8460
 2429TIP3    H2 7294   4.710   2.001   3.773 -0.1388  0.3952  0.3807
 2430TIP3   OH2 7295   0.350   3.354   4.278 -1.2571 -0.2357 -0.0595
 2430TIP3    H1 7296   0.353   3.258   4.279  1.4046 -0.2438 -0.9084
 2430TIP3    H2 7297   0.300   3.376   4.199 -0.3770 -0.9695 -0.8467
 2431TIP3   OH2 7298   3.862   2.146   4.114 -0.3970  0.2355 -0.6061
 2431TIP3    H1 7299   3.896   2.099   4.038 -0.5226  1.6051 -1.5459
 2431TIP3    H2 7300   3.897   2.098   4.190  1.2017 -0.1280 -1.5192
 2432TIP3   OH2 7301   5.214   4.481   0.610 -0.2491 -0.3891 -0.3443
 2432TIP3    H1 7302   5.277   4.428   0.659 -0.5998 -0.6307 -0.1463
 2432TIP3    H2 7303   5.262   4.560   0.587 -0.3553  0.1554  1.2066
 2433TIP3   OH2 7304   5.504   4.469   2.696  0.2608  0.0701  0.4857
 2433TIP3    H1 7305   5.579   4.417   2.669  1.6029  2.8941 -1.7949
 2433TIP3    H2 7306   5.440   4.457   2.626 -0.4301 -0.3796  1.1745
 2434TIP3   OH2 7307   4.096   2.646   4.121 -0.0651 -0.2452  0.2237
 2434TIP3    H1 7308   4.046   2.567   4.101 -0.0199 -0.2344  0.0722
 2434TIP3    H2 7309   4.080   2.704   4.047 -2.2570  0.9327  1.5090
 2435TIP3   OH2 7310   2.342   1.285   0.859  0.6090  0.8874 -0.3760
 2435TIP3    H1 7311   2.333   1.266   0.766  2.1349  0.5888 -0.4898
 2435TIP3    H2 7312   2.305   1.208   0.903 -1.7848  1.8090 -0.6649
 2436TIP3   OH2 7313   2.542   5.369   5.061  0.2469 -0.6987  0.0531
 2436TIP3    H1 7314   2.491   5.449   5.059  1.1266 -0.1245  0.0681
 2436TIP3    H2 7315   2.621   5.389   5.010  0.3593 -1.6308 -0.1631
 2437TIP3   OH2 7316   2.293   1.729   2.796  0.1057  0.0603 -0.3097
 2437TIP3    H1 7317   2.306   1.656   2.856 -0.1728 -0.4194 -0.8192
 2437TIP3    H2 7318   2.209   1.711   2.753  0.1895  0.5082 -0.6785
 2438TIP3   OH2 7319   3.407   5.745   4.586  0.4112  0.1666 -0.6708
 2438TIP3    H1 7320   3.370   5.698   4.511 -2.4017  2.5878 -0.9955
 2438TIP3    H2 7321   3.475   5.801   4.547 -1.6181  2.0646 -1.7359
 2439TIP3   OH2 7322   3.641   3.666   4.412  0.5041 -0.4825 -0.3103
 2439TIP3    H1 7323   3.615   3.626   4.329  1.6616  1.9583 -1.9979
 2439TIP3    H2 7324   3.735   3.648   4.418  0.4766 -0.4279  0.3585
 2440TIP3   OH2 7325   2.899   3.843   2.431 -0.1539 -0.5244  0.6172
 2440TIP3    H1 7326   2.928   3.932   2.450 -1.2754 -0.0745  0.3566
 2440TIP3    H2 7327   2.911   3.795   2.512  1.1656 -0.3419  0.5458
 2441TIP3   OH2 7328   2.634   4.294   2.930 -0.3189 -0.2390  0.3618
 2441TIP3    H1 7329   2.698   4.262   2.867 -1.2359  0.9305 -1.2169
 2441TIP3    H2 7330   2.648   4.239   3.008  3.0514  0.4172  0.3757
 2442TIP3   OH2 7331   5.772   4.319   3.404  0.1189 -0.0191  0.1533
 2442TIP3    H1 7332   5.829   4.335   3.479 -0.4425  0.3983  0.5075
 2442TIP3    H2 7333   5.687   4.299   3.444 -0.4558  1.2535 -0.3623
 2443TIP3   OH2 7334   4.919   3.727   1.997 -0.0016  0.0234 -0.1040
 2443TIP3    H1 7335   4.982   3.746   2.067  0.8889  0.8218 -1.0958
 2443TIP3    H2 7336   4.839   3.772   2.024 -0.3297 -1.3302  1.3701
 2444TIP3   OH2 7337   2.355   5.031   1.566  0.1204 -0.0872 -0.3906
 2444TIP3    H1 7338   2.367   5.091   1.640 -2.6632 -0.3199  0.3682
 2444TIP3    H2 7339   2.425   4.966   1.577  1.6166  1.5450  0.2362
 2445TIP3   OH2 7340   0.857   1.072   1.189 -0.1096  0.4620  0.5188
 2445TIP3    H1 7341   0.874   1.125   1.111 -0.3754 -0.2522 -0.0297
 2445TIP3    H2 7342   0.900   0.989   1.172  0.2289  0.4633  1.3421
 2446TIP3   OH2 7343   2.154   4.205   0.669  0.1575 -0.1213  0.7295
 2446TIP3    H1 7344   2.158   4.294   0.634 -1.5816 -0.4511 -0.4155
 2446TIP3    H2 7345   2.127   4.216   0.760 -1.5716  0.4842  0.1787
 2447TIP3   OH2 7346   2.603   2.895   3.466  0.3203  0.9856 -0.5340
 2447TIP3    H1 7347   2.662   2.821   3.472 -2.1278 -1.0358  0.8743
 2447TIP3    H2 7348   2.597   2.914   3.372  1.1814 -0.4448 -0.9065
 2448TIP3   OH2 7349   2.930   2.919   2.699 -0.1590 -1.1956  0.1726
 2448TIP3    H1 7350   2.933   2.912   2.604 -0.8266 -0.9428  0.1233
 2448TIP3    H2 7351   3.001   2.863   2.730  1.5269  0.4529 -0.5244
 2449TIP3   OH2 7352   4.282   5.372   2.775  0.0721 -0.7115 -0.6280
 2449TIP3    H1 7353   4.226   5.297   2.755  0.5537 -0.7205 -2.0551
 2449TIP3    H2 7354   4.222   5.438   2.811 -0.7764 -0.8965 -1.6545
 2450TIP3   OH2 7355   4.185   4.087   4.198 -0.1863 -0.0916 -0.1304
 2450TIP3    H1 7356   4.221   4.106   4.284 -2.5920 -2.9910  1.7108
 2450TIP3    H2 7357   4.219   4.000   4.177  0.6121  0.6886 -2.3456
 2451TIP3   OH2 7358   4.441   1.297   3.866  0.3157  0.2253  0.1379
 2451TIP3    H1 7359   4.366   1.277   3.922 -1.2906  0.2858 -1.8958
 2451TIP3    H2 7360   4.425   1.387   3.837  0.8506  0.0144 -0.8341
 2452TIP3   OH2 7361   3.143   4.266   3.101  0.2278 -0.2954 -0.1379
 2452TIP3    H1 7362   3.114   4.178   3.076 -0.9940 -0.0971  0.5250
 2452TIP3    H2 7363   3.124   4.272   3.195 -2.2210  1.5800 -0.6471
 2453TIP3   OH2 7364   3.673   3.131   3.653  0.2557  0.2776 -0.1561
 2453TIP3    H1 7365   3.706   3.072   3.720  1.6623  2.6502  1.4003
 2453TIP3    H2 7366   3.579   3.115   3.651  0.2617 -0.2995  1.9803
 2454TIP3   OH2 7367   0.356   2.272   2.791  0.4028  0.1805 -0.7643
 2454TIP3    H1 7368   0.387   2.238   2.707  1.3325 -0.7918 -0.0581
 2454TIP3    H2 7369   0.263   2.291   2.776 -0.2572 -2.8576 -1.2069
 2455TIP3   OH2 7370   1.345   4.130   1.835  0.4450  0.0203 -0.4513
 2455TIP3    H1 7371   1.412   4.140   1.768  0.5193  0.5506 -0.3002
 2455TIP3    H2 7372   1.292   4.056   1.806 -0.6363  1.3394 -2.0580
 2456TIP3   OH2 7373   4.679   1.313   4.782  0.4675  0.4379  0.4521
 2456TIP3    H1 7374   4.613   1.245   4.774  0.6544  0.3456 -0.3126
 2456TIP3    H2 7375   4.716   1.300   4.870 -0.4735  0.4522  0.8594
 2457TIP3   OH2 7376   0.847   1.877   2.557  0.5255  0.5123 -0.2507
 2457TIP3    H1 7377   0.883   1.795   2.591 -0.8234  0.0304  0.0900
 2457TIP3    H2 7378   0.915   1.942   2.573  1.7042 -0.5587 -0.6907
 2458TIP3   OH2 7379   1.001   1.660   2.658  0.1841 -0.0822 -0.0687
 2458TIP3    H1 7380   0.944   1.636   2.732 -1.0546 -0.8570 -1.2339
 2458TIP3    H2 7381   1.031   1.576   2.624  2.2293  0.3158  0.6310
 2459TIP3   OH2 7382   5.785   2.880   2.600 -0.4878  0.2564  0.4353
 2459TIP3    H1 7383   5.872   2.852   2.574 -0.6294  0.9995 -0.8935
 2459TIP3    H2 7384   5.745   2.802   2.639  0.6566 -0.1553  0.8282
 2460TIP3   OH2 7385   1.670   2.891   4.790  0.0891 -0.5228  0.7043
 2460TIP3    H1 7386   1.658   2.986   4.802  0.5029 -0.4403  0.5126
 2460TIP3    H2 7387   1.592   2.852   4.828 -0.4330 -0.0604  0.1376
 2461TIP3   OH2 7388   5.208   1.788   4.063  0.4883  0.2936 -0.1224
 2461TIP3    H1 7389   5.219   1.874   4.105  0.0726  0.1836  0.2179
 2461TIP3    H2 7390   5.255   1.796   3.980  1.2355  0.5536  0.3087
 2462TIP3   OH2 7391   2.930   5.514   1.168 -0.1944  0.1878  0.2253
 2462TIP3    H1 7392   2.977   5.433   1.187 -0.3055 -0.2807 -1.3981
 2462TIP3    H2 7393   2.992   5.583   1.190  0.8190 -0.3986 -0.6698
 2463TIP3   OH2 7394   2.040   4.345   2.414  0.0930 -0.5503  0.3973
 2463TIP3    H1 7395   2.110   4.403   2.444 -0.5788 -0.4188  1.7624
 2463TIP3    H2 7396   2.057   4.334   2.320  1.8918 -0.4738  0.6784
 2464TIP3   OH2 7397   5.563   4.816   2.017 -0.3743 -0.0440  0.5279
 2464TIP3    H1 7398   5.610   4.892   2.050 -0.2008  1.1030 -2.0808
 2464TIP3    H2 7399   5.471   4.843   2.014 -0.0487  1.0977 -2.6534
 2465TIP3   OH2 7400   5.053   0.697   3.412 -0.4578  0.7160 -0.0118
 2465TIP3    H1 7401   4.967   0.732   3.388  0.0166  0.8831 -1.5860
 2465TIP3    H2 7402   5.075   0.637   3.341 -0.1604 -0.9396  1.4066
 2466TIP3   OH2 7403   4.263   0.508   4.213  0.3098  0.2464  0.1468
 2466TIP3    H1 7404   4.169   0.505   4.229  0.4512  2.1293  1.5804
 2466TIP3    H2 7405   4.282   0.424   4.171 -1.9006 -0.4051  0.3066
 2467TIP3   OH2 7406   5.255   1.354   0.896  0.0331  0.0369  0.1367
 2467TIP3    H1 7407   5.289   1.269   0.924  0.2222  0.3712  0.9477
 2467TIP3    H2 7408   5.200   1.383   0.968 -0.3546  0.4286 -0.3049
 2468TIP3   OH2 7409   4.067   4.321   2.227  0.1659  0.0003 -0.2328
 2468TIP3    H1 7410   3.990   4.330   2.282  0.0987 -1.6216 -0.0279
 2468TIP3    H2 7411   4.091   4.228   2.233  1.9553  0.3967 -0.5178
 2469TIP3   OH2 7412   3.008   1.015   4.803  0.4125  0.0549  0.2760
 2469TIP3    H1 7413   3.044   1.055   4.882 -0.7340 -0.6373  1.1796
 2469TIP3    H2 7414   2.999   1.088   4.742  0.7206  0.7252  1.0081
 2470TIP3   OH2 7415   1.654   1.952   3.281 -0.5148 -0.3023 -0.5279
 2470TIP3    H1 7416   1.578   2.000   3.249 -1.1797 -0.1207  1.2290
 2470TIP3    H2 7417   1.651   1.962   3.376  1.2025 -1.0573 -0.3484
 2471TIP3   OH2 7418   3.587   3.519   4.198  0.1742  0.2178  0.3002
 2471TIP3    H1 7419   3.549   3.526   4.110  0.2560  0.0189  0.2496
 2471TIP3    H2 7420   3.682   3.512   4.182  0.1602 -0.1528  0.3919
 2472TIP3   OH2 7421   2.782   4.051   0.256 -0.2019  0.4850  0.4885
 2472TIP3    H1 7422   2.824   3.980   0.305  1.1949  0.8584 -0.1033
 2472TIP3    H2 7423   2.689   4.032   0.261  0.1715 -2.5368 -1.3332
 2473TIP3   OH2 7424   2.604   0.880   0.272 -0.1712 -0.7109 -0.5095
 2473TIP3    H1 7425   2.592   0.917   0.359  0.7360 -0.6115 -0.4195
 2473TIP3    H2 7426   2.590   0.786   0.284 -0.1601 -0.6839 -0.2840
 2474TIP3   OH2 7427   1.716   1.301   2.210 -0.0174  0.1109 -0.0494
 2474TIP3    H1 7428   1.766   1.369   2.255 -0.6519  0.5100  0.0550
 2474TIP3    H2 7429   1.649   1.349   2.161  0.7263 -0.3010 -1.5150
 2475TIP3   OH2 7430   0.148   3.988   2.142  0.1685  1.0003 -0.3251
 2475TIP3    H1 7431   0.235   4.028   2.140  1.7025 -2.0694 -1.4869
 2475TIP3    H2 7432   0.130   3.975   2.235  0.6702  2.1379 -0.0487
 2476TIP3   OH2 7433   3.791   3.740   2.054 -0.3734 -0.5571 -0.2227
 2476TIP3    H1 7434   3.847   3.812   2.081 -0.6423 -0.7457  0.8637
 2476TIP3    H2 7435   3.702   3.773   2.065 -0.5009 -1.1715  0.6115
 2477TIP3   OH2 7436   0.022   0.052   5.013 -0.3799  0.1005 -0.1471
 2477TIP3    H1 7437   0.076  -0.017   5.051 -1.2519 -0.3476  0.3135
 2477TIP3    H2 7438   0.020   0.121   5.079  0.8497  0.7845 -0.7844
 2478TIP3   OH2 7439   3.329   2.015   3.596  0.5509 -0.8242 -0.0353
 2478TIP3    H1 7440   3.268   2.071   3.645  1.2461  0.6313 -0.7928
 2478TIP3    H2 7441   3.400   1.997   3.657  0.4981 -0.5919  0.0947
 2479TIP3   OH2 7442   0.642   1.445   1.210  0.4212 -0.4632  0.5291
 2479TIP3    H1 7443   0.579   1.516   1.192  1.4358  0.5164  0.7511
 2479TIP3    H2 7444   0.722   1.472   1.166  0.7656 -1.6026  0.4280
 2480TIP3   OH2 7445   1.205   4.225   1.475 -0.0440 -0.0052  0.6283
 2480TIP3    H1 7446   1.290   4.268   1.462 -0.7371  1.3226  0.2548
 2480TIP3    H2 7447   1.142   4.288   1.441 -1.1172 -1.4200 -0.0864
 2481TIP3   OH2 7448   3.618   0.077   1.195  0.4983 -0.0207  0.1783
 2481TIP3    H1 7449   3.691   0.098   1.253 -0.2968 -0.0006  1.2012
 2481TIP3    H2 7450   3.540   0.084   1.251 -0.1993 -1.0308 -0.6207
 2482TIP3   OH2 7451   5.666   5.218   4.796  0.0501  0.4197  0.2805
 2482TIP3    H1 7452   5.648   5.304   4.760  0.0095  0.7213  1.0119
 2482TIP3    H2 7453   5.619   5.157   4.738 -0.7187  0.9601  0.3284
 2483TIP3   OH2 7454   1.853   4.116   4.313  0.2947 -0.0484 -0.3644
 2483TIP3    H1 7455   1.770   4.128   4.267 -1.2653 -0.0807  2.2155
 2483TIP3    H2 7456   1.877   4.203   4.342 -1.4117 -0.4772  2.8280
 2484TIP3   OH2 7457   3.022   4.227   3.354  0.1797  0.3489 -0.6263
 2484TIP3    H1 7458   3.011   4.134   3.376  1.5681  0.4144  0.4527
 2484TIP3    H2 7459   2.948   4.270   3.397  0.2491 -0.1155 -0.0162
 2485TIP3   OH2 7460   2.798   0.306   1.109  0.2792  0.2376  0.0113
 2485TIP3    H1 7461   2.857   0.356   1.052  0.3956 -0.0401 -0.1108
 2485TIP3    H2 7462   2.719   0.295   1.056  0.1159  0.6092  0.1748
 2486TIP3   OH2 7463   0.342   1.675   3.903  0.4590  0.0417 -0.0473
 2486TIP3    H1 7464   0.392   1.657   3.823  0.2352 -1.1226  0.0528
 2486TIP3    H2 7465   0.397   1.736   3.952  1.3893 -0.5469 -0.3330
 2487TIP3   OH2 7466   3.334   4.322   1.658 -0.4943 -0.1812 -0.1847
 2487TIP3    H1 7467   3.244   4.291   1.646 -0.6092 -0.1906  0.6593
 2487TIP3    H2 7468   3.330   4.377   1.736  0.5041 -1.3360  0.7153
 2488TIP3   OH2 7469   2.597   4.866   1.596  0.5106 -0.0272  0.2983
 2488TIP3    H1 7470   2.607   4.829   1.509  0.2662 -1.6489  0.9234
 2488TIP3    H2 7471   2.621   4.795   1.656 -1.7433  0.1938  1.5905
 2489TIP3   OH2 7472   1.107   3.962   4.214 -0.0194 -0.2303 -0.7063
 2489TIP3    H1 7473   1.041   4.012   4.165 -1.4507 -0.3685  0.9534
 2489TIP3    H2 7474   1.093   3.989   4.305  2.6676  0.1831 -0.3322
 2490TIP3   OH2 7475   5.054   0.618   1.212 -0.0162 -0.0009  0.0484
 2490TIP3    H1 7476   4.979   0.592   1.159  0.1142 -3.1615  1.2290
 2490TIP3    H2 7477   5.071   0.709   1.187 -3.3075  0.3637 -1.2900
 2491TIP3   OH2 7478   2.460   2.169   0.223  0.3015  0.3954 -0.1567
 2491TIP3    H1 7479   2.450   2.091   0.169  0.2998 -0.1413  0.6021
 2491TIP3    H2 7480   2.512   2.229   0.169 -3.3896  1.7241 -2.6481
 2492TIP3   OH2 7481   3.586   5.769   2.445  0.2623 -0.1289 -0.6619
 2492TIP3    H1 7482   3.636   5.763   2.363  2.3093 -2.7548  0.6534
 2492TIP3    H2 7483   3.502   5.806   2.418  1.3680  0.5343 -3.6758
 2493TIP3   OH2 7484   1.542   2.254   4.032 -0.5917 -0.3419  0.4500
 2493TIP3    H1 7485   1.471   2.315   4.056  1.1326  1.6165  0.8646
 2493TIP3    H2 7486   1.543   2.190   4.102 -1.1749  0.3153  1.0785
 2494TIP3   OH2 7487   2.512   1.657   0.241  0.1296  0.1672 -0.3673
 2494TIP3    H1 7488   2.601   1.648   0.207  0.4409 -0.5159  0.5501
 2494TIP3    H2 7489   2.499   1.751   0.251  1.1497  0.2493  0.4313
 2495TIP3   OH2 7490   5.378   3.805   3.428 -0.1805  0.2389  0.0049
 2495TIP3    H1 7491   5.410   3.861   3.499  0.2692 -0.9421  0.7548
 2495TIP3    H2 7492   5.427   3.835   3.351  1.9612 -0.7695  0.8975
 2496TIP3   OH2 7493   0.085   3.737   1.290 -0.1100 -0.3955 -0.6487
 2496TIP3    H1 7494   0.093   3.670   1.222  0.7012 -0.2917 -0.6642
 2496TIP3    H2 7495   0.141   3.808   1.260 -1.2599  0.4717 -0.8218
 2497TIP3   OH2 7496   3.865   0.035   5.104  0.1316  0.0515  0.3802
 2497TIP3    H1 7497   3.867  -0.007   5.190  0.0983 -0.7624 -0.0091
 2497TIP3    H2 7498   3.935  -0.007   5.056 -1.3817 -1.2487 -0.7873
 2498TIP3   OH2 7499   4.759   1.185   2.276  0.9780 -0.6172 -0.8722
 2498TIP3    H1 7500   4.688   1.133   2.238  0.7677  0.3886 -1.9031
 2498TIP3    H2 7501   4.717   1.264   2.309  1.1991 -1.3420  1.2915
 2499TIP3   OH2 7502   2.503   5.544   4.458  0.3818 -0.1117 -0.0041
 2499TIP3    H1 7503   2.417   5.585   4.451  0.5442 -0.0375 -1.8562
 2499TIP3    H2 7504   2.497   5.492   4.539 -1.3672 -0.0549 -0.0423
 2500TIP3   OH2 7505   2.319   1.270   0.405 -0.3236 -0.0609  0.2925
 2500TIP3    H1 7506   2.386   1.208   0.434 -0.2131 -0.0899 -0.0252
 2500TIP3    H2 7507   2.295   1.318   0.485  1.5128  1.3434  0.0485
 2501TIP3   OH2 7508   6.182   1.769   2.507 -0.3775  0.3587  0.1775
 2501TIP3    H1 7509   6.088   1.784   2.515 -1.0796 -2.9330 -0.3814
 2501TIP3    H2 7510   6.206   1.725   2.589  0.0901 -1.0037 -0.6473
 2502TIP3   OH2 7511   2.275   5.516   2.304  0.2864  0.3108  0.2181
 2502TIP3    H1 7512   2.210   5.542   2.370 -0.3975 -0.2892 -0.2043
 2502TIP3    H2 7513   2.339   5.463   2.353 -0.4453 -0.4868  0.3357
 2503TIP3   OH2 7514   1.071   2.175   3.107 -0.0329 -0.0539 -0.1216
 2503TIP3    H1 7515   1.100   2.203   3.194 -1.5786  0.5058  0.2565
 2503TIP3    H2 7516   1.058   2.080   3.117 -2.4677  0.3094  1.0402
 2504TIP3   OH2 7517   3.142   3.445   2.008 -0.1338 -0.6571  0.3541
 2504TIP3    H1 7518   3.193   3.525   1.994 -1.2989 -0.0788 -0.7550
 2504TIP3    H2 7519   3.171   3.386   1.938  0.1660 -0.9365  0.7070
 2505TIP3   OH2 7520   1.176   3.281   4.094  0.0806  0.3315  0.6295
 2505TIP3    H1 7521   1.089   3.292   4.131  0.0779 -0.5515  0.9085
 2505TIP3    H2 7522   1.235   3.319   4.159 -0.0402  0.2024  0.8137
 2506TIP3   OH2 7523   1.730   4.078   3.381  0.2163 -0.3959  0.1185
 2506TIP3    H1 7524   1.663   4.010   3.371  1.8707 -2.1726  0.5665
 2506TIP3    H2 7525   1.681   4.155   3.410 -1.7696 -1.2780 -0.6941
 2507TIP3   OH2 7526   0.578   3.989   3.502 -0.4217 -0.0405 -0.1021
 2507TIP3    H1 7527   0.628   4.069   3.487 -0.6715  0.1513  0.0802
 2507TIP3    H2 7528   0.501   4.018   3.551 -0.2572 -0.4704  0.4186
 2508TIP3   OH2 7529   3.192   4.561   3.574 -0.3759 -0.6787 -0.5922
 2508TIP3    H1 7530   3.206   4.585   3.666  1.9089  0.8931 -1.2832
 2508TIP3    H2 7531   3.097   4.564   3.563 -0.6159  0.5374  1.3448
 2509TIP3   OH2 7532   4.266   0.176   2.480  0.4393  1.0399 -0.1166
 2509TIP3    H1 7533   4.177   0.204   2.458  0.0430  0.2650  0.4525
 2509TIP3    H2 7534   4.254   0.119   2.556  1.3615  0.3813 -0.4645
 2510TIP3   OH2 7535   5.199   4.248   2.582  0.3325  0.1175  0.0047
 2510TIP3    H1 7536   5.281   4.214   2.545 -0.5701 -0.9833 -1.0658
 2510TIP3    H2 7537   5.169   4.312   2.518  1.3290  2.0453  1.3649
 2511TIP3   OH2 7538   4.264   2.033   3.378  0.2711  0.6762  0.3292
 2511TIP3    H1 7539   4.233   1.957   3.329 -2.1981  2.1544 -0.5540
 2511TIP3    H2 7540   4.274   2.002   3.468  1.1608 -1.1206 -0.3443
 2512TIP3   OH2 7541   3.533   0.170   2.532 -0.1473 -0.0242  0.2788
 2512TIP3    H1 7542   3.447   0.157   2.573  0.2744  1.2312  1.6454
 2512TIP3    H2 7543   3.585   0.214   2.599  1.8919 -1.5979 -0.1554
 2513TIP3   OH2 7544   1.361   1.521   1.397 -0.3782 -0.5554 -0.2223
 2513TIP3    H1 7545   1.322   1.514   1.484 -0.4487  0.2983 -0.1766
 2513TIP3    H2 7546   1.345   1.612   1.371  0.2365 -0.6198 -0.8443
 2514TIP3   OH2 7547   2.641   4.258   0.585  0.8464  0.1582 -0.1547
 2514TIP3    H1 7548   2.620   4.169   0.613  1.3074  0.4206  1.1032
 2514TIP3    H2 7549   2.737   4.259   0.580  0.8201  0.4457 -0.6600
 2515TIP3   OH2 7550   2.549   2.828   1.575 -0.3441 -0.1716 -0.1651
 2515TIP3    H1 7551   2.619   2.805   1.513  0.6117 -0.2306  0.9122
 2515TIP3    H2 7552   2.473   2.779   1.544  0.6114 -1.6696 -0.2325
 2516TIP3   OH2 7553   2.056   0.253   3.050  0.4897  0.2844  0.2225
 2516TIP3    H1 7554   2.025   0.322   3.108  0.7449  1.3729 -0.8934
 2516TIP3    H2 7555   1.998   0.257   2.974  0.6378 -0.6060  0.0465
 2517TIP3   OH2 7556   5.363   5.997   1.363  1.1670 -0.2486  0.6198
 2517TIP3    H1 7557   5.289   6.030   1.313 -0.3433 -1.6738  1.8152
 2517TIP3    H2 7558   5.382   5.911   1.326  3.9964  1.0451 -1.3677
 2518TIP3   OH2 7559   0.034   1.405   3.774 -0.1558  0.3738  0.0345
 2518TIP3    H1 7560   0.051   1.493   3.809 -2.7913  1.1126 -0.2686
 2518TIP3    H2 7561  -0.007   1.421   3.689  2.4443 -1.3016 -1.6578
 2519TIP3   OH2 7562   2.072   2.773   4.002  0.7093  0.7904 -0.0119
 2519TIP3    H1 7563   2.023   2.725   3.935  1.8026 -0.3833 -0.0130
 2519TIP3    H2 7564   2.163   2.748   3.987  1.6307  4.2986 -1.1412
 2520TIP3   OH2 7565   5.936   1.633   0.694  0.1660 -0.0354 -0.1041
 2520TIP3    H1 7566   5.948   1.571   0.766  0.9725  0.2276  0.0014
 2520TIP3    H2 7567   5.896   1.581   0.624 -0.1403 -0.4161  0.3450
 2521TIP3   OH2 7568   2.477   1.829   1.774  1.0819 -0.1202  0.4348
 2521TIP3    H1 7569   2.484   1.740   1.740 -1.1862  0.8807 -3.1553
 2521TIP3    H2 7570   2.384   1.840   1.793  1.4074  1.3654  1.2820
 2522TIP3   OH2 7571   5.816   4.477   4.604  0.1538 -0.0185  0.3170
 2522TIP3    H1 7572   5.861   4.407   4.650 -0.3706 -0.0376  0.8174
 2522TIP3    H2 7573   5.878   4.507   4.538 -0.2738 -2.2547 -1.2142
 2523TIP3   OH2 7574   0.173   5.867   1.651 -0.5238  0.5559  1.0126
 2523TIP3    H1 7575   0.162   5.794   1.591  0.1201 -1.7406  3.4811
 2523TIP3    H2 7576   0.096   5.922   1.636  1.6735  2.7649 -4.9971
 2524TIP3   OH2 7577   2.326   5.857   3.355  0.0443  0.2335  0.6373
 2524TIP3    H1 7578   2.329   5.771   3.313 -2.7454  0.7216 -0.7914
 2524TIP3    H2 7579   2.337   5.838   3.448 -0.5313 -1.6973  0.3527
 2525TIP3   OH2 7580   6.296   0.154   1.055 -0.3434  0.0857 -0.4087
 2525TIP3    H1 7581   6.302   0.070   1.010 -1.0903 -0.0064 -0.3449
 2525TIP3    H2 7582   6.373   0.155   1.113 -1.0979 -1.2159  0.6966
 2526TIP3   OH2 7583   0.696   5.409   3.479 -0.6618  0.0121 -0.7432
 2526TIP3    H1 7584   0.767   5.344   3.475 -1.4467 -0.8402 -1.5594
 2526TIP3    H2 7585   0.700   5.444   3.568  1.7169  1.0977 -1.1933
 2527TIP3   OH2 7586   4.511   3.979   4.079 -0.1835 -0.0614  0.0550
 2527TIP3    H1 7587   4.587   3.924   4.065  1.3609  2.1210 -0.6180
 2527TIP3    H2 7588   4.523   4.015   4.167 -0.9616 -0.4473  0.3311
 2528TIP3   OH2 7589   0.333   1.749   5.170  0.2994  0.1679  0.1036
 2528TIP3    H1 7590   0.270   1.821   5.181  0.9941  1.1851 -2.0166
 2528TIP3    H2 7591   0.418   1.789   5.191  0.5949 -0.2806 -0.2360
 2529TIP3   OH2 7592   5.395   2.555   2.293 -0.4031 -0.1821  0.6534
 2529TIP3    H1 7593   5.349   2.601   2.363  0.0181  1.5874 -0.1618
 2529TIP3    H2 7594   5.325   2.523   2.236 -0.6963  0.5137  0.6102
 2530TIP3   OH2 7595   6.152   3.486   2.497 -0.1883  0.0252  0.2849
 2530TIP3    H1 7596   6.222   3.526   2.445 -0.7250  0.7249  0.0732
 2530TIP3    H2 7597   6.197   3.422   2.553  0.4982 -0.1605 -0.4603
 2531TIP3   OH2 7598   2.398   3.069   1.967  0.3036  0.3672 -0.0924
 2531TIP3    H1 7599   2.473   3.015   1.942  1.7656  3.1690 -2.4079
 2531TIP3    H2 7600   2.431   3.125   2.038  0.4106  1.4501 -0.9625
 2532TIP3   OH2 7601   3.187   1.302   1.236 -0.0387  0.6003  0.0299
 2532TIP3    H1 7602   3.216   1.386   1.202  0.9278  0.2284 -0.0799
 2532TIP3    H2 7603   3.145   1.259   1.162  0.5237  0.5032 -0.2350
 2533TIP3   OH2 7604   1.453   3.020   3.208 -0.0130 -0.3417 -0.0487
 2533TIP3    H1 7605   1.473   2.934   3.170  0.6613  0.0896 -0.7057
 2533TIP3    H2 7606   1.503   3.082   3.155  0.2596  0.3763  1.0109
 2534TIP3   OH2 7607   4.088   1.450   3.522 -0.5227 -0.1448 -0.2276
 2534TIP3    H1 7608   4.002   1.466   3.483 -0.6944  0.4751  0.3651
 2534TIP3    H2 7609   4.075   1.376   3.581 -0.9274  0.6201  0.6696
 2535TIP3   OH2 7610   3.610   5.091   0.401  0.1867 -0.0418  0.5376
 2535TIP3    H1 7611   3.617   5.043   0.318 -1.3400  0.0947  0.3002
 2535TIP3    H2 7612   3.603   5.022   0.467 -1.8983 -0.2092  0.2082
 2536TIP3   OH2 7613   1.427   5.004   3.557  0.0488 -0.8164  0.3136
 2536TIP3    H1 7614   1.506   5.047   3.589 -0.4623  2.3216 -2.1075
 2536TIP3    H2 7615   1.451   4.972   3.470 -1.0494 -0.6609 -0.0655
 2537TIP3   OH2 7616   2.384   4.243   2.343 -0.2443  0.4777 -0.2058
 2537TIP3    H1 7617   2.462   4.237   2.287 -0.2139 -0.0248 -0.1132
 2537TIP3    H2 7618   2.311   4.231   2.283 -0.2180  0.1275 -0.1722
 2538TIP3   OH2 7619   4.537   0.369   1.265 -0.0563 -0.1392 -0.0259
 2538TIP3    H1 7620   4.473   0.440   1.256  0.1357 -0.0214 -0.4742
 2538TIP3    H2 7621   4.530   0.342   1.357 -0.1336  0.4534  0.1476
 2539TIP3   OH2 7622   1.732   5.291   3.456  0.2912  0.2396  0.0310
 2539TIP3    H1 7623   1.771   5.371   3.419  0.6719  0.4936  0.9493
 2539TIP3    H2 7624   1.651   5.279   3.406  1.7800 -0.6239 -2.3273
 2540TIP3   OH2 7625   3.295   4.251   1.017 -0.0065 -0.1915 -0.3218
 2540TIP3    H1 7626   3.321   4.343   1.028 -0.7848  0.0781 -0.6587
 2540TIP3    H2 7627   3.361   4.201   1.065 -0.8396  0.6705  1.8062
 2541TIP3   OH2 7628   1.923   0.786   3.517  0.1453  0.2125 -0.6175
 2541TIP3    H1 7629   1.908   0.711   3.460  0.2282  0.5779 -1.1313
 2541TIP3    H2 7630   1.841   0.798   3.564  0.0931 -0.1215 -0.6235
 2542TIP3   OH2 7631   0.578   3.471   4.326 -0.2507 -0.0338  0.6825
 2542TIP3    H1 7632   0.574   3.501   4.416  1.7387  0.9586  0.4904
 2542TIP3    H2 7633   0.497   3.421   4.314 -0.1265 -1.0321  3.2893
 2543TIP3   OH2 7634   2.415   0.785   2.187  0.2903 -0.5043  0.4537
 2543TIP3    H1 7635   2.494   0.779   2.133  0.5522 -1.6931  0.9336
 2543TIP3    H2 7636   2.447   0.774   2.276 -0.2339  0.6709  0.7991
 2544TIP3   OH2 7637   1.242   5.184   2.542 -0.2832  0.0660 -0.6088
 2544TIP3    H1 7638   1.329   5.196   2.581 -0.4109 -1.5814  0.2883
 2544TIP3    H2 7639   1.183   5.230   2.601 -0.1967 -0.3446 -0.1890
 2545TIP3   OH2 7640   1.024   1.437   3.357 -0.0922  0.8023  0.2528
 2545TIP3    H1 7641   1.070   1.365   3.314 -1.6763 -0.6806  0.9010
 2545TIP3    H2 7642   1.043   1.513   3.303  0.9737 -0.2506 -0.9438
 2546TIP3   OH2 7643   3.741   2.076   3.145  0.2673  0.5585  0.4287
 2546TIP3    H1 7644   3.775   2.144   3.204 -1.2486  2.1362 -0.3940
 2546TIP3    H2 7645   3.646   2.076   3.161 -0.1924  1.0441 -1.9451
 2547TIP3   OH2 7646   0.797   4.195   5.048 -0.1986 -0.2669  0.0138
 2547TIP3    H1 7647   0.824   4.286   5.041 -0.9361 -0.1467 -2.1950
 2547TIP3    H2 7648   0.815   4.159   4.961 -1.4111 -1.7940  0.3589
 2548TIP3   OH2 7649   0.197   4.643   1.153 -0.1226  0.0612 -0.1957
 2548TIP3    H1 7650   0.288   4.669   1.136  0.0617 -0.1904  0.3718
 2548TIP3    H2 7651   0.200   4.548   1.160 -0.9493 -0.2728 -3.1962
 2549TIP3   OH2 7652   6.157   4.289   1.810 -0.0880  0.3835  0.1717
 2549TIP3    H1 7653   6.205   4.247   1.881  0.2492 -0.5270 -0.5771
 2549TIP3    H2 7654   6.176   4.382   1.820  0.2401  0.2272  1.0624
 2550TIP3   OH2 7655   4.447   2.492   3.579 -0.6863 -0.2409  0.0969
 2550TIP3    H1 7656   4.497   2.523   3.654  0.4961 -0.5379 -0.5474
 2550TIP3    H2 7657   4.480   2.404   3.563 -0.6705 -0.0450 -0.9952
 2551TIP3   OH2 7658   1.145   0.056   1.891 -0.2819 -0.3702 -0.5932
 2551TIP3    H1 7659   1.160   0.110   1.814 -0.5114  1.2382  0.4532
 2551TIP3    H2 7660   1.233   0.033   1.921 -0.1666  0.0546 -0.6042
 2552TIP3   OH2 7661   4.616   3.542   1.415 -0.0648  0.5955 -0.4694
 2552TIP3    H1 7662   4.608   3.601   1.490 -1.3507  0.4368 -0.4500
 2552TIP3    H2 7663   4.539   3.484   1.422 -0.2352  0.6054 -1.9182
 2553TIP3   OH2 7664   3.540   2.258   2.426 -0.7658 -0.4294  0.2271
 2553TIP3    H1 7665   3.502   2.317   2.361 -0.1637  1.4690  1.5269
 2553TIP3    H2 7666   3.632   2.249   2.401 -0.2252  1.3044  1.4483
 2554TIP3   OH2 7667   4.852   1.562   0.095 -0.4478 -0.2497  0.7582
 2554TIP3    H1 7668   4.768   1.593   0.129 -0.3302 -1.5401  2.3846
 2554TIP3    H2 7669   4.844   1.568   0.000 -2.1613  0.2076  0.9001
 2555TIP3   OH2 7670   2.441   4.216   1.009 -0.2075  0.1337 -0.7244
 2555TIP3    H1 7671   2.472   4.285   0.950 -0.7910 -1.3823 -2.9257
 2555TIP3    H2 7672   2.507   4.212   1.079  2.5737 -0.4014 -3.1729
 2556TIP3   OH2 7673   2.211   1.918   0.360  0.6409 -0.5749 -0.4558
 2556TIP3    H1 7674   2.300   1.920   0.393 -0.5184 -1.0415  3.2059
 2556TIP3    H2 7675   2.171   1.999   0.392 -1.2426 -2.1733  1.5763
 2557TIP3   OH2 7676   5.889   5.709   2.126  0.0443 -0.2473 -0.0059
 2557TIP3    H1 7677   5.938   5.744   2.051 -0.5190 -0.4828 -0.4944
 2557TIP3    H2 7678   5.853   5.626   2.094 -0.3656 -0.2538  0.4677
 2558TIP3   OH2 7679   2.540   2.131   0.602  0.2967  0.2990 -0.5121
 2558TIP3    H1 7680   2.446   2.123   0.617  0.0670  0.6655 -1.6433
 2558TIP3    H2 7681   2.574   2.171   0.683 -0.1598 -1.7755  0.7861
 2559TIP3   OH2 7682   0.540   5.378   4.028 -0.1743 -0.2336  0.2241
 2559TIP3    H1 7683   0.568   5.416   3.945 -2.8507  2.0603  0.2514
 2559TIP3    H2 7684   0.478   5.309   4.003 -0.0104 -0.4091  0.3002
 2560TIP3   OH2 7685   5.874   0.170   2.171 -0.6611 -0.2851 -0.3357
 2560TIP3    H1 7686   5.858   0.215   2.254 -0.7982 -2.8697  1.1421
 2560TIP3    H2 7687   5.959   0.127   2.183  0.6400  1.4308 -2.6122
 2561TIP3   OH2 7688   4.871   5.944   2.789 -0.2347 -0.4868 -0.1243
 2561TIP3    H1 7689   4.783   5.923   2.760 -0.5583  0.9284 -0.2199
 2561TIP3    H2 7690   4.923   5.868   2.764 -1.2004 -0.8510 -1.0989
 2562TIP3   OH2 7691   1.269   2.406   2.887  0.0371 -1.0496  0.2284
 2562TIP3    H1 7692   1.199   2.421   2.951 -0.3045 -2.6379  0.2685
 2562TIP3    H2 7693   1.350   2.416   2.938 -0.2122 -1.3008  0.6779
 2563TIP3   OH2 7694   5.734   3.236   2.185  0.0974  0.6038 -0.1914
 2563TIP3    H1 7695   5.748   3.142   2.190  1.4597  0.7047 -1.4521
 2563TIP3    H2 7696   5.818   3.274   2.210 -0.2683  1.4684 -0.2349
 2564TIP3   OH2 7697   4.828   0.569   3.909  0.2103 -0.6587 -0.1310
 2564TIP3    H1 7698   4.860   0.500   3.967  1.1089 -0.2555 -0.1233
 2564TIP3    H2 7699   4.908   0.608   3.873 -0.2443  0.9685  0.5468
 2565TIP3   OH2 7700   5.661   3.334   2.958 -0.0497  0.0192  0.5928
 2565TIP3    H1 7701   5.696   3.292   3.036 -1.0390  2.7428  2.6741
 2565TIP3    H2 7702   5.587   3.387   2.990 -1.7024 -0.1625 -2.5093
 2566TIP3   OH2 7703   1.985   0.481   0.538 -0.0866 -0.4964 -0.7693
 2566TIP3    H1 7704   1.982   0.424   0.615  0.0566 -1.3384 -1.3730
 2566TIP3    H2 7705   1.894   0.491   0.511 -0.0815 -0.7614 -0.8879
 2567TIP3   OH2 7706   4.604   5.889   1.374  0.0136 -0.2058  0.4337
 2567TIP3    H1 7707   4.512   5.865   1.385 -0.6760  1.3681 -1.4453
 2567TIP3    H2 7708   4.652   5.818   1.417 -2.0497 -1.3005  1.0700
 2568TIP3   OH2 7709   0.952   4.303   1.183  0.4302  0.3093 -0.1015
 2568TIP3    H1 7710   1.022   4.368   1.187  1.4517 -0.7766  0.5714
 2568TIP3    H2 7711   0.872   4.354   1.177  1.1244  1.6808  1.3963
 2569TIP3   OH2 7712   4.950   5.623   3.045 -0.5129  0.1680  0.0636
 2569TIP3    H1 7713   4.943   5.718   3.037 -0.4876  0.3314  1.6627
 2569TIP3    H2 7714   4.890   5.588   2.979  0.2610  1.2519 -1.2745
 2570TIP3   OH2 7715   2.635   1.504   1.204 -0.1427  0.2980 -0.5705
 2570TIP3    H1 7716   2.632   1.585   1.255  0.8732 -0.8436  1.4245
 2570TIP3    H2 7717   2.709   1.456   1.240 -0.7019 -1.5261 -1.7344
 2571TIP3   OH2 7718   6.368   5.297   1.399 -0.2617  0.0033 -0.3542
 2571TIP3    H1 7719   6.321   5.216   1.382  0.1417 -0.1155 -0.9476
 2571TIP3    H2 7720   6.301   5.365   1.397 -0.3948 -0.1457 -1.3466
 2572TIP3   OH2 7721   3.965   3.344   2.254  0.1851 -0.4217  0.0383
 2572TIP3    H1 7722   3.872   3.337   2.232 -0.0774 -0.8408  1.2242
 2572TIP3    H2 7723   3.992   3.428   2.217 -0.9109  0.1705  0.5354
 2573TIP3   OH2 7724   1.247   0.686   2.650  0.1595 -0.0227 -0.2961
 2573TIP3    H1 7725   1.270   0.708   2.740  0.6672 -1.9278  0.0814
 2573TIP3    H2 7726   1.238   0.591   2.650 -3.7794  0.1635 -1.3491
 2574TIP3   OH2 7727   2.908   2.901   0.816  0.1845  0.0570  0.3767
 2574TIP3    H1 7728   2.918   2.825   0.758 -2.1216  0.4337 -0.6049
 2574TIP3    H2 7729   2.984   2.956   0.796  1.0389 -1.2227 -0.0563
 2575TIP3   OH2 7730   5.971   1.862   3.137  0.0956  0.2272  0.0784
 2575TIP3    H1 7731   5.906   1.926   3.110 -0.2085 -0.6736 -1.4825
 2575TIP3    H2 7732   6.046   1.879   3.080 -0.1922 -1.1214 -0.7488
 2576TIP3   OH2 7733   0.080   3.124   0.807 -0.0047  0.1360 -0.1277
 2576TIP3    H1 7734   0.087   3.086   0.895  1.0129  1.0716  0.2193
 2576TIP3    H2 7735   0.024   3.201   0.819  1.6482  1.3419  0.1002
 2577TIP3   OH2 7736   2.554   2.828   1.869  0.2724 -0.3708  0.2040
 2577TIP3    H1 7737   2.507   2.744   1.876  1.1614 -0.9540 -0.5916
 2577TIP3    H2 7738   2.545   2.852   1.777 -1.4068  1.2962  0.7368
 2578TIP3   OH2 7739   4.972   2.775   0.640 -0.1713 -0.4122 -0.0829
 2578TIP3    H1 7740   4.910   2.848   0.650 -0.6702 -0.6274 -1.4151
 2578TIP3    H2 7741   5.053   2.816   0.609 -0.4357 -0.4167 -0.7828
 2579TIP3   OH2 7742   2.584   2.455   1.356 -0.5411  0.3196  0.0850
 2579TIP3    H1 7743   2.513   2.412   1.405 -1.2260  1.6772  0.3320
 2579TIP3    H2 7744   2.589   2.543   1.393 -0.5639  1.1492 -1.7624
 2580TIP3   OH2 7745   5.838   2.964   2.297 -0.5244 -0.2715 -0.3461
 2580TIP3    H1 7746   5.868   2.943   2.209 -0.9655 -0.5651 -0.4284
 2580TIP3    H2 7747   5.793   2.886   2.327  0.9990 -0.7769  0.7759
 2581TIP3   OH2 7748   1.374   3.196   4.798 -0.1791  0.4851 -0.6324
 2581TIP3    H1 7749   1.420   3.184   4.882 -0.7046  0.9387 -0.2785
 2581TIP3    H2 7750   1.391   3.114   4.751  1.5834  0.8959 -0.8045
 2582TIP3   OH2 7751   5.647   3.034   4.143 -0.0790  0.2623  0.1960
 2582TIP3    H1 7752   5.736   3.037   4.179  0.0842 -0.5968 -0.1118
 2582TIP3    H2 7753   5.600   3.103   4.190  0.5969  0.3520  0.7609
 2583TIP3   OH2 7754   1.844   5.525   1.626  0.1956 -0.0232  0.5101
 2583TIP3    H1 7755   1.866   5.606   1.581 -0.8418 -1.0195 -1.9964
 2583TIP3    H2 7756   1.776   5.550   1.689  1.6602  1.4027  1.6183
 2584TIP3   OH2 7757   5.603   2.035   4.068 -0.3224  0.3432 -0.1731
 2584TIP3    H1 7758   5.646   1.954   4.097 -0.5284 -0.1413 -1.2017
 2584TIP3    H2 7759   5.658   2.104   4.104  0.5393 -0.2587 -0.2988
 2585TIP3   OH2 7760   6.124   2.777   2.221 -0.9837 -0.0384 -0.0689
 2585TIP3    H1 7761   6.120   2.785   2.317 -1.4978  1.5627 -0.2085
 2585TIP3    H2 7762   6.082   2.693   2.202  0.3511 -1.0549  1.1848
 2586TIP3   OH2 7763   3.146   2.788   1.181 -0.0528 -0.5426 -0.4261
 2586TIP3    H1 7764   3.230   2.814   1.143  0.8503 -1.6103  0.7712
 2586TIP3    H2 7765   3.096   2.754   1.107 -0.3571  2.1895 -1.5885
 2587TIP3   OH2 7766   5.819   1.944   0.991 -0.3388 -0.2162  0.5690
 2587TIP3    H1 7767   5.839   2.024   0.942  0.1706 -1.4228 -1.3274
 2587TIP3    H2 7768   5.816   1.971   1.082  0.9494  1.7462  0.0857
 2588TIP3   OH2 7769   0.520   1.934   4.492  0.2855 -0.0571  0.4974
 2588TIP3    H1 7770   0.611   1.937   4.524  0.1992  2.6975  0.7373
 2588TIP3    H2 7771   0.470   1.981   4.559 -0.9625  0.2142 -0.5892
 2589TIP3   OH2 7772   0.829   5.520   2.035 -0.0681 -0.3034  0.2724
 2589TIP3    H1 7773   0.830   5.448   1.971  1.1948  0.9308 -1.1984
 2589TIP3    H2 7774   0.918   5.521   2.070  0.3210  1.2369 -0.6350
 2590TIP3   OH2 7775   2.247   3.729   3.955 -0.0328 -0.3448  0.3468
 2590TIP3    H1 7776   2.200   3.758   3.877 -1.1994 -1.0063  0.7773
 2590TIP3    H2 7777   2.200   3.651   3.984  0.4366 -0.1726  1.6492
 2591TIP3   OH2 7778   3.958   1.893   0.517  0.5877  0.5743  0.1450
 2591TIP3    H1 7779   3.889   1.934   0.465  0.1094 -0.0076  0.3056
 2591TIP3    H2 7780   3.942   1.924   0.606 -0.5125 -0.8601  0.4855
 2592TIP3   OH2 7781   0.250   3.981   3.863 -0.5905  0.1950  0.0003
 2592TIP3    H1 7782   0.332   3.937   3.885 -0.4114  0.0507 -0.9173
 2592TIP3    H2 7783   0.204   3.991   3.947 -0.4253 -1.3041  0.2885
 2593TIP3   OH2 7784   2.078   2.777   0.087  0.0809 -0.5757  0.1932
 2593TIP3    H1 7785   2.154   2.834   0.073  0.6115 -1.2059  0.4737
 2593TIP3    H2 7786   2.005   2.825   0.048  0.4453  0.4748  0.7491
 2594TIP3   OH2 7787   5.887   2.928   0.927  0.4085  0.2482 -0.0781
 2594TIP3    H1 7788   5.875   2.858   0.991 -0.4923  0.3498 -0.1184
 2594TIP3    H2 7789   5.981   2.930   0.911  0.5322 -0.4408  0.4949
 2595TIP3   OH2 7790   4.482   5.667   0.171 -0.4406 -0.2585  0.2184
 2595TIP3    H1 7791   4.502   5.741   0.113 -1.7220 -0.5180 -0.5703
 2595TIP3    H2 7792   4.535   5.595   0.137 -0.1986 -0.0640  0.1776
 2596TIP3   OH2 7793   1.866   0.224   0.989  0.0054 -0.0873  0.1382
 2596TIP3    H1 7794   1.887   0.317   0.980  4.0495 -0.7991  0.4725
 2596TIP3    H2 7795   1.839   0.198   0.901 -0.8758  1.2771 -0.0348
 2597TIP3   OH2 7796   2.364   2.359   1.843  0.1306  0.0713 -0.0702
 2597TIP3    H1 7797   2.362   2.295   1.914 -0.9748  0.2789  0.0989
 2597TIP3    H2 7798   2.278   2.400   1.845 -0.1566 -0.3336 -1.8928
 2598TIP3   OH2 7799   0.135   1.225   3.962 -0.1226  0.0885 -0.1300
 2598TIP3    H1 7800   0.082   1.296   3.928  1.5745  1.6198  0.2566
 2598TIP3    H2 7801   0.162   1.175   3.885 -0.2296  0.6785 -0.5519
 2599TIP3   OH2 7802   1.915   2.831   2.630  0.0458  0.5424  0.3662
 2599TIP3    H1 7803   1.907   2.783   2.547 -0.0413  0.4634  0.4209
 2599TIP3    H2 7804   1.825   2.841   2.661  0.1450 -0.2801  0.9417
 2600TIP3   OH2 7805   1.649   2.276   3.545 -0.2736 -0.1092  0.2798
 2600TIP3    H1 7806   1.569   2.315   3.510  0.6601  0.0353 -1.8677
 2600TIP3    H2 7807   1.647   2.298   3.638 -1.0436  2.9106 -0.3286
 2601TIP3   OH2 7808   4.502   0.674   1.905 -0.2037 -0.3866  0.1368
 2601TIP3    H1 7809   4.594   0.696   1.922 -0.0659 -1.9284  1.6599
 2601TIP3    H2 7810   4.490   0.588   1.945 -1.8908 -0.9952 -1.4941
 2602TIP3   OH2 7811   1.291   5.886   2.711  0.6119  0.2581  0.7586
 2602TIP3    H1 7812   1.374   5.865   2.668  0.2032  0.6282 -0.2427
 2602TIP3    H2 7813   1.314   5.900   2.802  1.8970  1.7435  0.2457
 2603TIP3   OH2 7814   0.283   2.684   0.305 -0.2661  0.5017  0.7523
 2603TIP3    H1 7815   0.201   2.697   0.352  0.0342  1.7354  0.9803
 2603TIP3    H2 7816   0.259   2.632   0.228 -1.4634  1.6459  0.3020
 2604TIP3   OH2 7817   2.660   4.355   4.952 -0.7083  0.0243 -0.0424
 2604TIP3    H1 7818   2.567   4.375   4.938 -1.3578 -1.1934  2.0703
 2604TIP3    H2 7819   2.671   4.266   4.918  0.2454  0.9100 -2.2003
 2605TIP3   OH2 7820   0.995   4.304   0.152  0.0060 -0.1981 -0.4266
 2605TIP3    H1 7821   0.953   4.279   0.234  0.3547  1.1077  0.1827
 2605TIP3    H2 7822   1.088   4.291   0.167  0.0943  0.3094 -0.5059
 2606TIP3   OH2 7823   0.142   2.724   4.949 -0.3694 -0.0653 -0.4952
 2606TIP3    H1 7824   0.073   2.701   4.887  0.0460 -1.7881 -0.3606
 2606TIP3    H2 7825   0.117   2.679   5.030  0.2588  0.3359 -0.0733
 2607TIP3   OH2 7826   2.642   2.921   4.271 -0.2007 -0.1707 -0.0222
 2607TIP3    H1 7827   2.632   2.909   4.176  2.4661  0.2466 -0.4452
 2607TIP3    H2 7828   2.652   3.015   4.282 -2.0458 -0.0428  0.9280
 2608TIP3   OH2 7829   0.885   1.811   3.877  0.3681 -0.2374 -0.1561
 2608TIP3    H1 7830   0.878   1.887   3.935 -1.0393 -0.7333  0.3747
 2608TIP3    H2 7831   0.814   1.753   3.905 -0.4096 -0.4848 -2.4247
 2609TIP3   OH2 7832   1.761   2.144   2.514  0.2828 -1.0259  0.0389
 2609TIP3    H1 7833   1.826   2.191   2.461  0.4371 -1.6696 -0.3525
 2609TIP3    H2 7834   1.784   2.166   2.604 -0.1860  0.3620 -0.1474
 2610TIP3   OH2 7835   3.601   2.147   2.833  0.0544 -0.0241  0.0260
 2610TIP3    H1 7836   3.523   2.100   2.863  1.6059 -2.2636  0.7971
 2610TIP3    H2 7837   3.640   2.181   2.914  1.3447 -1.3945  0.0317
 2611TIP3   OH2 7838   0.695   2.240   4.496  0.6577  0.4771  0.2206
 2611TIP3    H1 7839   0.756   2.173   4.527  0.4925 -1.1700 -2.5814
 2611TIP3    H2 7840   0.609   2.208   4.522  0.7053  0.5922  0.5202
 2612TIP3   OH2 7841   0.057   1.401   3.052  0.6311  0.6790  0.2979
 2612TIP3    H1 7842   0.100   1.486   3.042 -1.9185  2.2392  1.6317
 2612TIP3    H2 7843   0.092   1.365   3.133  3.1741 -0.6076 -1.2130
 2613TIP3   OH2 7844   2.063   1.019   3.419 -0.1880 -0.2437  0.1856
 2613TIP3    H1 7845   2.028   0.941   3.463 -2.1095  0.7163  0.5007
 2613TIP3    H2 7846   1.991   1.048   3.363  1.4483 -0.2076 -2.0334
 2614TIP3   OH2 7847   4.876   4.774   3.199 -0.2385  0.0874  0.2326
 2614TIP3    H1 7848   4.947   4.790   3.136  0.4535 -0.2548  0.9091
 2614TIP3    H2 7849   4.901   4.824   3.277 -1.0553  0.4560  0.2661
 2615TIP3   OH2 7850   3.457   1.789   0.184  0.1013  0.0629  0.1710
 2615TIP3    H1 7851   3.534   1.733   0.176  0.0758  0.0790 -0.2077
 2615TIP3    H2 7852   3.428   1.804   0.093  0.0932  0.6634  0.2651
 2616TIP3   OH2 7853   1.574   0.616   4.093 -0.1531 -0.2380  0.3571
 2616TIP3    H1 7854   1.506   0.560   4.055 -0.4601 -0.7221  1.5999
 2616TIP3    H2 7855   1.531   0.701   4.105 -0.8552 -0.7880  1.9936
 2617TIP3   OH2 7856   5.754   3.597   1.214 -0.2820  0.0123  0.7977
 2617TIP3    H1 7857   5.697   3.521   1.201 -1.9404  1.2478  0.4499
 2617TIP3    H2 7858   5.712   3.646   1.286 -0.3038  1.5171 -0.1975
 2618TIP3   OH2 7859   0.415   0.047   2.447 -0.2553  0.4558 -0.2080
 2618TIP3    H1 7860   0.489   0.060   2.387  0.1161 -0.3671  0.0496
 2618TIP3    H2 7861   0.338   0.064   2.394 -0.0160 -1.9093 -1.4281
 2619TIP3   OH2 7862   5.220   1.890   1.430  0.3839 -0.4448  0.6427
 2619TIP3    H1 7863   5.131   1.859   1.413  0.0333  0.6624  0.3691
 2619TIP3    H2 7864   5.276   1.824   1.391 -0.2919 -1.6018  1.5709
 2620TIP3   OH2 7865   0.323   1.609   0.221  0.0891 -0.0146 -0.6395
 2620TIP3    H1 7866   0.344   1.686   0.272  0.8629 -1.6510  1.6675
 2620TIP3    H2 7867   0.359   1.536   0.271 -1.9243 -2.0353 -1.9293
 2621TIP3   OH2 7868   3.217   3.352   3.568  0.1375  0.6009  0.5299
 2621TIP3    H1 7869   3.199   3.406   3.645  1.5693 -0.2356  1.5022
 2621TIP3    H2 7870   3.181   3.266   3.590 -1.2949  0.8708 -0.6266
 2622TIP3   OH2 7871   5.412   2.226   3.782  0.3298  0.1021  0.2425
 2622TIP3    H1 7872   5.503   2.253   3.773  0.1483  0.5809 -0.2490
 2622TIP3    H2 7873   5.388   2.194   3.695 -0.3186  1.1336  0.0128
 2623TIP3   OH2 7874   4.271   2.998   3.147  0.3899  0.4560  0.0561
 2623TIP3    H1 7875   4.325   2.929   3.109 -0.8032 -1.3740  1.5074
 2623TIP3    H2 7876   4.204   3.015   3.081  0.2589 -0.3349 -0.0260
 2624TIP3   OH2 7877   5.139   4.054   4.729 -0.2985 -0.6186 -0.2384
 2624TIP3    H1 7878   5.068   4.011   4.682 -0.4296  0.8898 -1.5178
 2624TIP3    H2 7879   5.193   4.095   4.660  1.1530 -0.7457  0.7670
 2625TIP3   OH2 7880   5.344   1.309   3.786 -0.2119 -0.0462 -0.1859
 2625TIP3    H1 7881   5.273   1.253   3.754 -0.2959 -0.0238 -0.0402
 2625TIP3    H2 7882   5.335   1.391   3.738 -0.7916  0.2543  0.4343
 2626TIP3   OH2 7883   0.447   1.223   1.169  0.1605 -0.2078 -0.1956
 2626TIP3    H1 7884   0.471   1.138   1.205  1.0755 -1.0051 -2.4858
 2626TIP3    H2 7885   0.530   1.266   1.151 -0.2652  0.4398 -0.6816
 2627TIP3   OH2 7886   4.605   3.080   3.629 -0.3150  0.0179  0.5815
 2627TIP3    H1 7887   4.515   3.093   3.598  0.2928  0.2901 -1.1979
 2627TIP3    H2 7888   4.641   3.169   3.638 -0.0374 -0.1028  0.6834
 2628TIP3   OH2 7889   4.060   5.602   2.859 -0.0664  0.4604  0.2136
 2628TIP3    H1 7890   4.037   5.538   2.926 -1.7076  1.4722  0.6636
 2628TIP3    H2 7891   3.988   5.598   2.795  0.7307  0.5688 -0.7257
 2629TIP3   OH2 7892   1.359   4.035   2.097 -0.2285 -0.4830 -0.3793
 2629TIP3    H1 7893   1.356   4.120   2.141 -0.4558 -0.2649 -0.8059
 2629TIP3    H2 7894   1.361   4.056   2.003  1.1561 -0.9186 -0.4699
 2630TIP3   OH2 7895   3.468   4.110   2.017  0.3629 -0.2887  0.0457
 2630TIP3    H1 7896   3.534   4.171   2.047 -0.2234 -0.4838  1.8278
 2630TIP3    H2 7897   3.515   4.053   1.956  2.1908 -1.1590  2.1134
 2631TIP3   OH2 7898   0.553   1.253   0.261  0.1850 -0.0820 -0.1681
 2631TIP3    H1 7899   0.592   1.340   0.259  0.0043 -0.0135 -1.9827
 2631TIP3    H2 7900   0.480   1.261   0.323  0.9214  0.6958  0.6263
 2632TIP3   OH2 7901   0.957   1.008   1.569 -0.2244  0.6633  0.1518
 2632TIP3    H1 7902   0.964   1.002   1.664 -0.3395 -1.1876  0.0931
 2632TIP3    H2 7903   1.030   1.064   1.543  2.0496 -1.6547  1.1087
 2633TIP3   OH2 7904   5.400   2.315   0.785 -0.3835  0.4914 -0.0072
 2633TIP3    H1 7905   5.405   2.286   0.694  0.6080  0.3690  0.0775
 2633TIP3    H2 7906   5.440   2.244   0.835  0.4480  1.1973  0.3700
 2634TIP3   OH2 7907   0.452   0.093   2.038 -0.5208  0.2281 -0.3072
 2634TIP3    H1 7908   0.443   0.130   2.126 -0.0707  0.0981 -0.2006
 2634TIP3    H2 7909   0.436  -0.001   2.050 -1.2058  0.3155 -0.4973
 2635TIP3   OH2 7910   4.325   4.416   1.350 -0.1829  0.3329 -0.0408
 2635TIP3    H1 7911   4.378   4.423   1.270  1.1959  2.5723  0.9834
 2635TIP3    H2 7912   4.338   4.326   1.379  0.4024 -0.1156 -1.5755
 2636TIP3   OH2 7913   1.048   3.676   3.307  0.3847  0.4126  0.0366
 2636TIP3    H1 7914   1.061   3.642   3.395 -0.1081  2.4295  0.9290
 2636TIP3    H2 7915   0.970   3.631   3.275  0.4277 -0.1502  0.7041
 2637TIP3   OH2 7916   3.610   5.360   3.558 -0.0104 -0.3664  0.1961
 2637TIP3    H1 7917   3.646   5.325   3.476  0.8105  1.7410 -0.4242
 2637TIP3    H2 7918   3.528   5.312   3.571 -0.1330 -0.8017 -1.8318
 2638TIP3   OH2 7919   3.551   0.867   4.164 -0.3287 -0.1793  0.3188
 2638TIP3    H1 7920   3.479   0.850   4.225 -0.5771 -0.9022 -0.1535
 2638TIP3    H2 7921   3.516   0.931   4.102 -0.1619  0.3609  0.7734
 2639TIP3   OH2 7922   0.734   5.702   3.780 -0.1202 -0.0362 -0.5667
 2639TIP3    H1 7923   0.688   5.779   3.812 -0.2147 -0.3044 -0.0566
 2639TIP3    H2 7924   0.750   5.721   3.687  0.0961  0.7079 -0.3842
 2640TIP3   OH2 7925   0.333   3.122   4.453 -0.0502  0.1874 -0.4015
 2640TIP3    H1 7926   0.354   3.202   4.501 -1.6768  1.0908 -1.0892
 2640TIP3    H2 7927   0.262   3.082   4.502 -0.3026 -0.0021 -0.9128
 2641TIP3   OH2 7928   3.149   1.978   3.400 -0.1726  0.0044 -0.3088
 2641TIP3    H1 7929   3.101   1.965   3.482  0.4367  1.8178  0.3909
 2641TIP3    H2 7930   3.240   1.992   3.428 -0.1492  1.8881 -1.1577
 2642TIP3   OH2 7931   3.162   5.729   2.892 -0.2236  0.0898 -0.3453
 2642TIP3    H1 7932   3.149   5.671   2.968  0.2483 -1.4497 -1.3918
 2642TIP3    H2 7933   3.075   5.764   2.875 -0.7379 -1.0943 -0.2766
 2643TIP3   OH2 7934   3.891   2.295   3.779 -0.3575  0.4620  0.0563
 2643TIP3    H1 7935   3.905   2.285   3.685 -1.3999 -1.2073  0.0436
 2643TIP3    H2 7936   3.806   2.339   3.787  0.1274  1.4136  0.2440
 2644TIP3   OH2 7937   4.213   2.266   3.211 -0.3595  0.2630 -0.2085
 2644TIP3    H1 7938   4.205   2.194   3.274 -0.5992 -0.0666 -0.6067
 2644TIP3    H2 7939   4.233   2.343   3.264 -2.9512  0.5149  0.5442
 2645TIP3   OH2 7940   0.191   4.409   2.631 -0.2391  0.0167 -0.3289
 2645TIP3    H1 7941   0.242   4.343   2.585 -0.5718 -1.3151  1.1391
 2645TIP3    H2 7942   0.242   4.428   2.710 -0.6345  0.7875 -0.2475
 2646TIP3   OH2 7943   3.278   5.201   4.696  0.9581  0.4274  0.0837
 2646TIP3    H1 7944   3.309   5.142   4.628 -1.8598 -1.0178 -0.0853
 2646TIP3    H2 7945   3.212   5.255   4.653  0.2580  0.5717  1.2770
 2647TIP3   OH2 7946   2.015   0.039   3.219  0.2104  0.1444 -0.0441
 2647TIP3    H1 7947   1.953   0.111   3.228  0.4756  0.2959  0.6419
 2647TIP3    H2 7948   2.061   0.057   3.137 -1.2133 -0.4284 -1.0089
 2648TIP3   OH2 7949   2.396   3.377   2.510  0.2500 -0.2779  0.2211
 2648TIP3    H1 7950   2.383   3.290   2.547 -2.4889  0.6454  1.8180
 2648TIP3    H2 7951   2.433   3.428   2.582  2.9872 -0.3004 -1.0642
 2649TIP3   OH2 7952   4.215   1.376   4.594  0.1319  0.9092 -0.0982
 2649TIP3    H1 7953   4.308   1.387   4.609  0.2595  0.6241 -0.6354
 2649TIP3    H2 7954   4.210   1.318   4.518 -0.4901 -1.6427  1.7684
 2650TIP3   OH2 7955   4.002   2.671   0.211  0.1864 -0.0287  0.1212
 2650TIP3    H1 7956   3.954   2.747   0.179  3.2915  2.2419  0.4257
 2650TIP3    H2 7957   4.025   2.622   0.132 -0.7286  0.0587 -0.2072
 2651TIP3   OH2 7958   2.810   1.082   0.554 -0.6124  0.0382 -0.4293
 2651TIP3    H1 7959   2.797   0.987   0.556 -0.3411 -0.0171 -1.0146
 2651TIP3    H2 7960   2.768   1.110   0.473 -0.3593  0.3683 -0.4470
 2652TIP3   OH2 7961   2.960   5.639   0.014  0.2163 -0.0314  0.0602
 2652TIP3    H1 7962   2.887   5.677   0.064 -0.0298  1.4262 -1.3429
 2652TIP3    H2 7963   2.998   5.713  -0.034  2.8734 -0.6788  0.9982
 2653TIP3   OH2 7964   1.709   1.257   3.012 -0.0874 -0.2907  0.4359
 2653TIP3    H1 7965   1.666   1.306   3.082  0.2095 -0.2005  0.5574
 2653TIP3    H2 7966   1.800   1.288   3.013  0.5077 -1.9272  1.5071
 2654TIP3   OH2 7967   5.057   4.502   5.132  0.2749  0.4206 -0.7347
 2654TIP3    H1 7968   5.094   4.484   5.219 -0.9124  2.0259  0.1492
 2654TIP3    H2 7969   5.123   4.468   5.071  1.9047  0.6996  0.7792
 2655TIP3   OH2 7970   5.505   0.099   2.300 -0.0157  0.3205  0.1420
 2655TIP3    H1 7971   5.534   0.170   2.358 -1.4891  0.3531  0.8795
 2655TIP3    H2 7972   5.476   0.144   2.220  0.9906  0.3579 -0.2231
 2656TIP3   OH2 7973   2.180   1.071   0.975 -0.0557 -0.1198  0.4643
 2656TIP3    H1 7974   2.103   1.081   0.920  0.0840 -0.1860  0.2566
 2656TIP3    H2 7975   2.191   0.976   0.984  1.0099 -0.1563 -0.9334
 2657TIP3   OH2 7976   4.259   3.842   4.051 -0.3089  0.3680 -0.6762
 2657TIP3    H1 7977   4.342   3.889   4.040 -0.1344  0.2082 -0.0785
 2657TIP3    H2 7978   4.282   3.766   4.105 -0.7286 -0.0161 -1.0285
 2658TIP3   OH2 7979   4.454   5.520   1.856  0.2514 -0.5383  0.4352
 2658TIP3    H1 7980   4.509   5.596   1.876 -0.1721 -0.5016  1.4816
 2658TIP3    H2 7981   4.381   5.556   1.806  1.1618 -0.5944 -1.0275
 2659TIP3   OH2 7982   1.016   5.248   4.725 -0.1112  0.3024 -0.1772
 2659TIP3    H1 7983   0.977   5.165   4.699 -0.4004  0.8701 -1.6178
 2659TIP3    H2 7984   1.009   5.248   4.821 -1.0348 -0.8711 -0.2152
 2660TIP3   OH2 7985   2.720   4.169   3.156 -0.0826 -0.0310  0.2902
 2660TIP3    H1 7986   2.703   4.144   3.247 -0.9528 -1.2156 -0.1747
 2660TIP3    H2 7987   2.795   4.116   3.130  0.7940  1.0268  0.5960
 2661TIP3   OH2 7988   1.895   5.249   4.686  0.5838 -0.4662  0.2284
 2661TIP3    H1 7989   1.957   5.309   4.726  2.6319 -1.6472 -1.0283
 2661TIP3    H2 7990   1.833   5.305   4.640  3.6612  0.8028 -2.7861
 2662TIP3   OH2 7991   2.560   0.722   4.944 -0.0681 -0.1197  0.1079
 2662TIP3    H1 7992   2.588   0.808   4.913 -0.5285 -0.3259 -0.9283
 2662TIP3    H2 7993   2.562   0.729   5.039  0.8365  0.7283  0.0451
 2663TIP3   OH2 7994   2.377   1.125   4.685  0.1485  0.1252  0.4571
 2663TIP3    H1 7995   2.376   1.108   4.591  0.3341 -1.4352  0.7078
 2663TIP3    H2 7996   2.361   1.039   4.725  0.4882  0.6851  1.8547
 2664TIP3   OH2 7997   2.399   0.484   2.086 -0.0419  0.4944  0.4391
 2664TIP3    H1 7998   2.404   0.568   2.131  2.5523  0.8120 -0.2544
 2664TIP3    H2 7999   2.358   0.504   2.002  1.1764  1.2482  0.0001
 2665TIP3   OH2 8000   3.311   0.603   2.511  0.1389 -0.2926  0.8823
 2665TIP3    H1 8001   3.300   0.673   2.447  2.6477 -0.5995 -0.0081
 2665TIP3    H2 8002   3.271   0.526   2.471  0.6299 -0.1974  0.1809
 2666TIP3   OH2 8003   3.934   5.353   1.416  0.7956  0.0804 -0.3087
 2666TIP3    H1 8004   3.995   5.371   1.487 -0.9303  0.1697  1.2193
 2666TIP3    H2 8005   3.858   5.407   1.435 -0.8541 -1.9866 -0.6370
 2667TIP3   OH2 8006   1.155   5.918   3.572 -0.0070  0.0434 -0.2934
 2667TIP3    H1 8007   1.243   5.945   3.600 -0.6685  0.1008  1.9827
 2667TIP3    H2 8008   1.162   5.824   3.559  0.9380  0.3697 -2.6105
 2668TIP3   OH2 8009   0.723   3.279   1.650 -0.0652 -0.6034 -0.5432
 2668TIP3    H1 8010   0.793   3.264   1.715 -0.9321  0.1697  0.5964
 2668TIP3    H2 8011   0.688   3.191   1.633  0.7262 -0.9153 -0.6045
 2669TIP3   OH2 8012   3.304   0.051   4.889 -0.4945 -0.2434  0.8426
 2669TIP3    H1 8013   3.352   0.093   4.817  0.2035  0.0483  1.4588
 2669TIP3    H2 8014   3.296  -0.040   4.862 -1.2271  0.0716 -0.1021
 2670TIP3   OH2 8015   5.258   2.909   2.083  0.3930  0.0650  0.2930
 2670TIP3    H1 8016   5.352   2.907   2.100  0.5577 -0.3591 -0.5887
 2670TIP3    H2 8017   5.218   2.883   2.166  1.0221  0.8236  0.8516
 2671TIP3   OH2 8018   4.406   5.398   3.978  0.0971  0.3024 -0.3839
 2671TIP3    H1 8019   4.487   5.349   3.964  0.9082  0.9256  1.7597
 2671TIP3    H2 8020   4.337   5.335   3.961  0.9987 -0.2807 -2.1391
 2672TIP3   OH2 8021   0.188   5.292   3.662  0.1174 -0.2331 -0.2792
 2672TIP3    H1 8022   0.275   5.332   3.671  0.1501 -0.2027 -0.7086
 2672TIP3    H2 8023   0.203   5.216   3.606  0.3498 -1.7680  1.7421
 2673TIP3   OH2 8024   5.978   2.809   1.674  0.2246  0.2333 -0.0686
 2673TIP3    H1 8025   5.945   2.849   1.755 -0.5716 -0.0471 -0.2391
 2673TIP3    H2 8026   5.900   2.770   1.634  0.6711  0.0803 -0.8040
 2674TIP3   OH2 8027   0.915   3.345   3.475 -0.1079  0.0702  0.6293
 2674TIP3    H1 8028   0.955   3.264   3.507  0.7286  0.2127 -0.0222
 2674TIP3    H2 8029   0.925   3.342   3.380 -2.8390 -0.4878  0.2777
 2675TIP3   OH2 8030   3.850   2.900   2.335 -0.4096 -0.0679 -0.5660
 2675TIP3    H1 8031   3.914   2.970   2.348 -0.7689  0.3353 -0.9290
 2675TIP3    H2 8032   3.901   2.819   2.344 -0.1800  0.2170  0.8255
 2676TIP3   OH2 8033   1.111   5.207   0.614  0.0568 -0.4770  0.3843
 2676TIP3    H1 8034   1.137   5.162   0.534 -0.8799  2.3480 -1.7111
 2676TIP3    H2 8035   1.055   5.279   0.583 -0.8145  0.4280  3.6577
 2677TIP3   OH2 8036   4.528   2.540   2.419 -0.7851 -0.0577 -0.0124
 2677TIP3    H1 8037   4.578   2.459   2.429 -2.1919 -0.8503  0.9026
 2677TIP3    H2 8038   4.477   2.527   2.339 -1.9873 -0.6494  0.8236
 2678TIP3   OH2 8039   3.091   3.553   2.446 -0.0615 -0.5223 -0.7452
 2678TIP3    H1 8040   3.023   3.550   2.379 -0.2417 -0.7265 -0.5545
 2678TIP3    H2 8041   3.173   3.549   2.397 -0.1997 -1.4971 -0.9128
 2679TIP3   OH2 8042   1.378   3.952   2.944 -0.2142 -0.5441  0.3465
 2679TIP3    H1 8043   1.312   3.889   2.914  0.2597 -1.1187  0.4740
 2679TIP3    H2 8044   1.331   4.035   2.951 -0.5796 -0.6161 -0.9721
 2680TIP3   OH2 8045   5.662   1.333   4.941  0.4667 -0.6632 -0.5055
 2680TIP3    H1 8046   5.629   1.272   4.875 -0.0076 -0.3966 -0.5205
 2680TIP3    H2 8047   5.740   1.371   4.901  0.0086 -0.2695 -1.0498
 2681TIP3   OH2 8048   5.156   3.142   4.562 -0.6901  0.2427 -0.3208
 2681TIP3    H1 8049   5.093   3.177   4.625  1.8705 -1.2795  3.5406
 2681TIP3    H2 8050   5.151   3.047   4.575  1.8201  0.0465 -0.3106
 2682TIP3   OH2 8051   4.957   2.160   2.714  0.1450  0.5104 -0.3277
 2682TIP3    H1 8052   5.018   2.107   2.766  1.0544  2.2661  0.5107
 2682TIP3    H2 8053   4.890   2.099   2.684 -0.5935 -0.5819  3.1523
 2683TIP3   OH2 8054   3.454   4.693   4.949 -0.2673 -0.5617 -0.3266
 2683TIP3    H1 8055   3.499   4.778   4.953  1.2250 -1.3530  0.2625
 2683TIP3    H2 8056   3.475   4.651   5.032 -3.1548 -0.5037  0.5590
 2684TIP3   OH2 8057   2.008   3.475   1.731 -0.3744  0.2901  0.4423
 2684TIP3    H1 8058   1.994   3.460   1.637  1.8322  0.5912  0.0156
 2684TIP3    H2 8059   2.023   3.569   1.738  0.4812  0.1255  0.9362
 2685TIP3   OH2 8060   4.180   1.726   2.897 -0.5715  0.5471  0.4560
 2685TIP3    H1 8061   4.106   1.702   2.953 -0.8182  1.3142  0.4662
 2685TIP3    H2 8062   4.175   1.665   2.823 -0.7223  0.0617  0.8575
 2686TIP3   OH2 8063   0.891   3.870   1.907  0.6773 -0.3094 -0.0043
 2686TIP3    H1 8064   0.933   3.784   1.896  1.0734 -0.1562  0.2799
 2686TIP3    H2 8065   0.953   3.920   1.961 -1.1366 -1.0381  3.0202
 2687TIP3   OH2 8066   3.438   3.926   4.790 -0.3666  0.2257 -0.2936
 2687TIP3    H1 8067   3.514   3.964   4.833 -1.5047  1.3106  0.8364
 2687TIP3    H2 8068   3.452   3.831   4.794  1.5848  0.4159 -1.4140
 2688TIP3   OH2 8069   0.513   5.239   2.325 -0.4896  0.4109 -0.3884
 2688TIP3    H1 8070   0.520   5.232   2.230 -0.1899 -0.3535 -0.3102
 2688TIP3    H2 8071   0.563   5.318   2.347  1.8889 -0.9763 -0.5737
 2689TIP3   OH2 8072   4.662   5.540   0.501  0.0340 -0.2924  0.1897
 2689TIP3    H1 8073   4.575   5.517   0.468  0.0926 -0.6051  0.2566
 2689TIP3    H2 8074   4.695   5.460   0.540  1.4251 -0.9594 -2.1646
 2690TIP3   OH2 8075   1.503   1.129   4.443 -0.0084 -0.3452 -0.9877
 2690TIP3    H1 8076   1.596   1.135   4.467  0.1831 -1.2596 -1.4411
 2690TIP3    H2 8077   1.500   1.163   4.353 -0.1898  0.0535 -0.8362
 2691TIP3   OH2 8078   6.237   1.630   1.760 -0.5519  0.0914  0.2691
 2691TIP3    H1 8079   6.309   1.640   1.698 -1.2540  1.7618 -0.3379
 2691TIP3    H2 8080   6.181   1.706   1.744 -3.5872 -2.1554 -0.7557
 2692TIP3   OH2 8081   3.904   3.796   3.152  0.1003 -0.0737 -0.0311
 2692TIP3    H1 8082   3.897   3.834   3.239  1.4281  3.7447 -1.4142
 2692TIP3    H2 8083   3.997   3.803   3.130 -0.5598  1.4955 -2.6939
 2693TIP3   OH2 8084   3.681   1.221   2.146  0.4760  0.4126 -0.2378
 2693TIP3    H1 8085   3.740   1.154   2.112  0.8898  0.9283 -0.5481
 2693TIP3    H2 8086   3.616   1.233   2.077 -0.4504 -0.6882  0.4061
 2694TIP3   OH2 8087   5.265   5.291   0.787  0.5971 -0.0106 -0.2368
 2694TIP3    H1 8088   5.300   5.310   0.874 -0.0527 -0.1211  0.0498
 2694TIP3    H2 8089   5.177   5.328   0.787  0.1351 -1.0855 -0.4187
 2695TIP3   OH2 8090   1.939   4.704   1.138  0.0129 -0.2795  0.2745
 2695TIP3    H1 8091   2.029   4.735   1.128  1.0183 -2.2244  2.3357
 2695TIP3    H2 8092   1.904   4.755   1.211 -0.2895 -0.0506 -0.0309
 2696TIP3   OH2 8093   2.902   3.168   3.847  0.2466  0.3781 -0.7177
 2696TIP3    H1 8094   2.819   3.122   3.847  0.8709 -0.8799  1.1208
 2696TIP3    H2 8095   2.965   3.105   3.882  2.3746  0.7033 -3.5385
 2697TIP3   OH2 8096   1.421   3.362   0.410 -0.2466  0.0889 -0.4939
 2697TIP3    H1 8097   1.465   3.300   0.352 -0.9873 -0.3142 -0.6392
 2697TIP3    H2 8098   1.330   3.361   0.381 -0.6838 -0.3098  0.8359
 2698TIP3   OH2 8099   0.241   3.527   4.706 -0.1981 -0.3710 -0.0371
 2698TIP3    H1 8100   0.205   3.544   4.619 -0.7228  1.1298  0.4500
 2698TIP3    H2 8101   0.170   3.484   4.754  0.3101 -1.8063 -0.5217
 2699TIP3   OH2 8102   4.172   4.771   2.669  0.5866 -0.1741  0.5067
 2699TIP3    H1 8103   4.100   4.767   2.732  0.2044  1.1799  0.1845
 2699TIP3    H2 8104   4.204   4.861   2.675  0.5192  0.0004 -1.2480
 2700TIP3   OH2 8105   2.015   2.761   0.597  0.5259 -0.2791 -0.0976
 2700TIP3    H1 8106   2.073   2.829   0.563  2.5407 -1.2093  1.2520
 2700TIP3    H2 8107   1.972   2.801   0.672 -0.3584  0.2930 -0.8772
 2701TIP3   OH2 8108   1.429   1.346   2.846  0.3739  0.3751  0.0910
 2701TIP3    H1 8109   1.442   1.255   2.874  0.0845  0.3197  0.0505
 2701TIP3    H2 8110   1.346   1.371   2.886 -0.0460  0.2982 -0.7191
 2702TIP3   OH2 8111   5.156   2.388   3.870  0.2654  0.1050 -0.5827
 2702TIP3    H1 8112   5.101   2.424   3.800  0.6169 -1.0988 -1.5148
 2702TIP3    H2 8113   5.241   2.373   3.828  0.6190 -0.1914  0.2274
 2703TIP3   OH2 8114   5.096   3.614   0.679 -0.2023  0.2483  0.1883
 2703TIP3    H1 8115   5.127   3.678   0.615 -2.6488 -0.0039 -1.3796
 2703TIP3    H2 8116   5.093   3.663   0.761  0.6016  1.3471 -0.4090
 2704TIP3   OH2 8117   1.382   5.323   1.861 -0.0945  0.4936 -0.3047
 2704TIP3    H1 8118   1.398   5.265   1.787 -1.1979 -2.2055  1.3892
 2704TIP3    H2 8119   1.295   5.360   1.843  0.7216  1.8974 -1.5201
 2705TIP3   OH2 8120   2.387   5.038   2.403 -0.7630  0.1242  0.1998
 2705TIP3    H1 8121   2.451   5.002   2.342 -0.6898 -1.1559  0.9930
 2705TIP3    H2 8122   2.395   4.983   2.481 -0.1348  2.3140  1.7735
 2706TIP3   OH2 8123   5.737   5.474   1.707  0.2425  0.2802  0.2879
 2706TIP3    H1 8124   5.644   5.459   1.720  0.0356 -0.9265 -2.1211
 2706TIP3    H2 8125   5.744   5.568   1.690 -0.4956  0.4221  0.7337
 2707TIP3   OH2 8126   6.204   5.437   1.029 -0.2697 -0.4578 -0.3245
 2707TIP3    H1 8127   6.123   5.421   1.078 -0.1293 -1.4558 -0.4117
 2707TIP3    H2 8128   6.271   5.386   1.075  0.3006  0.2682 -0.3193
 2708TIP3   OH2 8129   5.188   0.857   0.938  0.4902  0.4381  0.1584
 2708TIP3    H1 8130   5.145   0.777   0.909  0.8249 -0.1790  1.2789
 2708TIP3    H2 8131   5.118   0.922   0.944 -0.0215 -0.1355  0.4888
 2709TIP3   OH2 8132   2.244   0.439   3.284  0.1878 -0.6129  0.2347
 2709TIP3    H1 8133   2.262   0.351   3.251  2.0572 -0.1387 -0.1188
 2709TIP3    H2 8134   2.174   0.471   3.229  0.1852 -1.5064 -0.3073
 2710TIP3   OH2 8135   2.498   1.165   2.003 -0.2755  0.2069  0.0970
 2710TIP3    H1 8136   2.436   1.230   1.971  0.6195  0.8190 -0.4459
 2710TIP3    H2 8137   2.468   1.082   1.966  0.8708  0.9197 -2.7030
 2711TIP3   OH2 8138   2.024   5.592   2.475  0.3342 -0.5413  0.4153
 2711TIP3    H1 8139   1.944   5.605   2.527  0.5378 -0.9284  0.8309
 2711TIP3    H2 8140   1.995   5.541   2.399  0.5076 -2.4017  1.5358
 2712TIP3   OH2 8141   5.986   3.588   2.706 -0.2699  0.5531  0.4305
 2712TIP3    H1 8142   6.030   3.558   2.627 -0.3890 -0.0759  0.5962
 2712TIP3    H2 8143   6.052   3.638   2.754 -0.8614  3.0920 -1.2157
 2713TIP3   OH2 8144   5.905   4.206   0.397  0.3212  0.1539  0.3806
 2713TIP3    H1 8145   5.921   4.179   0.487  2.0951  0.8955  0.3287
 2713TIP3    H2 8146   5.880   4.299   0.404  2.7198  0.8897  0.0084
 2714TIP3   OH2 8147   5.909   3.218   4.182  0.0626  0.0878 -0.3722
 2714TIP3    H1 8148   5.847   3.273   4.134 -1.3081 -0.4465  0.7141
 2714TIP3    H2 8149   5.975   3.194   4.117 -1.4073 -0.1341 -1.8486
 2715TIP3   OH2 8150   5.256   0.416   3.647 -0.6312 -0.6353 -0.5163
 2715TIP3    H1 8151   5.333   0.458   3.608 -0.1118 -0.1338  0.9872
 2715TIP3    H2 8152   5.256   0.328   3.610  1.5935 -1.1692  0.5948
 2716TIP3   OH2 8153   4.871   0.941   4.404 -0.3241  0.3023 -0.5625
 2716TIP3    H1 8154   4.781   0.944   4.434 -1.4397 -0.6455 -3.4468
 2716TIP3    H2 8155   4.882   1.021   4.351  0.8486  0.8457  0.4424
 2717TIP3   OH2 8156   6.126   1.219   1.460  0.4874 -0.5053  0.0025
 2717TIP3    H1 8157   6.152   1.262   1.542  0.6786  0.3068 -0.4716
 2717TIP3    H2 8158   6.205   1.221   1.406 -0.3605  1.6200 -1.3041
 2718TIP3   OH2 8159   1.902   2.756   4.875 -0.2539  0.4614  0.2252
 2718TIP3    H1 8160   1.923   2.699   4.801  0.5647  2.7662 -1.4567
 2718TIP3    H2 8161   1.820   2.798   4.851 -0.1728  0.9605  0.7868
 2719TIP3   OH2 8162   4.422   0.404   0.666 -0.6582 -0.2607  0.0291
 2719TIP3    H1 8163   4.467   0.321   0.653 -0.0463 -0.0363  0.6375
 2719TIP3    H2 8164   4.451   0.433   0.753 -0.1056  1.0484 -0.5636
 2720TIP3   OH2 8165   4.602   1.945   1.137  0.3089  0.0469  0.1161
 2720TIP3    H1 8166   4.677   1.967   1.193  1.4294 -0.1093 -1.2710
 2720TIP3    H2 8167   4.533   2.006   1.165  0.9864  0.3093  1.3093
 2721TIP3   OH2 8168   0.580   4.154   0.498 -1.3500  0.0824  0.8482
 2721TIP3    H1 8169   0.581   4.247   0.474 -1.2547 -0.0231  0.4354
 2721TIP3    H2 8170   0.522   4.114   0.433  0.3228 -0.5063 -0.3664
 2722TIP3   OH2 8171   0.619   4.543   1.476 -0.4953  0.3046  0.5046
 2722TIP3    H1 8172   0.615   4.571   1.568  1.0486  0.3113  0.5853
 2722TIP3    H2 8173   0.536   4.497   1.462 -0.0040 -1.2782  2.4176
 2723TIP3   OH2 8174   1.875   1.167   2.025  0.2863 -0.1450 -0.7911
 2723TIP3    H1 8175   1.857   1.074   2.041 -0.2450  0.0048 -0.4741
 2723TIP3    H2 8176   1.812   1.213   2.081  0.9827  0.4103 -0.4470
 2724TIP3   OH2 8177   0.429   0.555   4.510 -0.3648  0.0671 -0.2761
 2724TIP3    H1 8178   0.469   0.640   4.531 -1.9281  0.3204  2.0781
 2724TIP3    H2 8179   0.465   0.495   4.575  1.2129 -1.3188 -2.3047
 2725TIP3   OH2 8180   2.569   1.468   0.449 -0.0824 -0.0040 -0.2739
 2725TIP3    H1 8181   2.503   1.476   0.518 -0.4378  0.1815 -0.6338
 2725TIP3    H2 8182   2.538   1.525   0.379 -0.4397 -1.2347 -1.1446
 2726TIP3   OH2 8183   2.773   5.625   2.968 -0.1851  0.6307 -0.1723
 2726TIP3    H1 8184   2.845   5.565   2.987  0.7468  0.9217 -2.4217
 2726TIP3    H2 8185   2.810   5.712   2.980 -0.6924  0.7871  0.3104
 2727TIP3   OH2 8186   5.861   5.124   1.926 -0.6580 -0.1000 -0.1167
 2727TIP3    H1 8187   5.915   5.108   2.003 -1.8943  0.0019  0.8055
 2727TIP3    H2 8188   5.837   5.037   1.894 -1.5146 -0.1598  0.6385
 2728TIP3   OH2 8189   1.556   2.692   2.366  0.6094  0.0700  0.4633
 2728TIP3    H1 8190   1.651   2.682   2.362  0.4603 -2.0601  0.7058
 2728TIP3    H2 8191   1.534   2.749   2.292  1.9749 -0.4611 -0.3955
 2729TIP3   OH2 8192   3.877   3.517   2.992  0.0639 -0.3603 -0.1277
 2729TIP3    H1 8193   3.958   3.569   2.986  0.2115 -0.6553 -0.7843
 2729TIP3    H2 8194   3.807   3.582   2.989  0.2486 -0.1828 -0.8920
 2730TIP3   OH2 8195   4.860   5.710   1.223  0.3260  0.3604 -0.1632
 2730TIP3    H1 8196   4.782   5.654   1.225  0.5864  0.0175  0.4702
 2730TIP3    H2 8197   4.875   5.733   1.315  1.5883 -0.4338 -0.1597
 2731TIP3   OH2 8198   5.307   1.712   2.673 -0.0195 -0.3045 -0.3889
 2731TIP3    H1 8199   5.284   1.708   2.580 -0.4238 -1.8278 -0.2416
 2731TIP3    H2 8200   5.266   1.635   2.711 -0.4833  0.6846  1.2108
 2732TIP3   OH2 8201   3.409   1.877   4.042 -0.2273 -0.2424 -0.4323
 2732TIP3    H1 8202   3.357   1.957   4.049 -0.0791  0.0852 -2.3915
 2732TIP3    H2 8203   3.352   1.807   4.073 -1.1774  0.3414 -0.8541
 2733TIP3   OH2 8204   2.567   4.468   0.881  0.2941  0.0690  0.1809
 2733TIP3    H1 8205   2.520   4.437   0.804 -0.2520 -0.7593  0.8241
 2733TIP3    H2 8206   2.646   4.413   0.885 -0.1330 -0.5287  0.7075
 2734TIP3   OH2 8207   0.529   0.999   1.608 -0.1354  0.2450  0.1861
 2734TIP3    H1 8208   0.531   0.916   1.655 -1.6632 -0.7992 -1.4369
 2734TIP3    H2 8209   0.618   1.011   1.575  0.2322 -0.4506  0.8967
 2735TIP3   OH2 8210   6.085   5.874   3.626 -0.7185 -0.2566 -0.2689
 2735TIP3    H1 8211   6.094   5.912   3.538  0.1526 -0.0925 -0.1174
 2735TIP3    H2 8212   6.007   5.820   3.620 -0.3859 -0.6629 -1.3050
 2736TIP3   OH2 8213   1.838   3.423   1.931  0.1441  0.3030 -0.5134
 2736TIP3    H1 8214   1.776   3.363   1.889 -0.9237  0.2944  0.9889
 2736TIP3    H2 8215   1.888   3.461   1.858 -0.0708 -1.3799 -1.5953
 2737TIP3   OH2 8216   4.103   5.805   1.180  0.1467  0.0313 -0.9003
 2737TIP3    H1 8217   4.171   5.789   1.246 -0.3919  0.1847 -0.3015
 2737TIP3    H2 8218   4.074   5.717   1.155 -0.0382 -0.0176 -0.5219
 2738TIP3   OH2 8219   3.508   2.426   3.540 -0.1471 -0.5737  0.1921
 2738TIP3    H1 8220   3.444   2.387   3.600 -1.1219  3.2747  2.0174
 2738TIP3    H2 8221   3.588   2.434   3.591  0.1893 -0.6851 -0.3105
 2739TIP3   OH2 8222   3.569   3.351   4.598  0.0451  0.4768 -0.1675
 2739TIP3    H1 8223   3.657   3.374   4.568 -0.1238 -0.3098 -1.3055
 2739TIP3    H2 8224   3.515   3.352   4.519 -0.5742 -0.8600  0.2084
 2740TIP3   OH2 8225   1.563   0.759   1.620 -0.0467 -0.0834 -0.2639
 2740TIP3    H1 8226   1.547   0.764   1.714 -4.3297 -1.2867 -0.6991
 2740TIP3    H2 8227   1.529   0.842   1.586 -2.7220 -1.3598 -0.9887
 2741TIP3   OH2 8228   1.267   1.756   4.660 -0.1505 -0.3582  0.0157
 2741TIP3    H1 8229   1.353   1.785   4.691  0.6911 -1.5826 -1.0666
 2741TIP3    H2 8230   1.242   1.685   4.720 -1.0204  0.8075  1.0900
 2742TIP3   OH2 8231   3.100   4.050   1.024 -0.1637  0.7001 -0.4394
 2742TIP3    H1 8232   3.160   3.976   1.018 -0.5187  0.4066 -0.4510
 2742TIP3    H2 8233   3.155   4.128   1.012  0.1897  0.4310 -0.5709
 2743TIP3   OH2 8234   5.306   4.674   0.442  0.2725 -0.3282  0.2610
 2743TIP3    H1 8235   5.355   4.658   0.361  1.2327  2.7884  0.0848
 2743TIP3    H2 8236   5.259   4.756   0.426 -1.0307 -0.6142  2.2258
 2744TIP3   OH2 8237   4.083   3.291   3.024  0.1181 -0.9066  0.7149
 2744TIP3    H1 8238   4.101   3.352   3.095 -0.8416  0.6116 -0.2771
 2744TIP3    H2 8239   4.168   3.257   2.999  0.8482  0.8912  0.5881
 2745TIP3   OH2 8240   5.432   3.172   2.392 -0.4183 -0.0019  0.2754
 2745TIP3    H1 8241   5.338   3.185   2.408 -0.3590 -0.3276  0.9664
 2745TIP3    H2 8242   5.472   3.184   2.478  0.0939 -0.5350  0.1155
 2746TIP3   OH2 8243   1.527   1.086   2.928  0.0817  0.1846  0.3437
 2746TIP3    H1 8244   1.595   1.144   2.963 -1.8008  1.0891  2.7298
 2746TIP3    H2 8245   1.559   0.998   2.948  1.3074  0.4995 -0.1138
 2747TIP3   OH2 8246   1.696   2.569   5.110 -0.0743 -0.2842  0.3765
 2747TIP3    H1 8247   1.611   2.527   5.093 -0.2539 -0.6970  2.0532
 2747TIP3    H2 8248   1.739   2.509   5.171  0.9041  0.5536  0.5183
 2748TIP3   OH2 8249   5.647   1.124   4.679 -0.2832  0.0176  0.5766
 2748TIP3    H1 8250   5.675   1.179   4.606 -2.3868 -1.4404 -1.4674
 2748TIP3    H2 8251   5.705   1.048   4.675  1.6962  1.3090  2.5273
 2749TIP3   OH2 8252   2.199   0.283   1.519  0.0962 -0.0375  0.2717
 2749TIP3    H1 8253   2.118   0.243   1.552  1.5299 -2.1604  1.4617
 2749TIP3    H2 8254   2.213   0.243   1.434  0.8806 -1.1917  0.9215
 2750TIP3   OH2 8255   0.057   4.934   2.745  0.3551 -0.4694 -1.1782
 2750TIP3    H1 8256   0.098   4.878   2.811  0.1906 -1.0279 -1.5478
 2750TIP3    H2 8257  -0.037   4.920   2.758  0.3088 -0.1411 -1.1571
 2751TIP3   OH2 8258   6.263   1.838   4.795  0.3514  0.2239 -0.1069
 2751TIP3    H1 8259   6.353   1.806   4.802  0.7399  1.5075  1.0700
 2751TIP3    H2 8260   6.262   1.893   4.717 -0.1212 -1.8773 -1.6754
 2752TIP3   OH2 8261   1.759   2.674   3.000 -0.5971 -0.1762  0.5929
 2752TIP3    H1 8262   1.744   2.680   2.906 -1.8246 -3.8602  0.3753
 2752TIP3    H2 8263   1.840   2.624   3.008 -0.5953 -0.0413  1.4759
 2753TIP3   OH2 8264   1.199   4.140   0.455  0.2440  0.0360  0.2052
 2753TIP3    H1 8265   1.238   4.094   0.380 -0.7682  0.9682 -0.9446
 2753TIP3    H2 8266   1.110   4.162   0.425 -0.4128 -0.1234  1.9304
 2754TIP3   OH2 8267   0.722   2.233   3.313 -0.4891 -0.0899  0.2174
 2754TIP3    H1 8268   0.767   2.154   3.342 -1.2561 -1.1772 -1.3645
 2754TIP3    H2 8269   0.757   2.303   3.368  2.6239 -0.9399 -0.4749
 2755TIP3   OH2 8270   4.464   1.099   3.685  0.3081  0.1805 -0.4198
 2755TIP3    H1 8271   4.480   1.178   3.737 -0.1587 -0.1775  0.2880
 2755TIP3    H2 8272   4.414   1.130   3.609  1.1422  0.7348 -0.7597
 2756TIP3   OH2 8273   2.882   1.882   0.179 -0.3617 -0.4906 -0.1293
 2756TIP3    H1 8274   2.842   1.797   0.198  0.4805 -0.5585  1.5148
 2756TIP3    H2 8275   2.976   1.865   0.181 -0.2023  0.1991 -1.2667
 2757TIP3   OH2 8276   4.555   5.683   5.063 -0.0043  0.4161  1.0996
 2757TIP3    H1 8277   4.523   5.699   5.152 -2.0930  3.3507 -0.0328
 2757TIP3    H2 8278   4.598   5.764   5.038  4.2340 -1.6777  0.6942
 2758TIP3   OH2 8279   5.061   5.074   3.562 -0.1007 -0.0212 -0.4334
 2758TIP3    H1 8280   5.138   5.019   3.576  2.1182  3.2740  1.6805
 2758TIP3    H2 8281   4.993   5.035   3.618  1.1212 -0.9945  0.4186
 2759TIP3   OH2 8282   4.668   2.723   3.680  0.1594  0.4690  0.0450
 2759TIP3    H1 8283   4.677   2.666   3.604  1.7629  0.8795 -0.0931
 2759TIP3    H2 8284   4.615   2.796   3.649  0.7842  0.6212 -0.6821
 2760TIP3   OH2 8285   2.318   3.802   0.237  0.1399 -0.8170  0.3045
 2760TIP3    H1 8286   2.368   3.883   0.233 -0.7028 -0.3070 -0.3165
 2760TIP3    H2 8287   2.365   3.742   0.178 -1.2409  0.4144 -2.1979
 2761TIP3   OH2 8288   2.510   3.164   1.039 -0.0521  0.3291  0.4517
 2761TIP3    H1 8289   2.567   3.210   1.101 -0.3042  0.7608  0.3634
 2761TIP3    H2 8290   2.560   3.085   1.016 -0.3291 -0.2809  1.8557
 2762TIP3   OH2 8291   2.902   3.623   3.771 -0.1366 -0.7142  0.6037
 2762TIP3    H1 8292   2.920   3.568   3.848  1.2882 -0.2771  0.6012
 2762TIP3    H2 8293   2.869   3.562   3.705  1.6482 -1.6626  0.5131
 2763TIP3   OH2 8294   2.593   5.706   5.101 -0.0481 -0.5852  0.2779
 2763TIP3    H1 8295   2.567   5.658   5.022  1.8983  0.5379 -1.1328
 2763TIP3    H2 8296   2.541   5.786   5.099  0.9986  0.0937 -0.6756
 2764TIP3   OH2 8297   2.927   5.366   4.379  0.4212  0.4988 -0.1102
 2764TIP3    H1 8298   2.976   5.284   4.377  0.0772  0.1941  2.0045
 2764TIP3    H2 8299   2.846   5.347   4.331  2.1648  0.9932 -3.6054
 2765TIP3   OH2 8300   1.139   1.034   2.264  0.2383 -0.2931  0.2428
 2765TIP3    H1 8301   1.169   1.116   2.225 -0.5413  0.0517  0.3688
 2765TIP3    H2 8302   1.206   0.970   2.238  0.5671  0.2638 -0.3092
 2766TIP3   OH2 8303   0.026   2.815   1.327  0.4196 -0.1684 -0.3148
 2766TIP3    H1 8304  -0.055   2.802   1.279 -0.0364 -2.0991  0.8506
 2766TIP3    H2 8305   0.095   2.805   1.261 -0.1926 -2.3968 -0.6915
 2767TIP3   OH2 8306   0.367   1.882   1.346 -0.5782 -0.4903  0.4943
 2767TIP3    H1 8307   0.406   1.931   1.418 -0.9477  0.4838  0.0442
 2767TIP3    H2 8308   0.286   1.846   1.382  1.4426 -4.0880  2.0265
 2768TIP3   OH2 8309   0.781   0.277   1.607 -0.3053 -0.0026 -0.2918
 2768TIP3    H1 8310   0.751   0.202   1.659  1.4902 -1.2482 -0.9441
 2768TIP3    H2 8311   0.838   0.326   1.666 -0.5665  0.2101 -0.2151
 2769TIP3   OH2 8312   0.264   2.670   3.200 -0.3777  0.0468 -0.0997
 2769TIP3    H1 8313   0.324   2.607   3.241 -0.6359  0.1003  0.3650
 2769TIP3    H2 8314   0.194   2.615   3.164  0.0668 -0.0386 -0.8687
 2770TIP3   OH2 8315   0.744   1.200   3.755 -0.2058  0.0940  0.2636
 2770TIP3    H1 8316   0.731   1.294   3.771  0.6794  0.3333 -0.2950
 2770TIP3    H2 8317   0.674   1.176   3.695 -1.4767 -0.0230  1.7286
 2771TIP3   OH2 8318   0.819   4.725   3.967 -0.0692  0.4631 -0.5298
 2771TIP3    H1 8319   0.893   4.735   3.907 -0.0357  0.6264 -0.4624
 2771TIP3    H2 8320   0.771   4.807   3.959 -2.0351 -0.7896 -2.9553
 2772TIP3   OH2 8321   3.392   3.240   2.150  0.2535 -0.7903  0.4758
 2772TIP3    H1 8322   3.411   3.322   2.105 -1.5502 -1.2946 -1.3724
 2772TIP3    H2 8323   3.436   3.248   2.235  0.5971  1.8298  0.1370
 2773TIP3   OH2 8324   3.378   3.214   1.606 -0.1726  0.3277  0.4433
 2773TIP3    H1 8325   3.417   3.295   1.637 -0.5167  0.7523 -0.2290
 2773TIP3    H2 8326   3.307   3.241   1.548  0.3074 -0.4480 -0.5397
 2774TIP3   OH2 8327   3.104   1.093   1.031 -0.3307  0.0245 -0.1459
 2774TIP3    H1 8328   3.191   1.066   1.002 -0.5269 -0.8044  0.0213
 2774TIP3    H2 8329   3.054   1.102   0.950 -0.4776 -0.8814 -0.1618
 2775TIP3   OH2 8330   5.921   5.890   3.028 -0.6459  0.1342  0.3697
 2775TIP3    H1 8331   5.919   5.925   3.117 -0.9724 -0.2730  0.5259
 2775TIP3    H2 8332   5.882   5.958   2.974 -0.5165  0.3503  0.5501
 2776TIP3   OH2 8333   2.050   2.562   0.402 -0.2035  0.1053 -0.4798
 2776TIP3    H1 8334   2.031   2.649   0.437 -0.8750 -0.0100 -0.5462
 2776TIP3    H2 8335   2.015   2.564   0.313 -0.7994 -0.4414 -0.2651
 2777TIP3   OH2 8336   0.160   4.984   0.058 -0.1129  0.1207 -0.2504
 2777TIP3    H1 8337   0.112   4.990  -0.025  2.6598 -0.6954 -2.0980
 2777TIP3    H2 8338   0.158   4.891   0.080 -0.0798  0.1974  0.0732
 2778TIP3   OH2 8339   5.081   2.429   5.083  0.1635  0.1641 -0.5036
 2778TIP3    H1 8340   5.104   2.341   5.055 -0.1966 -0.6144  1.5370
 2778TIP3    H2 8341   4.995   2.445   5.045 -1.4445 -1.8439  2.0053
 2779TIP3   OH2 8342   2.084   0.491   3.560  0.1822 -0.0199  0.2458
 2779TIP3    H1 8343   2.119   0.537   3.636  2.7140 -0.4246 -0.5844
 2779TIP3    H2 8344   2.120   0.537   3.485 -2.7086  0.7069 -0.8289
 2780TIP3   OH2 8345   6.266   0.819   1.570  0.1383 -0.2491 -0.5250
 2780TIP3    H1 8346   6.271   0.773   1.486  1.0064  1.4472 -1.4503
 2780TIP3    H2 8347   6.357   0.841   1.591 -0.1952  0.5231  0.1815
 2781TIP3   OH2 8348   4.713   0.402   1.023  0.3905  0.4006  0.0564
 2781TIP3    H1 8349   4.661   0.393   1.103  3.4543  1.1288  2.3208
 2781TIP3    H2 8350   4.657   0.452   0.963 -2.2385 -0.6419  1.4679
 2782TIP3   OH2 8351   1.688   1.502   2.781  0.4502 -0.4237  0.1854
 2782TIP3    H1 8352   1.609   1.450   2.775 -0.0778  0.3610  0.1572
 2782TIP3    H2 8353   1.680   1.549   2.865  1.7253 -1.6631  1.0371
 2783TIP3   OH2 8354   3.347   5.071   4.447  0.1121  0.1687  0.3451
 2783TIP3    H1 8355   3.297   4.990   4.450 -2.9803  1.9150 -0.0334
 2783TIP3    H2 8356   3.374   5.078   4.355  0.3549 -0.3630  0.3688
 2784TIP3   OH2 8357   4.967   5.362   0.782 -0.8404 -0.3425  0.6856
 2784TIP3    H1 8358   4.879   5.380   0.750 -0.3982 -1.2273 -1.1225
 2784TIP3    H2 8359   4.969   5.268   0.798  0.2783 -0.6445 -1.0269
 2785TIP3   OH2 8360   4.117   4.641   2.911  0.0656  0.2369 -0.0453
 2785TIP3    H1 8361   4.200   4.687   2.907 -0.8645  2.0743  0.5273
 2785TIP3    H2 8362   4.121   4.590   2.992 -0.0654  1.8582  1.0364
 2786TIP3   OH2 8363   2.464   4.437   4.337  0.6551  1.0900  0.1677
 2786TIP3    H1 8364   2.375   4.421   4.307  1.2076 -0.1549 -0.8598
 2786TIP3    H2 8365   2.455   4.511   4.398 -1.0270  1.1506 -0.1010
 2787TIP3   OH2 8366   4.956   0.296   2.245 -0.4687 -0.1027  0.6856
 2787TIP3    H1 8367   4.930   0.309   2.337  1.4297  1.6763  1.0494
 2787TIP3    H2 8368   4.998   0.210   2.244 -0.9692 -0.3674  1.3610
 2788TIP3   OH2 8369   3.419   5.353   3.183 -0.0015 -0.0704  0.3337
 2788TIP3    H1 8370   3.368   5.288   3.135  0.7454  0.1432 -0.7936
 2788TIP3    H2 8371   3.499   5.306   3.209 -0.0260  0.0501  0.6286
 2789TIP3   OH2 8372   3.600   2.785   1.527  0.0223  0.1187 -0.0968
 2789TIP3    H1 8373   3.586   2.717   1.593 -1.5988  1.0920  0.6291
 2789TIP3    H2 8374   3.535   2.765   1.460  1.7732 -0.9716 -1.5685
 2790TIP3   OH2 8375   2.977   5.495   3.083 -0.1837  0.4450  0.2160
 2790TIP3    H1 8376   3.014   5.527   3.165 -0.6986  1.4688  0.0594
 2790TIP3    H2 8377   3.053   5.471   3.030  0.1965  0.9122  0.5444
 2791TIP3   OH2 8378   5.338   5.231   4.376 -0.2094 -0.0173  0.1740
 2791TIP3    H1 8379   5.281   5.214   4.301 -1.3931 -0.4197  1.1252
 2791TIP3    H2 8380   5.385   5.311   4.353  0.0344 -0.5530 -1.3072
 2792TIP3   OH2 8381   5.570   4.773   0.537  0.3957  0.9266  0.0862
 2792TIP3    H1 8382   5.482   4.741   0.517  0.6535  0.3901 -0.2260
 2792TIP3    H2 8383   5.557   4.864   0.565 -0.1244  1.3323 -1.3676
 2793TIP3   OH2 8384   2.563   4.295   4.666  0.2831  0.0261  0.1861
 2793TIP3    H1 8385   2.474   4.268   4.641 -0.7578  1.9725  1.5318
 2793TIP3    H2 8386   2.590   4.231   4.732 -0.6719  0.1778  0.7362
 2794TIP3   OH2 8387   5.054   3.676   3.262  0.0617  0.7080  0.5367
 2794TIP3    H1 8388   5.082   3.760   3.226 -0.7623  1.3783  1.3851
 2794TIP3    H2 8389   4.979   3.698   3.317 -1.9544 -0.9250 -1.3642
 2795TIP3   OH2 8390   1.715   0.165   5.155  0.4472 -0.0568 -0.0365
 2795TIP3    H1 8391   1.752   0.178   5.242 -0.7537 -1.2005  0.6910
 2795TIP3    H2 8392   1.706   0.070   5.148 -1.9009  0.1400 -0.3220
 2796TIP3   OH2 8393   6.364   3.102   2.807  0.3203  0.3429  0.2741
 2796TIP3    H1 8394   6.306   3.155   2.862 -0.1823  1.0656 -0.9223
 2796TIP3    H2 8395   6.350   3.012   2.837 -3.5239  0.0836 -1.7106
 2797TIP3   OH2 8396   1.942   0.883   4.691  0.2489  0.3200  0.3544
 2797TIP3    H1 8397   1.878   0.888   4.620  0.8605 -0.4446 -0.2743
 2797TIP3    H2 8398   1.986   0.968   4.689  1.8377 -0.4433 -1.7537
 2798TIP3   OH2 8399   3.297   3.834   0.916 -0.2007 -0.1526 -0.3511
 2798TIP3    H1 8400   3.309   3.773   0.843  0.3662 -0.3344 -0.1048
 2798TIP3    H2 8401   3.373   3.820   0.972  0.5640  1.6022 -0.8776
 2799TIP3   OH2 8402   2.354   4.482   4.002 -0.1018  0.1434 -0.0191
 2799TIP3    H1 8403   2.406   4.560   4.022  0.7716  0.2015 -2.2832
 2799TIP3    H2 8404   2.347   4.435   4.086  1.0738  1.6233  0.9406
 2800TIP3   OH2 8405   5.596   1.646   4.144  0.0756 -0.3230  0.0322
 2800TIP3    H1 8406   5.504   1.628   4.164  0.5116 -0.7216  1.9028
 2800TIP3    H2 8407   5.638   1.560   4.147  0.8497  0.0701  1.3691
 2801TIP3   OH2 8408   2.512   4.836   3.179 -0.0019 -0.2993 -0.0578
 2801TIP3    H1 8409   2.474   4.755   3.212  0.3840 -0.9623 -1.1703
 2801TIP3    H2 8410   2.606   4.822   3.185  0.0661  0.1207 -0.1337
 2802TIP3   OH2 8411   2.347   0.964   2.480  0.4014 -0.4432 -0.6622
 2802TIP3    H1 8412   2.404   0.888   2.475  1.3370  0.2368 -0.5126
 2802TIP3    H2 8413   2.355   1.006   2.394  0.1805 -0.2986 -0.6144
 2803TIP3   OH2 8414   0.821   1.636   1.024 -0.2610  0.2348  0.1067
 2803TIP3    H1 8415   0.892   1.591   0.978 -0.0631 -0.5585  1.1526
 2803TIP3    H2 8416   0.754   1.649   0.957 -0.1365 -1.2359 -0.3402
 2804TIP3   OH2 8417   5.050   1.798   0.647 -0.2167  0.4430 -0.4687
 2804TIP3    H1 8418   5.143   1.815   0.666  0.0392 -0.8286 -0.4413
 2804TIP3    H2 8419   5.032   1.847   0.568  1.0444 -0.7923 -1.5889
 2805TIP3   OH2 8420   0.503   0.574   3.509 -0.7224 -0.1079 -0.4482
 2805TIP3    H1 8421   0.506   0.605   3.419  0.9831 -0.1642 -0.4295
 2805TIP3    H2 8422   0.446   0.497   3.506  1.3980 -1.7455 -2.0335
 2806TIP3   OH2 8423   4.861   0.313   4.710 -0.0125  0.0105 -0.0778
 2806TIP3    H1 8424   4.941   0.259   4.713 -1.3864 -2.1465 -0.1794
 2806TIP3    H2 8425   4.823   0.295   4.624 -1.6379 -0.6242  0.7286
 2807TIP3   OH2 8426   1.021   3.811   3.558  0.0647 -0.0683 -0.4144
 2807TIP3    H1 8427   0.975   3.730   3.579  0.5338 -0.4101 -0.6918
 2807TIP3    H2 8428   1.014   3.818   3.463  0.5209 -0.0876 -0.4533
 2808TIP3   OH2 8429   5.268   4.021   0.053 -0.4380 -0.3223 -0.6310
 2808TIP3    H1 8430   5.348   4.025   0.001 -0.5667  0.0455 -0.8019
 2808TIP3    H2 8431   5.296   4.048   0.141  0.1802 -2.7611  0.0029
 2809TIP3   OH2 8432   1.557   0.647   5.110 -1.0237  0.2189  0.1095
 2809TIP3    H1 8433   1.479   0.612   5.066 -1.1931  0.7848 -0.0540
 2809TIP3    H2 8434   1.622   0.578   5.101 -0.5858  0.8408 -2.3253
 2810TIP3   OH2 8435   0.859   0.162   1.337 -0.2094  0.5954  0.7340
 2810TIP3    H1 8436   0.794   0.092   1.344  1.4174 -0.9516  1.0398
 2810TIP3    H2 8437   0.835   0.223   1.406  0.1622 -1.2723  2.6031
 2811TIP3   OH2 8438   1.524   1.549   4.462  0.3020 -0.3362 -0.4370
 2811TIP3    H1 8439   1.612   1.587   4.472  0.2582  0.7297 -3.1520
 2811TIP3    H2 8440   1.466   1.625   4.458 -0.3889 -0.8956 -1.3747
 2812TIP3   OH2 8441   4.497   0.229   3.016 -0.1178  0.0810 -0.2217
 2812TIP3    H1 8442   4.468   0.319   3.027 -1.5321 -0.4884  1.1461
 2812TIP3    H2 8443   4.417   0.180   3.001  0.7262 -0.8373 -1.9840
 2813TIP3   OH2 8444   0.759   4.756   4.574  0.4204 -0.0274  0.9512
 2813TIP3    H1 8445   0.753   4.741   4.480  1.2003  1.9955  0.5264
 2813TIP3    H2 8446   0.729   4.674   4.613 -0.7791 -0.6127 -1.0348
 2814TIP3   OH2 8447   2.745   5.407   4.883  0.5156  0.6116  0.1708
 2814TIP3    H1 8448   2.697   5.326   4.865  1.7588 -0.3776  1.0878
 2814TIP3    H2 8449   2.833   5.377   4.908  1.7820  2.3302 -1.8735
 2815TIP3   OH2 8450   5.710   3.466   2.718 -0.1406 -0.1711 -0.1367
 2815TIP3    H1 8451   5.805   3.460   2.718 -0.1860 -1.3934 -1.1595
 2815TIP3    H2 8452   5.681   3.392   2.772 -0.5078 -0.4634 -0.7169
 2816TIP3   OH2 8453   3.592   2.207   4.107  0.4685  0.2990 -0.1753
 2816TIP3    H1 8454   3.548   2.142   4.162 -1.5734  1.0957 -0.7472
 2816TIP3    H2 8455   3.685   2.198   4.127  0.1971 -2.4214  0.1174
 2817TIP3   OH2 8456   4.924   2.160   2.311 -0.1408  0.1360 -0.3753
 2817TIP3    H1 8457   4.992   2.149   2.244  2.2197  0.2286  1.8725
 2817TIP3    H2 8458   4.895   2.070   2.330 -2.2343  0.2044 -2.7418
 2818TIP3   OH2 8459   4.232   3.246   4.485  0.2211 -0.0964 -0.1364
 2818TIP3    H1 8460   4.245   3.153   4.467 -0.7163 -0.6275  1.7148
 2818TIP3    H2 8461   4.137   3.258   4.480  0.2070  0.4212  1.1004
 2819TIP3   OH2 8462   0.544   3.367   1.926 -0.5703  0.5041 -0.2275
 2819TIP3    H1 8463   0.636   3.345   1.941 -0.6274  0.8050  0.6387
 2819TIP3    H2 8464   0.502   3.284   1.907 -0.3632  0.1788  0.7061
 2820TIP3   OH2 8465   2.907   3.355   3.424  0.5119  0.0098  0.1470
 2820TIP3    H1 8466   2.833   3.393   3.471  1.2823  0.4944  1.0008
 2820TIP3    H2 8467   2.911   3.264   3.453 -1.1583 -0.7227 -1.6791
 2821TIP3   OH2 8468   3.687   0.698   3.210 -0.4971  0.1855  0.0933
 2821TIP3    H1 8469   3.730   0.630   3.158  0.6264  1.6458 -0.9794
 2821TIP3    H2 8470   3.594   0.679   3.202 -0.2062 -2.5048  1.6813
 2822TIP3   OH2 8471   4.930   0.252   1.047  0.7552  0.1423 -0.1827
 2822TIP3    H1 8472   4.925   0.209   0.962  0.2208  1.4257 -0.8212
 2822TIP3    H2 8473   4.862   0.319   1.045  1.5149  0.9836  0.7964
 2823TIP3   OH2 8474   4.017   2.755   4.649  0.0089  0.2274  0.0075
 2823TIP3    H1 8475   3.979   2.836   4.616  1.1818  0.5727 -0.5362
 2823TIP3    H2 8476   4.100   2.747   4.603 -0.6746 -1.9814 -0.9583
 2824TIP3   OH2 8477   5.135   0.358   1.238  0.1142  0.0255 -0.0832
 2824TIP3    H1 8478   5.098   0.328   1.155  0.7384 -0.5983 -0.1474
 2824TIP3    H2 8479   5.128   0.454   1.235  2.3061  0.2200 -1.9380
 2825TIP3   OH2 8480   6.254   2.550   4.943  0.0486  0.5953  0.1430
 2825TIP3    H1 8481   6.228   2.458   4.934 -3.4166  1.3305  1.1052
 2825TIP3    H2 8482   6.261   2.563   5.038  3.1509  0.8110 -0.0080
 2826TIP3   OH2 8483   2.660   5.595   2.443  0.4314 -0.1242 -0.2475
 2826TIP3    H1 8484   2.698   5.664   2.390  0.2765 -0.7267 -1.1728
 2826TIP3    H2 8485   2.735   5.545   2.475  0.5417  0.4626  0.4113
 2827TIP3   OH2 8486   5.061   5.902   4.788  0.6025  0.2747  0.3827
 2827TIP3    H1 8487   4.980   5.953   4.785  0.3391 -0.1595 -1.7511
 2827TIP3    H2 8488   5.130   5.966   4.805  0.0297  1.0004  0.0184
 2828TIP3   OH2 8489   1.026   1.251   3.551  0.3315  0.0886 -0.8210
 2828TIP3    H1 8490   0.933   1.230   3.558  0.5033 -0.3226  0.3350
 2828TIP3    H2 8491   1.027   1.340   3.515 -0.5322  0.4884  0.1048
 2829TIP3   OH2 8492   1.965   3.230   1.428 -0.1758 -0.4740  0.0433
 2829TIP3    H1 8493   1.931   3.227   1.518 -1.0087 -0.4564 -0.2633
 2829TIP3    H2 8494   1.902   3.284   1.380  0.6232  0.0807 -0.4088
 2830TIP3   OH2 8495   4.799   2.496   4.204  0.4455 -0.1644  0.0116
 2830TIP3    H1 8496   4.733   2.468   4.267  0.7837  1.8634  1.3825
 2830TIP3    H2 8497   4.860   2.549   4.255  1.8262 -0.0232 -1.6747
 2831TIP3   OH2 8498   5.471   3.513   3.054 -0.0727 -0.0526 -0.5896
 2831TIP3    H1 8499   5.410   3.490   2.984  0.2624 -0.2053 -0.8304
 2831TIP3    H2 8500   5.495   3.604   3.036  0.7192 -0.3730 -1.1982
 2832TIP3   OH2 8501   4.516   1.726   2.708  0.3074 -0.5876  0.3146
 2832TIP3    H1 8502   4.482   1.814   2.724 -0.7134 -0.7681 -0.7697
 2832TIP3    H2 8503   4.541   1.695   2.795 -1.5748 -0.1265  1.0849
 2833TIP3   OH2 8504   3.226   3.664   1.726 -0.2284  0.3687  0.1905
 2833TIP3    H1 8505   3.230   3.706   1.640  0.5600 -1.3105 -0.6382
 2833TIP3    H2 8506   3.165   3.591   1.715 -0.1610  0.1651  1.0716
 2834TIP3   OH2 8507   4.128   3.847   1.025 -0.0525 -0.0107  0.2277
 2834TIP3    H1 8508   4.176   3.912   1.077 -1.9043  0.8685  0.9065
 2834TIP3    H2 8509   4.109   3.777   1.087  0.6323 -0.5226 -0.1291
 2835TIP3   OH2 8510   0.034   1.703   2.994  0.0389  0.6887 -0.2753
 2835TIP3    H1 8511   0.011   1.690   3.086  2.8230  0.6137  0.5003
 2835TIP3    H2 8512   0.114   1.755   2.996  0.4636  0.2381 -2.6417
 2836TIP3   OH2 8513   6.257   4.619   4.079 -0.6740  0.1611  0.0085
 2836TIP3    H1 8514   6.163   4.636   4.071 -0.2229  2.0099 -2.6147
 2836TIP3    H2 8515   6.281   4.577   3.996  0.7692 -0.5739  0.7709
 2837TIP3   OH2 8516   3.973   5.693   2.152 -0.0900 -0.4373 -0.0110
 2837TIP3    H1 8517   4.024   5.771   2.130 -0.7903 -0.4042 -1.6186
 2837TIP3    H2 8518   4.020   5.621   2.111 -0.7694 -0.5347 -0.6379
 2838TIP3   OH2 8519   2.056   3.807   4.773 -0.3337  0.2457  0.5568
 2838TIP3    H1 8520   2.006   3.799   4.854  0.2694  2.4377  1.2174
 2838TIP3    H2 8521   2.147   3.814   4.802  0.2768 -2.0580 -0.5395
 2839TIP3   OH2 8522   6.215   2.521   1.358 -0.3561  0.1783  0.3161
 2839TIP3    H1 8523   6.124   2.525   1.387 -0.4575  0.6159 -0.0452
 2839TIP3    H2 8524   6.221   2.589   1.290 -0.7131 -2.2281 -2.2918
 2840TIP3   OH2 8525   4.792   5.880   0.452 -0.0926  0.6392 -0.3528
 2840TIP3    H1 8526   4.830   5.798   0.420  0.7858  1.0343 -0.3484
 2840TIP3    H2 8527   4.845   5.903   0.529 -0.8195  0.8192  0.1039
 2841TIP3   OH2 8528   1.676   5.312   3.782 -0.8222  0.1318 -0.1528
 2841TIP3    H1 8529   1.728   5.252   3.728  0.8657  2.5103 -1.3190
 2841TIP3    H2 8530   1.710   5.299   3.871 -2.4628 -2.5919  0.2057
 2842TIP3   OH2 8531   3.635   1.483   1.900 -0.2905  0.0867 -0.7000
 2842TIP3    H1 8532   3.692   1.453   1.829  0.7282  2.0152 -0.7886
 2842TIP3    H2 8533   3.562   1.421   1.901  2.2222 -3.1230  0.0436
 2843TIP3   OH2 8534   0.845   0.054   0.039 -0.7101  0.2987  0.3496
 2843TIP3    H1 8535   0.850   0.044   0.134  0.3035  0.2049  0.2944
 2843TIP3    H2 8536   0.788  -0.018   0.010  0.1279 -0.5359  0.7471
 2844TIP3   OH2 8537   0.078   4.216   4.740 -0.4103 -0.5509 -0.2637
 2844TIP3    H1 8538   0.009   4.150   4.728 -0.6509 -0.4062  0.3140
 2844TIP3    H2 8539   0.150   4.168   4.782 -1.1500 -0.1353  1.5720
 2845TIP3   OH2 8540   1.529   5.259   3.246 -0.3812 -0.5257 -0.3851
 2845TIP3    H1 8541   1.437   5.275   3.267 -0.3403  0.0486 -0.6138
 2845TIP3    H2 8542   1.530   5.170   3.212 -1.1694  0.0681 -2.1023
 2846TIP3   OH2 8543   3.105   0.544   3.081 -0.0249  0.3982  0.0825
 2846TIP3    H1 8544   3.060   0.602   3.019  0.0879  3.1425  2.3467
 2846TIP3    H2 8545   3.037   0.483   3.110 -0.1438 -0.7760 -2.3787
 2847TIP3   OH2 8546   0.916   5.266   2.999  0.1206  0.3996 -0.7491
 2847TIP3    H1 8547   0.927   5.303   2.911 -1.5901  1.1185 -0.6990
 2847TIP3    H2 8548   0.824   5.239   3.003  0.1436  0.4445  0.8511
 2848TIP3   OH2 8549   1.882   2.166   3.466  0.1579 -0.3703  0.5506
 2848TIP3    H1 8550   1.803   2.218   3.482  0.6054  0.5336 -0.0643
 2848TIP3    H2 8551   1.850   2.076   3.459 -0.7829 -0.0576  0.5830
 2849TIP3   OH2 8552   2.434   3.998   2.868  0.1761 -0.2047 -0.4321
 2849TIP3    H1 8553   2.518   3.990   2.822  0.4411 -1.4863  0.2301
 2849TIP3    H2 8554   2.379   3.931   2.828  0.5860 -1.7536  1.4058
 2850TIP3   OH2 8555   1.184   4.317   2.133  0.1600 -0.5941  0.6142
 2850TIP3    H1 8556   1.159   4.400   2.172  1.4993 -0.2412  0.7499
 2850TIP3    H2 8557   1.101   4.271   2.120 -0.5806  0.6660  0.7258
 2851TIP3   OH2 8558   1.669   0.085   3.309  0.4382  0.1191 -0.1448
 2851TIP3    H1 8559   1.696   0.005   3.353 -0.0869 -0.5082 -0.9240
 2851TIP3    H2 8560   1.574   0.076   3.298  0.3947  0.7782 -0.3699
 2852TIP3   OH2 8561   1.046   3.067   2.752  0.2422  0.3073 -0.6740
 2852TIP3    H1 8562   1.046   2.979   2.790  1.3116 -0.3384 -2.0201
 2852TIP3    H2 8563   1.123   3.109   2.790 -0.5141  0.8426  0.3014
 2853TIP3   OH2 8564   4.554   4.612   0.519  0.6578 -0.4072  0.2965
 2853TIP3    H1 8565   4.522   4.579   0.435  0.9529 -0.2748  0.1288
 2853TIP3    H2 8566   4.645   4.583   0.522  0.5452 -0.7298  0.7381
 2854TIP3   OH2 8567   1.382   0.801   0.881  0.2082 -0.1545 -0.0212
 2854TIP3    H1 8568   1.337   0.720   0.901  1.0819 -0.6754 -0.1079
 2854TIP3    H2 8569   1.330   0.869   0.924 -0.4051 -0.7762  0.2388
 2855TIP3   OH2 8570   6.081   1.296   0.246  0.1121  0.0194  0.0236
 2855TIP3    H1 8571   6.015   1.365   0.240  0.3364  0.2126 -0.2291
 2855TIP3    H2 8572   6.049   1.239   0.316 -0.5333 -0.1132 -0.3720
 2856TIP3   OH2 8573   1.545   2.283   4.794  0.0768  0.4159 -0.1999
 2856TIP3    H1 8574   1.522   2.376   4.795  1.2450  0.7323 -0.8597
 2856TIP3    H2 8575   1.553   2.260   4.886 -1.4047  0.6515  0.0072
 2857TIP3   OH2 8576   5.066   2.160   1.138 -0.5560 -0.1515  0.4865
 2857TIP3    H1 8577   5.082   2.099   1.066 -0.5516  0.1268  0.2531
 2857TIP3    H2 8578   5.073   2.247   1.099 -0.5236  0.0024  0.8273
 2858TIP3   OH2 8579   3.939   4.917   4.541 -0.2980 -0.6977  0.8372
 2858TIP3    H1 8580   3.883   4.922   4.463 -0.4070  1.3326  0.9964
 2858TIP3    H2 8581   3.898   4.850   4.596  0.0143 -2.4716 -0.9814
 2859TIP3   OH2 8582   0.370   1.554   1.035 -0.4805 -0.2689  0.4794
 2859TIP3    H1 8583   0.288   1.557   1.084 -1.2672  0.1030 -0.8234
 2859TIP3    H2 8584   0.420   1.629   1.067 -0.1996 -1.0614  1.9920
 2860TIP3   OH2 8585   0.933   1.679   4.982  0.0727  0.2558 -0.8373
 2860TIP3    H1 8586   1.024   1.660   4.962  0.6832 -0.6303  2.2535
 2860TIP3    H2 8587   0.933   1.772   5.006 -0.5069  1.0897 -3.6611
 2861TIP3   OH2 8588   1.602   6.013   4.045 -0.4012  0.4491 -0.1623
 2861TIP3    H1 8589   1.621   6.015   3.951 -1.6928 -1.1414 -0.4961
 2861TIP3    H2 8590   1.599   5.920   4.067 -0.2999  0.7919  1.4362
 2862TIP3   OH2 8591   5.085   1.962   4.638 -0.0264  0.4870 -0.0200
 2862TIP3    H1 8592   5.048   1.899   4.577 -0.6773 -0.5097  1.3333
 2862TIP3    H2 8593   5.179   1.951   4.631 -0.0796  0.6431 -1.0735
 2863TIP3   OH2 8594   4.263   4.169   3.499 -0.2052 -0.2135 -0.2341
 2863TIP3    H1 8595   4.322   4.244   3.497 -0.5098  0.0220 -1.2231
 2863TIP3    H2 8596   4.243   4.151   3.406 -0.3719 -1.3285 -0.0062
 2864TIP3   OH2 8597   2.793   5.249   1.156 -0.4055  0.2236 -0.2979
 2864TIP3    H1 8598   2.852   5.176   1.142 -1.2434 -0.6690  0.6556
 2864TIP3    H2 8599   2.820   5.287   1.239 -1.9040 -0.9865  0.8049
 2865TIP3   OH2 8600   0.552   1.168   0.813  0.1933  0.3561  0.3596
 2865TIP3    H1 8601   0.611   1.239   0.786 -0.8230  1.5625  1.1776
 2865TIP3    H2 8602   0.465   1.206   0.804 -0.5275 -1.4944 -1.1462
 2866TIP3   OH2 8603   0.871   4.304   4.135 -0.3753 -0.3810 -0.3210
 2866TIP3    H1 8604   0.841   4.376   4.190  1.7986  0.6190 -0.3562
 2866TIP3    H2 8605   0.920   4.247   4.194  0.6238 -0.1409 -0.9036
 2867TIP3   OH2 8606   2.665   2.920   3.009 -0.2187  0.4272 -0.1213
 2867TIP3    H1 8607   2.652   2.831   2.978  1.5825 -0.5097  1.5986
 2867TIP3    H2 8608   2.697   2.968   2.932  1.1288 -1.0331 -0.5217
 2868TIP3   OH2 8609   3.812   3.348   1.757 -0.5343 -0.1931  0.4682
 2868TIP3    H1 8610   3.753   3.408   1.802  0.5670 -0.1574  1.9344
 2868TIP3    H2 8611   3.897   3.392   1.759 -0.7351  0.7745 -3.5068
 2869TIP3   OH2 8612   5.382   4.901   4.283  0.2773 -0.5681 -0.3102
 2869TIP3    H1 8613   5.430   4.839   4.229  1.6102 -0.5367  0.7764
 2869TIP3    H2 8614   5.376   4.980   4.229  0.5865 -0.9003 -0.8385
 2870TIP3   OH2 8615   5.245   1.551   4.647  0.4527  0.0519  0.4192
 2870TIP3    H1 8616   5.219   1.632   4.604  1.2273  1.2518  2.1332
 2870TIP3    H2 8617   5.192   1.483   4.603  1.0875  1.1524 -2.2847
 2871TIP3   OH2 8618   4.048   2.840   2.121 -0.5519 -0.1427 -0.0745
 2871TIP3    H1 8619   4.114   2.874   2.181 -1.3695  0.3833  0.5366
 2871TIP3    H2 8620   4.039   2.907   2.053  0.0540 -0.5404 -0.5603
 2872TIP3   OH2 8621   3.002   4.470   0.557  0.0934 -0.0767  0.3935
 2872TIP3    H1 8622   3.017   4.439   0.467 -0.7217 -2.4728  0.9983
 2872TIP3    H2 8623   3.082   4.446   0.604 -0.1808 -0.4765  0.6674
 2873TIP3   OH2 8624   0.483   2.041   1.773  0.0724 -0.1217 -0.1292
 2873TIP3    H1 8625   0.428   2.114   1.800 -0.0098 -0.4162  0.5304
 2873TIP3    H2 8626   0.559   2.045   1.831  0.7164  0.2336 -0.9845
 2874TIP3   OH2 8627   6.206   3.623   1.424  0.0135 -0.3426  0.0287
 2874TIP3    H1 8628   6.165   3.705   1.450 -0.4684 -1.1047  1.8183
 2874TIP3    H2 8629   6.276   3.648   1.364 -0.2033  1.3525  0.4515
 2875TIP3   OH2 8630   0.142   4.858   4.524 -0.6847 -0.0867 -0.4186
 2875TIP3    H1 8631   0.063   4.882   4.571 -0.0184 -0.1434  0.7627
 2875TIP3    H2 8632   0.212   4.909   4.565 -0.1983  0.5742 -1.9627
 2876TIP3   OH2 8633   5.841   0.696   3.774 -0.1591  0.1481 -0.1913
 2876TIP3    H1 8634   5.807   0.720   3.688 -1.6150 -0.1072  0.2758
 2876TIP3    H2 8635   5.774   0.727   3.835  0.5534 -0.2240  0.8041
 2877TIP3   OH2 8636   4.148   4.795   1.778  0.1413 -0.0799  0.2711
 2877TIP3    H1 8637   4.203   4.766   1.851  0.0739 -0.5354  0.1440
 2877TIP3    H2 8638   4.090   4.861   1.816 -0.0685 -0.5004  0.6890
 2878TIP3   OH2 8639   0.790   4.420   3.006 -0.7721  0.2090  0.1313
 2878TIP3    H1 8640   0.796   4.464   3.090  0.2176 -0.8285  0.6320
 2878TIP3    H2 8641   0.701   4.387   3.002 -0.6280 -0.3284  1.0936
 2879TIP3   OH2 8642   5.604   0.698   3.248 -0.5471 -0.6482  0.0682
 2879TIP3    H1 8643   5.509   0.702   3.251 -0.4853  0.7781  0.8055
 2879TIP3    H2 8644   5.625   0.693   3.155 -1.3253  0.3978 -0.1860
 2880TIP3   OH2 8645   1.937   2.507   0.103 -0.8363  0.1975 -0.5094
 2880TIP3    H1 8646   1.953   2.601   0.096 -0.3728  0.0959 -0.9184
 2880TIP3    H2 8647   1.982   2.470   0.027 -1.8063 -0.2600 -0.8734
 2881TIP3   OH2 8648   5.346   5.510   3.520  0.0681 -0.1245  0.0791
 2881TIP3    H1 8649   5.438   5.505   3.546  1.0217  0.5293 -2.8412
 2881TIP3    H2 8650   5.309   5.577   3.577  1.0117 -1.2607  2.1614
 2882TIP3   OH2 8651   0.550   1.138   3.571 -0.7315  0.7822  0.3221
 2882TIP3    H1 8652   0.527   1.231   3.566 -2.5975  0.3619  0.4568
 2882TIP3    H2 8653   0.493   1.095   3.508 -1.4381 -0.5257  1.7600
 2883TIP3   OH2 8654   2.439   4.162   4.296 -0.2269 -0.0946  0.6725
 2883TIP3    H1 8655   2.384   4.120   4.362  0.7102 -0.0418  1.5148
 2883TIP3    H2 8656   2.454   4.250   4.329 -0.1800  0.1090  0.1238
 2884TIP3   OH2 8657   4.268   5.117   3.217  0.1296 -0.1462  0.1940
 2884TIP3    H1 8658   4.338   5.169   3.177 -1.1408  1.2528 -0.3260
 2884TIP3    H2 8659   4.299   5.027   3.211  1.2249  0.2842 -1.4222
 2885TIP3   OH2 8660   4.995   2.193   4.254 -0.4070  0.0959 -0.5344
 2885TIP3    H1 8661   5.018   2.175   4.163 -3.6602 -1.8456 -1.1230
 2885TIP3    H2 8662   4.983   2.288   4.258  1.1832  0.3863 -1.6948
 2886TIP3   OH2 8663   0.823   5.939   0.396  0.4971 -0.7022  0.0865
 2886TIP3    H1 8664   0.742   5.974   0.433  0.3342 -0.6005 -0.3728
 2886TIP3    H2 8665   0.812   5.844   0.400 -1.9668 -0.9414 -4.8303
 2887TIP3   OH2 8666   3.455   4.776   0.309  0.1108  0.4585 -0.0536
 2887TIP3    H1 8667   3.470   4.769   0.215  0.3421 -0.9178  0.0763
 2887TIP3    H2 8668   3.415   4.693   0.334  0.6822  0.5260  1.1780
 2888TIP3   OH2 8669   5.158   5.718   4.590  0.0944 -0.1111  0.2212
 2888TIP3    H1 8670   5.144   5.779   4.663 -2.1071 -0.6335  0.2892
 2888TIP3    H2 8671   5.114   5.759   4.516 -0.4494 -1.0767 -0.0073
 2889TIP3   OH2 8672   3.635   3.764   1.585 -0.1704  0.7882  0.3345
 2889TIP3    H1 8673   3.617   3.846   1.538 -1.8446  0.8541  1.0245
 2889TIP3    H2 8674   3.585   3.698   1.538  1.9401 -0.0932 -0.8137
 2890TIP3   OH2 8675   0.025   0.571   1.822  0.5693 -0.0111 -0.3600
 2890TIP3    H1 8676   0.062   0.536   1.902 -0.7296 -2.8676 -0.9072
 2890TIP3    H2 8677   0.100   0.609   1.775  1.9574 -1.4222  0.6364
 2891TIP3   OH2 8678   0.437   4.073   0.278  0.1234  0.2420 -0.3154
 2891TIP3    H1 8679   0.381   4.149   0.260  2.2500  1.8911 -0.4156
 2891TIP3    H2 8680   0.491   4.064   0.200  0.1046 -1.2462 -0.1898
 2892TIP3   OH2 8681   2.201   1.819   1.978  0.4242  0.4861 -0.9122
 2892TIP3    H1 8682   2.187   1.789   1.888  1.7780  1.6832 -1.5614
 2892TIP3    H2 8683   2.217   1.738   2.028  0.6900 -0.1235 -1.9607
 2893TIP3   OH2 8684   4.888   2.405   2.130 -0.1374 -0.0631 -0.4001
 2893TIP3    H1 8685   4.929   2.384   2.046  0.7902 -3.0466  0.7076
 2893TIP3    H2 8686   4.804   2.358   2.128  0.1820 -0.6898  0.5776
 2894TIP3   OH2 8687   0.348   5.600   3.263 -0.1230  0.9514 -0.0766
 2894TIP3    H1 8688   0.263   5.596   3.307 -0.9672  4.1326 -1.1338
 2894TIP3    H2 8689   0.330   5.570   3.173  0.5697 -1.0541  0.4001
 2895TIP3   OH2 8690   0.619   2.510   1.192 -0.2635 -1.0054  0.4828
 2895TIP3    H1 8691   0.690   2.449   1.173 -0.6088 -0.9360 -1.1133
 2895TIP3    H2 8692   0.559   2.460   1.248 -0.5389 -2.1460 -0.7901
 2896TIP3   OH2 8693   6.095   1.344   3.477  0.2326 -0.1014  0.1305
 2896TIP3    H1 8694   6.018   1.382   3.519  0.5305 -0.2794  0.8599
 2896TIP3    H2 8695   6.064   1.311   3.393 -0.4518 -0.0320  0.3545
 2897TIP3   OH2 8696   6.164   0.350   1.285  0.2887  0.2234  0.1187
 2897TIP3    H1 8697   6.230   0.418   1.295 -1.1257  1.4648  1.6224
 2897TIP3    H2 8698   6.119   0.372   1.203  0.6373  0.3667 -0.0371
 2898TIP3   OH2 8699   4.044   3.508   1.752  0.2160  0.5240  0.6278
 2898TIP3    H1 8700   4.041   3.603   1.761 -0.4557  0.4901  0.7662
 2898TIP3    H2 8701   4.123   3.482   1.800 -0.4978  0.8478  2.0137
 2899TIP3   OH2 8702   1.200   3.473   0.680 -0.1979 -0.1602  0.3172
 2899TIP3    H1 8703   1.191   3.483   0.586  0.7493  0.7611  0.3038
 2899TIP3    H2 8704   1.232   3.558   0.711 -0.8767 -0.3182  1.5251
 2900TIP3   OH2 8705   0.261   0.969   1.512 -0.1147  0.2203  0.3212
 2900TIP3    H1 8706   0.348   1.003   1.535 -0.4146  0.4192  1.2061
 2900TIP3    H2 8707   0.223   1.037   1.456 -0.3712  0.9775  1.3688
 2901TIP3   OH2 8708   2.424   3.442   2.818 -0.2659  0.1999  0.4371
 2901TIP3    H1 8709   2.332   3.445   2.792 -0.7417 -1.0284  1.8391
 2901TIP3    H2 8710   2.452   3.533   2.821 -1.7482  0.6535  1.0390
 2902TIP3   OH2 8711   5.571   2.707   0.563  0.1539 -0.1154 -0.8041
 2902TIP3    H1 8712   5.628   2.630   0.565  1.4239  0.7933  1.0601
 2902TIP3    H2 8713   5.581   2.743   0.474 -0.3281 -1.9372 -1.6392
 2903TIP3   OH2 8714   2.612   4.529   3.068  0.0716 -0.0950 -0.1323
 2903TIP3    H1 8715   2.634   4.587   2.995  1.8278  0.6209  0.8835
 2903TIP3    H2 8716   2.610   4.442   3.030  0.0550  0.3540 -1.1973
 2904TIP3   OH2 8717   2.467   5.877   1.750 -0.0182  0.1402 -0.1835
 2904TIP3    H1 8718   2.422   5.796   1.723 -0.0883 -0.4406  1.5688
 2904TIP3    H2 8719   2.488   5.863   1.842  0.8266  1.7589 -0.1037
 2905TIP3   OH2 8720   2.435   0.817   1.546  0.6955  0.1267 -0.0265
 2905TIP3    H1 8721   2.498   0.750   1.571 -0.9943 -1.3452  0.5428
 2905TIP3    H2 8722   2.467   0.897   1.587  1.8804 -0.6997  0.7189
 2906TIP3   OH2 8723   2.753   3.519   2.433 -0.1837 -0.2139  0.0660
 2906TIP3    H1 8724   2.786   3.569   2.358 -1.1000 -0.3949 -0.4702
 2906TIP3    H2 8725   2.755   3.581   2.506 -0.1568  0.2407 -0.3153
 2907TIP3   OH2 8726   2.805   2.682   3.162 -0.3545 -0.2273  0.0986
 2907TIP3    H1 8727   2.799   2.775   3.139  0.1617  0.0723  1.0809
 2907TIP3    H2 8728   2.873   2.647   3.106 -1.3772 -0.3101 -1.1288
 2908TIP3   OH2 8729   2.341   4.839   4.438 -0.4269 -0.4710  0.1553
 2908TIP3    H1 8730   2.401   4.766   4.458 -0.4859 -0.7587 -0.6848
 2908TIP3    H2 8731   2.269   4.828   4.500 -0.2333 -0.8826  0.3145
 2909TIP3   OH2 8732   0.724   1.540   0.171  0.2215 -0.6719  0.0864
 2909TIP3    H1 8733   0.772   1.532   0.089  0.3842 -0.3657  0.1513
 2909TIP3    H2 8734   0.655   1.604   0.152  0.9797  0.2896  0.5193
 2910TIP3   OH2 8735   3.378   3.756   4.415  0.0528  0.1533 -0.5201
 2910TIP3    H1 8736   3.360   3.757   4.321 -2.0209 -1.1020 -0.2029
 2910TIP3    H2 8737   3.469   3.726   4.422  0.6519  1.4900 -2.1327
 2911TIP3   OH2 8738   0.055   0.531   1.301  0.8336 -0.0818 -0.4625
 2911TIP3    H1 8739   0.109   0.493   1.231  1.6978 -1.1687  0.7520
 2911TIP3    H2 8740   0.118   0.570   1.361  0.1272  0.4477 -0.0524
 2912TIP3   OH2 8741   0.527   0.184   2.677  0.2784 -0.1645 -0.3216
 2912TIP3    H1 8742   0.579   0.113   2.716  0.3444 -0.2622 -0.5874
 2912TIP3    H2 8743   0.499   0.149   2.593  0.0075 -0.0084 -0.2948
 2913TIP3   OH2 8744   4.392   0.128   3.284  1.2631  0.1258  0.3004
 2913TIP3    H1 8745   4.411   0.151   3.193 -1.4392  0.2038 -0.3399
 2913TIP3    H2 8746   4.439   0.046   3.299  0.8298 -0.4954 -1.5542
 2914TIP3   OH2 8747   5.771   1.397   2.417 -0.2089 -0.2917  0.1504
 2914TIP3    H1 8748   5.684   1.430   2.440 -0.1624  0.0604 -0.1742
 2914TIP3    H2 8749   5.755   1.309   2.385 -0.3173 -0.6656  1.1817
 2915TIP3   OH2 8750   6.313   2.763   4.676 -0.3163 -0.0874  0.0679
 2915TIP3    H1 8751   6.301   2.848   4.719  0.8961  0.5670 -0.7974
 2915TIP3    H2 8752   6.270   2.773   4.592  0.3790 -0.0832 -0.2973
 2916TIP3   OH2 8753   0.000   0.286   2.101 -0.1967  0.3573 -0.3463
 2916TIP3    H1 8754   0.091   0.292   2.071  0.2236 -1.1043  0.5412
 2916TIP3    H2 8755  -0.051   0.308   2.023  0.9058  0.3618 -1.1038
 2917TIP3   OH2 8756   3.600   1.572   0.090 -0.1042  0.1597 -0.3102
 2917TIP3    H1 8757   3.690   1.559   0.119 -0.5268 -0.5282  0.7598
 2917TIP3    H2 8758   3.593   1.523   0.008  0.5191  0.3156 -0.4578
 2918TIP3   OH2 8759   0.454   1.179   0.521 -0.1804  0.0401  0.5231
 2918TIP3    H1 8760   0.401   1.257   0.531 -0.1650  0.0958  0.1946
 2918TIP3    H2 8761   0.540   1.203   0.555 -0.5004 -0.2110  1.5294
 2919TIP3   OH2 8762   6.045   3.981   4.114  0.3869 -0.0009  0.0601
 2919TIP3    H1 8763   5.982   3.910   4.122  0.9031 -0.4711 -0.0203
 2919TIP3    H2 8764   5.991   4.060   4.108 -0.1805 -0.2786  1.1409
 2920TIP3   OH2 8765   0.236   0.864   4.210 -0.3900  0.3283  0.1293
 2920TIP3    H1 8766   0.236   0.791   4.272  1.3713  0.1934  0.0123
 2920TIP3    H2 8767   0.156   0.851   4.158 -0.4440 -1.1301  0.5397
 2921TIP3   OH2 8768   3.167   0.299   1.707  0.1424  0.1501 -0.1246
 2921TIP3    H1 8769   3.104   0.236   1.673  0.8635  0.1486 -1.5603
 2921TIP3    H2 8770   3.252   0.260   1.688  0.5909  0.6993  0.6839
 2922TIP3   OH2 8771   0.084   1.741   4.589  0.9399  0.8930 -0.6427
 2922TIP3    H1 8772   0.050   1.654   4.609 -2.3067  2.1257 -0.1301
 2922TIP3    H2 8773   0.087   1.744   4.493  1.4858  0.0910 -0.6575
 2923TIP3   OH2 8774   0.987   2.426   3.004  0.0133  0.3626 -0.2304
 2923TIP3    H1 8775   0.985   2.341   3.048 -0.4948  0.4359 -0.1065
 2923TIP3    H2 8776   0.970   2.407   2.912  3.0250 -0.0221 -0.8091
 2924TIP3   OH2 8777   4.148   5.408   3.318 -0.5415 -0.1553 -0.1587
 2924TIP3    H1 8778   4.157   5.432   3.410  0.4995  0.5795 -0.4412
 2924TIP3    H2 8779   4.192   5.323   3.312  1.6686  0.9420 -0.4450
 2925TIP3   OH2 8780   2.981   1.075   0.152 -0.5336  0.1272 -0.7189
 2925TIP3    H1 8781   3.014   0.990   0.182  1.1183  0.7868 -0.5448
 2925TIP3    H2 8782   3.015   1.083   0.063 -0.5604  0.6503 -0.6854
 2926TIP3   OH2 8783   3.127   2.502   1.711  0.3130 -0.5544  0.1939
 2926TIP3    H1 8784   3.199   2.564   1.711 -0.5317  0.5164  2.2428
 2926TIP3    H2 8785   3.167   2.419   1.685  1.6523  0.5989 -1.6863
 2927TIP3   OH2 8786   2.154   2.829   3.103  0.8398  0.2714  0.4233
 2927TIP3    H1 8787   2.196   2.764   3.161  0.2238 -0.9754 -0.4837
 2927TIP3    H2 8788   2.209   2.829   3.025 -0.9264 -1.6408 -0.9287
 2928TIP3   OH2 8789   0.610   3.287   2.595  0.3158  0.0402  0.1255
 2928TIP3    H1 8790   0.582   3.244   2.514 -0.6372 -1.6279  1.2652
 2928TIP3    H2 8791   0.680   3.232   2.629 -1.8348 -1.5350  2.3062
 2929TIP3   OH2 8792   0.648   3.380   3.374 -0.2950 -0.5502  0.1264
 2929TIP3    H1 8793   0.645   3.285   3.363  0.3414 -0.5224 -0.3284
 2929TIP3    H2 8794   0.741   3.400   3.385 -0.4529 -0.0093  0.5146
 2930TIP3   OH2 8795   3.573   2.069   0.763  0.1275 -0.5110  0.5068
 2930TIP3    H1 8796   3.509   2.019   0.712  2.0264 -1.0803 -1.4934
 2930TIP3    H2 8797   3.577   2.155   0.719  2.5794 -1.3702 -1.1971
 2931TIP3   OH2 8798   3.171   0.866   1.451 -0.2426  0.3417  0.2337
 2931TIP3    H1 8799   3.217   0.950   1.445  0.8516 -0.1679  1.0659
 2931TIP3    H2 8800   3.237   0.801   1.426 -0.3940 -0.4298  1.7279
 2932TIP3   OH2 8801   0.588   5.702   1.182  0.5741  0.6405  0.1004
 2932TIP3    H1 8802   0.547   5.788   1.194 -0.2632  0.5299 -1.7016
 2932TIP3    H2 8803   0.621   5.703   1.092 -1.5366 -1.7005 -0.8387
 2933TIP3   OH2 8804   1.944   4.653   5.001  0.1498  0.0920 -0.3547
 2933TIP3    H1 8805   1.878   4.718   4.976  0.0179  0.3872  0.7058
 2933TIP3    H2 8806   2.007   4.702   5.054 -0.0496 -0.6715  0.6201
 2934TIP3   OH2 8807   2.796   0.212   4.503 -0.4449 -0.1201 -0.0337
 2934TIP3    H1 8808   2.755   0.128   4.483 -4.0669  1.7896 -1.7379
 2934TIP3    H2 8809   2.763   0.235   4.590  0.1704 -0.2363  0.2355
 2935TIP3   OH2 8810   1.975   0.737   4.172 -0.5824  0.8734 -0.0557
 2935TIP3    H1 8811   1.947   0.662   4.119 -3.0435  2.1108 -0.6497
 2935TIP3    H2 8812   2.039   0.782   4.117 -0.8086  0.4411 -0.6863
 2936TIP3   OH2 8813   2.454   3.942   1.047 -0.0264  0.1153 -0.3956
 2936TIP3    H1 8814   2.535   3.918   1.001 -1.0104 -0.3971 -1.9467
 2936TIP3    H2 8815   2.424   4.021   1.002 -0.3193  0.3715  0.2509
 2937TIP3   OH2 8816   0.531   2.910   4.842 -0.7016 -0.3063 -0.2178
 2937TIP3    H1 8817   0.497   2.922   4.753 -1.9504 -1.1797  0.1223
 2937TIP3    H2 8818   0.461   2.942   4.899  0.0570  0.1684  0.4779
 2938TIP3   OH2 8819   4.588   4.509   3.470  0.6743  0.0994 -0.0053
 2938TIP3    H1 8820   4.653   4.485   3.404 -0.2838 -0.2700 -0.8261
 2938TIP3    H2 8821   4.506   4.516   3.422 -0.2359 -1.1193  1.3135
 2939TIP3   OH2 8822   1.985   0.643   1.131 -0.1617 -0.0580 -0.4393
 2939TIP3    H1 8823   2.046   0.705   1.092 -0.3125 -0.3980 -1.2508
 2939TIP3    H2 8824   1.913   0.697   1.164  1.2199  0.4856  1.8576
 2940TIP3   OH2 8825   0.324   3.519   1.783 -0.4494 -0.1230 -0.0647
 2940TIP3    H1 8826   0.251   3.459   1.765 -0.8642  0.3011  0.1666
 2940TIP3    H2 8827   0.371   3.478   1.856 -0.5744 -0.2998 -0.0812
 2941TIP3   OH2 8828   3.429   2.106   2.610 -0.2275 -0.3575  0.1261
 2941TIP3    H1 8829   3.469   2.147   2.533 -0.0886 -1.6483 -0.5213
 2941TIP3    H2 8830   3.500   2.102   2.674 -0.4822  1.1977  0.5375
 2942TIP3   OH2 8831   0.333   3.667   0.067  0.0099 -0.3157 -0.0817
 2942TIP3    H1 8832   0.371   3.594   0.117  1.4425  0.1214 -0.4814
 2942TIP3    H2 8833   0.365   3.746   0.111  2.5546  0.1326 -2.3991
 2943TIP3   OH2 8834   0.828   4.980   3.818  0.0328 -0.8347 -0.1062
 2943TIP3    H1 8835   0.746   4.993   3.866 -0.4533 -2.7956 -0.3443
 2943TIP3    H2 8836   0.896   4.991   3.883 -0.3554  1.1353  0.0363
 2944TIP3   OH2 8837   0.836   3.080   3.716  0.0926 -0.2934  0.3980
 2944TIP3    H1 8838   0.783   3.156   3.741  0.4302  0.8324 -2.0485
 2944TIP3    H2 8839   0.924   3.115   3.705  0.2868 -1.0759 -0.6081
 2945TIP3   OH2 8840   4.985   1.479   2.374  0.0785  0.2780  0.0726
 2945TIP3    H1 8841   5.007   1.476   2.468  0.1591 -1.3597  0.0336
 2945TIP3    H2 8842   4.957   1.390   2.354 -1.8045  1.0785 -1.0427
 2946TIP3   OH2 8843   0.738   4.986   2.057 -0.0695 -0.3856  0.2749
 2946TIP3    H1 8844   0.727   4.921   1.987 -1.0440  0.3914 -0.3212
 2946TIP3    H2 8845   0.829   5.014   2.049  0.0994 -1.0192 -0.0598
 2947TIP3   OH2 8846   5.100   4.617   3.732  0.2958 -0.0032  0.1385
 2947TIP3    H1 8847   5.131   4.608   3.642  0.0511  0.4749  0.0070
 2947TIP3    H2 8848   5.025   4.558   3.737  0.4664 -0.2250  0.1043
 2948TIP3   OH2 8849   5.956   0.283   3.173 -1.2122  0.5976  0.3772
 2948TIP3    H1 8850   5.889   0.344   3.140 -0.0037  0.6991 -2.1200
 2948TIP3    H2 8851   5.923   0.197   3.147 -0.8844  0.5600  0.0866
 2949TIP3   OH2 8852   4.690   2.881   1.764  0.3788  0.0975  0.1908
 2949TIP3    H1 8853   4.744   2.878   1.843  1.9968  2.3040 -0.7520
 2949TIP3    H2 8854   4.735   2.941   1.705 -2.8905  1.8058 -0.8420
 2950TIP3   OH2 8855   1.711   2.789   1.281  0.5208  0.1976 -0.0992
 2950TIP3    H1 8856   1.758   2.758   1.359  0.0459  0.4352  0.2909
 2950TIP3    H2 8857   1.771   2.850   1.239  1.3898 -1.0650 -0.7603
 2951TIP3   OH2 8858   4.164   0.610   3.053 -0.0594  0.3632  0.5468
 2951TIP3    H1 8859   4.251   0.622   3.013 -0.6170  1.5504 -0.3561
 2951TIP3    H2 8860   4.135   0.698   3.075 -0.9012 -0.0540  1.1524
 2952TIP3   OH2 8861   4.026   4.537   0.263  0.2944  0.0660  0.3129
 2952TIP3    H1 8862   4.036   4.516   0.170 -0.4060  1.5794 -0.1420
 2952TIP3    H2 8863   4.052   4.629   0.269 -0.2892  0.1707  1.5011
 2953TIP3   OH2 8864   5.676   2.434   1.428  0.1878 -0.0909  0.1466
 2953TIP3    H1 8865   5.618   2.504   1.398 -0.0730 -0.0212  0.7836
 2953TIP3    H2 8866   5.622   2.383   1.489 -0.1274 -1.7814 -1.4422
 2954TIP3   OH2 8867   4.578   2.791   3.402  0.6053 -0.1811 -0.4144
 2954TIP3    H1 8868   4.650   2.854   3.405  0.8766 -0.3212 -2.5092
 2954TIP3    H2 8869   4.598   2.735   3.328 -1.7149 -0.1526 -1.1577
 2955TIP3   OH2 8870   1.564   5.027   0.608  0.5190  0.0191  0.1871
 2955TIP3    H1 8871   1.471   5.013   0.625  0.4822  0.9085  0.8158
 2955TIP3    H2 8872   1.575   5.122   0.615  1.6165 -0.1435  0.8726
 2956TIP3   OH2 8873   1.152   3.915   0.170  0.3095  0.2090 -0.0487
 2956TIP3    H1 8874   1.130   3.842   0.227 -1.7582 -0.8403 -2.0029
 2956TIP3    H2 8875   1.241   3.940   0.194 -0.3000 -0.4346  3.2443
 2957TIP3   OH2 8876   3.981   0.246   2.727 -0.3172  0.4112 -0.2288
 2957TIP3    H1 8877   3.982   0.161   2.772 -1.0760  1.1198  1.2155
 2957TIP3    H2 8878   4.013   0.308   2.792  1.1410  1.1300 -1.5725
 2958TIP3   OH2 8879   0.470   0.253   3.632 -0.4245 -0.2780 -0.1369
 2958TIP3    H1 8880   0.411   0.329   3.637 -3.5291 -2.5383  0.1762
 2958TIP3    H2 8881   0.514   0.251   3.717  0.9295  1.9424 -0.6820
 2959TIP3   OH2 8882   5.771   5.736   1.110 -0.0529 -0.3498 -0.5503
 2959TIP3    H1 8883   5.690   5.697   1.142 -0.4038  0.5586 -0.3018
 2959TIP3    H2 8884   5.749   5.770   1.023  0.0990 -0.2023 -0.5314
 2960TIP3   OH2 8885   4.924   3.534   2.816 -0.2846  0.1881 -0.1503
 2960TIP3    H1 8886   4.835   3.515   2.785 -0.5750  0.9315  0.1944
 2960TIP3    H2 8887   4.981   3.503   2.746 -0.8910  1.0888 -1.0752
 2961TIP3   OH2 8888   2.006   1.033   2.807 -0.0941  0.0496  0.3088
 2961TIP3    H1 8889   1.992   0.938   2.806 -2.5970  0.3400 -0.5168
 2961TIP3    H2 8890   1.984   1.059   2.896  1.3611 -0.1915  0.7652
 2962TIP3   OH2 8891   4.169   0.872   2.283  0.5410  0.2220 -0.4103
 2962TIP3    H1 8892   4.242   0.809   2.285 -1.3356 -2.0782  0.6701
 2962TIP3    H2 8893   4.100   0.830   2.335 -0.8550  3.2253  0.3695
 2963TIP3   OH2 8894   2.972   4.865   0.835  0.2337 -0.0180 -0.5683
 2963TIP3    H1 8895   2.946   4.914   0.913  0.4735  0.2163 -0.6376
 2963TIP3    H2 8896   2.901   4.880   0.773 -0.6587 -1.3214  0.0736
 2964TIP3   OH2 8897   3.035   5.775   2.444 -0.0200 -0.5133  0.4306
 2964TIP3    H1 8898   3.029   5.848   2.382  1.5830  0.0192  0.8449
 2964TIP3    H2 8899   3.115   5.728   2.418 -0.2662 -1.2897  1.0403
 2965TIP3   OH2 8900   0.484   2.574   2.599  0.1357 -1.2458 -0.5246
 2965TIP3    H1 8901   0.454   2.574   2.508  0.8540  0.6339 -0.8027
 2965TIP3    H2 8902   0.579   2.585   2.593 -0.1231  3.4154  0.3961
 2966TIP3   OH2 8903   0.014   1.072   4.515 -0.4459 -0.5400  0.1314
 2966TIP3    H1 8904   0.078   1.142   4.503 -1.0361 -0.0814 -0.4456
 2966TIP3    H2 8905  -0.070   1.112   4.493 -0.7547 -1.5283 -0.5971
 2967TIP3   OH2 8906   2.377   3.916   4.161 -0.0319 -0.7072  0.2215
 2967TIP3    H1 8907   2.404   3.838   4.208 -1.1621 -0.4512  1.3479
 2967TIP3    H2 8908   2.413   3.989   4.212 -0.5806 -0.4500  0.2469
 2968TIP3   OH2 8909   2.529   4.546   2.059 -0.4211 -0.0246  0.1584
 2968TIP3    H1 8910   2.577   4.470   2.027 -1.1172 -0.8437  0.9900
 2968TIP3    H2 8911   2.476   4.574   1.985  0.8132  0.4627 -0.5530
 2969TIP3   OH2 8912   6.143   5.272   0.753 -0.6193 -0.0778  0.1845
 2969TIP3    H1 8913   6.141   5.181   0.726  1.7535 -0.0326 -0.3219
 2969TIP3    H2 8914   6.196   5.273   0.833  1.1030  1.0384 -0.9009
 2970TIP3   OH2 8915   5.661   0.072   0.554  0.1691 -0.2061 -0.2466
 2970TIP3    H1 8916   5.694   0.087   0.465 -0.3162  0.0364 -0.3889
 2970TIP3    H2 8917   5.569   0.097   0.550  0.2400  0.1840  0.4300
 2971TIP3   OH2 8918   4.777   1.066   1.340 -0.2200  0.3105  0.0698
 2971TIP3    H1 8919   4.739   1.153   1.332  0.5443  0.6812  0.3096
 2971TIP3    H2 8920   4.761   1.042   1.431 -1.9270 -0.5388 -0.4161
 2972TIP3   OH2 8921   1.031   2.155   1.150 -0.2662  0.1478  0.3557
 2972TIP3    H1 8922   0.981   2.222   1.198  1.0300  2.2158 -1.0059
 2972TIP3    H2 8923   0.977   2.136   1.073 -0.0133  0.7103  0.0297
 2973TIP3   OH2 8924   2.859   0.560   2.712  0.1841  0.3473  0.5532
 2973TIP3    H1 8925   2.816   0.499   2.772 -0.1735  0.3254  0.2782
 2973TIP3    H2 8926   2.887   0.506   2.638 -2.1477  0.8345 -0.7747
 2974TIP3   OH2 8927   3.834   4.468   5.126 -0.3861  0.6555  0.6692
 2974TIP3    H1 8928   3.745   4.490   5.155 -2.3476 -1.8440 -2.6523
 2974TIP3    H2 8929   3.863   4.544   5.076 -2.0278  0.4469 -0.7143
 2975TIP3   OH2 8930   2.588   1.122   3.217  0.0695 -0.3420 -0.3114
 2975TIP3    H1 8931   2.673   1.164   3.228 -1.2624  2.0465  1.7592
 2975TIP3    H2 8932   2.576   1.119   3.122  1.8852  0.5098 -0.6204
 2976TIP3   OH2 8933   2.563   1.079   2.697 -0.4030  0.3362  0.0511
 2976TIP3    H1 8934   2.611   1.079   2.614 -0.8207  0.7806 -0.1972
 2976TIP3    H2 8935   2.563   0.988   2.725 -0.8601  0.0721 -0.7856
 2977TIP3   OH2 8936   4.712   5.915   5.017  0.2689 -0.0369 -0.1595
 2977TIP3    H1 8937   4.744   5.956   5.097  0.4023  0.7784 -0.6225
 2977TIP3    H2 8938   4.765   5.954   4.947  0.1457 -0.7266 -0.6460
 2978TIP3   OH2 8939   1.236   5.080   1.217  0.2595 -0.0650  0.2429
 2978TIP3    H1 8940   1.243   5.139   1.292 -1.7274  0.7553 -0.1474
 2978TIP3    H2 8941   1.171   5.015   1.244  0.9864 -0.9385 -0.0649
 2979TIP3   OH2 8942   4.307   5.624   3.751 -0.1757  0.1307  0.0864
 2979TIP3    H1 8943   4.236   5.586   3.699  0.6684 -0.0736 -0.9460
 2979TIP3    H2 8944   4.340   5.696   3.697  0.4953  0.1351  0.4927
 2980TIP3   OH2 8945   0.412   5.851   5.022 -0.4023  0.0548 -0.1771
 2980TIP3    H1 8946   0.439   5.817   5.107  1.0534  3.3929  0.8709
 2980TIP3    H2 8947   0.367   5.933   5.042  1.5663  1.8928 -2.5743
 2981TIP3   OH2 8948   0.574   0.484   5.081 -0.0817  0.3681  0.2864
 2981TIP3    H1 8949   0.517   0.474   5.157 -1.1250  2.7618 -0.0622
 2981TIP3    H2 8950   0.563   0.576   5.055  2.0539  0.2503 -1.3314
 2982TIP3   OH2 8951   5.061   5.014   1.986 -0.6057  0.0837  0.0647
 2982TIP3    H1 8952   4.987   4.955   1.973 -1.3357  0.8190  0.8398
 2982TIP3    H2 8953   5.026   5.101   1.973  0.4896  0.3777 -1.1474
 2983TIP3   OH2 8954   5.687   5.012   2.157 -0.2045  0.1552  0.1424
 2983TIP3    H1 8955   5.598   5.019   2.193 -0.5544  1.9807 -0.9507
 2983TIP3    H2 8956   5.697   5.090   2.103  1.7879 -0.4379 -0.4229
 2984TIP3   OH2 8957   3.662   5.089   2.226  0.1003  0.0798 -0.7943
 2984TIP3    H1 8958   3.732   5.071   2.289 -1.9162 -0.9289  1.3196
 2984TIP3    H2 8959   3.645   5.004   2.184 -1.1191 -0.1771  0.1531
 2985TIP3   OH2 8960   1.689   5.376   4.576  0.5204 -0.2981 -0.1161
 2985TIP3    H1 8961   1.601   5.393   4.610  0.8852  1.5505  0.0555
 2985TIP3    H2 8962   1.684   5.403   4.484  0.5724 -1.4837 -0.4775
 2986TIP3   OH2 8963   5.889   2.540   3.593  0.1569 -0.1883 -0.0695
 2986TIP3    H1 8964   5.810   2.583   3.625  1.0773 -0.3920  2.7781
 2986TIP3    H2 8965   5.956   2.609   3.598  1.0016 -1.0653  1.6761
 2987TIP3   OH2 8966   2.507   3.154   0.514 -0.3825  0.2512  0.2710
 2987TIP3    H1 8967   2.512   3.190   0.603 -1.1242  0.3788  0.2687
 2987TIP3    H2 8968   2.548   3.220   0.459 -0.5728  0.5007  0.4292
 2988TIP3   OH2 8969   2.624   5.148   3.846  0.1564 -0.1861  0.2743
 2988TIP3    H1 8970   2.687   5.092   3.891  1.3282 -0.0956 -1.1670
 2988TIP3    H2 8971   2.571   5.088   3.793 -0.5173 -0.1907  0.9372
 2989TIP3   OH2 8972   2.166   1.181   2.105  0.0678  0.7277 -0.8240
 2989TIP3    H1 8973   2.074   1.169   2.082  0.3065 -0.7556 -1.0489
 2989TIP3    H2 8974   2.207   1.212   2.025 -0.1390  0.9145 -0.8588
 2990TIP3   OH2 8975   3.683   5.089   4.599 -0.1661 -0.2650  0.1180
 2990TIP3    H1 8976   3.642   5.163   4.554  0.8820  0.9841  1.1366
 2990TIP3    H2 8977   3.743   5.051   4.535 -0.9377 -0.4468 -0.5086
 2991TIP3   OH2 8978   2.740   0.550   4.804 -0.1570  0.2020  0.4316
 2991TIP3    H1 8979   2.793   0.629   4.818  0.9097 -0.8248  2.4959
 2991TIP3    H2 8980   2.649   0.581   4.807  0.2472  1.3894  0.8414
 2992TIP3   OH2 8981   0.562   4.417   3.404  0.0771  0.2703  0.0987
 2992TIP3    H1 8982   0.569   4.508   3.432 -1.4678  1.2125 -2.2018
 2992TIP3    H2 8983   0.472   4.393   3.424  1.1457 -1.7728  3.1332
 2993TIP3   OH2 8984   4.670   3.559   2.699 -0.2167  0.1830 -0.1834
 2993TIP3    H1 8985   4.657   3.653   2.683 -1.8938  0.8290  3.6874
 2993TIP3    H2 8986   4.585   3.520   2.679  0.0263 -0.2673 -0.3385
 2994TIP3   OH2 8987   5.919   1.204   1.142  0.3192  0.2199 -0.2973
 2994TIP3    H1 8988   5.974   1.129   1.165  0.0240  0.4678  1.3773
 2994TIP3    H2 8989   5.976   1.280   1.152  0.5343  0.2681 -1.6981
 2995TIP3   OH2 8990   5.083   3.881   3.502  0.1242 -0.0532 -0.3573
 2995TIP3    H1 8991   5.009   3.937   3.477  0.0169 -0.5558 -1.2121
 2995TIP3    H2 8992   5.159   3.923   3.463  0.0466 -0.4740 -0.9808
 2996TIP3   OH2 8993   3.872   3.164   2.834 -0.6378  0.0801  0.2624
 2996TIP3    H1 8994   3.936   3.202   2.895  0.1104 -0.1828 -0.3477
 2996TIP3    H2 8995   3.788   3.200   2.863 -0.2087  0.5115  1.0164
 2997TIP3   OH2 8996   1.216   3.010   5.145 -0.2743 -0.2683  0.0113
 2997TIP3    H1 8997   1.144   2.953   5.117 -0.5403  0.4059 -0.6906
 2997TIP3    H2 8998   1.176   3.068   5.210 -0.2218 -0.2773  0.0518
 2998TIP3   OH2 8999   1.088   1.358   3.879  0.2937 -0.1475  0.2971
 2998TIP3    H1 9000   1.083   1.370   3.974 -1.5746  0.8397  0.1211
 2998TIP3    H2 9001   1.028   1.285   3.861 -0.3383  0.4922 -0.2431
 2999TIP3   OH2 9002   5.539   3.366   1.371  0.4551  0.4652 -0.6016
 2999TIP3    H1 9003   5.533   3.309   1.448 -1.4403 -0.2388 -1.2024
 2999TIP3    H2 9004   5.610   3.328   1.319  0.1722 -0.5044 -0.3138
 3000TIP3   OH2 9005   3.477   4.855   1.051  0.2742 -0.4301 -0.2408
 3000TIP3    H1 9006   3.415   4.828   1.118 -0.9048 -0.4246 -1.2932
 3000TIP3    H2 9007   3.532   4.920   1.095 -1.6238  0.9420  0.2509
 3001TIP3   OH2 9008   1.597   5.297   0.645  0.1643 -0.1886 -0.3785
 3001TIP3    H1 9009   1.664   5.362   0.622  1.6363 -1.8580 -1.0887
 3001TIP3    H2 9010   1.514   5.343   0.638  1.1849  1.7105 -0.4395
 3002TIP3   OH2 9011   4.162   5.758   2.676 -1.2815 -0.2301  0.1040
 3002TIP3    H1 9012   4.150   5.697   2.603 -0.6168 -0.1019 -0.1112
 3002TIP3    H2 9013   4.155   5.703   2.754 -0.2733 -0.6588 -0.0972
 3003TIP3   OH2 9014   0.112   2.529   0.951 -0.3638  0.4517 -0.4470
 3003TIP3    H1 9015   0.042   2.466   0.968 -0.6811 -0.2379 -3.6135
 3003TIP3    H2 9016   0.067   2.614   0.944 -0.5668  0.3543 -0.3330
 3004TIP3   OH2 9017   5.110   4.945   4.336  0.6654  0.3358  0.2773
 3004TIP3    H1 9018   5.203   4.923   4.334  0.9261  1.3720 -1.6483
 3004TIP3    H2 9019   5.066   4.866   4.304  0.9600  0.1801  0.2561
 3005TIP3   OH2 9020   0.853   4.702   0.818 -0.4702  0.1766 -0.4261
 3005TIP3    H1 9021   0.886   4.701   0.728  0.7576 -0.6259 -0.0058
 3005TIP3    H2 9022   0.932   4.710   0.872 -1.1583  0.2947  0.5875
 3006TIP3   OH2 9023   3.267   2.066   3.902 -0.4272 -0.2113  0.0895
 3006TIP3    H1 9024   3.357   2.043   3.882 -0.2680 -0.2961  0.8486
 3006TIP3    H2 9025   3.216   1.988   3.881 -0.0861 -0.7847  1.2666
 3007TIP3   OH2 9026   1.317   0.640   2.387  0.2967 -0.1747  0.4148
 3007TIP3    H1 9027   1.254   0.667   2.453  0.4887  0.2216  0.4400
 3007TIP3    H2 9028   1.398   0.685   2.412  0.4220 -0.1810  0.0279
 3008TIP3   OH2 9029   0.648   4.646   3.168  0.1734  0.2930  0.4263
 3008TIP3    H1 9030   0.609   4.677   3.250  0.0646 -1.5331  1.1284
 3008TIP3    H2 9031   0.729   4.602   3.195 -0.4305 -1.3318 -0.2594
 3009TIP3   OH2 9032   4.144   5.422   4.278 -0.4910 -0.6505  0.1264
 3009TIP3    H1 9033   4.155   5.429   4.372  0.9234  1.8203 -0.1386
 3009TIP3    H2 9034   4.158   5.329   4.259  0.9530 -0.9174  2.1449
 3010TIP3   OH2 9035   0.672   5.270   4.714  0.6457 -0.5167  0.4672
 3010TIP3    H1 9036   0.727   5.348   4.720  0.3630 -0.2707 -0.0768
 3010TIP3    H2 9037   0.587   5.299   4.748  0.9647 -1.0224  1.7554
 3011TIP3   OH2 9038   4.830   3.027   0.609 -0.0127  0.1127  0.0247
 3011TIP3    H1 9039   4.843   3.043   0.515  0.1505  1.2669  0.2324
 3011TIP3    H2 9040   4.735   3.018   0.619 -0.0560  0.2878 -0.2076
 3012TIP3   OH2 9041   1.399   2.548   3.309  0.1782  0.5013  0.0101
 3012TIP3    H1 9042   1.328   2.567   3.248  0.4208  0.7928 -0.1863
 3012TIP3    H2 9043   1.361   2.564   3.396 -0.2015 -0.0303 -0.0555
 3013TIP3   OH2 9044   4.435   3.997   0.936  0.4952 -0.4738 -0.8910
 3013TIP3    H1 9045   4.403   3.908   0.923 -0.0434 -0.2354 -1.2330
 3013TIP3    H2 9046   4.488   3.992   1.016 -1.0362 -0.7247  0.1663
 3014TIP3   OH2 9047   3.154   0.042   1.044  0.2924  0.2865 -0.0139
 3014TIP3    H1 9048   3.175   0.090   1.124  1.5529 -1.9795  1.0950
 3014TIP3    H2 9049   3.239   0.027   1.002 -0.3702  1.7043 -2.0036
 3015TIP3   OH2 9050   4.965   3.073   2.856 -0.2159 -0.2140 -0.1353
 3015TIP3    H1 9051   5.018   3.153   2.856  0.8989 -0.8943 -1.8140
 3015TIP3    H2 9052   5.010   3.015   2.917  0.1498 -0.2689 -0.4529
 3016TIP3   OH2 9053   3.873   1.928   4.934 -0.8006 -0.0649 -0.1573
 3016TIP3    H1 9054   3.898   2.009   4.889  0.6975  0.9480  2.2916
 3016TIP3    H2 9055   3.955   1.882   4.948 -1.5378 -1.6143 -0.7001
 3017TIP3   OH2 9056   1.214   3.712   4.269 -0.6368 -0.1054 -0.2542
 3017TIP3    H1 9057   1.146   3.644   4.269 -0.0670 -0.7617 -2.1507
 3017TIP3    H2 9058   1.168   3.791   4.241 -1.1868  0.1968  1.3974
 3018TIP3   OH2 9059   4.072   5.463   2.021  0.2167  0.1514 -0.0930
 3018TIP3    H1 9060   4.030   5.436   1.939 -0.6815 -0.3476  0.5224
 3018TIP3    H2 9061   4.159   5.423   2.017 -0.2470 -0.8791 -0.2638
 3019TIP3   OH2 9062   3.118   2.216   2.756  0.5950  0.2706  0.6027
 3019TIP3    H1 9063   3.193   2.168   2.722  0.7250  0.4789  0.5923
 3019TIP3    H2 9064   3.156   2.281   2.816  0.3392 -0.4269  1.5447
 3020TIP3   OH2 9065   5.498   5.639   4.094  0.1194  0.2002  0.1676
 3020TIP3    H1 9066   5.522   5.551   4.065 -1.0045 -0.1253  0.1636
 3020TIP3    H2 9067   5.538   5.647   4.181 -2.2441 -1.5421  1.5549
 3021TIP3   OH2 9068   5.213   1.547   3.709  1.0826  0.3058 -0.3304
 3021TIP3    H1 9069   5.134   1.514   3.752  1.2713 -1.1869 -1.0588
 3021TIP3    H2 9070   5.228   1.632   3.749  0.3296 -0.3094  1.3693
 3022TIP3   OH2 9071   2.286   6.006   4.217  0.1457 -0.1214  0.0012
 3022TIP3    H1 9072   2.303   5.993   4.124  0.2049 -0.8641  0.1066
 3022TIP3    H2 9073   2.262   5.919   4.249 -0.0072  0.1549  0.6507
 3023TIP3   OH2 9074   5.109   2.914   3.322 -0.3409 -0.1272  0.3781
 3023TIP3    H1 9075   5.109   2.933   3.228  2.9198  1.1575  0.5023
 3023TIP3    H2 9076   5.190   2.953   3.354 -1.6731  0.1068  3.9058
 3024TIP3   OH2 9077   3.096   2.805   5.055  0.6329  0.6735  0.4698
 3024TIP3    H1 9078   3.092   2.883   5.000 -0.4077  0.5980  0.4188
 3024TIP3    H2 9079   3.009   2.800   5.096  0.3248 -1.0226 -0.3255
 3025TIP3   OH2 9080   1.370   2.756   2.131  0.3673  0.3180  0.5683
 3025TIP3    H1 9081   1.370   2.668   2.092 -0.8832  0.2935  0.5961
 3025TIP3    H2 9082   1.293   2.799   2.093  0.8290  1.3248  0.7508
 3026TIP3   OH2 9083   0.947   2.385   4.196 -0.0854 -0.0339  0.2300
 3026TIP3    H1 9084   0.864   2.424   4.224  0.2205 -0.2526  1.5168
 3026TIP3    H2 9085   1.014   2.442   4.234  0.3616 -0.0840 -0.4707
 3027TIP3   OH2 9086   2.810   2.579   3.775  0.0780 -0.3550 -0.1705
 3027TIP3    H1 9087   2.877   2.637   3.739 -1.0724  0.7615 -0.5910
 3027TIP3    H2 9088   2.857   2.497   3.792  1.9535  0.9142  1.2191
 3028TIP3   OH2 9089   4.662   5.152   1.180  0.7767  0.3705  0.7205
 3028TIP3    H1 9090   4.630   5.090   1.116 -3.9033  1.3742  1.6755
 3028TIP3    H2 9091   4.651   5.108   1.264  2.0221  0.8439  1.1612
 3029TIP3   OH2 9092   5.409   4.039   1.956  0.0925  0.1966 -0.1973
 3029TIP3    H1 9093   5.468   4.102   1.915 -0.6100  3.0549  2.7810
 3029TIP3    H2 9094   5.322   4.073   1.938 -0.3962 -0.8555  0.1327
 3030TIP3   OH2 9095   2.582   0.302   1.438  0.0983 -0.5750 -0.2262
 3030TIP3    H1 9096   2.673   0.317   1.463  0.3847 -0.5856 -1.2352
 3030TIP3    H2 9097   2.557   0.379   1.388 -1.4231  0.8590  2.4912
 3031TIP3   OH2 9098   5.102   3.756   2.199 -0.0636  0.3786 -0.0583
 3031TIP3    H1 9099   5.121   3.847   2.221 -0.4144  0.3725  0.2768
 3031TIP3    H2 9100   5.081   3.714   2.282 -0.6863  0.1855 -0.3029
 3032TIP3   OH2 9101   2.148   2.876   4.403 -0.4382  0.1779  0.3084
 3032TIP3    H1 9102   2.143   2.924   4.486  1.5819  0.7996  0.1223
 3032TIP3    H2 9103   2.120   2.940   4.337 -0.1808  0.3069  0.3222
 3033TIP3   OH2 9104   0.561   5.349   0.089 -0.0378  0.0300  0.4852
 3033TIP3    H1 9105   0.472   5.317   0.076  0.3423 -0.5557 -0.8740
 3033TIP3    H2 9106   0.613   5.304   0.021  1.0597  1.2931  0.4474
 3034TIP3   OH2 9107   0.453   1.658   4.859  0.2252 -0.2309 -0.2819
 3034TIP3    H1 9108   0.529   1.628   4.908  0.1931  1.1362  0.6644
 3034TIP3    H2 9109   0.378   1.625   4.908  0.1999  0.6094  0.2627
 3035TIP3   OH2 9110   5.784   1.456   4.306  0.0627  0.0258 -0.9827
 3035TIP3    H1 9111   5.836   1.493   4.379  0.8539 -0.2233 -1.4047
 3035TIP3    H2 9112   5.843   1.461   4.231 -0.3630 -0.7179 -1.3723
 3036TIP3   OH2 9113   2.888   0.488   0.683 -0.3180  0.2986  0.4068
 3036TIP3    H1 9114   2.856   0.398   0.682 -0.5889  0.3854  0.7810
 3036TIP3    H2 9115   2.921   0.500   0.772  0.3498  0.3544  0.1592
 3037TIP3   OH2 9116   1.833   0.625   1.718 -0.3817 -0.4978  0.0214
 3037TIP3    H1 9117   1.738   0.620   1.732  0.0508 -2.2971  3.1418
 3037TIP3    H2 9118   1.866   0.676   1.791  1.2581 -1.9005  0.3273
 3038TIP3   OH2 9119   5.838   4.753   4.904  0.6710 -0.1822  0.5052
 3038TIP3    H1 9120   5.809   4.812   4.974  1.6271  1.6232 -0.5347
 3038TIP3    H2 9121   5.759   4.729   4.857  0.4481  2.4445 -0.6281
 3039TIP3   OH2 9122   4.835   4.508   0.851 -0.1644 -0.5321 -0.2776
 3039TIP3    H1 9123   4.765   4.573   0.857  2.0075  2.0722 -1.2171
 3039TIP3    H2 9124   4.789   4.424   0.848 -3.1189  0.8712  1.2997
 3040TIP3   OH2 9125   2.248   3.219   3.395 -0.0500 -0.0964  0.1605
 3040TIP3    H1 9126   2.328   3.202   3.345 -0.3686  1.1037 -0.8008
 3040TIP3    H2 9127   2.179   3.177   3.344 -0.2725  0.4655 -0.0070
 3041TIP3   OH2 9128   4.493   2.767   0.139 -0.5900 -0.1013  0.3848
 3041TIP3    H1 9129   4.583   2.759   0.108 -0.8665  2.3791 -1.3719
 3041TIP3    H2 9130   4.470   2.680   0.169  2.4299 -0.7769  1.0649
 3042TIP3   OH2 9131   5.604   1.010   2.924  0.1886  0.1518 -0.5571
 3042TIP3    H1 9132   5.557   1.020   3.006  1.8813 -2.3254  0.8605
 3042TIP3    H2 9133   5.656   1.090   2.915  0.0562  0.4076  0.8621
 3043TIP3   OH2 9134   2.470   1.878   3.049  0.2383 -0.0723 -0.7114
 3043TIP3    H1 9135   2.422   1.924   2.980  0.1474  0.2381 -0.4451
 3043TIP3    H2 9136   2.402   1.841   3.105  0.2705  1.3770  0.3435
 3044TIP3   OH2 9137   5.434   3.850   2.506  0.1137 -0.7478 -0.7671
 3044TIP3    H1 9138   5.428   3.901   2.425  0.2096 -0.8715 -0.8523
 3044TIP3    H2 9139   5.344   3.822   2.524  0.1173 -0.8538 -0.9167
 3045TIP3   OH2 9140   0.025   2.289   4.415 -0.2858  0.5173  0.1902
 3045TIP3    H1 9141   0.032   2.291   4.320 -0.8348 -1.3761  0.0653
 3045TIP3    H2 9142   0.101   2.238   4.443  0.2193  1.6040  0.8266
 3046TIP3   OH2 9143   4.947   4.592   2.270  0.1397 -0.0565 -0.1948
 3046TIP3    H1 9144   4.952   4.587   2.175  0.0821  3.8811 -0.5728
 3046TIP3    H2 9145   4.883   4.661   2.287 -1.0268 -1.6972  2.8043
 3047TIP3   OH2 9146   0.839   4.132   4.779  0.2468 -0.3431  0.3679
 3047TIP3    H1 9147   0.843   4.225   4.759  1.1407 -0.3490  0.4981
 3047TIP3    H2 9148   0.927   4.110   4.810 -0.5484 -0.7414  2.5450
 3048TIP3   OH2 9149   2.645   3.771   3.497  0.3938  0.2499 -0.1536
 3048TIP3    H1 9150   2.726   3.816   3.520  0.0661  0.1034  1.3989
 3048TIP3    H2 9151   2.575   3.832   3.525 -0.0451 -0.9039  1.4296
 3049TIP3   OH2 9152   2.180   4.952   2.014  0.3487 -0.0070 -0.2051
 3049TIP3    H1 9153   2.164   4.857   2.013  0.8212 -0.0933 -1.6206
 3049TIP3    H2 9154   2.103   4.989   1.973 -0.2487  0.3290  1.1512
 3050TIP3   OH2 9155   2.587   1.346   2.621  0.4089 -0.1299  0.1653
 3050TIP3    H1 9156   2.652   1.345   2.691  2.0402  1.1581 -1.2468
 3050TIP3    H2 9157   2.545   1.260   2.626  3.5502 -1.8151 -0.0374
 3051TIP3   OH2 9158   1.201   0.740   1.491 -0.2975 -0.2169  0.2880
 3051TIP3    H1 9159   1.133   0.720   1.554 -0.5864 -0.3621 -0.0676
 3051TIP3    H2 9160   1.243   0.819   1.525 -1.2755  0.4438  0.0120
 3052TIP3   OH2 9161   5.633   4.606   3.622  0.5171  0.2815 -0.0684
 3052TIP3    H1 9162   5.609   4.624   3.530  2.5008 -1.1967 -0.9403
 3052TIP3    H2 9163   5.724   4.577   3.618 -0.1965 -2.6679  2.0214
 3053TIP3   OH2 9164   2.500   2.498   5.103 -0.0425  0.5344 -0.0609
 3053TIP3    H1 9165   2.549   2.441   5.044 -2.1103  0.4831 -1.8766
 3053TIP3    H2 9166   2.408   2.471   5.092 -0.7435  2.0849  1.4530
 3054TIP3   OH2 9167   0.207   4.440   3.943  0.1401  0.1142  0.1948
 3054TIP3    H1 9168   0.177   4.354   3.913 -0.1266 -1.0999  3.4617
 3054TIP3    H2 9169   0.204   4.434   4.039  2.5646  2.9145  0.6054
 3055TIP3   OH2 9170   6.388   1.137   3.696  0.1891  0.0673 -0.2264
 3055TIP3    H1 9171   6.346   1.216   3.729  0.1914 -0.8027  1.9756
 3055TIP3    H2 9172   6.316   1.080   3.669  0.1535  0.3975 -0.8453
 3056TIP3   OH2 9173   6.084   1.207   3.726 -0.2698 -0.2177  0.0577
 3056TIP3    H1 9174   6.006   1.254   3.756  0.0673 -0.0638  0.7086
 3056TIP3    H2 9175   6.082   1.217   3.630 -0.4437  0.7395  0.1500
 3057TIP3   OH2 9176   3.498   3.772   1.105 -0.5702  0.1099  0.0779
 3057TIP3    H1 9177   3.515   3.708   1.036 -1.0841  0.0789 -0.0229
 3057TIP3    H2 9178   3.574   3.766   1.163  0.3310  0.8119 -0.9879
 3058TIP3   OH2 9179   6.165   0.769   4.286  0.3199  0.5970  0.0892
 3058TIP3    H1 9180   6.140   0.764   4.378  1.3020  0.1391  0.3352
 3058TIP3    H2 9181   6.162   0.679   4.255  0.5675  0.6818 -0.1788
 3059TIP3   OH2 9182   1.364   5.219   2.919  0.1062  0.0368  0.0819
 3059TIP3    H1 9183   1.438   5.159   2.910  0.7805  0.6066  1.5762
 3059TIP3    H2 9184   1.403   5.307   2.913 -0.3853  0.3469  1.1281
 3060TIP3   OH2 9185   3.840   4.855   0.361 -0.4744 -0.0339 -0.0698
 3060TIP3    H1 9186   3.922   4.859   0.409  0.4019 -3.1407 -1.0240
 3060TIP3    H2 9187   3.782   4.801   0.415 -1.5039  1.1145  0.0316
 3061TIP3   OH2 9188   1.590   4.812   2.185  0.0931  0.4262  0.3523
 3061TIP3    H1 9189   1.612   4.859   2.104 -0.4801  0.8190  0.4186
 3061TIP3    H2 9190   1.672   4.769   2.210 -0.0673 -0.9303 -1.2303
 3062TIP3   OH2 9191   4.710   3.536   1.150 -0.0262  0.0015 -0.1354
 3062TIP3    H1 9192   4.669   3.488   1.078  0.8075  0.0976 -0.6960
 3062TIP3    H2 9193   4.644   3.537   1.219 -1.3518  0.9837 -1.3361
 3063TIP3   OH2 9194   4.693   0.880   0.101  0.4881  0.4053 -0.0688
 3063TIP3    H1 9195   4.723   0.953   0.046  1.9413 -0.4718 -0.5076
 3063TIP3    H2 9196   4.725   0.901   0.188  0.5331  0.5046 -0.1083
 3064TIP3   OH2 9197   4.277   1.697   1.949 -0.1076 -0.3817 -0.1308
 3064TIP3    H1 9198   4.207   1.635   1.929  0.2855 -0.9297  0.1696
 3064TIP3    H2 9199   4.239   1.783   1.932 -0.5822 -0.7139 -0.7946
 3065TIP3   OH2 9200   5.068   2.975   2.558  0.2364 -0.0556 -0.1346
 3065TIP3    H1 9201   5.110   2.944   2.638  1.3813  2.2100  0.2208
 3065TIP3    H2 9202   4.975   2.955   2.571  0.5083 -0.4749  1.3971
 3066TIP3   OH2 9203   2.898   2.849   2.437  0.6092 -0.4874  0.5798
 3066TIP3    H1 9204   2.811   2.855   2.397 -1.0074 -1.1167  3.6513
 3066TIP3    H2 9205   2.957   2.888   2.373 -1.8730 -0.3097 -1.7757
 3067TIP3   OH2 9206   3.208   4.454   0.749 -0.2095  0.0102 -0.3915
 3067TIP3    H1 9207   3.296   4.479   0.721 -0.3802 -0.2940 -1.2309
 3067TIP3    H2 9208   3.201   4.487   0.839  1.2599 -1.1465  0.1933
 3068TIP3   OH2 9209   0.211   2.989   0.271  0.1521 -0.1301 -0.4175
 3068TIP3    H1 9210   0.136   3.040   0.303  0.8013  1.2252 -0.9884
 3068TIP3    H2 9211   0.213   2.911   0.328 -1.0490  0.3115  0.2745
 3069TIP3   OH2 9212   4.115   3.195   2.636 -0.2513  0.2300 -0.1846
 3069TIP3    H1 9213   4.034   3.235   2.668  0.0066  0.5270  0.1228
 3069TIP3    H2 9214   4.168   3.270   2.608 -1.6265 -0.1054 -4.3089
 3070TIP3   OH2 9215   1.982   1.848   4.494 -0.5738 -0.3029 -0.2871
 3070TIP3    H1 9216   2.002   1.926   4.547 -2.2931 -1.1201  1.6433
 3070TIP3    H2 9217   2.041   1.856   4.419  0.2366  2.1746  0.5032
 3071TIP3   OH2 9218   2.600   2.374   4.461  0.0656  0.2024 -0.9013
 3071TIP3    H1 9219   2.632   2.435   4.527 -1.1181 -0.3683  0.2244
 3071TIP3    H2 9220   2.564   2.430   4.392 -2.5811  0.8413  0.8833
 3072TIP3   OH2 9221   2.632   5.259   3.336  0.4451 -0.5474 -0.2672
 3072TIP3    H1 9222   2.636   5.192   3.403  3.0507 -0.0660  0.1753
 3072TIP3    H2 9223   2.619   5.211   3.254  0.6598 -1.4445  0.2125
 3073TIP3   OH2 9224   0.967   5.882   2.454 -0.2239 -0.0873 -0.2087
 3073TIP3    H1 9225   0.965   5.977   2.438 -0.7986 -0.1495 -0.5323
 3073TIP3    H2 9226   1.001   5.874   2.543  0.1160  0.4095 -0.2871
 3074TIP3   OH2 9227   1.379   0.413   0.524  0.0163 -0.0064  0.1630
 3074TIP3    H1 9228   1.329   0.378   0.597  0.0292 -2.1320 -0.7682
 3074TIP3    H2 9229   1.467   0.426   0.559  0.3770 -2.2608  0.2875
 3075TIP3   OH2 9230   5.348   0.551   2.620 -0.0844  0.2076 -0.0161
 3075TIP3    H1 9231   5.394   0.593   2.692 -1.9063  2.3939 -0.0171
 3075TIP3    H2 9232   5.262   0.593   2.618 -0.7408 -1.0383 -2.3455
 3076TIP3   OH2 9233   2.652   0.825   1.317  0.7787  0.4626  0.2607
 3076TIP3    H1 9234   2.585   0.830   1.386  0.3073 -0.1170 -0.1505
 3076TIP3    H2 9235   2.731   0.796   1.363  0.5220  0.2862  0.5954
 3077TIP3   OH2 9236   0.563   0.163   0.035 -0.2302  0.1298 -0.3753
 3077TIP3    H1 9237   0.558   0.256   0.057 -0.0903  0.2571 -0.8722
 3077TIP3    H2 9238   0.563   0.119   0.120 -0.5651  0.5674 -0.1374
 3078TIP3   OH2 9239   1.630   2.764   2.747 -0.1822 -0.5630  0.1763
 3078TIP3    H1 9240   1.608   2.692   2.688 -0.5452 -0.7074  0.4847
 3078TIP3    H2 9241   1.559   2.765   2.811  0.6926 -1.0357  1.1830
 3079TIP3   OH2 9242   5.177   0.516   5.183  0.4278 -0.1067 -0.2690
 3079TIP3    H1 9243   5.123   0.466   5.243  0.5619 -1.3810 -1.1698
 3079TIP3    H2 9244   5.125   0.522   5.103  0.2657  1.5271 -0.0756
 3080TIP3   OH2 9245   3.928   1.616   2.551  0.4659 -0.5302  0.2139
 3080TIP3    H1 9246   3.861   1.655   2.608 -1.4905 -0.8939 -1.7009
 3080TIP3    H2 9247   3.951   1.687   2.491  0.1215 -1.0352 -0.5287
 3081TIP3   OH2 9248   6.066   3.392   1.264 -0.0521 -0.5598  0.2474
 3081TIP3    H1 9249   6.136   3.331   1.291 -0.8544 -0.5170  2.6347
 3081TIP3    H2 9250   6.064   3.458   1.333 -1.6042  0.1690 -0.4597
 3082TIP3   OH2 9251   1.710   5.966   3.810 -0.0382 -0.7423  0.0232
 3082TIP3    H1 9252   1.792   5.999   3.847  0.3689 -1.2781 -0.3978
 3082TIP3    H2 9253   1.724   5.965   3.716 -1.0780  0.6189 -0.1841
 3083TIP3   OH2 9254   4.212   1.441   1.022  0.5843  0.1710 -0.0010
 3083TIP3    H1 9255   4.186   1.407   0.937 -0.5128 -1.4203  0.9123
 3083TIP3    H2 9256   4.203   1.536   1.014 -0.3046 -0.0032 -1.3872
 3084TIP3   OH2 9257   2.130   0.798   2.981 -0.1061 -0.1894  0.3113
 3084TIP3    H1 9258   2.192   0.808   3.053  1.1131  0.4540 -0.7769
 3084TIP3    H2 9259   2.044   0.793   3.023  0.5269  0.6485  1.7725
 3085TIP3   OH2 9260   4.587   0.576   3.117 -0.6021 -0.3393 -0.2543
 3085TIP3    H1 9261   4.572   0.507   3.052 -0.7723  0.5631 -1.1936
 3085TIP3    H2 9262   4.564   0.535   3.201 -1.7051 -1.0977 -0.9033
 3086TIP3   OH2 9263   3.659   4.014   1.470 -0.2719  0.1791 -0.8495
 3086TIP3    H1 9264   3.701   4.094   1.438  0.5334  0.4768  0.8289
 3086TIP3    H2 9265   3.583   4.045   1.519  0.4414  0.0036  0.4142
 3087TIP3   OH2 9266   0.188   1.717   2.137 -0.4913 -0.2459  0.5559
 3087TIP3    H1 9267   0.137   1.650   2.092  1.6252  1.1593 -4.7097
 3087TIP3    H2 9268   0.128   1.790   2.148 -1.2276 -0.8346  0.5270
 3088TIP3   OH2 9269   5.270   2.138   1.346 -0.7938  0.5165 -0.3384
 3088TIP3    H1 9270   5.211   2.126   1.271 -1.8001  0.8392  0.3835
 3088TIP3    H2 9271   5.268   2.054   1.392 -2.2866  1.1346  0.7914
 3089TIP3   OH2 9272   3.671   1.740   0.766  0.3856  0.0121 -0.2653
 3089TIP3    H1 9273   3.688   1.824   0.723  2.8332 -1.0064 -1.4648
 3089TIP3    H2 9274   3.642   1.683   0.696 -1.1267 -0.2233  0.5193
 3090TIP3   OH2 9275   3.416   1.608   2.505 -0.3850  0.0256  0.1323
 3090TIP3    H1 9276   3.433   1.684   2.561 -0.3263 -0.1180  0.3123
 3090TIP3    H2 9277   3.415   1.643   2.416 -3.1492  0.7793  0.3447
 3091TIP3   OH2 9278   6.144   4.097   0.709 -0.9848  0.3309  0.0851
 3091TIP3    H1 9279   6.105   4.099   0.797 -2.7974  3.5934 -0.6130
 3091TIP3    H2 9280   6.222   4.152   0.715 -0.2567 -0.6642 -0.0465
 3092TIP3   OH2 9281   3.285   2.787   4.006 -0.1247  0.3452 -0.1145
 3092TIP3    H1 9282   3.372   2.824   4.019 -0.4089  0.7432  0.7518
 3092TIP3    H2 9283   3.261   2.752   4.092 -0.3610 -0.7775 -0.6279
 3093TIP3   OH2 9284   4.523   1.828   3.237 -0.2346 -0.5237 -0.2938
 3093TIP3    H1 9285   4.460   1.895   3.211 -0.9865 -1.3054 -0.5151
 3093TIP3    H2 9286   4.571   1.808   3.157 -0.2488 -0.5093 -0.3059
 3094TIP3   OH2 9287   0.283   2.455   0.754 -0.1431  0.3736  0.2471
 3094TIP3    H1 9288   0.351   2.523   0.749 -0.7757  0.9534 -0.8472
 3094TIP3    H2 9289   0.215   2.494   0.808 -0.1299  0.2696  0.3374
 3095TIP3   OH2 9290   5.306   3.474   3.268 -1.0253  0.4809  0.0099
 3095TIP3    H1 9291   5.239   3.542   3.255 -0.1819  1.0990 -1.3235
 3095TIP3    H2 9292   5.361   3.479   3.190 -0.1508 -0.8599  0.5012
 3096TIP3   OH2 9293   4.623   4.283   1.388  0.7157 -0.1774 -0.4044
 3096TIP3    H1 9294   4.665   4.198   1.402  0.8196  0.0392  0.6731
 3096TIP3    H2 9295   4.586   4.277   1.300  1.8494 -0.8568 -0.8603
 3097TIP3   OH2 9296   4.096   3.982   2.868 -0.4113  0.2690  0.3656
 3097TIP3    H1 9297   4.042   3.943   2.800 -1.5153  1.6920  0.3815
 3097TIP3    H2 9298   4.166   3.918   2.883 -0.1096 -0.0615 -2.1152
 3098TIP3   OH2 9299   1.633   0.081   2.005 -0.1353 -0.5601  0.0700
 3098TIP3    H1 9300   1.709   0.136   2.023  0.3254 -0.8840 -0.8439
 3098TIP3    H2 9301   1.652   0.040   1.921 -0.7215 -1.6796  0.4605
 3099TIP3   OH2 9302   1.296   3.635   0.095 -0.0512 -0.3070 -0.1478
 3099TIP3    H1 9303   1.254   3.651   0.180  1.8985 -0.6082  0.9394
 3099TIP3    H2 9304   1.254   3.697   0.036  0.0531  1.4898  1.5564
 3100TIP3   OH2 9305   1.423   5.084   5.211  1.1978 -0.4070  0.7165
 3100TIP3    H1 9306   1.383   5.153   5.158  0.9869 -1.1041 -0.0623
 3100TIP3    H2 9307   1.487   5.044   5.153  0.0434 -2.0481  0.5148
 3101TIP3   OH2 9308   3.110   5.646   0.918 -0.5087 -0.0523  0.0852
 3101TIP3    H1 9309   3.131   5.657   1.011 -0.3516  0.2076  0.0203
 3101TIP3    H2 9310   3.099   5.552   0.907  0.4729 -0.1850  0.1591
 3102TIP3   OH2 9311   3.780   0.486   3.702  0.2199  0.0656 -0.6752
 3102TIP3    H1 9312   3.708   0.495   3.639  0.2297 -1.1123 -0.8790
 3102TIP3    H2 9313   3.750   0.418   3.763  0.2788  1.0653  0.5177
 3103TIP3   OH2 9314   0.448   4.649   0.233 -0.0690  0.2632 -0.2081
 3103TIP3    H1 9315   0.490   4.577   0.280  0.6294  1.2578  0.7594
 3103TIP3    H2 9316   0.494   4.727   0.264 -2.0460  1.3174  0.2215
 3104TIP3   OH2 9317   3.273   1.729   1.893 -0.1100  0.0947 -0.1293
 3104TIP3    H1 9318   3.225   1.810   1.909 -0.1273  0.0135  0.2446
 3104TIP3    H2 9319   3.206   1.661   1.892 -0.0056 -0.0231  0.4312
 3105TIP3   OH2 9320   3.780   0.459   3.391  0.6785  0.4815 -0.3138
 3105TIP3    H1 9321   3.873   0.448   3.409  0.3224 -1.3438  0.6813
 3105TIP3    H2 9322   3.765   0.553   3.395  1.8465  0.6475  3.0448
 3106TIP3   OH2 9323   1.168   2.766   1.861  0.8704  0.2917 -0.2223
 3106TIP3    H1 9324   1.113   2.840   1.838 -0.4915 -0.6911 -0.2566
 3106TIP3    H2 9325   1.194   2.727   1.776 -0.1423 -0.4752 -0.1978
 3107TIP3   OH2 9326   5.120   3.426   0.967  0.2206 -0.9360  0.1409
 3107TIP3    H1 9327   5.072   3.372   1.030  1.0481 -0.0067  1.6254
 3107TIP3    H2 9328   5.150   3.501   1.018  0.8849 -0.1165 -1.3918
 3108TIP3   OH2 9329   1.572   1.733   2.392 -0.0804  0.1341  0.2859
 3108TIP3    H1 9330   1.551   1.775   2.309  2.6305 -0.8163 -1.0091
 3108TIP3    H2 9331   1.574   1.805   2.455 -1.1039  1.0385 -0.6604
 3109TIP3   OH2 9332   6.193   4.200   2.765  0.4461 -0.1300 -0.2744
 3109TIP3    H1 9333   6.116   4.182   2.818  0.3899 -1.9899 -0.8854
 3109TIP3    H2 9334   6.265   4.207   2.828  0.0661 -0.2636  0.1782
 3110TIP3   OH2 9335   1.938   2.144   4.277 -0.0145  0.2035 -0.0711
 3110TIP3    H1 9336   1.911   2.226   4.235  3.4688  1.4408 -0.1923
 3110TIP3    H2 9337   1.926   2.160   4.370 -1.7957 -0.2099 -0.1845
 3111TIP3   OH2 9338   3.854   1.465   0.259 -0.4013  0.2031  0.4392
 3111TIP3    H1 9339   3.792   1.396   0.284 -0.7074  0.1013 -0.5557
 3111TIP3    H2 9340   3.843   1.532   0.326 -0.9611 -0.1977  0.7615
 3112TIP3   OH2 9341   0.432   1.018   4.958  0.1551  0.1549  0.1422
 3112TIP3    H1 9342   0.473   1.083   4.900  0.9783 -0.8384 -0.4221
 3112TIP3    H2 9343   0.478   1.028   5.042  1.2648 -0.6264 -0.3491
 3113TIP3   OH2 9344   0.607   3.714   2.034  0.0295  0.1133  0.5210
 3113TIP3    H1 9345   0.592   3.787   2.094 -1.1419  0.9634 -0.7473
 3113TIP3    H2 9346   0.558   3.737   1.956 -0.1453 -1.9312 -0.0216
 3114TIP3   OH2 9347   1.510   1.916   2.634 -0.1309 -0.0011  0.3725
 3114TIP3    H1 9348   1.460   1.987   2.594 -1.4154 -1.2141 -0.2505
 3114TIP3    H2 9349   1.444   1.863   2.679  0.9495 -0.1892  1.7848
 3115TIP3   OH2 9350   2.475   0.214   3.469 -1.1072  0.0142 -0.0706
 3115TIP3    H1 9351   2.408   0.259   3.521 -0.4059  2.0520 -0.8062
 3115TIP3    H2 9352   2.436   0.207   3.381 -0.2906  1.5950 -0.6143
 3116TIP3   OH2 9353   2.363   0.524   4.500  0.2772 -0.1888  0.5345
 3116TIP3    H1 9354   2.317   0.543   4.582 -2.4794 -0.4366 -0.8318
 3116TIP3    H2 9355   2.294   0.523   4.433  2.1770 -1.6030 -1.5639
 3117TIP3   OH2 9356   2.611   2.885   0.144  0.3192  0.0790  0.2951
 3117TIP3    H1 9357   2.689   2.898   0.198  0.3402 -0.0116  0.2873
 3117TIP3    H2 9358   2.606   2.790   0.132 -0.7881 -0.0777  1.7761
 3118TIP3   OH2 9359   4.355   1.213   4.374 -0.5696 -0.0016 -0.0287
 3118TIP3    H1 9360   4.346   1.130   4.421 -0.2032 -0.4999 -0.8159
 3118TIP3    H2 9361   4.314   1.198   4.289 -2.9303  1.4819  0.7628
 3119TIP3   OH2 9362   6.064   3.037   4.354 -0.1696 -0.1138  0.2901
 3119TIP3    H1 9363   5.981   3.083   4.364  0.0384  0.9697 -2.1836
 3119TIP3    H2 9364   6.043   2.962   4.299  0.6176  0.8442 -1.4140
 3120TIP3   OH2 9365   1.511   5.233   2.185 -0.4282 -0.3283  0.3760
 3120TIP3    H1 9366   1.564   5.215   2.107 -2.7743 -1.4984 -1.0473
 3120TIP3    H2 9367   1.558   5.188   2.256  0.4228 -1.4481 -0.8449
 3121TIP3   OH2 9368   3.598   4.791   3.504 -0.2001  0.8055 -0.5030
 3121TIP3    H1 9369   3.512   4.773   3.465 -0.8307  2.6327 -0.0558
 3121TIP3    H2 9370   3.656   4.726   3.464 -1.8179 -0.6385 -0.6408
 3122TIP3   OH2 9371   6.338   4.506   2.791 -0.3033 -0.1899  0.5648
 3122TIP3    H1 9372   6.267   4.447   2.767 -0.2718 -0.8040  1.8788
 3122TIP3    H2 9373   6.397   4.506   2.716 -2.0862  1.0100 -0.9199
 3123TIP3   OH2 9374   5.394   2.848   3.059  0.5711 -0.8508  0.1716
 3123TIP3    H1 9375   5.425   2.864   3.148 -1.5501 -0.1701  0.8636
 3123TIP3    H2 9376   5.380   2.753   3.056  1.5129 -0.9994  0.2365
 3124TIP3   OH2 9377   6.010   2.283   3.037 -0.2356  0.2431 -0.4077
 3124TIP3    H1 9378   5.984   2.211   3.094 -0.6972 -0.0554 -0.9885
 3124TIP3    H2 9379   5.933   2.341   3.036 -1.1504 -0.9147 -2.5731
 3125TIP3   OH2 9380   6.147   3.232   1.784 -0.2525  0.0214 -0.0991
 3125TIP3    H1 9381   6.180   3.296   1.722  0.8708  0.0585  0.5137
 3125TIP3    H2 9382   6.102   3.167   1.730  1.5427 -0.4687 -1.0755
 3126TIP3   OH2 9383   5.621   0.781   0.936  0.4915 -0.1432 -0.2674
 3126TIP3    H1 9384   5.698   0.836   0.949 -0.4678  1.1667  0.0862
 3126TIP3    H2 9385   5.560   0.808   1.005 -0.7170 -0.3297 -1.2277
 3127TIP3   OH2 9386   0.641   5.226   2.088  0.0668 -0.2607 -0.6151
 3127TIP3    H1 9387   0.662   5.133   2.090  0.2096 -0.2244 -0.2193
 3127TIP3    H2 9388   0.683   5.261   2.166  0.8267  0.3049 -1.2580
 3128TIP3   OH2 9389   4.832   2.721   2.912 -0.1289 -0.0520  0.3866
 3128TIP3    H1 9390   4.922   2.722   2.881 -0.1372 -0.9069  0.2973
 3128TIP3    H2 9391   4.796   2.638   2.879 -1.1515  0.5808 -0.1522
 3129TIP3   OH2 9392   5.204   2.439   3.280  0.4161  0.1367  0.6838
 3129TIP3    H1 9393   5.135   2.387   3.239 -1.2745  2.3453  0.5191
 3129TIP3    H2 9394   5.262   2.375   3.322 -0.0107 -1.9714 -1.7324
 3130TIP3   OH2 9395   5.714   0.742   2.869 -0.2566  0.6066  0.9169
 3130TIP3    H1 9396   5.706   0.837   2.864 -0.4920  0.5785  0.7123
 3130TIP3    H2 9397   5.624   0.711   2.879 -0.6693  0.2044 -2.6506
 3131TIP3   OH2 9398   0.900   1.292   2.508  0.2746  0.7890  0.6584
 3131TIP3    H1 9399   0.913   1.352   2.435 -1.2091  1.5352  0.9716
 3131TIP3    H2 9400   0.866   1.347   2.579  2.5114  0.2665  2.2650
 3132TIP3   OH2 9401   0.927   5.662   3.370  0.3900  0.6838  0.1815
 3132TIP3    H1 9402   0.950   5.665   3.463  0.0925 -1.7487  0.3872
 3132TIP3    H2 9403   0.933   5.570   3.346  0.4603  1.2453 -2.2449
 3133TIP3   OH2 9404   2.741   4.240   0.929 -0.2707 -0.7073 -0.2274
 3133TIP3    H1 9405   2.822   4.281   0.902 -1.1781  0.1935 -1.6804
 3133TIP3    H2 9406   2.751   4.148   0.904 -0.2376 -0.3170 -1.6958
 3134TIP3   OH2 9407   4.555   1.769   4.631  0.2092  0.1867 -0.0711
 3134TIP3    H1 9408   4.577   1.760   4.539  2.9923  0.8951  0.4018
 3134TIP3    H2 9409   4.538   1.863   4.642  0.5485  0.2147  0.2374
 3135TIP3   OH2 9410   4.423   4.431   4.031 -0.0645 -0.0953  0.1328
 3135TIP3    H1 9411   4.337   4.444   4.071  0.5656  0.0356  1.5073
 3135TIP3    H2 9412   4.404   4.395   3.944 -1.4802 -0.8978  0.7347
 3136TIP3   OH2 9413   2.142   1.117   1.246  0.2764  0.1935 -0.0565
 3136TIP3    H1 9414   2.228   1.132   1.287 -0.0145  1.3586  0.1581
 3136TIP3    H2 9415   2.162   1.109   1.153  0.6261  0.3568  0.0015
 3137TIP3   OH2 9416   1.914   0.082   4.042  0.1593  0.1604  0.5238
 3137TIP3    H1 9417   1.843   0.104   3.982  1.0866  1.3663 -0.1667
 3137TIP3    H2 9418   1.880   0.008   4.093 -1.0124 -0.2497 -0.7994
 3138TIP3   OH2 9419   6.328   2.418   4.660 -0.1106  0.1470 -0.1329
 3138TIP3    H1 9420   6.351   2.378   4.576 -1.0634  0.8578 -0.7509
 3138TIP3    H2 9421   6.236   2.398   4.672  0.0349 -0.0086  0.7943
 3139TIP3   OH2 9422   5.004   4.410   4.123  0.4845 -0.0681 -0.4339
 3139TIP3    H1 9423   4.979   4.478   4.061 -0.9580 -0.3415 -0.1783
 3139TIP3    H2 9424   4.922   4.385   4.166  1.5070  0.7093  2.1910
 3140TIP3   OH2 9425   0.310   3.841   0.368 -0.6096  0.3864  0.7920
 3140TIP3    H1 9426   0.331   3.813   0.457  0.3661 -0.6474  0.2775
 3140TIP3    H2 9427   0.367   3.917   0.353 -0.9121  0.6769  1.1127
 3141TIP3   OH2 9428   1.472   1.672   0.024 -0.3052  0.1910  0.1400
 3141TIP3    H1 9429   1.526   1.748   0.005 -0.9029 -0.0828 -3.3033
 3141TIP3    H2 9430   1.415   1.700   0.095  0.2277  2.5810 -0.2985
 3142TIP3   OH2 9431   0.778   2.626   2.831 -0.4434  0.3282  0.9618
 3142TIP3    H1 9432   0.734   2.549   2.794 -2.1116  1.7076 -0.0841
 3142TIP3    H2 9433   0.747   2.629   2.921  1.9450 -1.8168  1.9831
 3143TIP3   OH2 9434   1.269   3.200   2.861 -0.9093  0.6470  0.6653
 3143TIP3    H1 9435   1.325   3.142   2.913 -0.1565  0.8141  0.0689
 3143TIP3    H2 9436   1.320   3.218   2.781 -1.7911  0.8586  0.1297
 3144TIP3   OH2 9437   6.114   0.973   1.113  0.2193  0.3176  0.2258
 3144TIP3    H1 9438   6.173   0.900   1.134  0.6522  0.5986 -0.0083
 3144TIP3    H2 9439   6.159   1.022   1.044 -0.5585  0.1959 -0.3884
 3145TIP3   OH2 9440   2.107   2.152   1.099 -0.7176 -0.3659 -0.0685
 3145TIP3    H1 9441   2.171   2.100   1.149  0.0199 -1.4421 -2.0175
 3145TIP3    H2 9442   2.051   2.087   1.057 -0.4781  0.4073 -1.6708
 3146TIP3   OH2 9443   5.923   0.734   1.807 -0.3730 -0.1001 -0.9700
 3146TIP3    H1 9444   5.834   0.763   1.822 -0.0830  0.2310  0.1937
 3146TIP3    H2 9445   5.969   0.812   1.776  0.1774  0.5061  1.2311
 3147TIP3   OH2 9446   5.423   5.053   2.235  0.2824  0.3623 -0.0298
 3147TIP3    H1 9447   5.350   5.017   2.286  0.8011 -0.3410  0.2386
 3147TIP3    H2 9448   5.406   5.147   2.231 -0.7939  0.1817 -0.2277
 3148TIP3   OH2 9449   5.810   5.214   1.352 -0.4069 -0.0684 -0.3728
 3148TIP3    H1 9450   5.752   5.237   1.280 -0.6300 -0.9238 -0.4726
 3148TIP3    H2 9451   5.853   5.133   1.324  0.0356 -0.0238  0.1529
 3149TIP3   OH2 9452   1.508   4.155   1.623  0.4008  0.0536 -0.3125
 3149TIP3    H1 9453   1.475   4.121   1.540 -1.0895  1.8862 -0.5536
 3149TIP3    H2 9454   1.522   4.248   1.606 -0.4833  0.5908  1.6249
 3150TIP3   OH2 9455   1.510   3.495   3.894  0.1765  0.4569  0.1975
 3150TIP3    H1 9456   1.488   3.423   3.835  1.7747 -0.5379  0.7581
 3150TIP3    H2 9457   1.524   3.571   3.836 -0.3338  0.0226 -0.5021
 3151TIP3   OH2 9458   5.998   3.080   1.153 -0.1943 -0.5576 -0.3686
 3151TIP3    H1 9459   6.022   3.136   1.079  1.5195  0.0085  0.5636
 3151TIP3    H2 9460   6.068   3.014   1.157  0.3691  0.0939  1.4045
 3152TIP3   OH2 9461   0.222   4.960   1.559 -0.3266 -0.1403 -0.4027
 3152TIP3    H1 9462   0.209   4.868   1.537  0.3665 -0.3233 -0.0869
 3152TIP3    H2 9463   0.227   5.005   1.475  1.3243 -0.6829 -0.6306
 3153TIP3   OH2 9464   4.767   4.295   3.573 -0.3900  0.6379  0.5179
 3153TIP3    H1 9465   4.701   4.357   3.604 -1.4206 -0.3994  0.4590
 3153TIP3    H2 9466   4.773   4.312   3.479 -0.6789  0.6483  0.5003
 3154TIP3   OH2 9467   5.245   1.177   3.070  0.1679  0.1896 -0.2337
 3154TIP3    H1 9468   5.198   1.117   3.012  2.4309 -0.4306 -1.5621
 3154TIP3    H2 9469   5.177   1.219   3.122 -1.6452 -2.4006 -0.3235
 3155TIP3   OH2 9470   4.691   4.664   4.835  0.0218  0.1850 -0.3389
 3155TIP3    H1 9471   4.743   4.710   4.901  1.7664 -2.5482  0.3537
 3155TIP3    H2 9472   4.756   4.627   4.775 -1.1632 -2.1053 -0.2978
 3156TIP3   OH2 9473   3.961   5.697   3.587  0.2463 -0.2893 -0.0567
 3156TIP3    H1 9474   3.941   5.762   3.655 -1.1186 -1.7285  0.9933
 3156TIP3    H2 9475   3.892   5.710   3.522 -1.3061 -1.9623  1.1530
 3157TIP3   OH2 9476   5.578   5.125   1.528 -0.0719 -0.5384 -0.3603
 3157TIP3    H1 9477   5.662   5.162   1.499  0.1541  1.3354  2.3407
 3157TIP3    H2 9478   5.513   5.189   1.501 -0.0878  0.1569  1.2003
 3158TIP3   OH2 9479   6.163   0.281   0.427 -0.2170 -0.1722  0.2443
 3158TIP3    H1 9480   6.204   0.326   0.501 -1.2364 -0.3348  0.9286
 3158TIP3    H2 9481   6.193   0.190   0.435 -0.6604 -0.2828  0.7199
 3159TIP3   OH2 9482   5.704   3.254   3.751  0.5391  0.4303 -0.3719
 3159TIP3    H1 9483   5.632   3.311   3.723 -0.8248 -0.5932  0.9547
 3159TIP3    H2 9484   5.771   3.266   3.683 -1.5137  0.1461 -2.5531
 3160TIP3   OH2 9485   2.276   2.654   3.274 -0.3686 -0.4109 -0.0638
 3160TIP3    H1 9486   2.279   2.709   3.352  0.2950 -3.3796  2.2198
 3160TIP3    H2 9487   2.366   2.653   3.242 -0.3460 -0.2638 -0.0047
 3161TIP3   OH2 9488   0.433   1.157   3.949  0.0122 -0.3492 -0.3361
 3161TIP3    H1 9489   0.455   1.236   3.901 -1.4345  0.0750 -0.3383
 3161TIP3    H2 9490   0.382   1.188   4.024  0.1251 -1.2087  0.1088
 3162TIP3   OH2 9491   2.174   0.527   4.309  0.4337  0.4736 -0.6568
 3162TIP3    H1 9492   2.162   0.510   4.216 -0.9844  0.7289 -0.5479
 3162TIP3    H2 9493   2.089   0.563   4.338  1.1177  1.1975  0.5418
 3163TIP3   OH2 9494   5.738   4.006   1.030 -0.0368  0.2196 -0.4535
 3163TIP3    H1 9495   5.727   4.024   1.123 -3.0159  1.3536 -0.9128
 3163TIP3    H2 9496   5.791   4.078   0.997  0.5731  0.1049  0.2687
 3164TIP3   OH2 9497   5.246   3.839   1.479 -0.2019 -0.2725 -0.3898
 3164TIP3    H1 9498   5.336   3.835   1.509  0.0523  0.1835 -1.0522
 3164TIP3    H2 9499   5.225   3.933   1.479 -1.1725 -0.4539  1.1499
 3165TIP3   OH2 9500   5.115   5.635   0.511  0.4170  0.1540 -0.5118
 3165TIP3    H1 9501   5.035   5.640   0.458 -0.5313  0.1711  0.8502
 3165TIP3    H2 9502   5.179   5.594   0.453 -1.2852 -2.2140 -0.9154
 3166TIP3   OH2 9503   2.297   4.580   3.079  0.1377 -0.2250 -0.5139
 3166TIP3    H1 9504   2.249   4.497   3.070 -0.1529 -0.0433 -0.6702
 3166TIP3    H2 9505   2.384   4.555   3.108 -0.3224 -0.5066  0.6871
 3167TIP3   OH2 9506   5.857   5.678   4.680  0.3541  0.5597  1.0828
 3167TIP3    H1 9507   5.877   5.584   4.674  0.5040  0.6156  0.6579
 3167TIP3    H2 9508   5.801   5.685   4.757 -2.6874 -0.4040 -0.8579
 3168TIP3   OH2 9509   1.254   1.154   0.680 -0.5641  0.1219 -0.6127
 3168TIP3    H1 9510   1.333   1.112   0.646 -0.0553  0.9362 -0.4403
 3168TIP3    H2 9511   1.190   1.144   0.609 -0.5377 -1.1616 -0.4800
 3169TIP3   OH2 9512   2.698   5.302   4.257 -0.5182 -0.1251 -0.6048
 3169TIP3    H1 9513   2.640   5.292   4.332 -0.8338 -1.3337 -0.9981
 3169TIP3    H2 9514   2.686   5.223   4.206  2.1480 -0.8901 -0.2360
 3170TIP3   OH2 9515   2.273   4.163   3.067  0.1353 -0.1208 -0.4084
 3170TIP3    H1 9516   2.265   4.219   3.144  0.4957 -1.4442  0.6427
 3170TIP3    H2 9517   2.311   4.081   3.101  2.1730 -0.0669 -2.3213
 3171TIP3   OH2 9518   2.717   3.287   2.646 -0.5941 -0.7757 -0.3313
 3171TIP3    H1 9519   2.664   3.333   2.712 -1.0101 -0.9429 -0.5469
 3171TIP3    H2 9520   2.742   3.356   2.584 -0.2451 -0.6272 -0.0287
 3172TIP3   OH2 9521   3.855   5.729   1.342  0.3679  0.0875  0.2712
 3172TIP3    H1 9522   3.881   5.705   1.253  0.6425 -1.1152  0.6553
 3172TIP3    H2 9523   3.936   5.762   1.382  0.2978  0.4121  0.1450
 3173TIP3   OH2 9524   5.618   5.449   4.623  0.3344  0.5771 -0.4160
 3173TIP3    H1 9525   5.578   5.398   4.552 -0.9184  0.2233  0.5105
 3173TIP3    H2 9526   5.560   5.524   4.634  0.4832  0.5954  0.2790
 3174TIP3   OH2 9527   6.167   4.648   2.534 -0.1600 -0.4819  0.1131
 3174TIP3    H1 9528   6.257   4.674   2.515 -0.0742 -0.5820  0.3890
 3174TIP3    H2 9529   6.174   4.560   2.571 -0.4448 -0.8774 -0.7410
 3175TIP3   OH2 9530   1.193   5.570   2.526  0.0156 -0.5560  0.2565
 3175TIP3    H1 9531   1.279   5.554   2.565  0.5753  0.4568 -0.5169
 3175TIP3    H2 9532   1.154   5.638   2.581  0.9617  1.1541 -1.0668
 3176TIP3   OH2 9533   4.039   3.028   3.791  0.0109  0.1325  0.4448
 3176TIP3    H1 9534   4.074   2.947   3.827  1.7272  0.2879 -0.7377
 3176TIP3    H2 9535   4.013   3.006   3.702 -4.5129 -0.3332  1.6285
 3177TIP3   OH2 9536   2.375   5.087   3.249  0.3686 -0.2338  0.6283
 3177TIP3    H1 9537   2.442   5.028   3.216 -0.2181 -0.8060  0.4291
 3177TIP3    H2 9538   2.357   5.055   3.338 -0.9401 -1.2629  0.0326
 3178TIP3   OH2 9539   4.451   1.419   2.777 -0.6927 -0.4842 -0.1591
 3178TIP3    H1 9540   4.390   1.467   2.720 -2.8155 -2.3199  0.4184
 3178TIP3    H2 9541   4.515   1.381   2.717 -0.8704  0.4186 -0.9461
 3179TIP3   OH2 9542   1.178   1.220   5.045 -0.3591  0.2888 -0.2987
 3179TIP3    H1 9543   1.115   1.291   5.028  0.8304  1.4912  0.1506
 3179TIP3    H2 9544   1.151   1.185   5.130 -0.2677  1.0038  0.0367
 3180TIP3   OH2 9545   1.737   1.675   3.295  0.2397 -0.1248 -0.0107
 3180TIP3    H1 9546   1.678   1.748   3.276 -0.9189 -0.8185  0.8184
 3180TIP3    H2 9547   1.741   1.671   3.391  1.7951  0.0158 -0.0449
 3181TIP3   OH2 9548   4.353   0.807   3.340 -0.3310 -0.3489 -0.1490
 3181TIP3    H1 9549   4.403   0.792   3.421 -0.0650  1.9850  0.1891
 3181TIP3    H2 9550   4.262   0.806   3.368 -0.3722 -1.6760 -0.2468
 3182TIP3   OH2 9551   1.815   4.141   2.945  0.3840  0.0740  0.1741
 3182TIP3    H1 9552   1.756   4.083   2.898  0.9039 -0.6766  0.4262
 3182TIP3    H2 9553   1.764   4.174   3.019  0.2911 -0.6004  0.4146
 3183TIP3   OH2 9554   1.798   1.467   1.203 -0.7153  0.2666  0.2604
 3183TIP3    H1 9555   1.806   1.411   1.126  1.1489 -0.6544  1.0548
 3183TIP3    H2 9556   1.727   1.426   1.254 -1.7303  0.6898 -0.7583
 3184TIP3   OH2 9557   1.712   0.002   4.751  0.5012 -0.3341 -0.0484
 3184TIP3    H1 9558   1.639  -0.038   4.704  1.1719 -1.7009  0.0294
 3184TIP3    H2 9559   1.670   0.055   4.819 -0.4384 -1.7467  0.5191
 3185TIP3   OH2 9560   6.338   2.821   3.983 -1.0235  0.0849  0.2801
 3185TIP3    H1 9561   6.426   2.813   4.020 -0.9456 -1.2995 -0.1605
 3185TIP3    H2 9562   6.279   2.801   4.056 -0.9098 -1.0781  0.0655
 3186TIP3   OH2 9563   0.311   1.309   0.926  0.8698 -0.0061 -0.0375
 3186TIP3    H1 9564   0.309   1.396   0.966  0.6628 -0.8142  1.8145
 3186TIP3    H2 9565   0.332   1.250   0.998 -0.0860 -1.6178 -1.0084
 3187TIP3   OH2 9566   1.327   1.793   3.173  0.1076  0.0677 -0.2781
 3187TIP3    H1 9567   1.354   1.885   3.182  1.1565 -0.2511 -0.0093
 3187TIP3    H2 9568   1.323   1.779   3.079 -0.8739  0.6135 -0.3273
 3188TIP3   OH2 9569   2.953   4.156   4.815 -0.2245  0.0270 -0.3777
 3188TIP3    H1 9570   2.879   4.161   4.755 -0.9819  1.8734  0.6236
 3188TIP3    H2 9571   3.025   4.119   4.763 -1.1342  0.6073 -2.1012
 3189TIP3   OH2 9572   1.718   2.922   2.032 -0.0818  0.3228  0.3578
 3189TIP3    H1 9573   1.693   3.012   2.011  0.6397  0.0600 -2.0047
 3189TIP3    H2 9574   1.747   2.925   2.123 -0.2572  2.4486  0.3848
 3190TIP3   OH2 9575   5.382   1.700   1.318  0.0281  0.1470 -0.2099
 3190TIP3    H1 9576   5.478   1.694   1.316  0.0467  0.1139 -2.8207
 3190TIP3    H2 9577   5.356   1.639   1.387  1.7972 -1.6889 -1.0541
 3191TIP3   OH2 9578   1.965   1.074   0.800  0.1693  0.3458 -0.1403
 3191TIP3    H1 9579   1.950   0.979   0.803 -0.6961  0.4475 -0.9528
 3191TIP3    H2 9580   1.990   1.091   0.710  2.1952  0.6522  0.4181
 3192TIP3   OH2 9581   3.777   2.902   0.303  1.3498 -0.3136  0.0882
 3192TIP3    H1 9582   3.746   2.867   0.386  3.2923 -0.6161  0.7414
 3192TIP3    H2 9583   3.808   2.990   0.324  2.3785 -0.6014 -0.1706
 3193TIP3   OH2 9584   3.101   2.578   2.030  0.3483 -0.2091  0.1938
 3193TIP3    H1 9585   3.111   2.554   2.123 -0.2018 -0.4781  0.1832
 3193TIP3    H2 9586   3.191   2.585   1.999  0.5429  0.0694  0.7961
 3194TIP3   OH2 9587   1.136   1.674   3.831  0.4456  0.0993  0.5250
 3194TIP3    H1 9588   1.129   1.589   3.788  0.9581  0.4064 -0.1969
 3194TIP3    H2 9589   1.050   1.689   3.869  0.3679 -0.7655  0.7121
 3195TIP3   OH2 9590   4.801   4.568   2.529 -1.1983 -0.0962  0.7999
 3195TIP3    H1 9591   4.876   4.534   2.481 -1.1501 -1.3450  1.7067
 3195TIP3    H2 9592   4.728   4.512   2.503 -1.4704  0.1068  1.1173
 3196TIP3   OH2 9593   6.169   2.435   2.459  0.8669  0.4447 -0.2104
 3196TIP3    H1 9594   6.105   2.365   2.445  1.0749  0.3105 -0.5058
 3196TIP3    H2 9595   6.254   2.391   2.457  0.9987  0.7044 -0.3722
 3197TIP3   OH2 9596   0.697   3.835   2.909  0.6197 -0.3945  0.3979
 3197TIP3    H1 9597   0.687   3.845   3.004 -2.4512 -1.6672  0.3257
 3197TIP3    H2 9598   0.705   3.741   2.896 -0.3134 -0.3498 -0.6600
 3198TIP3   OH2 9599   1.516   0.941   2.455 -0.4359 -0.0009 -0.5448
 3198TIP3    H1 9600   1.571   0.929   2.533  0.0077 -0.1482 -0.8786
 3198TIP3    H2 9601   1.577   0.939   2.382 -0.7854  0.6925 -0.8634
 3199TIP3   OH2 9602   3.685   4.289   2.072  0.2129 -0.2287 -0.0897
 3199TIP3    H1 9603   3.743   4.323   2.139 -0.2230 -1.5316  0.9920
 3199TIP3    H2 9604   3.646   4.367   2.032 -0.3774  0.5684  1.9457
 3200TIP3   OH2 9605   3.864   5.678   4.650 -0.2149 -0.7064 -0.2508
 3200TIP3    H1 9606   3.906   5.753   4.607 -1.3587 -0.1539 -0.4536
 3200TIP3    H2 9607   3.856   5.706   4.742  0.7298 -1.2135 -0.0026
 3201TIP3   OH2 9608   0.720   0.367   3.351  0.6035  0.7284 -0.2444
 3201TIP3    H1 9609   0.771   0.439   3.316  1.4873  0.6555  0.8604
 3201TIP3    H2 9610   0.641   0.408   3.387 -0.1533  0.8389 -1.9326
 3202TIP3   OH2 9611   2.731   4.931   0.692  0.4829  0.2539  0.1371
 3202TIP3    H1 9612   2.758   5.021   0.675  1.0226 -0.1132 -1.0960
 3202TIP3    H2 9613   2.680   4.906   0.614  1.5054 -0.9303 -0.1821
 3203TIP3   OH2 9614   2.905   1.013   1.210  0.1950 -0.5755  0.0591
 3203TIP3    H1 9615   2.943   1.046   1.292 -1.1939 -2.0827  1.3966
 3203TIP3    H2 9616   2.974   1.025   1.145  2.5947 -2.1033  2.1012
 3204TIP3   OH2 9617   5.721   1.405   0.518 -0.0387 -0.1664  0.4763
 3204TIP3    H1 9618   5.769   1.382   0.439 -0.6421  0.2690 -0.0208
 3204TIP3    H2 9619   5.654   1.466   0.489 -0.2883 -0.0253  1.3194
 3205TIP3   OH2 9620   1.657   5.453   4.318  0.0278  0.6417 -0.2047
 3205TIP3    H1 9621   1.689   5.479   4.232 -0.9971  0.2017 -0.7359
 3205TIP3    H2 9622   1.565   5.431   4.304  0.5804 -2.5105  0.3102
 3206TIP3   OH2 9623   5.627   2.111   0.756  0.3010  0.4421  0.3046
 3206TIP3    H1 9624   5.600   2.155   0.675 -0.1640  1.5432  1.0300
 3206TIP3    H2 9625   5.723   2.112   0.753  0.2936  1.1274  0.0970
 3207TIP3   OH2 9626   5.797   5.927   4.505  0.0789  0.0890  0.0498
 3207TIP3    H1 9627   5.876   5.958   4.460 -0.2458  0.7854 -0.0536
 3207TIP3    H2 9628   5.829   5.865   4.570  0.7895  0.8859  0.4792
 3208TIP3   OH2 9629   4.996   5.345   3.989  0.1602  0.0900 -0.2092
 3208TIP3    H1 9630   4.923   5.406   3.976 -1.1313 -1.3039  0.1062
 3208TIP3    H2 9631   5.074   5.396   3.970 -0.7752  2.1150  1.0286
 3209TIP3   OH2 9632   3.339   4.347   3.425 -0.0643 -0.3633 -0.4322
 3209TIP3    H1 9633   3.381   4.370   3.342 -0.4967 -3.4641 -1.6799
 3209TIP3    H2 9634   3.285   4.422   3.447  1.8907  1.5153 -1.6585
 3210TIP3   OH2 9635   3.431   2.647   0.235  0.6700  0.2215  0.2128
 3210TIP3    H1 9636   3.351   2.658   0.185 -0.7956 -1.4793  2.0001
 3210TIP3    H2 9637   3.495   2.613   0.172  0.4678  2.8224 -1.5392
 3211TIP3   OH2 9638   4.465   0.482   0.952 -0.1173  0.0655  0.3144
 3211TIP3    H1 9639   4.387   0.449   0.996 -0.9291 -0.9712 -1.7650
 3211TIP3    H2 9640   4.457   0.577   0.956 -0.8767 -0.0148  1.1229
 3212TIP3   OH2 9641   5.069   4.477   2.489  0.2629 -0.0241  0.8215
 3212TIP3    H1 9642   5.109   4.519   2.565  0.4525  0.9305  0.2125
 3212TIP3    H2 9643   5.066   4.546   2.422  0.6722 -1.0074 -0.2486
 3213TIP3   OH2 9644   0.948   2.975   4.502 -0.2831  0.0692 -0.4987
 3213TIP3    H1 9645   0.926   2.882   4.505 -1.7237  0.3996  1.2313
 3213TIP3    H2 9646   1.007   2.987   4.577  0.0579  0.5122 -0.8366
 3214TIP3   OH2 9647   3.765   2.264   2.301  0.4625 -0.2174  0.0070
 3214TIP3    H1 9648   3.767   2.275   2.205 -1.2226  2.0312  0.1419
 3214TIP3    H2 9649   3.847   2.304   2.330  1.3366 -1.5804 -0.5166
 3215TIP3   OH2 9650   0.711   1.920   1.621 -0.1596 -0.1012  0.0891
 3215TIP3    H1 9651   0.786   1.875   1.659 -1.8030 -3.0670  0.0713
 3215TIP3    H2 9652   0.673   1.970   1.693  0.8349  0.0589  0.5086
 3216TIP3   OH2 9653   0.472   2.912   4.590 -0.0160  0.0884  0.0445
 3216TIP3    H1 9654   0.425   2.986   4.552  0.8677  0.2870 -0.6787
 3216TIP3    H2 9655   0.561   2.920   4.557  0.9219  0.4824  2.4409
 3217TIP3   OH2 9656   2.411   4.613   2.570  0.4548 -0.0293 -0.2107
 3217TIP3    H1 9657   2.401   4.518   2.576 -0.7103  0.1288  0.7076
 3217TIP3    H2 9658   2.458   4.627   2.487 -0.3878 -1.3355 -0.9453
 3218TIP3   OH2 9659   5.913   2.028   3.885 -0.2577 -0.4481 -0.6556
 3218TIP3    H1 9660   5.926   2.078   3.965 -1.1410  0.0964 -0.8440
 3218TIP3    H2 9661   5.969   1.951   3.896 -2.0791 -1.5906  1.5203
 3219TIP3   OH2 9662   0.909   0.496   0.501  0.2727  0.1155  0.4892
 3219TIP3    H1 9663   0.947   0.511   0.587  0.9059 -0.2418  0.2787
 3219TIP3    H2 9664   0.832   0.553   0.498  0.5175  0.4848  1.1065
 3220TIP3   OH2 9665   5.906   2.257   1.448  0.1695  0.1199  0.0062
 3220TIP3    H1 9666   5.909   2.352   1.459 -1.9787  0.2387  0.1369
 3220TIP3    H2 9667   5.812   2.236   1.448  0.5426 -1.8773 -1.1099
 3221TIP3   OH2 9668   1.371   0.946   0.521 -0.3559 -0.3603  0.2887
 3221TIP3    H1 9669   1.313   0.877   0.551  0.1574 -1.2793 -0.7458
 3221TIP3    H2 9670   1.456   0.903   0.509  0.5326  0.9230  1.6548
 3222TIP3   OH2 9671   3.277   4.109   0.098  0.0250 -0.1959 -0.4393
 3222TIP3    H1 9672   3.258   4.015   0.096 -0.8435 -0.1349  1.7705
 3222TIP3    H2 9673   3.201   4.148   0.141  0.1354  1.6214 -1.7905
 3223TIP3   OH2 9674   4.211   2.705   2.765  0.1960  0.5936 -0.0862
 3223TIP3    H1 9675   4.302   2.731   2.750  0.0881 -0.5263 -3.3583
 3223TIP3    H2 9676   4.201   2.623   2.717 -2.2445 -0.0006  1.2865
 3224TIP3   OH2 9677   1.147   0.073   2.766 -0.0457  0.2780 -0.1870
 3224TIP3    H1 9678   1.137   0.051   2.673  1.1765  0.1626 -0.3095
 3224TIP3    H2 9679   1.082   0.141   2.781  0.8368  1.4818 -1.5564
 3225TIP3   OH2 9680   2.841   2.229   1.049 -0.0715 -0.0025  0.3352
 3225TIP3    H1 9681   2.747   2.235   1.064 -0.5602  2.5244 -2.7260
 3225TIP3    H2 9682   2.854   2.146   1.004 -1.1707  0.4489 -0.8623
 3226TIP3   OH2 9683   5.632   2.201   4.718 -0.6237  0.5596 -0.2548
 3226TIP3    H1 9684   5.712   2.148   4.718 -1.3647 -0.7051 -2.4473
 3226TIP3    H2 9685   5.660   2.286   4.683  0.1820  0.9876  1.3317
 3227TIP3   OH2 9686   5.665   3.778   2.226  0.5757 -0.4724 -0.2148
 3227TIP3    H1 9687   5.676   3.789   2.131 -0.7805 -1.7821 -0.5598
 3227TIP3    H2 9688   5.747   3.811   2.263  0.1550  2.5420 -1.6149
 3228TIP3   OH2 9689   3.947   1.105   3.422 -0.2939 -0.2497  0.2189
 3228TIP3    H1 9690   3.910   1.027   3.379 -0.0057  0.2397 -0.9551
 3228TIP3    H2 9691   4.011   1.070   3.484 -1.8327 -1.0560  1.4351
 3229TIP3   OH2 9692   2.979   5.767   2.109  0.4585 -0.6511 -0.2700
 3229TIP3    H1 9693   3.012   5.764   2.019 -2.2749 -1.1079 -1.3577
 3229TIP3    H2 9694   3.008   5.684   2.147  1.5085 -0.5248 -0.7359
 3230TIP3   OH2 9695   4.276   1.935   4.655  0.1259 -0.1511  0.1107
 3230TIP3    H1 9696   4.259   1.856   4.603 -0.4342  0.1896 -0.2282
 3230TIP3    H2 9697   4.274   2.006   4.592 -0.2127  0.2274  0.5414
 3231TIP3   OH2 9698   2.439   2.694   2.182  0.1914  0.6873 -0.4244
 3231TIP3    H1 9699   2.347   2.674   2.198  0.4361 -1.9427 -1.7357
 3231TIP3    H2 9700   2.462   2.643   2.104  2.4368  2.3085 -0.9378
 3232TIP3   OH2 9701   2.749   4.489   4.599 -0.3042 -1.1627  0.2832
 3232TIP3    H1 9702   2.668   4.443   4.619 -0.2473 -1.2017  0.4268
 3232TIP3    H2 9703   2.816   4.420   4.602 -0.2387 -1.0951  0.3565
 3233TIP3   OH2 9704   0.063   2.608   2.644  0.2320  0.1839  0.0162
 3233TIP3    H1 9705   0.082   2.559   2.564  0.7156  1.3100 -0.5773
 3233TIP3    H2 9706   0.105   2.693   2.631 -2.1942  1.4942  0.1592
 3234TIP3   OH2 9707   3.856   1.842   4.625 -0.0144 -0.2883  0.0468
 3234TIP3    H1 9708   3.846   1.888   4.708 -0.6463  1.7663 -1.1060
 3234TIP3    H2 9709   3.770   1.848   4.584  0.6490 -0.0628 -1.3488
 3235TIP3   OH2 9710   4.281   2.826   3.337  0.3821  0.0605  0.1136
 3235TIP3    H1 9711   4.270   2.912   3.297  0.2074  0.1100  0.2661
 3235TIP3    H2 9712   4.376   2.817   3.349  0.6645 -0.8483 -2.2356
 3236TIP3   OH2 9713   5.333   4.928   3.195 -0.3444 -0.2068  0.4037
 3236TIP3    H1 9714   5.298   5.017   3.199  1.0267  0.5105 -1.8709
 3236TIP3    H2 9715   5.416   4.933   3.242  0.7922  0.3403 -1.5561
 3237TIP3   OH2 9716   4.717   3.875   1.413 -0.0015  0.4730  0.0832
 3237TIP3    H1 9717   4.763   3.952   1.446 -0.3375  0.0624  1.5916
 3237TIP3    H2 9718   4.653   3.854   1.482 -0.4149 -0.7161 -0.6331
 3238TIP3   OH2 9719   0.082   0.504   0.104  0.0231  0.1535  0.4878
 3238TIP3    H1 9720  -0.005   0.467   0.121  0.5371 -0.8727  0.9550
 3238TIP3    H2 9721   0.096   0.564   0.177  0.3782 -0.9312  1.3474
 3239TIP3   OH2 9722   0.788   5.868   2.248  0.0366 -0.6150 -0.3880
 3239TIP3    H1 9723   0.847   5.864   2.324  0.7834  0.8945 -0.8577
 3239TIP3    H2 9724   0.721   5.802   2.267  1.0124 -1.2952  0.8886
 3240TIP3   OH2 9725   0.718   0.188   3.823 -0.0052 -0.2357  0.0165
 3240TIP3    H1 9726   0.757   0.164   3.739 -1.1855  0.2512 -0.6910
 3240TIP3    H2 9727   0.673   0.109   3.853  0.0054 -0.2665 -0.0501
 3241TIP3   OH2 9728   4.049   3.611   0.432 -0.0415 -0.6302  0.2907
 3241TIP3    H1 9729   4.066   3.560   0.512 -0.3494 -1.3152 -0.0734
 3241TIP3    H2 9730   4.032   3.545   0.365 -1.2941 -0.0331 -0.0018
 3242TIP3   OH2 9731   5.035   3.640   1.769  0.3142 -0.1776 -0.0594
 3242TIP3    H1 9732   5.009   3.676   1.854 -0.0985  2.4339 -1.2071
 3242TIP3    H2 9733   4.998   3.552   1.768 -2.7626  0.9652  1.0885
 3243TIP3   OH2 9734   5.892   0.348   0.098  0.3072 -0.3755  0.3091
 3243TIP3    H1 9735   5.972   0.383   0.138  0.2454 -0.5915  0.6244
 3243TIP3    H2 9736   5.923   0.276   0.043  0.3939 -0.0676 -0.0509
 3244TIP3   OH2 9737   2.180   1.801   1.700 -0.0352  0.5934  0.6848
 3244TIP3    H1 9738   2.187   1.761   1.613  0.3413  1.9350  0.0676
 3244TIP3    H2 9739   2.095   1.845   1.699 -0.9589 -1.0769  1.7715
 3245TIP3   OH2 9740   1.940   1.920   0.976  0.7280  0.0706  0.0550
 3245TIP3    H1 9741   1.878   1.847   0.979  0.8884 -0.2626 -2.4636
 3245TIP3    H2 9742   1.893   1.990   0.932  1.0843  0.9907  1.0926
 3246TIP3   OH2 9743   5.587   0.958   2.413  0.4966  0.3817 -0.2340
 3246TIP3    H1 9744   5.519   0.950   2.346  0.3394  1.0461 -0.1641
 3246TIP3    H2 9745   5.620   0.869   2.425  0.5199  0.2605 -1.1830
 3247TIP3   OH2 9746   0.430   1.531   0.759 -0.4191 -0.0288 -0.2326
 3247TIP3    H1 9747   0.526   1.536   0.760 -0.4810  2.9541 -0.2725
 3247TIP3    H2 9748   0.406   1.506   0.848  0.3992  0.5013  0.1480
 3248TIP3   OH2 9749   3.383   2.625   2.046 -0.2134  0.4553  0.0754
 3248TIP3    H1 9750   3.458   2.583   2.004 -0.3318  1.1647 -0.8730
 3248TIP3    H2 9751   3.394   2.718   2.027 -0.0314  0.8688  2.0067
 3249TIP3   OH2 9752   1.056   0.662   2.066  0.3680 -0.3675 -0.1959
 3249TIP3    H1 9753   1.089   0.641   1.979  0.9849  0.5099 -0.1899
 3249TIP3    H2 9754   1.134   0.677   2.119  0.0814  3.0183 -0.4933
 3250TIP3   OH2 9755   1.403   2.083   3.187 -0.1769 -0.2371 -0.5181
 3250TIP3    H1 9756   1.385   2.166   3.231 -1.0470 -1.1535  0.9412
 3250TIP3    H2 9757   1.372   2.097   3.097 -1.0868  0.7532 -0.0834
 3251TIP3   OH2 9758  -0.013   0.792   1.167 -0.0080  0.2121  0.0796
 3251TIP3    H1 9759  -0.010   0.703   1.202 -0.1376  0.2186  0.1048
 3251TIP3    H2 9760   0.079   0.817   1.160  0.0199  0.2143  0.4257
 3252TIP3   OH2 9761   0.251   1.115   3.523 -0.8054  0.2339  0.2029
 3252TIP3    H1 9762   0.176   1.125   3.581 -1.7848  1.5687 -1.2157
 3252TIP3    H2 9763   0.249   1.023   3.497 -0.8551 -0.1725  1.5690
 3253TIP3   OH2 9764   2.880   1.661   2.903  0.0177 -0.4829  0.4846
 3253TIP3    H1 9765   2.790   1.652   2.935 -0.7324  0.5895 -1.1763
 3253TIP3    H2 9766   2.873   1.651   2.808  1.7948 -1.2068  0.3901
 3254TIP3   OH2 9767   2.834   3.094   3.507 -0.3751 -0.2856  0.2215
 3254TIP3    H1 9768   2.906   3.043   3.471 -1.0110 -1.4043  0.4767
 3254TIP3    H2 9769   2.767   3.092   3.439 -0.1841  0.7489 -0.0162
 3255TIP3   OH2 9770   1.913   1.709   1.508 -0.1063 -0.2507  0.8633
 3255TIP3    H1 9771   1.844   1.731   1.570  0.0479  1.1878  0.5760
 3255TIP3    H2 9772   1.961   1.791   1.496 -0.1363 -0.4748 -1.1392
 3256TIP3   OH2 9773   4.698   5.016   4.653  0.1857  0.0911  0.0655
 3256TIP3    H1 9774   4.708   4.933   4.606  1.9046 -0.1403  0.7534
 3256TIP3    H2 9775   4.756   5.007   4.729  1.4925  2.4009 -0.5467
 3257TIP3   OH2 9776   6.025   4.820   4.566  0.2905 -0.6558  0.3116
 3257TIP3    H1 9777   5.991   4.770   4.492 -0.4890  0.7817 -0.3380
 3257TIP3    H2 9778   6.025   4.758   4.639 -0.6104 -1.6040 -0.4693
 3258TIP3   OH2 9779   2.395   5.605   3.209 -0.5278 -0.1927  0.2355
 3258TIP3    H1 9780   2.469   5.607   3.149  0.9340  0.3644  1.9667
 3258TIP3    H2 9781   2.329   5.552   3.164  1.3394 -1.6994 -0.8863
 3259TIP3   OH2 9782   2.288   1.443   2.693 -0.1635  0.2960  0.4366
 3259TIP3    H1 9783   2.211   1.499   2.706 -0.9056 -0.8481  1.1050
 3259TIP3    H2 9784   2.255   1.354   2.699  1.1360 -0.2289  0.1888
 3260TIP3   OH2 9785   5.584   2.692   0.866 -0.0247  0.6119 -0.2602
 3260TIP3    H1 9786   5.613   2.715   0.778 -2.0383 -1.1076 -1.4753
 3260TIP3    H2 9787   5.534   2.769   0.896  0.7437  1.2374 -0.5531
 3261TIP3   OH2 9788   4.813   4.968   3.746  0.3349  0.0956 -0.1380
 3261TIP3    H1 9789   4.871   4.962   3.821  0.7873  2.6371 -0.2106
 3261TIP3    H2 9790   4.769   4.883   3.743  0.7344 -0.2924  2.6250
 3262TIP3   OH2 9791   2.553   3.440   5.101  0.0498  0.4180  0.1900
 3262TIP3    H1 9792   2.609   3.423   5.176 -0.9853 -0.7206  0.7429
 3262TIP3    H2 9793   2.497   3.362   5.094 -0.3726  0.8066 -1.3178
 3263TIP3   OH2 9794   3.561   4.554   1.929  0.0089 -0.2528  0.4614
 3263TIP3    H1 9795   3.578   4.605   1.850  1.4220 -1.6335 -0.1735
 3263TIP3    H2 9796   3.468   4.532   1.923 -0.2710  0.9855  0.0094
 3264TIP3   OH2 9797   0.688   5.440   3.809 -0.0423  0.3684 -0.2520
 3264TIP3    H1 9798   0.707   5.532   3.791 -1.7720  0.6696 -0.8124
 3264TIP3    H2 9799   0.773   5.398   3.817  0.7779  1.9249 -0.5149
 3265TIP3   OH2 9800   2.605   5.870   4.665 -0.9954 -0.4544  1.1653
 3265TIP3    H1 9801   2.635   5.927   4.736  0.9628  0.1731 -0.0941
 3265TIP3    H2 9802   2.625   5.782   4.696 -2.1692 -0.3698  2.2687
 3266TIP3   OH2 9803   0.201   3.908   1.871  0.4908  0.0107  0.4060
 3266TIP3    H1 9804   0.136   3.857   1.822 -0.0510  1.0223  0.0483
 3266TIP3    H2 9805   0.159   3.927   1.954  0.5263  0.2292  0.3743
 3267TIP3   OH2 9806   6.303   2.110   0.497  0.2994 -0.7998 -0.0517
 3267TIP3    H1 9807   6.293   2.186   0.439 -0.1814 -0.8430 -0.0274
 3267TIP3    H2 9808   6.347   2.145   0.574 -2.1804  0.0528  1.0980
 3268TIP3   OH2 9809   0.428   0.652   1.194  0.0120 -0.5307 -0.2031
 3268TIP3    H1 9810   0.408   0.639   1.287  0.0399  2.2903  0.2936
 3268TIP3    H2 9811   0.356   0.705   1.161  1.6490  1.4560 -0.8564
 3269TIP3   OH2 9812   4.404   5.865   3.033 -0.5323  0.1811  0.5481
 3269TIP3    H1 9813   4.394   5.879   2.938 -0.6620 -0.8738  0.3905
 3269TIP3    H2 9814   4.420   5.952   3.068  1.6551  0.3528 -0.6992
 3270TIP3   OH2 9815   4.481   5.987   3.427 -0.1576 -0.1321  0.0946
 3270TIP3    H1 9816   4.394   6.012   3.458  0.5487  1.8141  0.6643
 3270TIP3    H2 9817   4.475   5.893   3.413 -2.1343 -0.1683  0.8211
 3271TIP3   OH2 9818   2.775   4.122   3.975  0.2602  0.1754  0.3149
 3271TIP3    H1 9819   2.694   4.072   3.970 -0.5124  1.1178  2.2414
 3271TIP3    H2 9820   2.747   4.213   3.985  1.6186  0.8831 -1.7007
 3272TIP3   OH2 9821   4.831   2.292   1.626  0.0103  0.1417 -0.3478
 3272TIP3    H1 9822   4.841   2.212   1.574  1.9273  1.0174 -1.4084
 3272TIP3    H2 9823   4.881   2.275   1.706  0.3986  0.2548 -0.5631
 3273TIP3   OH2 9824   2.123   1.886   1.384 -0.4060 -0.4385 -0.0382
 3273TIP3    H1 9825   2.196   1.940   1.355  1.7486 -2.4098  1.3177
 3273TIP3    H2 9826   2.123   1.811   1.324  0.3391 -1.6728  1.4456
 3274TIP3   OH2 9827   4.128   3.486   0.693  0.1783 -0.2186  0.2023
 3274TIP3    H1 9828   4.080   3.454   0.770  0.7631  3.9402  2.5845
 3274TIP3    H2 9829   4.207   3.433   0.691 -1.3000 -2.6038  0.3476
 3275TIP3   OH2 9830   2.955   1.482   2.640  0.3414 -0.4524  0.0367
 3275TIP3    H1 9831   3.036   1.512   2.600  0.2989 -1.0679 -0.5376
 3275TIP3    H2 9832   2.893   1.553   2.625 -0.0600 -1.2038 -2.2895
 3276TIP3   OH2 9833   0.083   4.482   2.219  0.2568  0.7688  0.0528
 3276TIP3    H1 9834   0.141   4.524   2.283  0.4594  0.3134  0.1685
 3276TIP3    H2 9835   0.124   4.499   2.134 -0.1763  1.6462  0.0007
 3277TIP3   OH2 9836   3.192   5.065   1.627  0.4271 -0.1790 -0.3807
 3277TIP3    H1 9837   3.126   5.103   1.685  0.3632 -0.2329 -0.4172
 3277TIP3    H2 9838   3.256   5.135   1.614  0.8614 -0.4227  0.4033
 3278TIP3   OH2 9839   5.406   0.675   3.801 -0.2088  0.3782  0.2028
 3278TIP3    H1 9840   5.434   0.604   3.744  1.2315 -0.4980  1.9200
 3278TIP3    H2 9841   5.365   0.738   3.742  0.4715 -0.8504 -1.6668
 3279TIP3   OH2 9842   2.088   5.873   1.045  0.0233 -0.7900 -0.1228
 3279TIP3    H1 9843   2.134   5.911   1.119 -0.9445 -0.7931  0.4928
 3279TIP3    H2 9844   2.005   5.842   1.081 -1.4936  1.3060 -1.6195
 3280TIP3   OH2 9845   3.640   4.868   0.051  0.1292 -0.2043  0.3626
 3280TIP3    H1 9846   3.572   4.801   0.046  0.1582 -0.3739  1.7692
 3280TIP3    H2 9847   3.722   4.819   0.057  0.1733 -0.0531  1.1130
 3281TIP3   OH2 9848   5.776   2.124   3.549 -0.5586 -0.2608 -0.0203
 3281TIP3    H1 9849   5.766   2.196   3.486 -2.1889 -0.6088 -0.2055
 3281TIP3    H2 9850   5.811   2.051   3.497 -2.4097 -0.7171 -0.6922
 3282TIP3   OH2 9851   5.133   4.235   0.271  0.5253  1.0032  0.0711
 3282TIP3    H1 9852   5.224   4.217   0.295  0.4761 -0.6514 -0.8215
 3282TIP3    H2 9853   5.084   4.222   0.353  0.6473 -2.1381 -0.2439
 3283TIP3   OH2 9854   4.541   3.118   1.368  0.0069  0.4946  0.1927
 3283TIP3    H1 9855   4.602   3.051   1.396  0.0233  0.0191 -0.9338
 3283TIP3    H2 9856   4.516   3.093   1.279 -2.5806  0.1171  0.9353
 3284TIP3   OH2 9857   3.305   1.471   3.125 -0.4248 -0.3607  0.0149
 3284TIP3    H1 9858   3.254   1.531   3.070 -0.8251 -1.1284 -0.4683
 3284TIP3    H2 9859   3.283   1.384   3.092  0.5491 -0.7527  0.3614
 3285TIP3   OH2 9860   5.716   3.774   1.431  0.1621  0.5207  0.2288
 3285TIP3    H1 9861   5.669   3.702   1.474 -1.2851  0.8578 -0.7097
 3285TIP3    H2 9862   5.664   3.852   1.452  1.7144  1.3475  1.2513
 3286TIP3   OH2 9863   0.522   0.657   3.244 -0.1438  0.3930 -0.5648
 3286TIP3    H1 9864   0.574   0.648   3.164  1.8520  2.0045  0.4441
 3286TIP3    H2 9865   0.436   0.685   3.214 -0.1555 -1.2968 -2.2505
 3287TIP3   OH2 9866   5.598   3.012   3.516  0.2858  0.2008 -0.1821
 3287TIP3    H1 9867   5.675   3.070   3.521  0.0241  0.7604 -1.9333
 3287TIP3    H2 9868   5.524   3.069   3.536  0.3455 -0.6405  2.9618
 3288TIP3   OH2 9869   1.025   2.885   2.988 -0.1539 -0.2738  0.5377
 3288TIP3    H1 9870   0.944   2.881   3.040 -0.0223 -0.7909  0.7043
 3288TIP3    H2 9871   1.095   2.867   3.051 -0.0531 -1.7142  0.0373
 3289TIP3   OH2 9872   4.887   4.655   1.235  0.2008  0.7374  0.3230
 3289TIP3    H1 9873   4.958   4.674   1.297 -0.0632  1.9809  0.2667
 3289TIP3    H2 9874   4.875   4.737   1.186 -0.9616  0.3985  0.0112
 3290TIP3   OH2 9875   1.261   3.558   5.035  0.5496  0.8415  0.4162
 3290TIP3    H1 9876   1.168   3.569   5.056  0.4944  1.6968 -0.2218
 3290TIP3    H2 9877   1.278   3.465   5.052 -1.0767  0.0187 -1.8243
 3291TIP3   OH2 9878   2.660   2.943   0.944 -0.1812  0.0388  0.2898
 3291TIP3    H1 9879   2.658   2.857   0.986 -0.4100 -0.3991 -0.6000
 3291TIP3    H2 9880   2.744   2.945   0.897  0.4215  0.8197  1.3383
 3292TIP3   OH2 9881   0.057   2.493   2.327 -0.1820 -0.5636 -0.3579
 3292TIP3    H1 9882  -0.032   2.525   2.313  0.1780  1.1103  0.8477
 3292TIP3    H2 9883   0.050   2.398   2.315 -1.8795 -0.3534 -1.3937
 3293TIP3   OH2 9884   3.611   2.583   5.136 -0.2211 -0.1008 -0.6426
 3293TIP3    H1 9885   3.653   2.503   5.105 -1.3873 -2.0000  2.2235
 3293TIP3    H2 9886   3.681   2.632   5.179 -0.0832 -1.3158  0.6030
 3294TIP3   OH2 9887   3.358   5.829   1.147 -0.1680 -0.0360  0.2868
 3294TIP3    H1 9888   3.362   5.918   1.182 -3.3855  0.7019 -0.8711
 3294TIP3    H2 9889   3.434   5.822   1.090 -0.4779  2.5033 -0.5701
 3295TIP3   OH2 9890   3.223   3.489   2.828 -0.2194  0.9694 -0.5617
 3295TIP3    H1 9891   3.277   3.495   2.749 -1.6470 -0.2975 -1.6976
 3295TIP3    H2 9892   3.190   3.399   2.828 -0.9834  1.2100  1.0018
 3296TIP3   OH2 9893   5.166   4.584   3.467  0.1330 -0.1051  0.5982
 3296TIP3    H1 9894   5.226   4.619   3.402 -1.9750 -0.2750 -1.5845
 3296TIP3    H2 9895   5.123   4.511   3.423 -3.1168  1.2738  1.2032
 3297TIP3   OH2 9896   6.301   4.826   2.279 -0.4320  0.6016 -0.2932
 3297TIP3    H1 9897   6.319   4.770   2.355 -1.4002  0.3997 -0.2072
 3297TIP3    H2 9898   6.227   4.880   2.306 -0.7245  0.5932 -1.0558
 3298TIP3   OH2 9899   1.075   5.694   2.259 -0.4827 -0.4483  0.0003
 3298TIP3    H1 9900   1.033   5.771   2.299  0.5331  0.4189 -0.5634
 3298TIP3    H2 9901   1.109   5.644   2.334 -0.4011  0.0965  0.3306
 3299TIP3   OH2 9902   4.410   1.442   0.627  0.2115 -0.5681  0.3579
 3299TIP3    H1 9903   4.456   1.445   0.542 -1.5681 -3.4531 -0.8490
 3299TIP3    H2 9904   4.464   1.497   0.684  2.0711  0.6858 -2.3354
 3300TIP3   OH2 9905   4.643   2.235   0.041  0.1316 -0.2873 -0.4931
 3300TIP3    H1 9906   4.635   2.195  -0.046  0.8828  0.8362 -1.0969
 3300TIP3    H2 9907   4.621   2.164   0.101 -2.0751 -0.6418 -1.6256
 3301TIP3   OH2 9908   1.036   5.480   0.470 -0.0281  0.2902  0.0253
 3301TIP3    H1 9909   1.031   5.415   0.400  1.2727 -0.4034  0.5273
 3301TIP3    H2 9910   1.117   5.528   0.452  1.2923 -1.0753  1.9804
 3302TIP3   OH2 9911   1.494   5.719   1.362 -0.1929 -0.4210 -0.2127
 3302TIP3    H1 9912   1.485   5.669   1.442  0.1565  0.4373  0.3772
 3302TIP3    H2 9913   1.540   5.661   1.302  0.7276 -0.6095  0.6511
 3303TIP3   OH2 9914   2.969   5.934   0.578 -0.6595 -0.6634 -0.0558
 3303TIP3    H1 9915   2.935   5.878   0.648 -2.0183 -0.9290 -0.9000
 3303TIP3    H2 9916   2.973   6.021   0.617  1.0650 -1.2238  1.1364
 3304TIP3   OH2 9917   0.355   0.949   0.370  0.2020 -0.3832  0.6088
 3304TIP3    H1 9918   0.415   0.933   0.297 -0.6150  1.0103 -0.4058
 3304TIP3    H2 9919   0.391   1.026   0.414 -0.8019  0.4689 -0.0126
 3305TIP3   OH2 9920   4.461   3.864   3.292  0.2760 -0.2513 -0.3102
 3305TIP3    H1 9921   4.499   3.826   3.212  2.9287 -0.0957  0.7712
 3305TIP3    H2 9922   4.442   3.788   3.348 -0.2401 -0.2815 -0.5205
 3306TIP3   OH2 9923   1.933   0.299   4.447  0.5894 -0.5576  0.1564
 3306TIP3    H1 9924   1.929   0.344   4.363 -1.5694 -0.1589  0.4217
 3306TIP3    H2 9925   1.985   0.356   4.503 -1.2804  1.2069  0.1955
 3307TIP3   OH2 9926   0.263   0.874   3.418  0.1208  0.6078 -0.4767
 3307TIP3    H1 9927   0.235   0.806   3.357  1.9732 -1.2242  0.5808
 3307TIP3    H2 9928   0.347   0.904   3.384  0.0370  1.2813 -0.1018
 3308TIP3   OH2 9929   2.532   0.776   2.960 -0.7993  0.2084 -0.7093
 3308TIP3    H1 9930   2.550   0.687   2.992  0.4556  0.9396  0.7568
 3308TIP3    H2 9931   2.618   0.818   2.960 -1.8312  2.7224  2.7779
 3309TIP3   OH2 9932   4.522   0.185   4.414  0.2711 -0.4048 -0.6703
 3309TIP3    H1 9933   4.461   0.136   4.359  0.2438 -0.4118 -0.6337
 3309TIP3    H2 9934   4.498   0.277   4.401 -1.5457 -0.4983  1.4314
 3310TIP3   OH2 9935   3.986   2.006   4.331 -0.2915  0.7358  0.2564
 3310TIP3    H1 9936   3.988   1.934   4.395  0.9897 -0.1461 -0.7250
 3310TIP3    H2 9937   3.940   2.076   4.376 -0.9773 -0.4606  1.5067
 3311TIP3   OH2 9938   3.955   0.750   2.409 -0.2318  0.1724  0.1036
 3311TIP3    H1 9939   3.913   0.819   2.462 -0.6542  0.4463 -0.5697
 3311TIP3    H2 9940   3.923   0.668   2.446 -0.8326  0.3699  0.0347
 3312TIP3   OH2 9941   0.251   3.154   4.851 -0.1846 -0.4073  0.4955
 3312TIP3    H1 9942   0.238   3.109   4.768 -0.1208  0.5061 -0.0336
 3312TIP3    H2 9943   0.181   3.219   4.854  1.5926  1.6997 -0.3746
 3313TIP3   OH2 9944   5.821   0.819   0.251 -0.7596  1.0218  0.0066
 3313TIP3    H1 9945   5.770   0.755   0.201 -1.4117  1.1914  0.4525
 3313TIP3    H2 9946   5.852   0.881   0.185 -1.9240  1.4542 -0.1623
 3314TIP3   OH2 9947   2.514   2.144   4.342  0.5556  0.1370  0.1390
 3314TIP3    H1 9948   2.580   2.161   4.409 -1.3841  0.5403  2.0586
 3314TIP3    H2 9949   2.473   2.229   4.327 -0.7564 -0.4351  0.3913
 3315TIP3   OH2 9950   2.517   0.816   4.478 -0.1927 -0.0242 -0.0997
 3315TIP3    H1 9951   2.487   0.729   4.505  1.6011 -0.4624  0.6249
 3315TIP3    H2 9952   2.570   0.800   4.400 -0.4426  0.5261 -0.3923
 3316TIP3   OH2 9953   1.876   3.101   4.670  0.1362 -0.2677  0.5028
 3316TIP3    H1 9954   1.899   3.193   4.665  0.4491 -0.4032 -1.5166
 3316TIP3    H2 9955   1.925   3.060   4.598 -2.5904 -1.3983 -0.8747
 3317TIP3   OH2 9956   0.868   0.206   4.137  0.0640  0.4696  0.0420
 3317TIP3    H1 9957   0.880   0.252   4.220  1.2908 -0.4514  0.4094
 3317TIP3    H2 9958   0.816   0.266   4.083  2.5082  2.8337  0.1030
 3318TIP3   OH2 9959   5.834   2.891   3.398 -0.1150  0.2372 -0.1315
 3318TIP3    H1 9960   5.806   2.976   3.364  2.4806  1.1072 -0.3336
 3318TIP3    H2 9961   5.890   2.912   3.473  1.3069 -1.1970 -0.7147
 3319TIP3   OH2 9962   6.130   0.997   1.818  0.7541  0.5628  0.3962
 3319TIP3    H1 9963   6.171   1.041   1.893  1.0613 -2.8123  2.4039
 3319TIP3    H2 9964   6.203   0.954   1.773  0.1189 -0.8410  0.6597
 3320TIP3   OH2 9965   1.677   0.275   2.671  0.6281 -0.0751 -0.0774
 3320TIP3    H1 9966   1.654   0.225   2.593  1.1955 -1.8586  0.8344
 3320TIP3    H2 9967   1.624   0.354   2.665 -0.5602 -0.9160 -1.4425
 3321TIP3   OH2 9968   4.616   3.441   0.024  0.3659  0.0972 -0.5541
 3321TIP3    H1 9969   4.698   3.396   0.004  0.5950  0.8841 -1.4295
 3321TIP3    H2 9970   4.580   3.392   0.098 -0.8067 -3.3942 -3.1463
 3322TIP3   OH2 9971   3.173   0.305   0.879  0.1653  0.2029 -0.0150
 3322TIP3    H1 9972   3.142   0.284   0.967  1.9447 -0.4874  0.4801
 3322TIP3    H2 9973   3.185   0.220   0.837  0.9226  0.4594 -0.3385
 3323TIP3   OH2 9974   2.069   4.732   2.972  0.6644  0.0543  0.4150
 3323TIP3    H1 9975   2.159   4.708   2.995  0.8522  0.0788 -0.2557
 3323TIP3    H2 9976   2.068   4.730   2.876  0.2604  1.2092  0.3840
 3324TIP3   OH2 9977   3.992   1.326   4.433  0.4711 -0.3321 -0.0283
 3324TIP3    H1 9978   3.975   1.393   4.499  2.9135  0.6038 -0.2310
 3324TIP3    H2 9979   4.038   1.373   4.363  1.6006 -2.0448 -0.5115
 3325TIP3   OH2 9980   2.164   3.002   4.654  0.1574  0.1767 -0.3495
 3325TIP3    H1 9981   2.231   3.067   4.633  0.9642 -0.6869 -0.4980
 3325TIP3    H2 9982   2.168   2.993   4.749 -0.0554  0.4347 -0.3132
 3326TIP3   OH2 9983   5.338   1.073   1.261 -0.1348 -0.1143 -0.1593
 3326TIP3    H1 9984   5.368   1.138   1.197 -2.3053 -0.7594 -1.9894
 3326TIP3    H2 9985   5.324   1.123   1.341 -1.7426  1.7721 -1.5081
 3327TIP3   OH2 9986   1.578   1.691   3.614 -0.6150  0.0598 -0.3628
 3327TIP3    H1 9987   1.526   1.685   3.534 -0.2617  1.5583 -0.7508
 3327TIP3    H2 9988   1.514   1.694   3.685 -0.9147 -2.1542 -0.4656
 3328TIP3   OH2 9989   1.653   1.242   4.253  0.3600  0.4757  0.4013
 3328TIP3    H1 9990   1.748   1.254   4.243  0.2864  0.2014 -0.7864
 3328TIP3    H2 9991   1.615   1.288   4.178 -0.1692 -3.4087 -1.9872
 3329TIP3   OH2 9992   3.096   2.178   0.487 -0.0221  0.1479  0.7347
 3329TIP3    H1 9993   3.065   2.112   0.549 -0.9713 -0.1488 -0.0306
 3329TIP3    H2 9994   3.171   2.137   0.444 -0.3363 -0.2687  0.5744
 3330TIP3   OH2 9995   0.385   3.802   0.627  0.2509 -0.0253 -0.1246
 3330TIP3    H1 9996   0.383   3.863   0.701 -0.7741 -1.2286  0.8788
 3330TIP3    H2 9997   0.463   3.749   0.642  2.0536  1.9213 -1.8274
 3331TIP3   OH2 9998   4.505   1.794   3.558 -0.0935  0.2558  0.1560
 3331TIP3    H1 9999   4.444   1.867   3.549 -0.8574 -0.2117  1.2619
 3331TIP3    H210000   4.572   1.826   3.618 -0.4843  0.0301  0.7228
 3332TIP3   OH210001   2.996   5.307   4.630  0.1940  0.4946  0.1416
 3332TIP3    H110002   2.933   5.332   4.563 -0.7831  0.2441  0.9410
 3332TIP3    H210003   2.948   5.248   4.687  1.4481 -0.5137  0.2144
 3333TIP3   OH210004   3.970   4.016   5.020 -0.1065 -0.1154  0.0014
 3333TIP3    H110005   3.963   4.062   4.936 -0.8708 -0.4259 -0.1125
 3333TIP3    H210006   3.921   4.071   5.081  0.6312  0.2234  0.3024
 3334TIP3   OH210007   3.497   4.896   0.555  0.1025  0.4266 -0.4721
 3334TIP3    H110008   3.468   4.861   0.471  0.3729  1.7516 -1.1388
 3334TIP3    H210009   3.417   4.922   0.600  0.0619  1.5902 -1.1847
 3335TIP3   OH210010   3.451   2.887   4.600  0.4326 -1.0624 -0.1970
 3335TIP3    H110011   3.484   2.951   4.664 -3.3228  0.7013  0.2560
 3335TIP3    H210012   3.518   2.885   4.532  1.6875  1.8675  0.7718
 3336TIP3   OH210013   1.953   4.963   4.445  0.0795 -0.3054  0.5482
 3336TIP3    H110014   2.010   5.026   4.400  0.5765  0.0104  1.5632
 3336TIP3    H210015   1.872   5.011   4.461 -0.1165 -0.4353 -0.0458
 3337TIP3   OH210016   4.898   4.890   1.082 -0.0164  0.3096  0.5052
 3337TIP3    H110017   4.950   4.946   1.025 -1.6715  0.9128 -0.4801
 3337TIP3    H210018   4.812   4.933   1.086 -1.3888 -2.1423 -0.3750
 3338TIP3   OH210019   3.371   5.145   0.313 -0.3115  0.1812 -0.3096
 3338TIP3    H110020   3.457   5.132   0.353 -0.1263  0.7719 -0.5080
 3338TIP3    H210021   3.389   5.151   0.219 -0.6266 -0.1657 -0.3938
 3339TIP3   OH210022   3.270   4.548   1.022  0.3858 -0.1925  0.4277
 3339TIP3    H110023   3.346   4.568   1.077  0.9468 -0.0602 -0.3785
 3339TIP3    H210024   3.195   4.577   1.073  0.8255 -0.8152  1.4742
 3340TIP3   OH210025   3.487   5.064   4.164  0.7172  0.3461 -0.4441
 3340TIP3    H110026   3.461   5.155   4.175  0.0058  0.0644  0.3048
 3340TIP3    H210027   3.576   5.059   4.199  0.4651  0.5917  0.2363
 3341TIP3   OH210028   0.563   5.591   2.463 -0.8514 -0.6761  0.0380
 3341TIP3    H110029   0.574   5.619   2.372  0.8032 -0.8656  0.1625
 3341TIP3    H210030   0.632   5.636   2.511 -2.1422 -0.0032  1.3682
 3342TIP3   OH210031   1.799   3.377   4.372 -0.0542  0.1706  0.1952
 3342TIP3    H110032   1.703   3.380   4.382 -0.1142  2.8194 -0.5886
 3342TIP3    H210033   1.831   3.363   4.461 -1.1374 -0.7441  0.4755
 3343TIP3   OH210034   5.428   0.492   1.327 -0.2198 -0.3417 -0.1265
 3343TIP3    H110035   5.351   0.468   1.380  0.5417  0.0423  1.1845
 3343TIP3    H210036   5.495   0.429   1.352 -0.4892 -1.6311 -2.3555
 3344TIP3   OH210037   4.824   4.836   0.737 -0.2295  0.0269 -0.7428
 3344TIP3    H110038   4.888   4.771   0.706  0.3463 -1.0532  2.3776
 3344TIP3    H210039   4.742   4.787   0.742  0.1834 -0.5420  1.5130
 3345TIP3   OH210040   3.836   1.375   3.404 -0.6895 -0.0050 -0.5444
 3345TIP3    H110041   3.747   1.343   3.393 -0.4345 -0.8832 -0.1080
 3345TIP3    H210042   3.887   1.297   3.426  0.3756  0.3010 -1.8019
 3346TIP3   OH210043   6.234   5.274   4.810 -0.3688 -0.4315 -0.0170
 3346TIP3    H110044   6.233   5.290   4.716 -3.4485 -0.5763 -0.0825
 3346TIP3    H210045   6.200   5.185   4.820 -0.0500 -0.4382  1.2566
 3347TIP3   OH210046   3.633   5.414   0.570 -0.2923  0.8401  0.1134
 3347TIP3    H110047   3.625   5.363   0.489  0.1785  2.5976 -1.0899
 3347TIP3    H210048   3.547   5.405   0.612 -0.7616  0.4052 -0.9002
 3348TIP3   OH210049   1.144   3.765   4.865 -0.5841  0.1930  0.3067
 3348TIP3    H110050   1.090   3.687   4.849 -1.0300  0.5566 -0.0019
 3348TIP3    H210051   1.186   3.748   4.949 -0.1533 -0.6717 -0.0704
 3349TIP3   OH210052   0.997   1.108   4.747 -0.5102 -0.1910  0.5273
 3349TIP3    H110053   1.092   1.096   4.758 -0.1387  1.8812 -0.0429
 3349TIP3    H210054   0.968   1.026   4.707  1.4833 -0.0063 -1.5512
 3350TIP3   OH210055   1.217   1.107   2.956 -0.3854 -0.3054 -0.7706
 3350TIP3    H110056   1.191   1.020   2.986 -3.0511  1.7136  4.0303
 3350TIP3    H210057   1.313   1.103   2.951 -0.3265 -3.2072  0.4286
 3351TIP3   OH210058   3.630   4.393   3.369 -0.4915  0.2207 -0.2535
 3351TIP3    H110059   3.606   4.458   3.302  0.7644  1.5923  0.5583
 3351TIP3    H210060   3.663   4.445   3.442  1.6337 -1.3727  0.0152
 3352TIP3   OH210061   2.199   4.378   4.238 -0.5544  0.1562  0.0925
 3352TIP3    H110062   2.143   4.455   4.249 -1.5542 -0.7560  1.9483
 3352TIP3    H210063   2.153   4.322   4.175 -2.4658 -1.0979  2.4244
 3353TIP3   OH210064   6.219   4.244   1.012  0.1286 -0.1981 -0.2044
 3353TIP3    H110065   6.262   4.227   0.929  1.2373 -1.8573  0.6467
 3353TIP3    H210066   6.273   4.311   1.054 -0.6891  0.9765 -0.9635
 3354TIP3   OH210067   5.044   5.020   2.760 -0.3958  0.6836 -0.0847
 3354TIP3    H110068   4.953   5.045   2.747 -0.5231  1.2549  1.6274
 3354TIP3    H210069   5.063   5.045   2.851  0.6929 -1.7811  0.4613
 3355TIP3   OH210070   5.197   1.186   2.095 -0.3230  0.0418  1.1094
 3355TIP3    H110071   5.105   1.208   2.104 -0.5344 -0.5655  0.5059
 3355TIP3    H210072   5.214   1.122   2.164 -0.9284 -1.5349 -0.1386
 3356TIP3   OH210073   3.366   3.367   4.786 -0.3256  0.3332 -0.5535
 3356TIP3    H110074   3.448   3.356   4.737  1.7636  1.1227  2.4636
 3356TIP3    H210075   3.349   3.281   4.823  1.3139  0.9124  1.7735
 3357TIP3   OH210076   5.179   2.887   4.493 -0.5803  0.4140  0.1684
 3357TIP3    H110077   5.275   2.892   4.497 -0.6443  0.9840  1.1730
 3357TIP3    H210078   5.158   2.908   4.402  0.3308 -1.3816 -0.5093
 3358TIP3   OH210079   3.743   0.153   1.894 -0.5466  0.2491 -0.1661
 3358TIP3    H110080   3.787   0.237   1.877 -0.3637  0.1128 -0.3754
 3358TIP3    H210081   3.813   0.095   1.923 -0.2138 -0.5241 -2.3373
 3359TIP3   OH210082   3.537   4.518   3.120 -0.2618 -0.0405  0.1336
 3359TIP3    H110083   3.454   4.495   3.078 -1.1330 -0.1744  1.8467
 3359TIP3    H210084   3.604   4.473   3.068 -1.1941  0.4297 -1.5496
 3360TIP3   OH210085   3.185   2.323   1.432 -0.6680 -0.4944  0.4587
 3360TIP3    H110086   3.157   2.283   1.349 -1.3377 -1.0263  0.9245
 3360TIP3    H210087   3.143   2.410   1.432  1.8098  0.8107 -1.1345
 3361TIP3   OH210088   1.941   5.746   4.505  0.0584 -0.4358 -0.0440
 3361TIP3    H110089   1.924   5.708   4.592  1.9002  0.6631  0.8533
 3361TIP3    H210090   1.856   5.784   4.479  0.0780  1.8602  2.6771
 3362TIP3   OH210091   2.779   4.794   3.461 -0.0379 -0.3707  0.9019
 3362TIP3    H110092   2.759   4.717   3.409 -1.0756  0.9016 -0.7108
 3362TIP3    H210093   2.860   4.828   3.424 -0.4379  0.1811  0.5030
 3363TIP3   OH210094   2.153   5.351   4.762 -0.2367 -0.2948 -0.0091
 3363TIP3    H110095   2.129   5.286   4.828 -0.5971  0.1920  0.3387
 3363TIP3    H210096   2.217   5.407   4.805 -0.3624 -0.0634 -0.1243
 3364TIP3   OH210097   1.250   1.798   0.545 -0.4026 -0.6005 -0.1724
 3364TIP3    H110098   1.289   1.770   0.627 -1.1777 -2.1084 -0.2752
 3364TIP3    H210099   1.223   1.888   0.560  0.6081 -0.4440  0.7926
 3365TIP3   OH210100   3.245   1.750   3.715  0.2964 -0.1493  0.2437
 3365TIP3    H110101   3.162   1.748   3.762 -0.1704  0.4331 -0.5438
 3365TIP3    H210102   3.282   1.663   3.729 -1.7798 -1.4505 -1.7358
 3366TIP3   OH210103   4.883   1.168   4.660 -0.2239  0.5484  0.4638
 3366TIP3    H110104   4.857   1.151   4.570  0.1665 -0.7826  0.5880
 3366TIP3    H210105   4.804   1.205   4.701  0.1111  2.8971 -0.8407
 3367TIP3   OH210106   5.211   3.347   0.713 -0.1460 -0.1680 -0.1229
 3367TIP3    H110107   5.176   3.379   0.796  0.6062 -0.6266  0.3845
 3367TIP3    H210108   5.196   3.419   0.652 -0.3686  0.3263  0.4989
 3368TIP3   OH210109   0.089   3.817   0.157 -0.3205 -0.2068  0.8921
 3368TIP3    H110110   0.130   3.825   0.071 -1.6383 -1.1993  0.1323
 3368TIP3    H210111   0.154   3.850   0.218  0.8506  0.0188 -0.4376
 3369TIP3   OH210112   3.139   1.212   4.972 -0.2476  0.0335 -0.0651
 3369TIP3    H110113   3.083   1.217   5.050 -0.4747  1.2395 -0.2878
 3369TIP3    H210114   3.201   1.143   4.992  0.2101  0.8495  1.5351
 3370TIP3   OH210115   0.093   5.549   2.484  0.1388  0.2397 -0.0048
 3370TIP3    H110116   0.160   5.499   2.530  1.6456  0.7572 -1.5392
 3370TIP3    H210117   0.088   5.632   2.532  1.8407  0.8575 -0.8380
 3371TIP3   OH210118   0.673   4.519   4.654 -0.1296 -0.6162 -0.6847
 3371TIP3    H110119   0.756   4.482   4.625 -0.2729 -1.4817 -0.0647
 3371TIP3    H210120   0.608   4.453   4.630 -0.2424 -1.4459  1.5818
 3372TIP3   OH210121   2.670   2.126   2.461  0.0766  0.6750 -0.1743
 3372TIP3    H110122   2.586   2.167   2.441  0.0187  0.7555  0.2379
 3372TIP3    H210123   2.735   2.187   2.424  0.0021  1.2800  0.6475
 3373TIP3   OH210124   6.280   4.098   0.055 -0.2403  0.5492  0.4625
 3373TIP3    H110125   6.241   4.022   0.011 -0.5165 -0.6606  2.6758
 3373TIP3    H210126   6.302   4.067   0.142 -0.0680  2.9530  1.3519
 3374TIP3   OH210127   2.268   0.303   3.629 -0.1183 -0.5993 -0.0570
 3374TIP3    H110128   2.216   0.366   3.579 -0.9413  0.3487  1.8673
 3374TIP3    H210129   2.204   0.258   3.684  0.8431 -0.9865  0.7699
 3375TIP3   OH210130   1.352   5.052   1.990  0.2087  0.4403  0.5671
 3375TIP3    H110131   1.372   5.021   2.078  1.9299  0.0076  0.0667
 3375TIP3    H210132   1.400   5.134   1.982 -0.6830  0.9552  0.3250
 3376TIP3   OH210133   2.391   4.443   4.956  0.1089 -0.5464 -0.2103
 3376TIP3    H110134   2.300   4.426   4.931 -0.3929  0.6480  0.7141
 3376TIP3    H210135   2.384   4.502   5.031  1.6226 -1.7071  0.8851
 3377TIP3   OH210136   0.257   4.716   4.329  0.1336 -0.1583  0.3891
 3377TIP3    H110137   0.204   4.748   4.256  0.9408  0.0251 -0.1311
 3377TIP3    H210138   0.213   4.751   4.407 -0.7080 -0.3128 -0.0050
 3378TIP3   OH210139   0.145   5.125   1.844 -0.2565  0.1857 -0.0343
 3378TIP3    H110140   0.225   5.171   1.869  1.2170 -2.8640  1.3735
 3378TIP3    H210141   0.074   5.187   1.864  1.4858  1.4300  2.8644
 3379TIP3   OH210142   3.522   3.952   3.162 -0.2255 -0.0766  0.0723
 3379TIP3    H110143   3.534   4.046   3.177 -0.7318 -0.1908  1.2507
 3379TIP3    H210144   3.603   3.925   3.117  1.2168  0.3683  2.2434
 3380TIP3   OH210145   0.837   5.048   0.844 -0.0089  0.1508  0.2903
 3380TIP3    H110146   0.876   5.135   0.839 -1.3682  0.7688  0.0370
 3380TIP3    H210147   0.861   5.007   0.760 -0.4329  0.7617 -0.1395
 3381TIP3   OH210148   0.219   2.730   3.813 -0.1814  0.4545 -0.1109
 3381TIP3    H110149   0.225   2.699   3.904 -2.9440  0.4809  0.1475
 3381TIP3    H210150   0.235   2.651   3.761  3.0053  0.7156  0.2344
 3382TIP3   OH210151   1.247   5.521   0.823  0.5787  0.5419  0.5843
 3382TIP3    H110152   1.263   5.488   0.912  0.3653  1.3491  0.9335
 3382TIP3    H210153   1.326   5.572   0.803  0.5293  0.5417  0.3927
 3383TIP3   OH210154   6.044   4.582   0.534  0.1512 -0.0551  0.2742
 3383TIP3    H110155   6.127   4.552   0.498  0.1383  0.0385  0.1642
 3383TIP3    H210156   6.056   4.579   0.629  0.2858 -0.0271  0.2584
 3384TIP3   OH210157   2.439   1.252   3.650 -0.1758  0.4383  0.3312
 3384TIP3    H110158   2.398   1.296   3.724 -2.3295 -0.8437 -0.0153
 3384TIP3    H210159   2.372   1.251   3.582  0.9702 -0.4074 -0.8539
 3385TIP3   OH210160   2.761   0.467   4.411 -0.4757  0.2697 -0.3493
 3385TIP3    H110161   2.807   0.487   4.493  0.0094 -0.0062 -0.5474
 3385TIP3    H210162   2.746   0.373   4.414 -0.9159  0.3393 -0.3476
 3386TIP3   OH210163   4.538   3.765   0.696 -0.6317 -0.2226  0.2901
 3386TIP3    H110164   4.470   3.763   0.764 -0.9791  1.1786  0.0111
 3386TIP3    H210165   4.531   3.680   0.653 -2.9950  0.2587 -0.4533
 3387TIP3   OH210166   2.622   1.736   1.354  0.5749 -0.2725  0.1903
 3387TIP3    H110167   2.711   1.766   1.369  0.6800 -0.4608 -0.0462
 3387TIP3    H210168   2.566   1.801   1.397  0.8547 -0.6050  1.0705
 3388TIP3   OH210169   5.518   4.645   2.929 -0.5424  0.3839  0.0579
 3388TIP3    H110170   5.522   4.734   2.895 -0.1171  0.2531 -0.2404
 3388TIP3    H210171   5.514   4.589   2.852  1.9879 -0.0012  0.1046
 3389TIP3   OH210172   0.723   1.914   1.071 -0.4089  0.3928  0.2370
 3389TIP3    H110173   0.662   1.841   1.067 -0.3657  0.4275 -2.1082
 3389TIP3    H210174   0.768   1.903   1.155  0.8136 -3.3178 -0.7265
 3390TIP3   OH210175   2.435   4.344   1.513 -0.2877  0.0251  0.0198
 3390TIP3    H110176   2.459   4.338   1.605  1.6611  0.2626 -0.4263
 3390TIP3    H210177   2.508   4.304   1.466  0.3214  2.6841 -1.5492
 3391TIP3   OH210178   4.226   0.601   1.814 -0.4658  0.2785 -0.6355
 3391TIP3    H110179   4.186   0.634   1.894 -0.1140  0.7986 -0.6704
 3391TIP3    H210180   4.317   0.631   1.818  0.2746 -1.8865  0.0323
 3392TIP3   OH210181   5.656   3.297   4.515 -0.3513 -0.1485  0.0785
 3392TIP3    H110182   5.583   3.255   4.468 -2.0293  2.1095  0.4698
 3392TIP3    H210183   5.614   3.343   4.588  1.1643  2.7071 -0.7025
 3393TIP3   OH210184   5.196   1.490   2.145 -0.5530  0.2400  0.2213
 3393TIP3    H110185   5.105   1.475   2.119 -0.9329  1.3177  0.8332
 3393TIP3    H210186   5.231   1.403   2.162 -1.2189 -0.2543 -0.8205
 3394TIP3   OH210187   4.784   0.335   2.006 -0.4198  0.3133 -0.3187
 3394TIP3    H110188   4.857   0.329   2.068 -0.6037  1.6140  0.0647
 3394TIP3    H210189   4.706   0.341   2.061 -0.6385  0.8406 -0.6702
 3395TIP3   OH210190   1.640   1.714   1.342 -0.3231 -0.3599  0.1308
 3395TIP3    H110191   1.640   1.771   1.265 -1.9390 -0.5184 -0.0151
 3395TIP3    H210192   1.676   1.631   1.311  0.7185  0.1305  0.0002
 3396TIP3   OH210193   1.516   0.184   0.942  0.5689 -0.2044 -0.1830
 3396TIP3    H110194   1.423   0.161   0.939  0.7629 -1.2608  0.9097
 3396TIP3    H210195   1.522   0.250   1.011  0.7356 -0.7478  0.3280
 3397TIP3   OH210196   3.785   1.642   0.444  0.1305  0.1632  0.4071
 3397TIP3    H110197   3.710   1.607   0.491 -0.6359  2.3119  0.9102
 3397TIP3    H210198   3.843   1.675   0.512  0.9631 -0.3806 -0.0274
 3398TIP3   OH210199   3.805   3.067   1.763  0.1061  0.1121  0.0745
 3398TIP3    H110200   3.810   3.163   1.760  1.9911  0.0369 -0.1780
 3398TIP3    H210201   3.711   3.049   1.773 -0.2668  1.9786  0.4232
 3399TIP3   OH210202   5.082   1.398   1.707 -0.4092 -0.2143  0.5929
 3399TIP3    H110203   5.015   1.381   1.773 -1.2744  1.2127  0.1349
 3399TIP3    H210204   5.070   1.330   1.641  0.5609 -1.7533  1.9095
 3400TIP3   OH210205   3.430   2.772   1.007  0.0141 -0.3550  0.3700
 3400TIP3    H110206   3.512   2.820   1.004  0.6919 -1.4577  0.4959
 3400TIP3    H210207   3.382   2.801   0.930  0.7072 -0.0124  0.0613
 3401TIP3   OH210208   2.741   2.268   1.629 -0.2510  0.3450 -0.1713
 3401TIP3    H110209   2.793   2.268   1.549 -0.7967  1.9040 -0.5671
 3401TIP3    H210210   2.753   2.180   1.665 -0.1259 -0.4510 -2.0327
 3402TIP3   OH210211   1.124   4.035   4.889 -0.2413 -0.4304  0.6415
 3402TIP3    H110212   1.191   4.090   4.848 -1.6233  0.1230 -0.9722
 3402TIP3    H210213   1.146   3.946   4.864  0.6382 -0.4042  1.2639
 3403TIP3   OH210214   2.177   5.861   1.515  0.0656  0.3923  0.2428
 3403TIP3    H110215   2.119   5.789   1.489  1.0356 -0.7268  1.1130
 3403TIP3    H210216   2.146   5.936   1.464 -1.8305 -0.2929  0.3184
 3404TIP3   OH210217   6.166   1.952   2.727 -0.2588 -0.2664  0.1987
 3404TIP3    H110218   6.202   1.941   2.639 -0.1726 -0.5696  0.2681
 3404TIP3    H210219   6.100   2.020   2.718  0.0009 -0.0401 -0.0265
 3405TIP3   OH210220   2.978   5.462   3.516  0.1296  0.0191 -0.1485
 3405TIP3    H110221   2.887   5.485   3.493 -0.3949  0.6586  2.2968
 3405TIP3    H210222   3.031   5.502   3.447 -1.3616  0.8858 -0.8359
 3406TIP3   OH210223   2.573   3.363   4.172  0.5915 -0.0150 -0.8398
 3406TIP3    H110224   2.510   3.306   4.129  2.0586 -1.4932 -1.1532
 3406TIP3    H210225   2.538   3.451   4.161 -0.9623 -0.7086 -1.7296
 3407TIP3   OH210226   3.496   3.530   3.931  0.3587 -0.6827 -0.2119
 3407TIP3    H110227   3.548   3.529   3.851 -0.6352  0.5177 -0.8965
 3407TIP3    H210228   3.424   3.589   3.912  0.0498 -0.4499  1.5464
 3408TIP3   OH210229   1.905   4.145   2.565  0.3466 -0.3234  0.5268
 3408TIP3    H110230   1.959   4.205   2.512 -2.3815  1.3311 -0.6164
 3408TIP3    H210231   1.886   4.072   2.506 -0.8565  0.4543 -0.1125
 3409TIP3   OH210232   3.379   5.283   1.578 -0.0858  0.1290 -0.0644
 3409TIP3    H110233   3.469   5.258   1.559  0.7593  2.7363  0.2421
 3409TIP3    H210234   3.360   5.354   1.517 -0.5385  2.2794  2.4280
 3410TIP3   OH210235   5.361   5.850   0.369 -0.5975 -0.6878 -0.3328
 3410TIP3    H110236   5.323   5.767   0.341 -1.7304  0.3793 -2.2517
 3410TIP3    H210237   5.285   5.907   0.382  0.1430  0.0318  1.1028
 3411TIP3   OH210238   4.962   1.527   3.867 -0.0941 -0.3200 -1.1355
 3411TIP3    H110239   4.879   1.533   3.914  0.0805  0.0110 -0.8584
 3411TIP3    H210240   5.023   1.491   3.931  0.0498 -0.2510 -1.2329
 3412TIP3   OH210241   0.106   5.640   2.206 -0.0851 -0.0789  0.0682
 3412TIP3    H110242   0.062   5.725   2.200 -1.2248 -0.6987 -0.7363
 3412TIP3    H210243   0.081   5.606   2.292  0.0341  0.2004  0.2174
 3413TIP3   OH210244   6.089   0.023   4.041 -0.1451  0.2495  0.2654
 3413TIP3    H110245   6.092   0.090   4.110  0.5173 -0.3832  0.8641
 3413TIP3    H210246   6.010   0.044   3.992 -0.6692  0.6821  1.2548
 3414TIP3   OH210247   5.695   3.690   0.314 -0.4655 -0.6638 -0.3118
 3414TIP3    H110248   5.738   3.659   0.393 -0.1083 -0.4735 -0.4279
 3414TIP3    H210249   5.767   3.710   0.254 -0.6721  0.6590 -0.1396
 3415TIP3   OH210250   5.409   0.143   0.809  0.2936 -1.0018 -0.2489
 3415TIP3    H110251   5.422   0.176   0.898 -0.6658  0.1473 -0.5082
 3415TIP3    H210252   5.441   0.053   0.812  1.5393 -0.5506  0.9001
 3416TIP3   OH210253   6.045   5.664   0.548 -0.5190  0.1937 -0.0156
 3416TIP3    H110254   6.120   5.605   0.544 -1.2421 -0.9041  1.5757
 3416TIP3    H210255   5.972   5.613   0.513 -0.7286  0.9119 -0.6549
 3417TIP3   OH210256   3.088   2.218   2.452  0.0615 -0.4683  0.1263
 3417TIP3    H110257   3.172   2.204   2.408  0.1191  0.3465 -0.0368
 3417TIP3    H210258   3.032   2.258   2.386  0.1756  0.8302  0.7904
 3418TIP3   OH210259   4.610   1.276   4.135 -0.4727 -0.0718  0.0446
 3418TIP3    H110260   4.553   1.214   4.090  0.4136 -0.6359 -0.3148
 3418TIP3    H210261   4.689   1.226   4.156 -0.5803  0.3573  1.6285
 3419TIP3   OH210262   2.789   1.251   4.829 -0.5321 -0.1696 -0.0546
 3419TIP3    H110263   2.776   1.194   4.904 -1.0293  0.6372  0.4930
 3419TIP3    H210264   2.713   1.309   4.829 -1.8135 -1.6451 -2.5862
 3420TIP3   OH210265   5.967   2.853   4.638 -0.1106 -0.2630 -0.6857
 3420TIP3    H110266   5.937   2.939   4.610  1.0350 -0.0455 -1.3123
 3420TIP3    H210267   5.918   2.791   4.584 -1.6432 -0.0688  0.4352
 3421TIP3   OH210268   3.951   0.558   4.260  0.0049 -0.0617  0.2935
 3421TIP3    H110269   3.980   0.476   4.220  0.3348  0.2419 -0.1026
 3421TIP3    H210270   3.893   0.597   4.194  0.1599  0.2077  0.3156
 3422TIP3   OH210271   5.317   2.678   3.430 -0.0192 -0.1363  0.2683
 3422TIP3    H110272   5.267   2.641   3.357 -1.1294 -0.0689  0.9685
 3422TIP3    H210273   5.382   2.734   3.389  1.2411 -2.2284 -0.8062
 3423TIP3   OH210274   5.235   3.417   3.857  0.1288  1.1427  0.1305
 3423TIP3    H110275   5.328   3.413   3.833  0.4641  2.9579  0.9695
 3423TIP3    H210276   5.228   3.361   3.934  0.6129  1.2990  0.2933
 3424TIP3   OH210277   2.736   3.968  -0.004 -0.6503  0.3685 -0.0193
 3424TIP3    H110278   2.763   3.990   0.085  1.2912 -0.3973 -0.3780
 3424TIP3    H210279   2.799   4.013  -0.060 -0.8934 -0.4307 -0.9547
 3425TIP3   OH210280   5.121   1.987   0.926 -0.4777 -0.4138  0.2042
 3425TIP3    H110281   5.210   2.019   0.912 -0.3040  0.6410  3.0238
 3425TIP3    H210282   5.130   1.892   0.927  0.8157 -0.3075  1.3037
 3426TIP3   OH210283   1.265   2.362   0.108 -0.1460  0.0801 -0.4938
 3426TIP3    H110284   1.275   2.441   0.055  2.0121  0.0737 -0.1841
 3426TIP3    H210285   1.327   2.373   0.180 -0.4545 -1.5052  0.0665
 3427TIP3   OH210286   5.260   5.136   2.602  0.0322 -0.5191 -0.8563
 3427TIP3    H110287   5.349   5.100   2.605  0.7019  1.1121  1.4305
 3427TIP3    H210288   5.206   5.070   2.646  0.7581 -0.0207  0.8328
 3428TIP3   OH210289   1.940   5.730   1.386 -0.2979  0.0897  0.4708
 3428TIP3    H110290   1.959   5.823   1.382 -1.1238  0.2592  0.4785
 3428TIP3    H210291   1.891   5.711   1.306  3.9169 -1.3277 -2.1062
 3429TIP3   OH210292   5.939   2.112   2.732 -0.1850 -0.0189  0.0760
 3429TIP3    H110293   5.960   2.197   2.694  2.3055  0.7594  2.8069
 3429TIP3    H210294   5.844   2.104   2.723 -0.2839  2.2772 -1.6823
 3430TIP3   OH210295   4.739   0.778   2.116  0.0685 -0.0664 -0.0296
 3430TIP3    H110296   4.808   0.807   2.176  0.0529 -0.3726  0.1366
 3430TIP3    H210297   4.700   0.702   2.159  0.5674 -0.7629 -0.7819
 3431TIP3   OH210298   2.058   0.743   0.574 -0.3890 -0.3878 -0.2673
 3431TIP3    H110299   2.071   0.770   0.483 -0.7715  0.9991  0.0581
 3431TIP3    H210300   2.034   0.651   0.569  0.0314 -0.4439 -1.5397
 3432TIP3   OH210301   3.889   3.210   0.274 -0.2650 -0.0683  0.1135
 3432TIP3    H110302   3.878   3.188   0.367 -0.2241  1.0760  0.3947
 3432TIP3    H210303   3.896   3.305   0.272 -0.0402 -0.0968 -1.0487
 3433TIP3   OH210304   5.135   5.289   2.446  0.2643 -0.0308  0.3060
 3433TIP3    H110305   5.173   5.223   2.505 -0.5168 -2.0835 -1.3595
 3433TIP3    H210306   5.050   5.252   2.422 -0.1120  1.5105 -0.8529
 3434TIP3   OH210307   6.255   4.342   4.250  0.8859 -0.0093 -0.4247
 3434TIP3    H110308   6.341   4.374   4.224  0.4962  1.9565  0.5064
 3434TIP3    H210309   6.199   4.360   4.175  0.9893  0.1027 -0.4748
 3435TIP3   OH210310   4.971   5.006   1.334  0.0570 -0.1906 -0.1973
 3435TIP3    H110311   4.945   4.975   1.247 -0.5335 -1.7912  0.5138
 3435TIP3    H210312   4.890   5.039   1.372  0.6776  2.4540 -0.9549
 3436TIP3   OH210313   4.463   1.981   0.831  0.1754 -0.1759 -0.0458
 3436TIP3    H110314   4.551   1.945   0.838  0.2116  0.1647  1.6847
 3436TIP3    H210315   4.443   2.013   0.919 -1.9215 -0.8493 -0.2108
 3437TIP3   OH210316   2.282   2.208   3.648 -0.6657  0.5076 -0.2360
 3437TIP3    H110317   2.204   2.223   3.700 -0.6413  1.2785 -0.4136
 3437TIP3    H210318   2.342   2.277   3.674  0.8634 -1.3557  1.5686
 3438TIP3   OH210319   1.434   1.482   2.429 -1.0496  0.8778 -0.1842
 3438TIP3    H110320   1.488   1.406   2.406 -0.0417  0.6837  2.4200
 3438TIP3    H210321   1.478   1.556   2.387 -0.4373  0.3468 -0.5018
 3439TIP3   OH210322   1.125   2.504   4.604 -0.9411  0.3350 -0.0478
 3439TIP3    H110323   1.043   2.534   4.642  0.0337  0.7280  1.8666
 3439TIP3    H210324   1.187   2.575   4.622  0.0195 -0.3316 -0.6587
 3440TIP3   OH210325   5.208   3.380   4.375  0.2541  0.0977  0.8064
 3440TIP3    H110326   5.157   3.455   4.344  0.9598  0.0246 -0.6336
 3440TIP3    H210327   5.143   3.312   4.392 -0.1514 -0.4340 -2.2384
 3441TIP3   OH210328   3.156   2.603   1.400  0.2803 -0.0795 -0.1081
 3441TIP3    H110329   3.168   2.674   1.463  0.6994 -1.3746  1.3522
 3441TIP3    H210330   3.113   2.644   1.325 -0.3714  1.5079  1.0697
 3442TIP3   OH210331   4.379   1.916   2.806 -0.7023  0.1433 -0.2063
 3442TIP3    H110332   4.364   1.979   2.876  0.8485  2.4030 -1.7665
 3442TIP3    H210333   4.327   1.839   2.831 -0.4167  0.9051  3.2467
 3443TIP3   OH210334   1.570   5.680   0.246 -0.3676 -0.0723  0.2959
 3443TIP3    H110335   1.570   5.763   0.198 -0.2785 -0.4632 -0.3946
 3443TIP3    H210336   1.648   5.684   0.301  2.2591 -1.4698 -2.9598
 3444TIP3   OH210337   5.801   1.295   3.610  0.4467 -0.4415 -0.5295
 3444TIP3    H110338   5.748   1.287   3.531 -0.6129 -1.4289  0.2449
 3444TIP3    H210339   5.746   1.260   3.680  1.4976  0.0561  0.5934
 3445TIP3   OH210340   5.515   3.688   2.696  0.3823 -0.5351  0.3594
 3445TIP3    H110341   5.484   3.773   2.665 -0.2125 -0.8756  0.0173
 3445TIP3    H210342   5.552   3.647   2.618  1.9167 -0.0582  0.7875
 3446TIP3   OH210343   2.299   1.451   5.069  0.1016  0.5209 -0.2050
 3446TIP3    H110344   2.294   1.391   5.143  3.9194 -0.3212 -0.4558
 3446TIP3    H210345   2.272   1.399   4.994  1.6235 -0.3952 -0.1526
 3447TIP3   OH210346   5.135   2.689   3.991 -0.2277 -0.3285 -0.0915
 3447TIP3    H110347   5.115   2.621   3.927  1.9644 -0.4954 -0.6925
 3447TIP3    H210348   5.205   2.740   3.951 -0.3378  0.9499  1.2602
 3448TIP3   OH210349   1.556   1.865   1.805  0.6495  0.2819 -0.1492
 3448TIP3    H110350   1.486   1.930   1.799 -2.5382 -2.4828  2.8565
 3448TIP3    H210351   1.560   1.826   1.717 -2.4347 -0.0850 -0.2396
 3449TIP3   OH210352   4.035   4.114   3.670 -0.3178 -0.3461  0.3966
 3449TIP3    H110353   4.068   4.053   3.735  0.5803  0.8711  1.1382
 3449TIP3    H210354   4.110   4.132   3.613 -0.5604  0.0721  0.1968
 3450TIP3   OH210355   0.961   3.083   0.905 -0.3075  0.5854 -0.0372
 3450TIP3    H110356   0.942   3.135   0.983  0.0759 -1.4904  1.5100
 3450TIP3    H210357   1.054   3.095   0.890  0.1908 -1.0968  1.4775
 3451TIP3   OH210358   6.121   0.435   2.976 -0.2636 -0.3459  0.8083
 3451TIP3    H110359   6.085   0.377   2.908  0.2212 -0.8321  0.9635
 3451TIP3    H210360   6.075   0.410   3.056 -2.1281  1.3953  0.3907
 3452TIP3   OH210361   6.271   4.642   4.400  0.3198  0.1200  0.6882
 3452TIP3    H110362   6.276   4.676   4.311  0.9534  0.2268  0.7603
 3452TIP3    H210363   6.361   4.645   4.432  0.1724 -0.3710  1.1663
 3453TIP3   OH210364   0.511   4.891   0.341  0.3105  0.3669 -0.1902
 3453TIP3    H110365   0.513   4.953   0.414  0.3327  1.1409 -0.8287
 3453TIP3    H210366   0.496   4.946   0.264  1.9460 -0.2482 -0.9812
 3454TIP3   OH210367   3.570   1.044   4.684  0.1817 -0.3113  0.6744
 3454TIP3    H110368   3.634   1.107   4.719 -0.9760  0.2294  1.9115
 3454TIP3    H210369   3.611   1.010   4.605  1.1087  1.5502  0.3039
 3455TIP3   OH210370   4.965   1.122   1.940  0.3836 -0.4840  0.2881
 3455TIP3    H110371   4.911   1.043   1.940  1.9027 -1.5831  1.1583
 3455TIP3    H210372   5.022   1.112   1.864  0.5067 -0.1631  0.3362
 3456TIP3   OH210373   0.102   6.011   3.415 -0.4671 -0.0496 -0.4244
 3456TIP3    H110374   0.155   5.932   3.424  2.2695  1.5327 -1.5147
 3456TIP3    H210375   0.052   5.998   3.334  0.3668 -0.4397 -0.8813
 3457TIP3   OH210376   3.279   2.311   0.861 -0.5883 -0.2350 -0.1736
 3457TIP3    H110377   3.245   2.223   0.877 -2.4929  0.4199 -0.4201
 3457TIP3    H210378   3.283   2.352   0.947  0.9657 -0.7439  0.0352
 3458TIP3   OH210379   3.526   2.895   3.168  0.1236  0.1245 -0.0033
 3458TIP3    H110380   3.614   2.910   3.133  0.4810 -1.3394  0.1681
 3458TIP3    H210381   3.500   2.979   3.204  1.1237  0.7963 -0.7842
 3459TIP3   OH210382   0.121   3.677   3.118  0.3060  0.1096 -0.5452
 3459TIP3    H110383   0.156   3.590   3.141  1.8849  0.3421 -1.8353
 3459TIP3    H210384   0.127   3.680   3.022  0.8768  1.8703 -0.4808
 3460TIP3   OH210385   4.193   3.806   3.113  0.2998 -0.1105  0.1137
 3460TIP3    H110386   4.288   3.795   3.120  0.1794 -0.9456  0.5110
 3460TIP3    H210387   4.164   3.735   3.055 -0.0918  0.0860  0.0616
 3461TIP3   OH210388   6.259   0.814   0.848 -0.0352  0.3506  0.4110
 3461TIP3    H110389   6.220   0.881   0.792 -0.5510 -0.1855  0.1074
 3461TIP3    H210390   6.332   0.858   0.892  1.1050  0.5165 -1.5145
 3462TIP3   OH210391   0.490   4.479   1.093 -0.5102  0.0576  0.2782
 3462TIP3    H110392   0.521   4.389   1.087 -1.1481 -0.3097  2.0073
 3462TIP3    H210393   0.459   4.500   1.005 -1.7899 -1.9403  0.2055
 3463TIP3   OH210394   4.529   3.574   4.616  0.2682  0.2770  0.3636
 3463TIP3    H110395   4.436   3.573   4.597  0.1583 -2.6844  0.5215
 3463TIP3    H210396   4.534   3.551   4.709  1.1396 -1.1710 -0.0060
 3464TIP3   OH210397   2.602   5.800   0.344  0.0598 -0.2538  0.1171
 3464TIP3    H110398   2.664   5.799   0.271  0.0693  0.8923  0.0873
 3464TIP3    H210399   2.530   5.855   0.313 -0.3248 -0.4337  0.6740
 3465TIP3   OH210400   1.674   2.001   4.623  0.3193 -0.7978  0.0677
 3465TIP3    H110401   1.711   1.967   4.542 -1.4443 -2.0531 -0.2581
 3465TIP3    H210402   1.608   2.064   4.594  2.2107  1.6015  0.6434
 3466TIP3   OH210403   2.517   5.883   3.873  0.5655  0.0839  0.7178
 3466TIP3    H110404   2.476   5.800   3.898 -2.4590  1.5258  1.0308
 3466TIP3    H210405   2.454   5.950   3.901  2.7683  2.4922  0.2751
 3467TIP3   OH210406   3.936   4.157   0.658 -0.2139 -0.2428 -0.7091
 3467TIP3    H110407   3.913   4.074   0.700  0.7060 -0.6299 -0.9456
 3467TIP3    H210408   3.936   4.136   0.564  1.6964 -0.4368 -0.6977
 3468TIP3   OH210409   1.091   5.088   0.097  0.3702 -0.0285  0.0335
 3468TIP3    H110410   1.101   5.050   0.184 -1.3410 -1.8141 -0.4536
 3468TIP3    H210411   1.180   5.095   0.063  0.9766 -0.4752  1.4678
 3469TIP3   OH210412   5.676   4.179   2.833  0.3477 -0.2837 -0.3814
 3469TIP3    H110413   5.732   4.107   2.806  0.7924 -0.2785  0.4948
 3469TIP3    H210414   5.682   4.242   2.761  2.7144  0.4093  0.3264
 3470TIP3   OH210415   1.606   0.512   2.074 -0.6467  0.0060 -0.1370
 3470TIP3    H110416   1.578   0.465   1.995 -1.3281  0.7179 -0.3290
 3470TIP3    H210417   1.638   0.443   2.133 -0.8305 -0.6050 -0.7427
 3471TIP3   OH210418   4.951   1.793   4.053  0.5158 -0.1733  0.1538
 3471TIP3    H110419   5.047   1.785   4.050  0.6132  0.9153 -0.4442
 3471TIP3    H210420   4.928   1.822   3.965 -0.1681  1.2794  0.7705
 3472TIP3   OH210421   0.158   5.125   0.725  0.3672  0.2648  0.3871
 3472TIP3    H110422   0.251   5.121   0.707  0.2476  1.7138 -0.7186
 3472TIP3    H210423   0.149   5.192   0.793  0.0557  1.0173 -0.3691
 3473TIP3   OH210424   0.016   0.687   3.150  0.0462 -0.3869  0.0047
 3473TIP3    H110425  -0.076   0.686   3.175  0.1397 -0.9582  0.3279
 3473TIP3    H210426   0.060   0.631   3.214  0.3723 -1.4210 -1.0718
 3474TIP3   OH210427   4.653   5.220   0.154 -0.3826 -0.3499 -0.3534
 3474TIP3    H110428   4.585   5.219   0.087 -1.1161  1.1591  0.3109
 3474TIP3    H210429   4.605   5.226   0.237  0.4607 -3.1580  0.4459
 3475TIP3   OH210430   3.366   3.288   3.107  0.8593  0.0049 -0.0586
 3475TIP3    H110431   3.282   3.286   3.153  1.6987 -0.3509  1.5046
 3475TIP3    H210432   3.342   3.294   3.014 -0.9642 -2.2823  0.1634
 3476TIP3   OH210433   3.725   2.779   2.723 -0.1862  0.4391 -0.3138
 3476TIP3    H110434   3.680   2.812   2.646  1.6830  0.0687 -1.6287
 3476TIP3    H210435   3.806   2.828   2.727 -0.9695  1.7435  2.5292
 3477TIP3   OH210436   4.827   5.564   0.108  0.6530 -0.3339  0.3236
 3477TIP3    H110437   4.873   5.481   0.123  0.2047 -0.7321 -0.4271
 3477TIP3    H210438   4.764   5.544   0.039 -0.4218  0.2976  1.1035
 3478TIP3   OH210439   3.975   4.084   1.897 -0.1978 -0.2869  0.0205
 3478TIP3    H110440   3.926   4.157   1.935 -0.5319 -0.6128  0.2158
 3478TIP3    H210441   3.941   4.076   1.808  0.6192  0.5081 -0.3913
 3479TIP3   OH210442   3.530   5.873   0.105  0.6357  0.0995  0.2957
 3479TIP3    H110443   3.474   5.903   0.034 -1.0279 -2.3799  0.4410
 3479TIP3    H210444   3.508   5.930   0.179 -0.5119  0.2096 -0.1114
 3480TIP3   OH210445   5.109   0.413   3.059 -0.3420 -0.1209 -0.1122
 3480TIP3    H110446   5.129   0.328   3.100 -0.5755 -0.7936 -1.3334
 3480TIP3    H210447   5.016   0.427   3.077 -0.6003 -0.7213 -0.9201
 3481TIP3   OH210448   2.527   0.246   3.990  0.4834  0.2019 -0.2567
 3481TIP3    H110449   2.518   0.320   4.050  0.9790 -0.7939  1.0912
 3481TIP3    H210450   2.566   0.284   3.911  2.3169  1.1213  1.0186
 3482TIP3   OH210451   2.211   5.477   3.053  0.2732 -0.3869  0.5007
 3482TIP3    H110452   2.195   5.386   3.077 -0.2393 -0.4302  0.0194
 3482TIP3    H210453   2.239   5.473   2.961  0.2264 -0.0613  0.4702
 3483TIP3   OH210454   0.322   1.819   4.685 -0.1958 -0.2672 -0.4151
 3483TIP3    H110455   0.236   1.782   4.664  0.2792 -1.4644 -0.3612
 3483TIP3    H210456   0.361   1.755   4.745  0.5165  0.5373 -0.0021
 3484TIP3   OH210457   0.300   5.867   3.119 -0.9804  0.6624  0.3570
 3484TIP3    H110458   0.336   5.861   3.207  2.0351  0.2968 -0.7785
 3484TIP3    H210459   0.275   5.777   3.097 -0.0452  0.4196  0.2350
 3485TIP3   OH210460   3.109   1.867   3.122  0.2329  0.3005 -0.5813
 3485TIP3    H110461   3.108   1.912   3.207  0.6716  0.2245 -0.5345
 3485TIP3    H210462   3.072   1.931   3.061 -1.9018 -0.3194 -0.0207
 3486TIP3   OH210463   2.792   4.026   2.191 -0.2451 -0.2532  0.6574
 3486TIP3    H110464   2.855   4.003   2.260  1.3711 -1.6468 -1.1827
 3486TIP3    H210465   2.753   3.943   2.165  0.2736  0.0047 -1.0854
 3487TIP3   OH210466   1.581   2.458   2.674  0.2800 -0.0110 -0.4614
 3487TIP3    H110467   1.672   2.484   2.693  0.6440 -1.3998 -0.1361
 3487TIP3    H210468   1.562   2.392   2.740 -0.9419  0.1658 -0.6163
 3488TIP3   OH210469   4.952   0.319   1.437  0.1973  0.2527 -0.1165
 3488TIP3    H110470   5.033   0.329   1.386  0.3560 -0.1634  0.0454
 3488TIP3    H210471   4.899   0.258   1.386  0.7845 -0.9886  0.6917
 3489TIP3   OH210472   0.264   0.381   3.305 -0.3008  0.0189 -0.0800
 3489TIP3    H110473   0.216   0.313   3.259 -2.4305  2.0265 -1.0236
 3489TIP3    H210474   0.309   0.430   3.236 -0.4579  0.7965  0.3511
 3490TIP3   OH210475   3.351   3.100   0.560  0.0292 -0.6637 -0.8820
 3490TIP3    H110476   3.391   3.146   0.486 -0.9905  1.4096 -0.2338
 3490TIP3    H210477   3.412   3.030   0.581  1.3057 -0.0777 -2.4379
 3491TIP3   OH210478   0.939   5.299   3.801  0.1200  0.0428 -0.4342
 3491TIP3    H110479   1.032   5.321   3.804  0.1334 -0.1420  0.7930
 3491TIP3    H210480   0.926   5.239   3.874 -1.1587  0.8456  0.0219
 3492TIP3   OH210481   5.162   3.218   2.492  0.7273 -0.3090 -0.5149
 3492TIP3    H110482   5.084   3.274   2.498  0.4953 -0.5912 -0.8563
 3492TIP3    H210483   5.128   3.129   2.501  0.9021 -0.4857 -1.4830
 3493TIP3   OH210484   2.265   1.578   3.052  0.4484  0.4723  1.1217
 3493TIP3    H110485   2.332   1.510   3.046  0.3805  0.2904  2.1501
 3493TIP3    H210486   2.280   1.618   3.138  0.4794  1.7503  0.5325
 3494TIP3   OH210487   3.465   0.744   3.893  0.0280  0.1362  0.0274
 3494TIP3    H110488   3.422   0.682   3.833 -0.2970 -1.2444  1.6213
 3494TIP3    H210489   3.426   0.726   3.978 -0.4769  2.9616  0.4706
 3495TIP3   OH210490   0.147   5.349   3.165  0.0530  0.1022 -0.3048
 3495TIP3    H110491   0.201   5.407   3.111 -0.5517 -0.3710 -1.4489
 3495TIP3    H210492   0.204   5.325   3.238  0.4971  1.6802 -0.0924
 3496TIP3   OH210493   1.786   3.872   3.069  0.1200  0.1621 -0.3084
 3496TIP3    H110494   1.743   3.878   2.983 -2.9610  2.4415  1.1888
 3496TIP3    H210495   1.807   3.963   3.091  0.0818 -0.2681  1.6678
 3497TIP3   OH210496   1.102   4.723   0.939  0.0377  0.1860 -0.1028
 3497TIP3    H110497   1.108   4.813   0.908  0.9906 -0.2561 -1.2732
 3497TIP3    H210498   1.055   4.730   1.023  2.1226  2.0333  1.0268
 3498TIP3   OH210499   4.168   3.845   0.385 -0.0945 -0.4684 -0.5942
 3498TIP3    H110500   4.165   3.851   0.290 -0.0480 -0.7151 -0.6112
 3498TIP3    H210501   4.140   3.755   0.405  0.9242 -0.7698 -0.4298
 3499TIP3   OH210502   6.211   3.511   1.064 -0.0336 -0.2027  0.1980
 3499TIP3    H110503   6.192   3.434   1.117 -0.3214  0.0480  0.4665
 3499TIP3    H210504   6.149   3.577   1.096 -0.0207  0.0343 -0.2631
 3500TIP3   OH210505   0.923   5.787   1.166 -0.0180  1.0687  0.3668
 3500TIP3    H110506   0.982   5.849   1.122 -2.8303  5.1807  1.7765
 3500TIP3    H210507   0.850   5.777   1.105 -0.3416  0.3942  0.8583
 3501TIP3   OH210508   3.790   2.399   4.955  0.5491 -0.2054 -0.2286
 3501TIP3    H110509   3.845   2.458   4.904  1.2601  0.1541  0.9119
 3501TIP3    H210510   3.847   2.369   5.027 -0.7745  0.3004  1.0818
 3502TIP3   OH210511   1.855   0.124   2.278 -0.0203  0.1993  0.7868
 3502TIP3    H110512   1.837   0.030   2.284 -0.5383  0.2265 -0.1188
 3502TIP3    H210513   1.777   0.166   2.313 -0.8138  0.2957 -1.0033
 3503TIP3   OH210514   1.971   0.295   3.826 -0.0272 -0.4182  0.0159
 3503TIP3    H110515   1.998   0.245   3.749 -1.1583  0.4911 -1.0085
 3503TIP3    H210516   2.042   0.282   3.890  0.3789 -2.1169 -0.7426
 3504TIP3   OH210517   5.207   0.361   0.884 -0.2145  0.1693 -0.3330
 3504TIP3    H110518   5.271   0.331   0.948 -0.4480 -0.0555 -0.2050
 3504TIP3    H210519   5.259   0.394   0.810  0.0458 -2.3081 -1.3293
 3505TIP3   OH210520   2.885   4.182   0.609  0.0296  0.0631  0.1891
 3505TIP3    H110521   2.894   4.122   0.684  0.0929 -0.3793 -0.1676
 3505TIP3    H210522   2.975   4.205   0.585  0.0649 -0.7024 -0.4636
 3506TIP3   OH210523   6.270   5.426   3.863 -0.1924 -0.1755  0.3047
 3506TIP3    H110524   6.274   5.512   3.820  0.7216  1.4195  3.2833
 3506TIP3    H210525   6.196   5.434   3.924  0.5311 -1.1120  1.3348
 3507TIP3   OH210526   0.509   1.400   3.004 -1.1769 -0.2467  0.2681
 3507TIP3    H110527   0.540   1.345   2.931 -0.6924 -0.4270  0.6063
 3507TIP3    H210528   0.588   1.442   3.038 -1.1151 -1.5574  1.8420
 3508TIP3   OH210529   4.433   4.908   1.774  0.3913  0.1226 -0.3166
 3508TIP3    H110530   4.362   4.913   1.710  0.4055  1.4490 -0.2542
 3508TIP3    H210531   4.473   4.823   1.759  0.1830  0.2696 -1.8530
 3509TIP3   OH210532   4.172   1.686   4.559 -0.3048 -0.1212  0.1128
 3509TIP3    H110533   4.077   1.683   4.562 -0.3303 -1.2792 -1.1193
 3509TIP3    H210534   4.199   1.594   4.556  0.8722  0.1820  0.8853
 3510TIP3   OH210535   5.912   2.631   2.482  0.1283 -0.1048  0.3718
 3510TIP3    H110536   5.925   2.546   2.524 -0.5332 -0.6067 -0.4026
 3510TIP3    H210537   5.898   2.609   2.390  0.0609  0.8619  0.1505
 3511TIP3   OH210538   3.950   1.306   2.020 -0.1197  0.4444  0.1278
 3511TIP3    H110539   3.989   1.233   1.971  1.8473  1.7307 -0.3954
 3511TIP3    H210540   3.864   1.276   2.045  0.1966 -1.6275 -1.0549
 3512TIP3   OH210541   2.664   2.490   4.199  0.4788  0.1855 -0.5238
 3512TIP3    H110542   2.655   2.552   4.126 -1.6618  0.2887 -0.2435
 3512TIP3    H210543   2.622   2.410   4.167  1.1740 -0.3803 -0.0433
 3513TIP3   OH210544   0.020   1.996   2.546  0.9145  0.3765  0.2558
 3513TIP3    H110545   0.011   1.907   2.513 -0.5556  0.0546  1.4005
 3513TIP3    H210546   0.036   2.049   2.468  2.4551 -0.9246 -0.3863
 3514TIP3   OH210547   4.624   1.959   1.813  0.3556 -0.1393 -0.4900
 3514TIP3    H110548   4.687   1.923   1.751  0.4995 -2.0946  0.7071
 3514TIP3    H210549   4.657   1.932   1.899 -2.5298 -1.9990  0.1586
 3515TIP3   OH210550   2.103   5.152   4.922  0.0413  0.0892  0.2863
 3515TIP3    H110551   2.179   5.096   4.932  0.7326  0.7170 -1.1659
 3515TIP3    H210552   2.037   5.096   4.882  0.5186  0.1209 -0.5701
 3516TIP3   OH210553   4.834   5.352   1.146  0.6757  0.4102 -0.7426
 3516TIP3    H110554   4.792   5.418   1.090  1.7134 -1.5041 -4.0284
 3516TIP3    H210555   4.773   5.278   1.146  0.8002  0.2824  0.5816
 3517TIP3   OH210556   2.754   0.582   0.067  0.2376  0.6061 -0.2819
 3517TIP3    H110557   2.694   0.576   0.141  0.4138 -2.9438 -0.3010
 3517TIP3    H210558   2.778   0.675   0.064 -2.3780  1.4991  1.9616
 3518TIP3   OH210559   1.317   2.090   4.954  0.1092  0.6640 -0.4871
 3518TIP3    H110560   1.372   2.022   4.917  3.4264  2.4725  0.6704
 3518TIP3    H210561   1.301   2.150   4.882  1.0400  0.8985 -0.5129
 3519TIP3   OH210562   2.780   0.286   4.786  0.1853 -0.0056  0.0463
 3519TIP3    H110563   2.874   0.266   4.784  0.2193  0.1732 -0.2514
 3519TIP3    H210564   2.775   0.377   4.755 -0.0708  0.0357  0.2133
 3520TIP3   OH210565   5.403   2.545   0.126  0.2269  0.0190 -0.1883
 3520TIP3    H110566   5.452   2.606   0.181  0.0543  0.0221 -0.0353
 3520TIP3    H210567   5.387   2.594   0.045  1.0339 -0.2104 -0.4945
 3521TIP3   OH210568   4.386   3.538   1.700  0.2799  0.1821 -0.2222
 3521TIP3    H110569   4.348   3.504   1.781 -0.4347  1.1877 -0.1218
 3521TIP3    H210570   4.451   3.472   1.675  0.8139  0.0484  1.3848
 3522TIP3   OH210571   3.110   4.938   1.117 -0.1683  0.4754 -0.0483
 3522TIP3    H110572   3.019   4.909   1.117 -0.5500  1.5436  1.1492
 3522TIP3    H210573   3.127   4.961   1.208  1.3244  0.2636 -0.2535
 3523TIP3   OH210574   0.100   5.755   4.891 -0.0573  1.1674 -0.3990
 3523TIP3    H110575   0.044   5.813   4.841 -1.5598  0.4848  0.4210
 3523TIP3    H210576   0.060   5.668   4.882  1.3936  0.4754 -0.5385
 3524TIP3   OH210577   3.678   1.442   3.134  0.0772 -0.0348 -0.6966
 3524TIP3    H110578   3.638   1.467   3.217 -2.4768 -3.5496 -0.6475
 3524TIP3    H210579   3.669   1.520   3.079 -0.5141  1.5373  1.4909
 3525TIP3   OH210580   4.413   3.388   3.969 -0.4592  0.5232  0.4188
 3525TIP3    H110581   4.396   3.398   3.875 -0.6919  0.1650  0.4214
 3525TIP3    H210582   4.464   3.308   3.976 -0.8269  0.3050  0.6390
 3526TIP3   OH210583   4.993   1.510   5.182 -0.1194  0.2525 -0.3456
 3526TIP3    H110584   4.981   1.539   5.092 -1.2620  2.7886  0.5365
 3526TIP3    H210585   5.054   1.572   5.220  0.7116 -1.0584  0.5447
 3527TIP3   OH210586   2.070   5.654   1.889 -0.2743 -0.3716 -0.4017
 3527TIP3    H110587   2.138   5.716   1.914 -1.2035  0.0024  1.3276
 3527TIP3    H210588   2.042   5.682   1.802  0.5890  0.5109 -0.4026
 3528TIP3   OH210589   5.018   1.759   2.887  0.5064  0.1886  0.4925
 3528TIP3    H110590   4.951   1.821   2.918 -0.1784 -1.4198  2.4790
 3528TIP3    H210591   5.094   1.776   2.943  0.6525 -0.1221  0.3895
 3529TIP3   OH210592   2.818   1.871   1.156 -0.1945  0.2048  0.0168
 3529TIP3    H110593   2.864   1.789   1.137  0.0099  0.4958 -0.7785
 3529TIP3    H210594   2.821   1.878   1.251 -0.0584 -0.6206  0.0867
 3530TIP3   OH210595   4.610   4.736   3.680  1.4522  0.0752  0.5079
 3530TIP3    H110596   4.610   4.663   3.618 -2.1894  0.2480  0.0738
 3530TIP3    H210597   4.559   4.704   3.755  0.4439  1.8581  0.6445
 3531TIP3   OH210598   0.764   0.912   1.423 -0.3148  0.4567  0.0807
 3531TIP3    H110599   0.835   0.949   1.475  0.7983 -0.6545 -0.5820
 3531TIP3    H210600   0.787   0.932   1.333  1.3822 -3.2465 -0.5165
 3532TIP3   OH210601   4.101   1.742   3.266  0.6618 -0.4350  0.5888
 3532TIP3    H110602   4.028   1.778   3.317  1.2972 -1.1056  2.0167
 3532TIP3    H210603   4.062   1.718   3.182 -0.6513 -0.2806  1.1316
 3533TIP3   OH210604   3.760   1.924   2.883 -0.0553 -0.0311 -0.1997
 3533TIP3    H110605   3.777   1.985   2.811 -0.1439  0.4891  0.2163
 3533TIP3    H210606   3.730   1.979   2.955  1.9848 -0.2964  0.9105
 3534TIP3   OH210607   6.050   0.158   4.279 -0.2209  0.3809  0.6854
 3534TIP3    H110608   6.103   0.185   4.354 -0.3520  1.3899  0.4302
 3534TIP3    H210609   5.970   0.209   4.287 -0.9901 -0.7980  0.8185
 3535TIP3   OH210610   2.817   2.450   0.881  0.2445 -0.0253 -0.4128
 3535TIP3    H110611   2.752   2.423   0.816  1.1730 -0.7177 -1.0721
 3535TIP3    H210612   2.820   2.377   0.943 -0.8804  0.7731  0.6297
 3536TIP3   OH210613   3.833   1.796   3.403 -0.1154  0.5685 -0.4090
 3536TIP3    H110614   3.837   1.890   3.422  2.3332  0.4989 -0.2452
 3536TIP3    H210615   3.777   1.789   3.325 -0.5035  2.1118 -0.2995
 3537TIP3   OH210616   4.457   3.449   0.613  0.2961  0.2052  0.8851
 3537TIP3    H110617   4.548   3.423   0.623  0.2699 -0.5593 -0.6217
 3537TIP3    H210618   4.406   3.372   0.639  0.0875  0.4391  1.1789
 3538TIP3   OH210619   1.295   3.685   2.311  0.0210  0.1762  0.4703
 3538TIP3    H110620   1.219   3.734   2.342 -0.9005 -1.5127  1.0034
 3538TIP3    H210621   1.282   3.677   2.216  0.1036  0.8074  0.4017
 3539TIP3   OH210622   3.056   4.946   4.000  0.2460  0.3305  0.1553
 3539TIP3    H110623   3.043   4.992   4.083  1.4919 -0.6422  0.9198
 3539TIP3    H210624   3.089   4.860   4.024 -0.1231 -0.2665 -1.3307
 3540TIP3   OH210625   3.726   2.947   2.034  0.0873  0.0405 -0.3511
 3540TIP3    H110626   3.808   2.983   2.001 -0.0325  0.0889 -0.5964
 3540TIP3    H210627   3.747   2.919   2.123  0.1243  0.9188 -0.0768
 3541TIP3   OH210628   2.377   4.694   0.924  0.2411  0.5576 -0.4239
 3541TIP3    H110629   2.435   4.624   0.894 -1.8029 -0.9237 -1.1766
 3541TIP3    H210630   2.320   4.712   0.849 -1.6656  0.4051  0.9123
 3542TIP3   OH210631   5.641   3.197   3.211 -0.4142  0.0051  0.0920
 3542TIP3    H110632   5.609   3.277   3.253 -1.1030  1.1504 -2.4377
 3542TIP3    H210633   5.735   3.195   3.231 -0.4917  1.1294  0.6392
 3543TIP3   OH210634   3.856   2.395   1.448  0.0117 -0.8299 -0.2748
 3543TIP3    H110635   3.838   2.316   1.397  2.0228 -1.2967 -0.3417
 3543TIP3    H210636   3.847   2.466   1.384 -0.8705 -1.0820 -0.4436
 3544TIP3   OH210637   4.296   3.701   4.965  0.5752 -0.0627  0.4535
 3544TIP3    H110638   4.223   3.698   5.028 -0.1362  0.2544 -0.3422
 3544TIP3    H210639   4.295   3.790   4.930 -0.6638 -0.9053 -1.8537
 3545TIP3   OH210640   4.233   5.446   2.296  0.4650  0.4233 -0.1795
 3545TIP3    H110641   4.183   5.443   2.214  1.2916  0.0465 -0.6732
 3545TIP3    H210642   4.171   5.415   2.362  0.5914 -1.9337 -1.0686
 3546TIP3   OH210643   5.447   4.215   2.492  0.0594  0.4612  0.2037
 3546TIP3    H110644   5.535   4.179   2.505  0.2866  1.0466  0.3291
 3546TIP3    H210645   5.451   4.256   2.406  0.2118  1.3417  0.6202
 3547TIP3   OH210646   1.264   2.806   3.149  0.4052 -0.5758 -0.7491
 3547TIP3    H110647   1.240   2.880   3.205  2.0887 -0.1461 -0.5491
 3547TIP3    H210648   1.208   2.735   3.180 -0.5770  0.3524 -0.3134
 3548TIP3   OH210649   5.494   3.423   3.714 -0.2652 -0.2274  0.1165
 3548TIP3    H110650   5.422   3.446   3.654 -1.1700 -1.6826  0.5875
 3548TIP3    H210651   5.538   3.506   3.731 -1.6247  0.6618 -0.4785
 3549TIP3   OH210652   3.047   2.916   3.086 -1.0509 -0.2873  0.0389
 3549TIP3    H110653   3.081   2.886   3.001  1.8068  0.4549  0.8136
 3549TIP3    H210654   3.088   2.858   3.150 -1.4214  0.5528  1.0529
 3550TIP3   OH210655   4.444   1.136   4.784  0.0187  0.3579 -0.1204
 3550TIP3    H110656   4.433   1.074   4.857  3.0674  1.1751  1.1784
 3550TIP3    H210657   4.380   1.108   4.719 -1.1277 -1.9544  1.8620
 3551TIP3   OH210658   3.705   0.130   0.873  0.0133 -0.0445 -0.1312
 3551TIP3    H110659   3.683   0.169   0.788 -0.3549 -1.0183 -0.4980
 3551TIP3    H210660   3.653   0.180   0.936 -0.4913  0.0376 -0.5989
 3552TIP3   OH210661   0.294   4.277   3.475 -0.8756  0.2038 -0.3177
 3552TIP3    H110662   0.212   4.312   3.509  0.3424  2.6888  0.3037
 3552TIP3    H210663   0.326   4.220   3.544 -1.4101  0.3322  0.0428
 3553TIP3   OH210664   1.612   5.686   3.477  0.6975  0.4945  0.6783
 3553TIP3    H110665   1.680   5.636   3.431 -0.2334 -0.3998  0.2214
 3553TIP3    H210666   1.657   5.762   3.512  1.9959 -0.2426  0.6595
 3554TIP3   OH210667   1.988   4.988   3.038 -0.2398  0.2170 -0.6834
 3554TIP3    H110668   1.939   5.006   2.958 -1.8257  0.2794  0.2538
 3554TIP3    H210669   1.995   4.892   3.041 -0.4025  0.2028 -0.7733
 3555TIP3   OH210670   4.477   5.053   4.502  0.1175 -0.6872 -0.0408
 3555TIP3    H110671   4.489   5.022   4.412  2.3519  0.2932 -0.1453
 3555TIP3    H210672   4.566   5.069   4.534 -0.7325  2.8297  0.9538
 3556TIP3   OH210673   4.745   3.902   2.108  0.4732  0.3192 -0.4764
 3556TIP3    H110674   4.774   3.950   2.031 -0.1621  1.8516  0.2092
 3556TIP3    H210675   4.810   3.923   2.175 -0.2148  0.8260  0.0363
 3557TIP3   OH210676   0.381   4.379   1.612  0.6662  0.8305  0.0046
 3557TIP3    H110677   0.414   4.442   1.677 -0.8698  0.0880  1.5933
 3557TIP3    H210678   0.414   4.295   1.643 -0.6315  0.3864  0.2534
 3558TIP3   OH210679   3.910   1.122   1.738 -0.4548  0.4160 -0.2901
 3558TIP3    H110680   3.925   1.062   1.665 -0.6935 -0.1637  0.1210
 3558TIP3    H210681   3.996   1.131   1.779 -0.5848 -0.4061  0.2003
 3559TIP3   OH210682   0.607   1.195   4.298 -0.1853 -0.1100 -0.2833
 3559TIP3    H110683   0.522   1.173   4.262 -0.1557 -1.1958  0.2408
 3559TIP3    H210684   0.589   1.257   4.369 -0.6400 -0.9736  0.3741
 3560TIP3   OH210685   5.876   1.872   0.275 -0.0593 -0.2510 -0.2798
 3560TIP3    H110686   5.797   1.857   0.327  0.8416 -0.8618  0.9863
 3560TIP3    H210687   5.858   1.830   0.191 -2.6190  3.1048 -1.5882
 3561TIP3   OH210688   4.121   3.671   2.873 -0.2245 -0.6240  0.1042
 3561TIP3    H110689   4.197   3.647   2.820 -0.5187 -1.8912  0.2348
 3561TIP3    H210690   4.052   3.688   2.808 -0.2188 -0.8583  0.0368
 3562TIP3   OH210691   4.864   5.021   0.166 -0.1074  0.2081 -0.4991
 3562TIP3    H110692   4.792   4.973   0.205  2.0465 -0.9742  2.4090
 3562TIP3    H210693   4.830   5.110   0.153 -1.9564 -0.1951  1.1216
 3563TIP3   OH210694   6.103   2.085   2.384  0.6345  0.0815 -0.9140
 3563TIP3    H110695   6.177   2.122   2.337 -0.5776 -1.8558 -4.7804
 3563TIP3    H210696   6.097   1.994   2.353 -2.2691 -0.3887  0.6248
 3564TIP3   OH210697   0.751   3.502   4.098 -0.3178 -0.0915 -0.3590
 3564TIP3    H110698   0.736   3.541   4.012  4.5928  3.4516 -0.0520
 3564TIP3    H210699   0.707   3.561   4.159 -1.0622 -0.7158 -0.2884
 3565TIP3   OH210700   4.258   5.060   2.221 -0.1056  0.0132 -0.0142
 3565TIP3    H110701   4.312   5.017   2.155 -2.4680 -0.8967 -1.4829
 3565TIP3    H210702   4.234   4.991   2.283  1.2132  0.6373  1.2503
 3566TIP3   OH210703   1.503   1.907   2.193 -0.7035  0.2122  0.4841
 3566TIP3    H110704   1.463   1.887   2.109 -1.3120  0.1744  0.7815
 3566TIP3    H210705   1.528   1.999   2.186 -0.3340  0.0874  0.0973
 3567TIP3   OH210706   0.718   0.987   0.697 -0.0833 -0.3098 -0.1651
 3567TIP3    H110707   0.634   0.957   0.662  0.5522 -0.5536 -1.5582
 3567TIP3    H210708   0.695   1.059   0.756 -1.3077 -0.7932 -0.0281
 3568TIP3   OH210709   4.171   5.010   1.562  0.8111 -0.1350 -0.2010
 3568TIP3    H110710   4.085   4.979   1.533  1.2321  0.0234 -1.7083
 3568TIP3    H210711   4.199   4.946   1.628  0.6691 -1.6854 -1.5865
 3569TIP3   OH210712   3.193   1.464   2.497 -0.1040  0.1418  0.0117
 3569TIP3    H110713   3.254   1.535   2.516  1.1967 -1.1199  0.7569
 3569TIP3    H210714   3.149   1.491   2.416  0.6763  1.5762  0.0318
 3570TIP3   OH210715   0.686   0.998   1.905 -0.1268  0.1407 -0.1025
 3570TIP3    H110716   0.607   1.008   1.959 -0.0326 -0.2713  0.1197
 3570TIP3    H210717   0.662   1.035   1.820 -0.9724 -1.0408 -0.4157
 3571TIP3   OH210718   5.931   4.490   2.437  0.3551 -0.0677 -0.7354
 3571TIP3    H110719   6.008   4.457   2.484  1.5157 -0.5244 -2.8282
 3571TIP3    H210720   5.941   4.585   2.439  0.9783 -0.1222 -0.9780
 3572TIP3   OH210721   0.196   1.895   2.757  0.1243 -0.3727  0.1021
 3572TIP3    H110722   0.204   1.987   2.782  0.8075 -0.5957  0.7395
 3572TIP3    H210723   0.188   1.897   2.662  2.7005  0.2511 -0.1934
 3573TIP3   OH210724   5.701   5.013   0.136  0.5816  0.1730  0.1074
 3573TIP3    H110725   5.661   5.081   0.082  0.8133 -0.3393 -0.7410
 3573TIP3    H210726   5.741   5.060   0.209 -1.2639  0.7189  0.8056
 3574TIP3   OH210727   6.342   1.063   3.250  0.6964 -0.0022 -0.2266
 3574TIP3    H110728   6.342   0.978   3.293  0.1864  0.0286 -0.1566
 3574TIP3    H210729   6.268   1.059   3.189 -1.7704  1.6468  2.3571
 3575TIP3   OH210730   1.964   3.122   3.322  0.2042  0.0579  0.3529
 3575TIP3    H110731   1.932   3.069   3.249  0.9122  1.1213 -0.7641
 3575TIP3    H210732   1.946   3.069   3.400 -1.1666 -0.8226 -0.5227
 3576TIP3   OH210733   4.477   0.670   3.543 -0.0678 -0.2161 -0.1176
 3576TIP3    H110734   4.397   0.643   3.589  1.2285 -0.1247  2.4095
 3576TIP3    H210735   4.540   0.601   3.563  1.5453  1.5430  1.3117
 3577TIP3   OH210736   3.893   5.158   3.135  0.2164 -0.2887  0.0248
 3577TIP3    H110737   3.858   5.102   3.065 -0.0103 -1.0136  0.6914
 3577TIP3    H210738   3.882   5.105   3.214  1.2786  0.1609  0.4849
 3578TIP3   OH210739   5.160   1.573   1.493  0.2504 -0.1131  0.0453
 3578TIP3    H110740   5.226   1.553   1.559 -0.8297  1.5422  1.7285
 3578TIP3    H210741   5.077   1.547   1.534 -0.4127  0.6469 -0.7967
 3579TIP3   OH210742   3.828   4.755   0.654  0.1085  0.4060  0.0646
 3579TIP3    H110743   3.749   4.742   0.707  0.9934  0.1231  1.3651
 3579TIP3    H210744   3.824   4.686   0.588 -0.8768  0.5927 -0.0975
 3580TIP3   OH210745   4.537   2.380   0.834 -0.4167  0.5821 -0.1893
 3580TIP3    H110746   4.630   2.358   0.844 -0.8602 -0.2816  3.0104
 3580TIP3    H210747   4.537   2.471   0.803  1.4429  0.2441 -1.3283
 3581TIP3   OH210748   0.031   2.831   2.900 -0.3628  0.5415 -0.4129
 3581TIP3    H110749  -0.010   2.750   2.870 -0.1943  1.0301 -2.0452
 3581TIP3    H210750  -0.010   2.849   2.984  2.4698 -3.4180  2.1868
 3582TIP3   OH210751   1.677   0.108   1.159  0.0880  0.0495 -0.1497
 3582TIP3    H110752   1.762   0.150   1.148  0.1908 -0.3654 -1.0978
 3582TIP3    H210753   1.637   0.113   1.072 -0.4169 -0.6836  0.0324
 3583TIP3   OH210754   0.368   5.222   3.305  0.0121 -0.4249  0.1278
 3583TIP3    H110755   0.437   5.252   3.363  0.6545 -0.7915 -0.4345
 3583TIP3    H210756   0.407   5.148   3.257 -0.5867 -0.2958 -0.5777
 3584TIP3   OH210757   2.561   2.324   3.082 -0.7793  0.8097 -0.1317
 3584TIP3    H110758   2.476   2.280   3.074 -1.4554  1.8961  0.7430
 3584TIP3    H210759   2.624   2.252   3.091 -1.6896 -0.0066 -0.0645
 3585TIP3   OH210760   3.823   0.491   4.497 -0.4122 -0.1455  0.2209
 3585TIP3    H110761   3.738   0.487   4.453  0.1287 -1.5629 -0.7474
 3585TIP3    H210762   3.886   0.504   4.426  0.1770  1.4776  0.9775
 3586TIP3   OH210763   0.673   1.650   0.793 -0.7531  0.2884 -0.2036
 3586TIP3    H110764   0.763   1.661   0.763 -0.7991 -1.4159 -1.0876
 3586TIP3    H210765   0.622   1.709   0.737 -0.0979  2.2165  1.1393
 3587TIP3   OH210766   2.702   3.154   2.089  0.0629 -0.0492 -0.3939
 3587TIP3    H110767   2.696   3.136   2.183  1.5602  0.1178 -0.2427
 3587TIP3    H210768   2.730   3.245   2.084  2.0197 -0.6233 -0.9116
 3588TIP3   OH210769   4.694   5.717   0.721  0.3700 -0.0826 -0.6242
 3588TIP3    H110770   4.784   5.691   0.739  0.9172  0.0036 -2.9204
 3588TIP3    H210771   4.662   5.652   0.659 -1.7720 -1.0868  1.4135
 3589TIP3   OH210772   1.758   1.894   3.558  0.4715  0.5706  0.5806
 3589TIP3    H110773   1.849   1.866   3.566  0.4780  0.7329  1.1408
 3589TIP3    H210774   1.707   1.817   3.586  0.4678  0.8172  1.2737
 3590TIP3   OH210775   5.746   5.104   4.092 -0.0119  0.4834  0.0785
 3590TIP3    H110776   5.802   5.143   4.025  1.8750 -1.3988  0.4807
 3590TIP3    H210777   5.806   5.057   4.150 -1.2302  3.5190  4.3079
 3591TIP3   OH210778   2.970   2.042   1.717  0.3207  0.1570 -0.0674
 3591TIP3    H110779   3.047   1.997   1.683  1.2372  1.9863 -0.4869
 3591TIP3    H210780   2.898   2.007   1.664  0.9338 -1.0742 -0.1267
 3592TIP3   OH210781   4.420   2.262   2.225  0.8190 -0.1453  0.1121
 3592TIP3    H110782   4.506   2.240   2.262  0.1843 -2.7168  0.2077
 3592TIP3    H210783   4.386   2.179   2.192 -0.3484  1.3266 -2.7353
 3593TIP3   OH210784   3.720   5.172   5.043  0.2819  0.0200 -0.2338
 3593TIP3    H110785   3.780   5.242   5.020  1.2335 -0.8933 -0.5894
 3593TIP3    H210786   3.666   5.158   4.965  0.4482 -0.0036 -0.3436
 3594TIP3   OH210787   4.037   0.916   5.074 -0.1648 -0.3897 -0.0041
 3594TIP3    H110788   4.093   0.841   5.051  1.2490  0.2308  1.2937
 3594TIP3    H210789   3.979   0.925   4.998  0.5246 -1.9561 -0.7817
 3595TIP3   OH210790   5.117   0.043   2.264  0.0083 -0.0936  0.9219
 3595TIP3    H110791   5.090  -0.016   2.193 -0.0521 -1.1174  1.7741
 3595TIP3    H210792   5.207   0.067   2.243 -0.4625  0.7849 -0.2515
 3596TIP3   OH210793   4.199   2.562   2.273  0.1656 -0.3296 -0.1542
 3596TIP3    H110794   4.109   2.531   2.256 -0.2119  0.5724  0.1428
 3596TIP3    H210795   4.240   2.565   2.187 -0.3075 -0.0925 -0.3752
 3597TIP3   OH210796   4.426   2.461   2.917  0.3322 -0.2696  0.0282
 3597TIP3    H110797   4.377   2.381   2.896  0.8793 -0.1718 -1.8726
 3597TIP3    H210798   4.361   2.519   2.955 -1.2310 -0.0380 -2.6909
 3598TIP3   OH210799   3.517   1.436   4.277  0.2600  0.4047  0.1199
 3598TIP3    H110800   3.540   1.346   4.251  0.6341  0.3872  0.4954
 3598TIP3    H210801   3.424   1.431   4.299 -0.2469  0.5605 -1.7773
 3599TIP3   OH210802   3.884   2.961   4.575  0.2079 -0.3258 -0.1465
 3599TIP3    H110803   3.868   3.015   4.652 -1.2393  1.9334 -1.8920
 3599TIP3    H210804   3.821   2.890   4.581  0.5946 -0.5834  1.0728
 3600TIP3   OH210805   0.991   1.954   1.940 -0.1605 -0.1734  0.0422
 3600TIP3    H110806   0.945   2.034   1.964  0.6902  0.1750  0.5479
 3600TIP3    H210807   0.987   1.899   2.018  4.0802  1.6302  1.8629
 3601TIP3   OH210808   4.707   0.379   4.916  0.0930  0.1525 -0.2855
 3601TIP3    H110809   4.719   0.344   4.828 -1.0771 -0.5414 -0.1936
 3601TIP3    H210810   4.779   0.340   4.967  0.4955  0.1857 -0.8223
 3602TIP3   OH210811   0.619   4.675   0.683 -0.1151 -0.3484 -0.7282
 3602TIP3    H110812   0.690   4.674   0.747 -0.0472 -0.1210 -0.7998
 3602TIP3    H210813   0.640   4.603   0.623 -0.2918 -0.6969 -0.3717
 3603TIP3   OH210814   2.184   5.943   0.451  0.2084  0.2458 -0.8035
 3603TIP3    H110815   2.109   5.884   0.454  0.3419  0.0770  1.2165
 3603TIP3    H210816   2.146   6.031   0.461  0.2399  0.1461  0.4306
 3604TIP3   OH210817   0.133   4.631   0.551  0.9119  0.2455  0.0177
 3604TIP3    H110818   0.200   4.696   0.532  3.0778 -2.1350 -0.9946
 3604TIP3    H210819   0.179   4.547   0.552 -1.7607 -1.3676  1.0623
 3605TIP3   OH210820   1.053   0.043   3.095 -0.3915  0.2183 -0.0120
 3605TIP3    H110821   1.148   0.034   3.086 -0.5106  0.4777 -2.0626
 3605TIP3    H210822   1.017  -0.028   3.042 -1.4014 -0.7692  1.8762
 3606TIP3   OH210823   1.400   0.169   3.222  0.1897 -0.0760  0.2217
 3606TIP3    H110824   1.342   0.105   3.264  0.8236 -1.4333 -0.8771
 3606TIP3    H210825   1.414   0.134   3.134  1.9782  0.6693  0.1792
 3607TIP3   OH210826   3.667   3.625   3.154  0.1653  0.4280  0.5354
 3607TIP3    H110827   3.744   3.682   3.157  0.9354 -0.6045  0.5412
 3607TIP3    H210828   3.701   3.539   3.133 -0.6581 -0.5879  2.9673
 3608TIP3   OH210829   0.432   0.946   3.738 -0.2559 -0.2708  0.0134
 3608TIP3    H110830   0.436   1.024   3.793 -0.1907 -0.0708 -0.2739
 3608TIP3    H210831   0.489   0.966   3.664  0.9754 -1.1752  0.6831
 3609TIP3   OH210832   2.427   2.152   2.337 -0.4095  0.3369 -0.1810
 3609TIP3    H110833   2.416   2.169   2.243  1.1276 -0.7636 -0.6065
 3609TIP3    H210834   2.421   2.238   2.378  1.0994  1.1429 -1.5529
 3610TIP3   OH210835   5.562   0.914   1.361  0.2232 -0.1534  0.6034
 3610TIP3    H110836   5.509   0.957   1.293  0.3302 -0.9487  0.0064
 3610TIP3    H210837   5.498   0.881   1.424  0.1050  0.3193  0.7338
 3611TIP3   OH210838   5.871   3.315   3.303 -0.6474 -0.6636 -0.0698
 3611TIP3    H110839   5.958   3.304   3.264 -0.4470 -0.3682  0.2870
 3611TIP3    H210840   5.841   3.400   3.271 -0.6951 -0.6471  0.0184
 3612TIP3   OH210841   0.643   0.014   4.159  0.0259 -0.0672  0.1190
 3612TIP3    H110842   0.574   0.039   4.098  0.4432 -2.0003 -1.2499
 3612TIP3    H210843   0.719   0.064   4.131  0.6482 -2.0867 -2.0803
 3613TIP3   OH210844   1.495   5.644   0.873 -0.0101 -0.1922  0.4640
 3613TIP3    H110845   1.520   5.728   0.910  0.2521  0.9603 -2.1328
 3613TIP3    H210846   1.562   5.583   0.904  2.3211  1.4613 -0.9873
 3614TIP3   OH210847   2.942   5.725   2.709 -0.6611  0.8037  0.5011
 3614TIP3    H110848   2.953   5.754   2.618 -2.0240  2.8944  0.9212
 3614TIP3    H210849   2.956   5.631   2.706 -1.3653  0.6994 -2.0338
 3615TIP3   OH210850   5.138   1.717   3.140 -0.2963  0.3448  1.0214
 3615TIP3    H110851   5.213   1.659   3.123  0.7678  2.1879 -1.1199
 3615TIP3    H210852   5.166   1.770   3.215  1.1015  1.7188 -0.3809
 3616TIP3   OH210853   1.530   3.480   1.677  0.3485 -0.4364  0.1601
 3616TIP3    H110854   1.448   3.527   1.662  0.8465  0.5971  0.5515
 3616TIP3    H210855   1.543   3.483   1.772  1.2799  0.2104  0.0333
 3617TIP3   OH210856   5.357   4.495   1.375  0.0599  0.1760  0.1961
 3617TIP3    H110857   5.295   4.448   1.319  0.8841 -0.5321 -0.1520
 3617TIP3    H210858   5.440   4.487   1.330  0.2853  1.7330  0.2958
 3618TIP3   OH210859   5.020   0.583   3.655 -0.1183  0.1230  0.0467
 3618TIP3    H110860   5.053   0.624   3.575  1.1710  0.2521  0.6143
 3618TIP3    H210861   5.059   0.495   3.655 -0.8130 -0.1975  0.1123
 3619TIP3   OH210862   0.426   3.117   1.865  0.8889  0.0242 -0.3396
 3619TIP3    H110863   0.451   3.038   1.817 -0.4746 -0.6957  0.0950
 3619TIP3    H210864   0.330   3.120   1.859  0.8127  0.8208  0.9225
 3620TIP3   OH210865   0.285   1.497   4.278  0.4049 -0.1759  0.2671
 3620TIP3    H110866   0.218   1.457   4.332 -1.0918 -1.3583 -2.2578
 3620TIP3    H210867   0.280   1.591   4.298 -2.4571 -0.1351 -0.2165
 3621TIP3   OH210868   4.295   3.984   0.586 -0.2058 -0.1411  0.2993
 3621TIP3    H110869   4.252   3.945   0.510 -1.3356  0.1944  0.7461
 3621TIP3    H210870   4.302   3.913   0.650 -0.0808 -0.2005  0.2194
 3622TIP3   OH210871   3.453   2.319   1.172 -0.5998 -0.3016  0.4053
 3622TIP3    H110872   3.367   2.356   1.190 -0.1551  1.1145 -0.2629
 3622TIP3    H210873   3.493   2.308   1.258 -0.1624  2.2823  0.6075
 3623TIP3   OH210874   0.244   0.490   4.785 -0.4401  0.1355 -0.3877
 3623TIP3    H110875   0.337   0.510   4.776  0.6974 -4.2983 -0.8335
 3623TIP3    H210876   0.235   0.456   4.874 -0.5337 -3.4942 -1.6465
 3624TIP3   OH210877   0.894   3.910   5.053 -0.2585  0.3224 -0.1497
 3624TIP3    H110878   0.974   3.963   5.049  0.4242 -0.7299 -1.0494
 3624TIP3    H210879   0.823   3.972   5.035  0.5963  0.8003 -2.2562
 3625TIP3   OH210880   5.618   4.373   5.077  0.4712 -0.2385  0.0975
 3625TIP3    H110881   5.607   4.279   5.090 -0.7367 -0.1139  0.0607
 3625TIP3    H210882   5.566   4.393   4.999  1.2573  0.3505 -0.2861
 3626TIP3   OH210883   2.854   0.486   5.072  0.6621 -0.3355  0.2007
 3626TIP3    H110884   2.819   0.398   5.084 -1.8329  0.8101  2.3657
 3626TIP3    H210885   2.842   0.504   4.979 -0.8603 -1.5177  0.1262
 3627TIP3   OH210886   3.701   4.184   1.236  0.1595  0.0850  0.2365
 3627TIP3    H110887   3.756   4.178   1.158 -1.0052  0.7190 -0.6739
 3627TIP3    H210888   3.709   4.275   1.264  1.0582 -0.2846  1.2560
 3628TIP3   OH210889   3.612   4.766   0.816 -0.2990 -0.0795 -0.1329
 3628TIP3    H110890   3.571   4.834   0.763 -2.4318 -0.4642  0.9245
 3628TIP3    H210891   3.580   4.782   0.905  1.1580 -0.9726  0.6012
 3629TIP3   OH210892   0.243   2.931   3.112  0.6369  0.6577  0.2214
 3629TIP3    H110893   0.245   2.841   3.142  1.1805  0.5904 -0.0071
 3629TIP3    H210894   0.241   2.924   3.016 -2.6444  0.8308  0.1838
 3630TIP3   OH210895   4.215   4.262   4.812  0.6706 -0.2659  0.3446
 3630TIP3    H110896   4.307   4.250   4.835 -0.1459 -0.5130  4.1311
 3630TIP3    H210897   4.197   4.353   4.835  0.0929  0.0151 -1.1069
 3631TIP3   OH210898   0.581   2.273   4.095 -0.0171  0.4468 -0.4321
 3631TIP3    H110899   0.519   2.326   4.044 -0.3222 -0.2258 -0.7793
 3631TIP3    H210900   0.664   2.282   4.049 -0.4449 -0.7397 -1.5171
 3632TIP3   OH210901   0.967   4.522   1.472  0.0264 -0.0015 -0.0086
 3632TIP3    H110902   0.990   4.527   1.380  0.3335 -1.1315 -0.0140
 3632TIP3    H210903   0.905   4.593   1.486 -0.9453 -0.5392 -1.3703
 3633TIP3   OH210904   0.171   0.197   1.219 -0.1232 -0.2109  0.3442
 3633TIP3    H110905   0.252   0.150   1.201  0.4436 -0.2833  2.6896
 3633TIP3    H210906   0.187   0.286   1.189  0.6908 -0.3226  0.4384
 3634TIP3   OH210907   3.989   5.106   4.724 -0.4122  0.1998  0.4306
 3634TIP3    H110908   4.035   5.059   4.655 -1.1510  0.6212 -0.3705
 3634TIP3    H210909   4.058   5.142   4.780  0.2081  0.2341 -0.3539
 3635TIP3   OH210910   3.937   4.472   1.461 -0.3056  0.0369  0.3459
 3635TIP3    H110911   3.993   4.405   1.500  0.5327  0.3145 -0.3731
 3635TIP3    H210912   3.959   4.553   1.507 -0.8509 -0.0473  0.7633
 3636TIP3   OH210913   3.249   2.143   2.208 -0.7085 -0.0081 -0.0446
 3636TIP3    H110914   3.309   2.071   2.224 -1.6780 -0.7336  0.4465
 3636TIP3    H210915   3.293   2.199   2.144  1.0612  0.2004  1.2944
 3637TIP3   OH210916   3.222   0.776   4.840 -0.6841 -0.0812  0.0488
 3637TIP3    H110917   3.311   0.771   4.875 -0.5257  2.7195  0.2739
 3637TIP3    H210918   3.184   0.690   4.859  1.6754 -1.0624  0.7111
 3638TIP3   OH210919   5.244   2.110   0.210 -0.0869 -0.2302  0.3564
 3638TIP3    H110920   5.162   2.149   0.180  0.0021 -0.4402 -0.1606
 3638TIP3    H210921   5.303   2.185   0.221  0.6895 -0.3064 -2.4753
 3639TIP3   OH210922   2.932   3.354   0.167 -0.0175 -0.2288  0.4522
 3639TIP3    H110923   3.026   3.338   0.159  0.1285  1.4166 -1.9254
 3639TIP3    H210924   2.922   3.448   0.156 -1.9594 -0.3947  0.4630
 3640TIP3   OH210925   4.346   1.781   2.396  0.0508  0.6003 -0.6396
 3640TIP3    H110926   4.411   1.774   2.327  0.7351 -0.1879  0.0532
 3640TIP3    H210927   4.280   1.715   2.373  1.1187 -0.8648  0.2887
 3641TIP3   OH210928   4.532   3.610   4.088  0.1707  0.3598  0.3957
 3641TIP3    H110929   4.482   3.544   4.038 -1.6550  2.0007 -0.0545
 3641TIP3    H210930   4.543   3.571   4.174 -1.0094 -0.4831  0.1920
 3642TIP3   OH210931   3.159   1.917   1.550  0.7771  0.2637  0.1791
 3642TIP3    H110932   3.224   1.848   1.560  1.1816  0.5984 -0.1355
 3642TIP3    H210933   3.145   1.924   1.456 -0.0486 -0.1155  0.2686
 3643TIP3   OH210934   1.943   3.374   4.617 -0.2684 -0.4785 -0.4868
 3643TIP3    H110935   1.986   3.414   4.693 -2.6351  1.4208 -0.0272
 3643TIP3    H210936   1.987   3.414   4.542  0.5676 -0.6329 -0.0930
 3644TIP3   OH210937   1.183   3.341   1.767 -0.1819  0.5942 -0.1349
 3644TIP3    H110938   1.215   3.258   1.802 -2.1308 -0.6297 -1.1071
 3644TIP3    H210939   1.188   3.331   1.672  1.9640  2.6323 -0.3395
 3645TIP3   OH210940   4.117   4.992   1.117  0.5245  0.0428 -0.2259
 3645TIP3    H110941   4.071   4.925   1.068  3.5883 -1.3549 -1.4356
 3645TIP3    H210942   4.153   4.946   1.193  1.8574  0.4665 -0.5675
 3646TIP3   OH210943   0.383   4.626   0.872  0.1486  0.1506  0.1152
 3646TIP3    H110944   0.463   4.654   0.826  1.2690 -0.5595  1.5430
 3646TIP3    H210945   0.338   4.708   0.893 -0.0907  0.5174 -1.6583
 3647TIP3   OH210946   0.774   0.537   1.291  0.0049 -0.1978  0.2183
 3647TIP3    H110947   0.716   0.462   1.277 -1.6125  1.1753 -0.8172
 3647TIP3    H210948   0.833   0.535   1.216  1.6340 -1.8089  1.4578
 3648TIP3   OH210949   4.310   2.732   4.648 -1.0522 -0.4910  0.0600
 3648TIP3    H110950   4.371   2.671   4.607 -0.1012  0.7762 -0.4980
 3648TIP3    H210951   4.347   2.750   4.734  0.2426  1.3913 -0.8121
 3649TIP3   OH210952   2.527   2.611   2.912  0.2081  0.1047  0.6365
 3649TIP3    H110953   2.492   2.542   2.856 -0.7222  0.0150  1.3168
 3649TIP3    H210954   2.520   2.576   3.001 -0.6898  1.2443  1.0346
 3650TIP3   OH210955   4.561   3.250   3.331  0.1480 -0.6590  0.1418
 3650TIP3    H110956   4.535   3.179   3.272  0.3803  0.9268 -1.9957
 3650TIP3    H210957   4.634   3.293   3.286 -1.0847  1.9879  0.4634
 3651TIP3   OH210958   0.729   4.739   4.282  0.1021 -0.3573 -0.5131
 3651TIP3    H110959   0.677   4.817   4.300  0.1808  0.0685 -2.0021
 3651TIP3    H210960   0.770   4.756   4.197 -0.5291 -2.3522 -1.2857
 3652TIP3   OH210961   0.435   3.788   1.807  0.3044  0.1114  0.2794
 3652TIP3    H110962   0.353   3.826   1.838  0.7313  1.9329 -0.7139
 3652TIP3    H210963   0.409   3.721   1.743 -0.4085 -0.0084  0.6905
 3653TIP3   OH210964   5.976   0.501   4.719 -0.2843  0.5352 -0.1042
 3653TIP3    H110965   5.975   0.407   4.740 -1.4267  0.5962  0.1724
 3653TIP3    H210966   5.901   0.537   4.767 -1.0085  1.2643 -1.7381
 3654TIP3   OH210967   4.282   0.289   4.827 -0.1553 -0.0033  0.1760
 3654TIP3    H110968   4.189   0.282   4.848 -0.3727 -0.4566 -0.8798
 3654TIP3    H210969   4.326   0.272   4.910 -1.0167  1.4053  0.9784
 3655TIP3   OH210970   1.655   5.476   1.822  0.2633  0.5031  0.3535
 3655TIP3    H110971   1.628   5.432   1.741 -0.1500  0.9254  0.2615
 3655TIP3    H210972   1.575   5.515   1.856  0.8003  2.1263 -0.1431
 3656TIP3   OH210973   2.749   5.674   4.842  0.0162 -0.3754  0.8880
 3656TIP3    H110974   2.740   5.578   4.841 -2.4994 -0.2384  2.1018
 3656TIP3    H210975   2.709   5.701   4.924 -0.3361  1.8144  0.0716
 3657TIP3   OH210976   2.927   1.363   4.150  0.1707  0.4582 -0.2324
 3657TIP3    H110977   2.839   1.360   4.190 -0.0969 -2.0150 -0.8149
 3657TIP3    H210978   2.910   1.370   4.056  0.4289 -2.0548 -0.5422
 3658TIP3   OH210979   3.150   0.737   1.780  0.0691  0.0212  0.1098
 3658TIP3    H110980   3.165   0.756   1.872 -0.4848 -0.0581  0.2205
 3658TIP3    H210981   3.235   0.752   1.738 -0.1963  2.2940  0.2534
 3659TIP3   OH210982   5.325   2.066   3.970 -0.0677 -0.4596  0.7209
 3659TIP3    H110983   5.334   2.128   3.898 -0.5378 -0.4627  0.6564
 3659TIP3    H210984   5.414   2.034   3.986 -0.0297 -0.8090 -0.1677
 3660TIP3   OH210985   0.346   4.998   4.602 -0.0089 -0.0456 -0.0478
 3660TIP3    H110986   0.424   4.975   4.654  0.0980 -0.1370 -0.2487
 3660TIP3    H210987   0.381   5.044   4.526 -0.1299 -0.3997 -0.3154
 3661TIP3   OH210988   3.211   2.489   1.113  0.2137  0.2824  0.0358
 3661TIP3    H110989   3.153   2.560   1.087  0.7473  0.2987 -1.1725
 3661TIP3    H210990   3.233   2.508   1.204  0.9144  2.0664 -0.4603
 3662TIP3   OH210991   5.537   5.068   2.584 -0.1303  0.4222  0.0580
 3662TIP3    H110992   5.580   5.087   2.501 -0.8245 -0.3554 -0.4890
 3662TIP3    H210993   5.577   5.130   2.646  0.5218  0.8840 -0.8010
 3663TIP3   OH210994   0.959   5.234   5.001 -0.3984 -0.4791 -0.2626
 3663TIP3    H110995   0.978   5.143   5.025 -1.9178 -0.4534  1.2230
 3663TIP3    H210996   0.879   5.255   5.048 -0.9657  1.1523 -1.8259
 3664TIP3   OH210997   5.367   5.321   2.271  0.6133  0.0519 -0.1615
 3664TIP3    H110998   5.421   5.338   2.347  1.2244 -1.6446 -0.1963
 3664TIP3    H210999   5.277   5.326   2.304  0.8035  1.1511  0.2501
 3665TIP3   OH211000   0.094   5.692   3.323 -0.0452 -0.0891 -0.3824
 3665TIP3    H111001   0.036   5.628   3.364  1.6725 -1.5367 -0.1079
 3665TIP3    H211002   0.061   5.701   3.233 -0.3754 -1.2918 -0.3910
 3666TIP3   OH211003   3.715   5.428   3.131 -0.9683  1.4034  0.8696
 3666TIP3    H111004   3.786   5.482   3.165 -0.0499  1.4779 -1.0192
 3666TIP3    H211005   3.732   5.341   3.166  0.1814  1.3846  0.2870
 3667TIP3   OH211006   3.672   4.277   2.963  0.1340 -0.0280 -0.1448
 3667TIP3    H111007   3.582   4.265   2.995 -0.8623 -0.8002 -2.9668
 3667TIP3    H211008   3.715   4.193   2.980 -0.4991 -0.5681 -1.1631
 3668TIP3   OH211009   5.664   1.740   1.089 -0.1553 -0.1024  0.1189
 3668TIP3    H111010   5.672   1.694   1.173 -3.4484 -0.5869  0.2944
 3668TIP3    H211011   5.734   1.806   1.091 -0.0308 -0.1794  3.1875
 3669TIP3   OH211012   0.712   5.770   2.635  0.3712 -0.6493 -0.0316
 3669TIP3    H111013   0.632   5.741   2.679  0.2719 -0.0961  0.1634
 3669TIP3    H211014   0.779   5.771   2.704  0.3960 -0.5228 -0.0560
 3670TIP3   OH211015   1.045   3.516   4.754 -0.1708  1.0772  0.2251
 3670TIP3    H111016   0.962   3.513   4.707 -0.3166 -0.0001  0.5329
 3670TIP3    H211017   1.042   3.442   4.814  1.0476  0.9737  0.1889
 3671TIP3   OH211018   3.242   1.382   0.562 -0.2420 -0.1555 -0.1728
 3671TIP3    H111019   3.288   1.318   0.508  0.2297  0.6891 -0.7912
 3671TIP3    H211020   3.193   1.436   0.500  1.2142  1.5622  0.1069
 3672TIP3   OH211021   3.582   0.353   0.425  0.1708 -0.1673 -0.3936
 3672TIP3    H111022   3.490   0.330   0.432 -0.0655  0.6675 -0.6337
 3672TIP3    H211023   3.582   0.443   0.392  1.0633  0.0313  0.1065
 3673TIP3   OH211024   5.908   1.590   4.515  0.2718  0.1921  0.1734
 3673TIP3    H111025   5.953   1.573   4.598 -1.2316 -1.4134  0.7163
 3673TIP3    H211026   5.979   1.593   4.450  1.3605  0.1025  1.3080
 3674TIP3   OH211027   1.817   1.596   0.183 -0.4917  0.0255 -0.5095
 3674TIP3    H111028   1.802   1.555   0.097 -1.9016  0.6246 -0.5851
 3674TIP3    H211029   1.765   1.544   0.244  0.2662 -0.2131 -0.0517
 3675TIP3   OH211030   1.625   0.892   0.799  0.6569 -0.7206 -0.5903
 3675TIP3    H111031   1.627   0.842   0.718 -0.4718 -0.5437 -0.7351
 3675TIP3    H211032   1.535   0.885   0.830  0.7801  0.2095  0.0232
 3676TIP3   OH211033   2.336   3.516   1.837 -0.0457 -0.2242 -0.1691
 3676TIP3    H111034   2.298   3.602   1.852  0.0278 -0.0532 -0.9507
 3676TIP3    H211035   2.285   3.457   1.893  0.5164  0.4515  1.1011
 3677TIP3   OH211036   4.909   1.679   4.675  0.3534 -0.0384  0.3626
 3677TIP3    H111037   4.841   1.622   4.639  0.8486  0.4688 -1.5216
 3677TIP3    H211038   4.912   1.753   4.614  1.5113  0.7187  1.2968
 3678TIP3   OH211039   2.052   2.783   5.133  0.1961 -0.2104 -0.2108
 3678TIP3    H111040   1.972   2.762   5.085 -0.3757  2.0487 -0.3407
 3678TIP3    H211041   2.118   2.800   5.066  0.4853 -0.9241 -0.1169
 3679TIP3   OH211042   6.146   0.728   3.835 -0.6789 -0.4883  0.2817
 3679TIP3    H111043   6.191   0.750   3.916 -0.8978 -0.8100  0.4938
 3679TIP3    H211044   6.054   0.721   3.860 -0.8601  0.2470 -0.1623
 3680TIP3   OH211045   0.137   4.678   1.458  0.5150 -0.0719  0.3392
 3680TIP3    H111046   0.050   4.658   1.493  0.2024 -0.1637 -0.4678
 3680TIP3    H211047   0.130   4.662   1.364  1.7842 -1.3920  0.4322
 3681TIP3   OH211048   0.474   5.049   1.604 -0.3812  0.0914  0.4229
 3681TIP3    H111049   0.480   5.082   1.693 -2.1100  0.8663  0.2879
 3681TIP3    H211050   0.390   5.003   1.600  0.1104 -0.7814 -0.5415
 3682TIP3   OH211051   3.044   2.863   0.018 -0.1719  0.2039 -0.0665
 3682TIP3    H111052   2.979   2.823   0.075  0.3847 -1.2781 -0.4106
 3682TIP3    H211053   3.119   2.879   0.075  0.1790 -0.7503 -0.2451
 3683TIP3   OH211054   1.113   3.232   0.144 -0.7264 -0.1507  0.1403
 3683TIP3    H111055   1.187   3.171   0.151 -0.2489  0.3446 -0.4530
 3683TIP3    H211056   1.125   3.274   0.059 -0.5618  1.3955  0.9007
 3684TIP3   OH211057   4.976   4.007   1.188 -0.3104  0.2947 -0.2070
 3684TIP3    H111058   4.899   4.055   1.158 -0.2051  0.6743  0.1172
 3684TIP3    H211059   4.988   3.938   1.124  0.3281  1.5080 -1.4509
 3685TIP3   OH211060   3.405   5.229   0.913  0.1128  0.8937 -0.4357
 3685TIP3    H111061   3.336   5.162   0.912  0.5613  0.2919  1.9439
 3685TIP3    H211062   3.487   5.179   0.914  0.4984  1.5161 -0.4509
 3686TIP3   OH211063   5.616  -0.012   4.197 -0.0794 -0.0716 -0.0055
 3686TIP3    H111064   5.645   0.042   4.123 -1.4878  0.6116 -0.0850
 3686TIP3    H211065   5.639   0.039   4.274  0.0740 -0.1149 -0.0222
 3687TIP3   OH211066   3.399   0.844   0.484  0.3770 -0.1282 -0.4550
 3687TIP3    H111067   3.457   0.792   0.539  1.0096 -0.4959 -1.4269
 3687TIP3    H211068   3.343   0.891   0.545  1.2675 -0.2650  0.4994
 3688TIP3   OH211069   4.063   3.878   2.041 -0.2803 -0.0252  0.5511
 3688TIP3    H111070   4.085   3.917   2.126 -1.1031  0.7768  0.4154
 3688TIP3    H211071   4.021   3.949   1.992 -1.0185 -0.8391 -0.0334
 3689TIP3   OH211072   6.168   0.920   3.066 -0.3557 -0.1086 -0.8805
 3689TIP3    H111073   6.096   0.923   3.004  0.3008 -0.5670 -1.6773
 3689TIP3    H211074   6.241   0.881   3.018  0.4304  0.3372 -0.0938
 3690TIP3   OH211075   0.371   5.646   2.063 -0.4795  0.1991 -0.7355
 3690TIP3    H111076   0.335   5.670   1.978 -1.4426  1.4021 -0.0307
 3690TIP3    H211077   0.295   5.644   2.122  0.0830 -1.1607  0.0013
 3691TIP3   OH211078   1.969   3.509   3.028 -0.6103  0.0829  0.3735
 3691TIP3    H111079   2.056   3.470   3.032 -0.6808 -0.3010 -1.2314
 3691TIP3    H211080   1.909   3.435   3.020 -0.8475  0.4056 -1.2644
 3692TIP3   OH211081   0.886   4.526   4.326  0.5495 -0.3893  0.0798
 3692TIP3    H111082   0.813   4.584   4.301  0.6006  0.1488  1.1026
 3692TIP3    H211083   0.860   4.491   4.411  1.7858  0.3708  0.8020
 3693TIP3   OH211084   4.069   3.775   5.140 -0.2477 -0.2905 -0.1373
 3693TIP3    H111085   4.027   3.847   5.093  0.2493  0.0096 -0.1313
 3693TIP3    H211086   3.998   3.734   5.190 -0.8652 -0.8359 -1.4085
 3694TIP3   OH211087   2.205   1.935   4.719  0.2397 -0.2935  0.7687
 3694TIP3    H111088   2.253   2.014   4.693 -2.4131  0.9671 -0.6686
 3694TIP3    H211089   2.156   1.961   4.797 -1.3747 -0.1253 -0.2438
 3695TIP3   OH211090   0.516   0.763   1.756 -0.1865  0.0389  0.4469
 3695TIP3    H111091   0.592   0.707   1.739 -0.7317 -0.4784 -0.3722
 3695TIP3    H211092   0.537   0.807   1.838  0.4937 -0.9647  0.8323
 3696TIP3   OH211093   4.300   4.963   0.810  0.5809  0.2054 -0.0391
 3696TIP3    H111094   4.333   5.035   0.864 -0.2462  0.3090  0.3502
 3696TIP3    H211095   4.276   4.896   0.873 -0.0331  0.1730 -0.3049
 3697TIP3   OH211096   0.995   5.571   0.737 -0.6723 -0.6957  0.1652
 3697TIP3    H111097   1.089   5.559   0.755 -0.5646  0.8077  0.7632
 3697TIP3    H211098   0.982   5.529   0.652 -0.0359 -3.2645  1.2274
 3698TIP3   OH211099   3.500   1.058   3.914  0.3320  0.3240 -0.1051
 3698TIP3    H111100   3.516   1.100   3.830 -1.9455 -0.3176 -0.9387
 3698TIP3    H211101   3.540   0.971   3.906  1.6428  0.8625  0.1890
 3699TIP3   OH211102   5.851   5.195   0.907  0.0008 -0.2027  0.0814
 3699TIP3    H111103   5.928   5.175   0.960 -0.2295 -0.4550  0.3314
 3699TIP3    H211104   5.882   5.193   0.817 -0.3618 -3.7432 -0.1079
 3700TIP3   OH211105   1.799   3.000   2.322 -0.3551 -0.3244  0.1110
 3700TIP3    H111106   1.705   2.980   2.321 -0.2222 -1.0525  0.8784
 3700TIP3    H211107   1.839   2.922   2.360  0.7396 -0.6947 -1.7040
 3701TIP3   OH211108   2.095   4.273   1.163 -0.4632  0.3115 -0.5736
 3701TIP3    H111109   2.062   4.226   1.239 -0.9934  1.3837 -0.1113
 3701TIP3    H211110   2.169   4.324   1.196 -1.5148  1.8074 -0.4465
 3702TIP3   OH211111   0.013   0.777   2.894 -0.1031  0.5501  0.5485
 3702TIP3    H111112   0.097   0.747   2.860 -0.1967  0.2392  0.5910
 3702TIP3    H211113   0.002   0.731   2.977 -0.5005  0.2806  0.3521
 3703TIP3   OH211114   3.350   4.043   2.878 -0.5568 -0.2392  1.0131
 3703TIP3    H111115   3.311   3.975   2.824 -1.0185  0.6279  0.2374
 3703TIP3    H211116   3.420   4.079   2.824 -0.6785  0.2774  1.1998
 3704TIP3   OH211117   2.692   0.920   0.009  0.0963  0.4972 -0.5838
 3704TIP3    H111118   2.676   0.940   0.101  0.2914  0.2309 -0.4910
 3704TIP3    H211119   2.625   0.970  -0.039  1.7736  2.9985 -0.5062
 3705TIP3   OH211120   2.727   5.765   2.235  0.5446 -0.4129  0.5647
 3705TIP3    H111121   2.695   5.855   2.228 -1.3746 -1.0535  0.7449
 3705TIP3    H211122   2.817   5.769   2.200 -0.1805  1.1949 -1.2850
 3706TIP3   OH211123   1.136   4.072   2.866 -0.0746  0.0311  0.4484
 3706TIP3    H111124   1.057   4.051   2.916 -0.8218  0.5855 -0.4609
 3706TIP3    H211125   1.135   4.168   2.859 -1.0097 -0.0918 -2.1473
 3707TIP3   OH211126   5.935   1.006   2.943 -0.2561 -0.6611 -0.2137
 3707TIP3    H111127   5.918   1.045   2.857  0.6548  0.0039 -0.1026
 3707TIP3    H211128   5.855   1.023   2.993  0.0798  1.0316 -0.1975
 3708TIP3   OH211129   3.221   2.777   2.289 -0.1874  0.1893 -0.2003
 3708TIP3    H111130   3.192   2.692   2.323  1.9253 -0.5281 -0.1003
 3708TIP3    H211131   3.149   2.805   2.232 -2.0114 -0.4958  1.6065
 3709TIP3   OH211132   1.788   4.990   0.437  0.1692  0.2679  0.5456
 3709TIP3    H111133   1.800   4.901   0.403 -0.4695  0.3304  0.1525
 3709TIP3    H211134   1.702   4.989   0.479  0.3788  0.5635  1.0051
 3710TIP3   OH211135   3.181   4.862   4.451 -0.4696 -0.6881  0.0043
 3710TIP3    H111136   3.189   4.791   4.387 -0.3811 -0.4476 -0.2560
 3710TIP3    H211137   3.123   4.925   4.408  0.3547 -0.0834 -0.2412
 3711TIP3   OH211138   2.819   4.969   1.700  0.5648  0.4364  0.3124
 3711TIP3    H111139   2.754   4.947   1.633  0.8709 -1.3976  0.5682
 3711TIP3    H211140   2.826   5.065   1.696 -0.6895  0.5076 -1.0670
 3712TIP3   OH211141   1.684   4.453   3.376 -0.4507 -0.7589 -0.3733
 3712TIP3    H111142   1.725   4.401   3.446 -2.0587  1.7028  2.6265
 3712TIP3    H211143   1.751   4.516   3.350 -0.9374  0.7801  1.8064
 3713TIP3   OH211144   5.546   2.436   3.608 -0.3022 -0.5982  0.2068
 3713TIP3    H111145   5.492   2.511   3.632 -0.5369 -0.1231 -1.6435
 3713TIP3    H211146   5.486   2.375   3.566 -0.1404 -1.9323  1.8143
 3714TIP3   OH211147   0.984   2.906   4.179 -0.1583 -0.3652 -0.2130
 3714TIP3    H111148   0.929   2.839   4.219 -0.3134  1.1074  2.2251
 3714TIP3    H211149   1.070   2.893   4.219  0.5436 -0.7805 -1.7853
 3715TIP3   OH211150   2.929   3.911   3.708  0.0570  0.2404 -0.0851
 3715TIP3    H111151   3.015   3.938   3.741 -0.0687 -0.2549  0.6743
 3715TIP3    H211152   2.919   3.820   3.738 -0.4148  0.0470 -0.8073
 3716TIP3   OH211153   0.798   5.367   2.280 -0.6465  0.0382  0.7163
 3716TIP3    H111154   0.804   5.437   2.215  0.9814  0.0792  0.8703
 3716TIP3    H211155   0.840   5.403   2.358 -0.4994 -0.8354  1.0557
 3717TIP3   OH211156   4.970   5.562   1.752 -0.0847 -0.2797  0.4128
 3717TIP3    H111157   4.927   5.623   1.811 -0.0713 -0.0163  0.1558
 3717TIP3    H211158   4.927   5.576   1.667  1.2012  0.7473 -0.1062
 3718TIP3   OH211159   0.292   0.859   2.588  0.7491 -0.3412 -0.2483
 3718TIP3    H111160   0.241   0.796   2.538 -1.6664  1.1894  0.0952
 3718TIP3    H211161   0.292   0.826   2.677 -0.5718  0.1244 -0.0563
 3719TIP3   OH211162   1.717   2.644   4.179 -0.6732  0.7725 -0.0806
 3719TIP3    H111163   1.723   2.656   4.084 -2.1510  0.0882 -0.3021
 3719TIP3    H211164   1.712   2.732   4.215 -2.1106  1.0372 -0.8431
 3720TIP3   OH211165   4.981   3.288   1.173  0.0281 -0.4967  0.0647
 3720TIP3    H111166   4.928   3.329   1.241 -0.9953  0.1603 -1.0717
 3720TIP3    H211167   4.921   3.230   1.127 -0.1440  1.1733 -2.0279
 3721TIP3   OH211168   0.586   4.972   3.236 -0.0478  0.2964  0.6992
 3721TIP3    H111169   0.533   4.950   3.160  0.1385 -1.0528  0.9287
 3721TIP3    H211170   0.629   5.054   3.213 -1.2544  0.7530  0.0165
 3722TIP3   OH211171   1.241   3.976   3.615 -0.4418 -0.4308 -0.2015
 3722TIP3    H111172   1.146   3.972   3.626 -0.4281 -2.4448 -0.4139
 3722TIP3    H211173   1.253   3.977   3.520 -0.2463 -0.2214 -0.1736
 3723TIP3   OH211174   2.041   2.632   1.184  0.0010 -0.2593 -0.1370
 3723TIP3    H111175   2.067   2.724   1.188 -1.1311  0.1010 -0.7958
 3723TIP3    H211176   1.946   2.634   1.178  0.0445 -1.4055 -1.9251
 3724TIP3   OH211177   6.027   3.683   5.143 -0.3179 -0.2621  0.4711
 3724TIP3    H111178   5.991   3.687   5.231 -2.0715 -0.2451 -0.2106
 3724TIP3    H211179   6.031   3.589   5.123  0.7999 -0.3034  0.8306
 3725TIP3   OH211180   4.618   4.684   2.925 -0.2485  0.3723  0.0498
 3725TIP3    H111181   4.597   4.601   2.967 -0.5145  0.3358 -0.1519
 3725TIP3    H211182   4.533   4.725   2.909 -0.1025  0.8982  0.5826
 3726TIP3   OH211183   3.014   1.385   4.419  0.6009 -0.4406  0.5453
 3726TIP3    H111184   2.961   1.333   4.479 -0.4024  0.7744  0.7762
 3726TIP3    H211185   2.975   1.370   4.333  2.5315 -2.8070 -0.0084
 3727TIP3   OH211186   4.210   4.692   3.210 -0.3217 -0.2985  0.3960
 3727TIP3    H111187   4.234   4.603   3.183  0.2981  0.7092 -2.8477
 3727TIP3    H211188   4.293   4.736   3.223 -0.4838  0.6204 -1.3203
 3728TIP3   OH211189   5.677   5.825   0.865 -0.2527 -0.3624  0.0854
 3728TIP3    H111190   5.751   5.828   0.805  0.4578  1.1175  0.9529
 3728TIP3    H211191   5.602   5.805   0.811  0.8050 -2.1359 -0.7892
 3729TIP3   OH211192   0.136   1.650   0.468  0.3561  0.6008 -0.8932
 3729TIP3    H111193   0.097   1.733   0.495 -1.3159  0.1933 -1.9308
 3729TIP3    H211194   0.128   1.650   0.372  2.0502  0.0448 -1.0710
 3730TIP3   OH211195   4.437   4.147   3.855  0.0938  0.2699  0.1336
 3730TIP3    H111196   4.453   4.118   3.945  0.9255 -0.6672 -0.2992
 3730TIP3    H211197   4.492   4.090   3.801  1.2312  2.1643 -0.8082
 3731TIP3   OH211198   5.760   2.040   4.388  0.0069 -0.2373 -0.2501
 3731TIP3    H111199   5.758   1.983   4.311 -0.1189 -1.2524  0.4781
 3731TIP3    H211200   5.798   1.985   4.457  0.7648  0.8714  0.2456
 3732TIP3   OH211201   6.111   3.777   0.700  0.0771 -0.3978  0.7435
 3732TIP3    H111202   6.138   3.863   0.669 -1.5763  0.4010  1.3590
 3732TIP3    H211203   6.066   3.794   0.783 -0.3218 -1.8515  0.8633
 3733TIP3   OH211204   5.450   3.519   1.948  0.3060 -0.0354 -0.0647
 3733TIP3    H111205   5.481   3.461   2.018  1.1917  0.3594 -0.1193
 3733TIP3    H211206   5.444   3.605   1.989  0.4597  0.1258 -0.3768
 3734TIP3   OH211207   5.618   5.256   1.177 -0.9503 -0.1003 -0.1438
 3734TIP3    H111208   5.549   5.213   1.226 -2.2096 -0.0462 -1.7830
 3734TIP3    H211209   5.611   5.220   1.088  1.0481 -0.0035 -0.4061
 3735TIP3   OH211210   4.743   0.376   0.706  0.0123 -0.4056 -0.0758
 3735TIP3    H111211   4.812   0.442   0.702 -0.1945 -0.1994 -0.2464
 3735TIP3    H211212   4.702   0.379   0.620  0.6573 -1.4682 -0.4447
 3736TIP3   OH211213   2.586   2.324   2.067 -0.2246 -0.4339 -0.5837
 3736TIP3    H111214   2.661   2.320   2.008 -1.6400  1.8009 -2.6910
 3736TIP3    H211215   2.606   2.396   2.127 -0.1504 -0.6533 -0.3435
 3737TIP3   OH211216   4.216   4.618   3.663 -0.3153 -0.8119  0.0347
 3737TIP3    H111217   4.276   4.551   3.696  1.5136  0.4317 -0.6276
 3737TIP3    H211218   4.191   4.667   3.741  0.0805 -0.9086  0.2282
 3738TIP3   OH211219   1.681   2.836   3.448  0.9806  0.1513  0.6324
 3738TIP3    H111220   1.731   2.755   3.451 -1.4711 -1.4359  1.5390
 3738TIP3    H211221   1.650   2.843   3.358  0.7475 -0.2313  0.6805
 3739TIP3   OH211222   5.745   4.784   0.331 -0.2177  0.2191  0.2992
 3739TIP3    H111223   5.810   4.847   0.362 -0.9311  1.7295 -1.1154
 3739TIP3    H211224   5.682   4.776   0.403  1.1111 -0.7332  1.4061
 3740TIP3   OH211225   0.098   4.741   5.049 -0.0481  0.7135  1.1383
 3740TIP3    H111226   0.014   4.714   5.085  0.1047 -1.1499  0.2246
 3740TIP3    H211227   0.162   4.685   5.093  1.0045  3.2340  3.0798
 3741TIP3   OH211228   2.572   3.153   0.186  0.1590  0.5909  1.1338
 3741TIP3    H111229   2.584   3.063   0.157 -0.4932  0.9204 -0.2102
 3741TIP3    H211230   2.635   3.163   0.258  0.2721 -0.9085  1.2826
 3742TIP3   OH211231   2.568   1.431   3.357  0.7005  0.3044 -0.6659
 3742TIP3    H111232   2.606   1.483   3.429 -1.7866 -1.5997  2.2815
 3742TIP3    H211233   2.592   1.341   3.378 -0.5654 -0.3564 -1.9477
 3743TIP3   OH211234   0.313   4.422   0.497  0.6697 -0.1929 -0.3969
 3743TIP3    H111235   0.374   4.404   0.569  1.1538 -0.7353 -0.9391
 3743TIP3    H211236   0.366   4.417   0.418 -0.0257 -0.4288 -0.8620
 3744TIP3   OH211237   5.353   3.600   0.538 -0.3708 -0.1320  0.3616
 3744TIP3    H111238   5.297   3.673   0.510 -0.2126 -0.0005  0.3850
 3744TIP3    H211239   5.384   3.626   0.624  1.5928  0.8970 -0.5759
 3745TIP3   OH211240   1.867   3.944   3.937 -0.1223 -0.3022 -0.0041
 3745TIP3    H111241   1.849   3.850   3.942  0.5917 -0.3956  0.9080
 3745TIP3    H211242   1.940   3.959   3.996 -0.3972  0.8832  0.0770
 3746TIP3   OH211243   5.103   4.599   2.919  0.1599  0.6644 -0.0962
 3746TIP3    H111244   5.038   4.581   2.852 -1.2337 -0.2838  1.4486
 3746TIP3    H211245   5.165   4.526   2.914 -0.4826  0.0832  0.2561
 3747TIP3   OH211246   1.191   0.757   3.321 -0.7594  0.1755 -0.3245
 3747TIP3    H111247   1.234   0.761   3.406 -0.2062  1.7023 -0.6527
 3747TIP3    H211248   1.259   0.781   3.258 -1.3969 -0.0290 -1.1117
 3748TIP3   OH211249   3.337   0.987   2.981  0.0054 -0.0813 -0.2735
 3748TIP3    H111250   3.324   0.902   2.939  0.6362 -0.4488  0.2599
 3748TIP3    H211251   3.374   0.966   3.067  3.3106  0.8315 -1.3329
 3749TIP3   OH211252   1.752   3.182   0.501 -0.0310 -0.0914 -0.9866
 3749TIP3    H111253   1.734   3.275   0.499 -0.8685 -0.1247  1.6723
 3749TIP3    H211254   1.838   3.175   0.543  0.3867 -0.5114 -1.8771
 3750TIP3   OH211255   3.385   2.486   2.299  0.2401 -0.2455  0.3898
 3750TIP3    H111256   3.413   2.556   2.240 -0.4144 -1.2331 -1.1637
 3750TIP3    H211257   3.306   2.452   2.258  0.1570 -1.4267  1.4980
 3751TIP3   OH211258   1.161   2.527   5.022  0.2914 -0.7879  0.1450
 3751TIP3    H111259   1.135   2.435   5.028 -1.4107 -0.4508 -1.3458
 3751TIP3    H211260   1.083   2.572   4.990  1.8267  0.7811 -1.6094
 3752TIP3   OH211261   5.157   2.701   4.978 -0.5450 -0.3030  0.2654
 3752TIP3    H111262   5.193   2.758   5.046 -0.6483 -0.0505  0.1139
 3752TIP3    H211263   5.137   2.619   5.022 -1.3794  0.1328  0.7250
 3753TIP3   OH211264   5.578   1.156   0.278  0.4005 -0.5719  0.3024
 3753TIP3    H111265   5.490   1.171   0.311 -0.1471  1.1384 -1.7056
 3753TIP3    H211266   5.614   1.088   0.335 -2.3770 -1.6897  0.8759
 3754TIP3   OH211267   3.444   4.468   2.756  0.2287 -0.3604  0.5194
 3754TIP3    H111268   3.527   4.488   2.799  0.1066  0.4896  0.3693
 3754TIP3    H211269   3.377   4.489   2.822  0.0783  0.2357  0.1855
 3755TIP3   OH211270   4.159   5.889   2.008 -0.0011  0.4229 -0.1840
 3755TIP3    H111271   4.097   5.902   1.936 -1.0525 -0.6938  0.4807
 3755TIP3    H211272   4.237   5.853   1.966 -1.3255 -2.2183 -0.6072
 3756TIP3   OH211273   0.979   5.610   1.590  0.0435 -0.3861 -0.1379
 3756TIP3    H111274   1.062   5.620   1.636 -0.6600 -0.5410  1.2301
 3756TIP3    H211275   0.942   5.528   1.625 -0.7681 -0.2187 -0.5690
 3757TIP3   OH211276   2.713   1.495   1.608 -0.0218 -0.5518  0.0656
 3757TIP3    H111277   2.629   1.539   1.622  0.7282  0.4675  1.6120
 3757TIP3    H211278   2.720   1.432   1.679  0.2451 -1.0896 -0.4279
 3758TIP3   OH211279   5.672   1.447   1.500 -0.5073  0.8478  0.0240
 3758TIP3    H111280   5.652   1.414   1.587 -2.1288  1.2959 -0.1543
 3758TIP3    H211281   5.736   1.385   1.465 -1.0139 -0.2252  0.9372
 3759TIP3   OH211282   3.251   2.311   4.012 -0.1716  0.6438 -0.4578
 3759TIP3    H111283   3.260   2.235   3.954  0.8981  0.0207  0.5044
 3759TIP3    H211284   3.221   2.274   4.095  0.4723  1.2685  0.0513
 3760TIP3   OH211285   1.929   5.486   2.241 -1.1944  0.4782  0.1254
 3760TIP3    H111286   1.951   5.393   2.235  1.8449  1.1637 -1.4167
 3760TIP3    H211287   1.889   5.507   2.157 -0.8036  0.7838  0.0112
 3761TIP3   OH211288   1.920   5.052   1.936 -0.7334 -0.2934  0.0568
 3761TIP3    H111289   1.840   5.105   1.942 -0.2664  0.5705 -1.0380
 3761TIP3    H211290   1.900   4.986   1.870 -0.4945  0.0083 -0.3160
 3762TIP3   OH211291   3.661   0.170   5.178 -0.2082 -0.9443 -0.0605
 3762TIP3    H111292   3.726   0.119   5.130  0.1183  0.1782 -0.8538
 3762TIP3    H211293   3.712   0.240   5.220 -0.9241  0.1801 -1.0075
 3763TIP3   OH211294   4.512   3.424   2.275  0.0845 -0.2676 -0.2988
 3763TIP3    H111295   4.588   3.471   2.308 -0.6953 -0.2689  1.6147
 3763TIP3    H211296   4.542   3.334   2.264  0.1554 -0.4711  1.3404
 3764TIP3   OH211297   2.096   2.524   4.189  0.1540 -0.7329  0.1212
 3764TIP3    H111298   2.090   2.583   4.114  1.5732 -1.5816 -0.7030
 3764TIP3    H211299   2.160   2.565   4.247  1.9985 -1.9483 -0.9757
 3765TIP3   OH211300   0.225   4.410   0.833 -0.5231  0.5218 -0.4079
 3765TIP3    H111301   0.312   4.375   0.815 -1.4802 -1.8108 -0.8519
 3765TIP3    H211302   0.239   4.503   0.850  2.3327 -0.1830  1.7838
 3766TIP3   OH211303   5.264   4.484   1.909  0.2491  0.5340 -0.7111
 3766TIP3    H111304   5.270   4.439   1.993 -0.6057 -1.4335 -1.6580
 3766TIP3    H211305   5.350   4.523   1.897  0.7580 -0.1546  0.5272
 3767TIP3   OH211306   1.703   0.285   3.752 -0.0923  0.0223 -0.3746
 3767TIP3    H111307   1.712   0.298   3.657 -1.1102 -0.7346 -0.5986
 3767TIP3    H211308   1.786   0.315   3.788  0.2998  0.3644 -1.5062
 3768TIP3   OH211309   1.963   5.564   0.940  0.4206 -0.1631 -0.3634
 3768TIP3    H111310   2.036   5.572   0.878  1.0249 -2.9022 -0.0901
 3768TIP3    H211311   1.891   5.530   0.888 -0.9103  2.7857 -0.6976
 3769TIP3   OH211312   4.308   0.210   1.195 -0.2841  0.1187  1.1301
 3769TIP3    H111313   4.350   0.227   1.279 -0.0442  1.3065  0.7888
 3769TIP3    H211314   4.380   0.195   1.134 -0.3614  1.3378  0.7154
 3770TIP3   OH211315   5.413   4.178   1.283 -0.4289 -0.2727  0.5788
 3770TIP3    H111316   5.437   4.088   1.261  1.4654  0.1079  0.9394
 3770TIP3    H211317   5.336   4.169   1.340 -0.1789 -1.6647  0.7293
 3771TIP3   OH211318   0.382   3.579   1.077 -0.1598 -0.1223 -0.2431
 3771TIP3    H111319   0.371   3.492   1.115 -0.5368  0.1118  0.1838
 3771TIP3    H211320   0.294   3.608   1.056 -0.3999  1.4495  2.5191
 3772TIP3   OH211321   0.366   2.828   2.432 -0.5269  0.0787 -0.1422
 3772TIP3    H111322   0.423   2.897   2.399 -1.3131  0.2381 -1.2264
 3772TIP3    H211323   0.308   2.872   2.494  0.1650  0.0215  0.5530
 3773TIP3   OH211324   6.293   3.357   1.992  0.2257 -0.0508 -0.4986
 3773TIP3    H111325   6.254   3.304   1.923 -0.6581  0.7013 -0.5953
 3773TIP3    H211326   6.219   3.385   2.045  0.7120  0.8284 -0.2679
 3774TIP3   OH211327   2.559   1.262   1.056  0.2485  0.0671  0.5986
 3774TIP3    H111328   2.554   1.334   1.118  0.2875 -0.5002  1.2652
 3774TIP3    H211329   2.488   1.280   0.993  0.7131  1.0594  0.3374
 3775TIP3   OH211330   1.136   4.470   2.536  0.3158 -0.2651  0.4744
 3775TIP3    H111331   1.121   4.513   2.452  0.2414  0.6440  0.9320
 3775TIP3    H211332   1.055   4.484   2.585 -0.0005 -1.6281  0.3585
 3776TIP3   OH211333   1.359   4.266   2.661 -0.4764 -0.0995  0.2370
 3776TIP3    H111334   1.349   4.339   2.600  1.3556  0.9620  1.1261
 3776TIP3    H211335   1.387   4.193   2.605 -1.0707  0.2221 -0.4963
 3777TIP3   OH211336   3.108   0.744   2.365  0.1196  0.1165 -0.2924
 3777TIP3    H111337   3.086   0.670   2.309 -0.0323  0.1965 -0.3404
 3777TIP3    H211338   3.025   0.767   2.408 -0.0354  0.8334 -0.9549
 3778TIP3   OH211339   3.687   5.465   5.047  0.4516  0.1011  0.3923
 3778TIP3    H111340   3.668   5.371   5.045  0.7072  0.0571 -0.0368
 3778TIP3    H211341   3.772   5.474   5.004  1.1593  0.3629  1.7851
 3779TIP3   OH211342   1.691   0.673   0.064 -0.1170 -0.1924  0.2425
 3779TIP3    H111343   1.665   0.581   0.070 -0.0379 -0.1579  1.3669
 3779TIP3    H211344   1.695   0.703   0.155  1.5726  0.4411 -0.0077
 3780TIP3   OH211345   5.081   1.541   0.499 -0.0252 -0.1396  0.8198
 3780TIP3    H111346   5.133   1.527   0.578 -0.4856 -0.2561  1.1078
 3780TIP3    H211347   5.060   1.635   0.501  0.4623 -0.0177  0.5160
 3781TIP3   OH211348   4.915   3.271   3.855  0.9967  0.0426  0.2408
 3781TIP3    H111349   4.885   3.181   3.865  2.4757 -0.5098  0.0240
 3781TIP3    H211350   4.836   3.324   3.859  0.2369 -1.1382  1.8179
 3782TIP3   OH211351   5.512   0.906   4.813 -0.6286 -0.0264 -0.5712
 3782TIP3    H111352   5.543   0.828   4.766 -2.3152 -0.9600 -0.2207
 3782TIP3    H211353   5.549   0.979   4.765  1.7171 -1.0255 -0.4194
 3783TIP3   OH211354   2.029   5.563   2.854  0.1839 -0.2878  0.1425
 3783TIP3    H111355   1.993   5.483   2.891 -1.5756  0.5512  0.3756
 3783TIP3    H211356   2.107   5.535   2.806  0.0830 -1.9932  0.9060
 3784TIP3   OH211357   5.940   3.355   1.935 -1.1109  0.0540 -0.0910
 3784TIP3    H111358   5.881   3.365   1.860 -0.5209  0.0817 -0.5563
 3784TIP3    H211359   6.025   3.333   1.897 -0.5269  1.1957  0.4917
 3785TIP3   OH211360   3.497   5.598   2.046  0.0384 -0.3369  0.3384
 3785TIP3    H111361   3.511   5.511   2.086  0.5149 -0.4500 -0.0660
 3785TIP3    H211362   3.574   5.611   1.990  0.0304  0.4034  0.4920
 3786TIP3   OH211363   1.831   5.965   0.704  0.1560  0.0546  0.7154
 3786TIP3    H111364   1.878   5.954   0.622  1.1584  1.3640  1.0770
 3786TIP3    H211365   1.743   5.991   0.678  0.6220  1.0169  0.0513
 3787TIP3   OH211366   2.583   0.808   0.559  0.0766 -0.0364 -0.2074
 3787TIP3    H111367   2.678   0.819   0.549  0.2069 -0.1251  0.8056
 3787TIP3    H211368   2.568   0.715   0.543  0.3457 -0.2730  0.7940
 3788TIP3   OH211369   1.666   4.671   4.933  0.2945 -0.5006 -0.2993
 3788TIP3    H111370   1.596   4.608   4.943 -1.1327  0.8680 -1.1680
 3788TIP3    H211371   1.645   4.718   4.852  0.3963  2.1288  1.0978
 3789TIP3   OH211372   1.552   0.358   1.857 -0.5740  0.3151  0.7535
 3789TIP3    H111373   1.590   0.271   1.870 -2.8644 -0.5515  2.2438
 3789TIP3    H211374   1.478   0.343   1.798  0.5750  1.7827 -1.2129
 3790TIP3   OH211375   5.599   5.771   2.932 -0.3942  0.0166  0.1052
 3790TIP3    H111376   5.683   5.729   2.914 -0.0394  0.6719  0.1742
 3790TIP3    H211377   5.536   5.725   2.877 -0.1324 -0.9847  0.6260
 3791TIP3   OH211378   3.066   5.053   0.364  0.1840  0.3866  0.3269
 3791TIP3    H111379   3.143   5.065   0.420  0.1754  0.4416  0.3268
 3791TIP3    H211380   3.087   4.976   0.311  1.2165  1.7185 -1.3046
 3792TIP3   OH211381   0.860   0.753   4.042  0.4679  0.1065  0.3646
 3792TIP3    H111382   0.857   0.825   4.104 -2.2138  0.1460  0.3217
 3792TIP3    H211383   0.783   0.766   3.986  1.7055 -1.0035 -1.7304
 3793TIP3   OH211384   3.805   2.745   3.793  0.0325 -0.2742 -0.4017
 3793TIP3    H111385   3.723   2.789   3.815  1.0913  1.1003  0.9809
 3793TIP3    H211386   3.829   2.783   3.708 -1.5379 -1.9078 -1.6521
 3794TIP3   OH211387   5.275   2.864   1.468 -0.0175 -0.0435 -0.2236
 3794TIP3    H111388   5.313   2.948   1.497  0.6364 -0.2993 -0.3267
 3794TIP3    H211389   5.272   2.870   1.373 -0.4002  0.0397 -0.2095
 3795TIP3   OH211390   2.693   4.332   0.312 -0.1948 -0.0683 -0.3841
 3795TIP3    H111391   2.641   4.325   0.392 -0.5817  1.0549 -0.5130
 3795TIP3    H211392   2.747   4.253   0.311  0.8491  0.5577  1.7103
 3796TIP3   OH211393   1.049   3.045   2.025 -0.3176  0.2665 -0.1699
 3796TIP3    H111394   1.000   3.123   2.000  1.6089  1.6988  0.2970
 3796TIP3    H211395   1.136   3.057   1.987 -0.0190 -1.7749 -0.2616
 3797TIP3   OH211396   0.733   0.294   4.927 -0.0686 -0.9649  0.3462
 3797TIP3    H111397   0.769   0.245   5.002  1.8472  1.1384  0.9193
 3797TIP3    H211398   0.688   0.368   4.967  0.0066 -0.4235 -0.5514
 3798TIP3   OH211399   1.269   0.614   0.389 -0.3233 -0.1478  0.4776
 3798TIP3    H111400   1.211   0.645   0.458  0.4756 -1.9979  2.0650
 3798TIP3    H211401   1.306   0.533   0.423  0.0406 -1.2072 -2.1865
 3799TIP3   OH211402   3.857   3.715   4.906  0.9181 -0.6922 -0.2043
 3799TIP3    H111403   3.786   3.725   4.843  0.6451 -1.9476 -0.1171
 3799TIP3    H211404   3.882   3.804   4.928  0.3283 -0.2370 -1.3154
 3800TIP3   OH211405   4.387   1.379  -0.006  1.0589 -0.4267 -0.0952
 3800TIP3    H111406   4.297   1.410  -0.004  0.8208 -1.1542  1.3695
 3800TIP3    H211407   4.434   1.435   0.055  1.4380 -0.5513 -0.2644
 3801TIP3   OH211408   4.684   5.666   2.443  0.3495 -0.3142 -0.0509
 3801TIP3    H111409   4.719   5.577   2.442  0.2117 -0.3945  1.0936
 3801TIP3    H211410   4.589   5.655   2.451  0.2201 -0.0682 -1.0792
 3802TIP3   OH211411   0.303   1.188   2.558  0.1475 -0.4192  0.2803
 3802TIP3    H111412   0.280   1.268   2.511  0.0564 -0.4779  0.2246
 3802TIP3    H211413   0.291   1.210   2.650  0.0160 -0.4011  0.2602
 3803TIP3   OH211414   2.215   0.683   1.702 -0.2306  0.4782  0.0362
 3803TIP3    H111415   2.148   0.677   1.634  0.7068 -1.3706 -0.7924
 3803TIP3    H211416   2.287   0.730   1.660 -0.2846  0.8211  0.3205
 3804TIP3   OH211417   4.056   0.607   1.352  0.2332 -0.0393 -1.1333
 3804TIP3    H111418   3.970   0.581   1.319 -1.3309  0.6504  2.0083
 3804TIP3    H211419   4.060   0.701   1.339 -0.3665  0.2276  0.4091
 3805TIP3   OH211420   5.093   4.226   4.344  0.2203 -0.0060 -0.1033
 3805TIP3    H111421   5.077   4.288   4.272 -0.3395  0.3806  0.3473
 3805TIP3    H211422   5.005   4.204   4.376  0.4628 -0.3187  0.3509
 3806TIP3   OH211423   5.923   2.668   5.140  0.0650 -0.0574 -0.0345
 3806TIP3    H111424   5.866   2.744   5.150 -1.1973 -0.8120 -1.1089
 3806TIP3    H211425   5.969   2.683   5.058 -0.8185 -0.8115 -0.6918
 3807TIP3   OH211426   3.560   2.045   3.797 -0.1835  0.1760  0.3492
 3807TIP3    H111427   3.640   2.031   3.747 -0.0461 -1.2756  0.9085
 3807TIP3    H211428   3.588   2.093   3.875 -0.4065  2.4680 -0.9183
 3808TIP3   OH211429   4.564   2.561   4.549 -0.1727  0.1222 -0.3744
 3808TIP3    H111430   4.573   2.481   4.498  0.0144  0.9847 -1.7477
 3808TIP3    H211431   4.586   2.535   4.638 -0.5232 -1.4358 -0.7107
 3809TIP3   OH211432   5.937   0.361   5.017  0.7151 -0.2494 -0.5963
 3809TIP3    H111433   5.936   0.283   4.962 -3.4502  1.3353 -3.1885
 3809TIP3    H211434   5.859   0.352   5.072  2.5189  0.2129  2.2290
 3810TIP3   OH211435   5.493   4.015   2.270  0.0584  0.6447 -0.0829
 3810TIP3    H111436   5.544   3.949   2.222 -0.5464  0.9135 -1.1470
 3810TIP3    H211437   5.551   4.090   2.277  1.0576 -0.2405  1.8792
 3811TIP3   OH211438   6.285   4.023   1.139  0.1029 -0.2757  0.4045
 3811TIP3    H111439   6.227   3.954   1.106  0.8838 -0.8005  0.0770
 3811TIP3    H211440   6.255   4.103   1.096 -0.7181 -0.4332  0.6687
 3812TIP3   OH211441   5.492   3.695   1.044 -0.4447  0.0259  0.1650
 3812TIP3    H111442   5.452   3.616   1.006 -0.6639  0.8637 -1.4209
 3812TIP3    H211443   5.586   3.683   1.029 -0.3224 -0.6215  1.3220
 3813TIP3   OH211444   2.986   0.504   4.216 -0.3613 -0.0875 -0.1097
 3813TIP3    H111445   2.945   0.438   4.160 -1.9158  1.1155 -0.4390
 3813TIP3    H211446   2.940   0.495   4.300  0.2220 -0.1843  0.2051
 3814TIP3   OH211447   4.069   4.289   1.638 -0.6887  0.2148  0.1465
 3814TIP3    H111448   4.107   4.372   1.667 -0.9304 -0.0029  1.1283
 3814TIP3    H211449   4.132   4.223   1.665 -0.0678  0.1229 -1.4247
 3815TIP3   OH211450   1.429   1.743   3.833  0.5004 -0.0435 -0.1185
 3815TIP3    H111451   1.334   1.748   3.843  0.2714 -0.7192 -1.8141
 3815TIP3    H211452   1.457   1.835   3.832  0.0118  0.1551  1.3667
 3816TIP3   OH211453   2.355   0.854   3.676 -0.9853 -0.8764  0.4279
 3816TIP3    H111454   2.348   0.896   3.591  0.7213 -0.1345  0.6284
 3816TIP3    H211455   2.355   0.926   3.739  1.1514 -1.1746  0.8260
 3817TIP3   OH211456   2.597   5.174   4.864 -0.0479 -0.4581 -0.5807
 3817TIP3    H111457   2.590   5.131   4.949 -0.8661 -0.0650 -0.4356
 3817TIP3    H211458   2.615   5.103   4.802  3.1433 -0.4710  0.2180
 3818TIP3   OH211459   2.327   0.542   4.858  0.0178  0.3449  0.0610
 3818TIP3    H111460   2.275   0.505   4.929 -0.0345 -0.8848 -0.5922
 3818TIP3    H211461   2.412   0.564   4.898 -0.9361  2.3737  1.1341
 3819TIP3   OH211462   1.927   3.769   1.800  0.1509 -0.2907  0.7906
 3819TIP3    H111463   1.848   3.796   1.846  0.5431  0.1394  1.2126
 3819TIP3    H211464   1.897   3.751   1.710 -0.5396 -0.7672  1.1054
 3820TIP3   OH211465   0.782   2.848   1.958 -0.7030 -0.1886  0.4216
 3820TIP3    H111466   0.861   2.871   1.911 -0.1612 -0.9603  0.9250
 3820TIP3    H211467   0.811   2.827   2.046 -1.5441  0.0604  0.7738
 3821TIP3   OH211468   5.503   3.863   5.001  0.5400 -0.2034 -0.2115
 3821TIP3    H111469   5.425   3.848   4.947  0.2504  2.2338 -0.5996
 3821TIP3    H211470   5.555   3.783   4.991 -2.3514 -2.4251  0.9807
 3822TIP3   OH211471   3.674   4.692   1.708 -0.1735 -0.2731 -0.4233
 3822TIP3    H111472   3.765   4.675   1.683 -0.4031 -2.5912  0.0430
 3822TIP3    H211473   3.624   4.676   1.628 -0.2672 -0.2778 -0.3643
 3823TIP3   OH211474   3.365   1.530   4.603  0.8146 -0.5331 -0.8328
 3823TIP3    H111475   3.353   1.592   4.675  1.1255 -0.7426 -0.5970
 3823TIP3    H211476   3.332   1.447   4.636  0.0829 -0.4220 -1.2693
 3824TIP3   OH211477   4.195   4.173   5.182 -0.1846  0.6340 -0.3233
 3824TIP3    H111478   4.193   4.259   5.225  1.2979 -0.0160  1.1962
 3824TIP3    H211479   4.120   4.174   5.123 -2.7271  1.4816  2.6000
 3825TIP3   OH211480   0.526   1.870   2.861  0.3141  0.5006 -0.0831
 3825TIP3    H111481   0.494   1.780   2.873 -0.9936  1.0019  0.4516
 3825TIP3    H211482   0.458   1.925   2.903  1.7070  1.6691  0.7404
 3826TIP3   OH211483   2.997   5.151   3.383  0.3354 -0.5096  0.2293
 3826TIP3    H111484   2.948   5.171   3.304  0.3888 -1.7154 -0.1395
 3826TIP3    H211485   2.954   5.201   3.452  0.4685  0.7824 -0.6041
 3827TIP3   OH211486   4.241   4.840   1.305 -0.2526  0.1183 -0.3991
 3827TIP3    H111487   4.304   4.807   1.369 -0.4146  1.0431  0.2481
 3827TIP3    H211488   4.183   4.766   1.288 -0.2765 -0.1000  0.6040
 3828TIP3   OH211489   2.250   2.479   3.075  0.0910  0.1982  0.1384
 3828TIP3    H111490   2.241   2.553   3.135  1.1173  2.1962 -1.9920
 3828TIP3    H211491   2.268   2.404   3.131  2.0203  2.1130  2.2963
 3829TIP3   OH211492   2.577   5.000   1.210  0.1478 -0.3456 -0.7058
 3829TIP3    H111493   2.488   5.032   1.227  0.9313  1.8781 -0.3223
 3829TIP3    H211494   2.578   4.980   1.117 -0.6588 -0.0268 -0.7938
 3830TIP3   OH211495   4.476   2.825   2.502  0.8257  0.2112  0.5483
 3830TIP3    H111496   4.439   2.740   2.477  0.4021  0.7568 -0.7774
 3830TIP3    H211497   4.401   2.873   2.538  0.5188  0.8062 -0.8114
 3831TIP3   OH211498   3.937   1.189   1.436  0.0013 -0.1413 -0.2557
 3831TIP3    H111499   3.939   1.223   1.347  0.0408 -2.2639 -1.1225
 3831TIP3    H211500   4.028   1.172   1.458 -0.1271 -1.2871 -0.5311
 3832TIP3   OH211501   1.620   0.467   3.513 -0.4742 -0.1575  0.3328
 3832TIP3    H111502   1.637   0.521   3.435  0.2287  1.1806  1.3736
 3832TIP3    H211503   1.698   0.412   3.521 -0.1557  0.3145  0.5570
 3833TIP3   OH211504   5.789   3.329   1.720  0.7975 -0.5167  0.7384
 3833TIP3    H111505   5.724   3.305   1.785  2.1037 -0.4608  2.1225
 3833TIP3    H211506   5.766   3.278   1.642 -0.2537 -1.2808  1.5284
 3834TIP3   OH211507   2.652   4.133   1.661  0.0049  0.1630 -0.1642
 3834TIP3    H111508   2.704   4.053   1.666 -0.5267 -0.1341  1.1505
 3834TIP3    H211509   2.698   4.189   1.599  0.3922 -1.1547 -1.1038
 3835TIP3   OH211510   5.652   5.875   4.757 -0.2347 -0.0100  0.7355
 3835TIP3    H111511   5.673   5.823   4.834 -0.1510  0.3122  0.9315
 3835TIP3    H211512   5.560   5.901   4.770 -0.2841 -0.1287  0.6257
 3836TIP3   OH211513   2.484   0.029   0.839  0.5110 -0.3968 -0.5551
 3836TIP3    H111514   2.483   0.047   0.745 -0.4787 -0.3117 -0.5385
 3836TIP3    H211515   2.405  -0.023   0.855  0.4625 -0.0952  0.2816
 3837TIP3   OH211516   4.843   2.617   2.311  0.2888  0.2148 -0.1131
 3837TIP3    H111517   4.902   2.680   2.269  1.0004  0.2446  0.9039
 3837TIP3    H211518   4.841   2.543   2.251  0.0775  0.8627 -0.9337
 3838TIP3   OH211519   4.715   1.901   0.901 -0.2755  0.4226  0.4417
 3838TIP3    H111520   4.689   1.914   0.992 -0.3112  1.4415  0.2998
 3838TIP3    H211521   4.772   1.824   0.903 -1.1197 -0.2005  1.1578
 3839TIP3   OH211522   2.471   5.572   1.711 -0.1379 -0.1647  0.2363
 3839TIP3    H111523   2.548   5.590   1.765 -0.2052  2.3705 -0.3873
 3839TIP3    H211524   2.432   5.494   1.750  1.0613  0.2473  2.4467
 3840TIP3   OH211525   1.376   2.083   0.979  0.2479  0.4082 -0.1169
 3840TIP3    H111526   1.465   2.107   0.955  0.5542  0.5581  1.0969
 3840TIP3    H211527   1.323   2.107   0.903  1.2776  0.0185 -0.9776
 3841TIP3   OH211528   0.461   0.401   3.909  0.1338  0.2123  0.2582
 3841TIP3    H111529   0.411   0.352   3.974 -0.4672  1.8289  1.0851
 3841TIP3    H211530   0.552   0.376   3.924 -0.0910 -0.1234  1.1086
 3842TIP3   OH211531   5.774   0.253   1.716 -0.0921  0.4185 -0.0825
 3842TIP3    H111532   5.751   0.334   1.671  0.9368  0.7564 -0.0208
 3842TIP3    H211533   5.849   0.276   1.771 -0.7663 -0.1927  1.1457
 3843TIP3   OH211534   6.157   1.266   4.519  0.6249  0.1836  0.3385
 3843TIP3    H111535   6.159   1.362   4.517 -2.6123  0.3827  0.9565
 3843TIP3    H211536   6.179   1.243   4.609 -0.0835  0.4809  0.5976
 3844TIP3   OH211537   2.089   1.531   0.551  0.4472 -0.4546  0.8192
 3844TIP3    H111538   2.019   1.595   0.565  0.5085 -0.2965  0.4361
 3844TIP3    H211539   2.065   1.456   0.605 -2.0801 -2.0019 -2.1122
 3845TIP3   OH211540   1.085   3.196   3.664 -0.1389 -0.9085  0.0044
 3845TIP3    H111541   1.118   3.114   3.626  2.3698  0.4000 -0.8814
 3845TIP3    H211542   1.161   3.233   3.709 -1.2043  0.9733  0.3545
 3846TIP3   OH211543   3.262   4.036   1.352 -0.1492  0.3117 -0.0264
 3846TIP3    H111544   3.212   4.115   1.329  1.8437  1.2737 -1.4143
 3846TIP3    H211545   3.334   4.035   1.289  0.7880 -1.7682  0.9925
 3847TIP3   OH211546   4.521   1.684   1.072 -0.4858 -0.3177 -0.0285
 3847TIP3    H111547   4.556   1.774   1.068 -0.6003 -0.3359 -2.1861
 3847TIP3    H211548   4.599   1.629   1.069 -0.4849 -0.3069 -0.2056
 3848TIP3   OH211549   2.856   4.419   3.160  0.3060 -0.1863  0.6552
 3848TIP3    H111550   2.837   4.331   3.191  0.7314 -1.2077 -1.7587
 3848TIP3    H211551   2.777   4.446   3.114  1.3897 -0.8776 -1.7916
 3849TIP3   OH211552   3.718   3.925   2.955 -0.0220  0.2555  0.1950
 3849TIP3    H111553   3.677   3.858   2.899 -0.1346 -0.0737  0.6668
 3849TIP3    H211554   3.800   3.885   2.984 -0.7356 -0.2464  1.6086
 3850TIP3   OH211555   6.177   0.091   2.187 -0.1388 -0.0838  0.0655
 3850TIP3    H111556   6.238   0.163   2.176  0.2336 -0.5136 -0.7093
 3850TIP3    H211557   6.211   0.021   2.132 -0.4793 -0.8667  0.8206
 3851TIP3   OH211558   2.083   3.909   4.119  0.2225 -0.4801  0.4526
 3851TIP3    H111559   2.176   3.902   4.095  0.2494 -3.2957  0.9795
 3851TIP3    H211560   2.042   3.834   4.075 -2.3947  2.0501 -1.8713
 3852TIP3   OH211561   2.235   5.338   1.057 -0.2125  0.9539  0.0985
 3852TIP3    H111562   2.227   5.430   1.033  1.1005  1.6397  2.0102
 3852TIP3    H211563   2.319   5.333   1.103 -0.7557 -0.9910  0.9604
 3853TIP3   OH211564   1.968   0.692   0.245  0.5147  0.7419 -0.3791
 3853TIP3    H111565   2.035   0.752   0.211  2.6622 -1.1533  0.2397
 3853TIP3    H211566   1.975   0.614   0.190  0.9688 -0.6535  1.5308
 3854TIP3   OH211567   3.894   2.578   4.338  0.5434  0.5249  0.2026
 3854TIP3    H111568   3.858   2.586   4.250  0.5930 -0.1149  0.1164
 3854TIP3    H211569   3.957   2.649   4.346  1.1051  0.1184 -0.5556
 3855TIP3   OH211570   5.933   3.555   4.014  0.1198 -0.5315  0.0663
 3855TIP3    H111571   5.855   3.500   4.026 -0.1793  0.0626  1.0101
 3855TIP3    H211572   6.001   3.495   3.985 -0.4031 -1.2583  0.3084
 3856TIP3   OH211573   6.257   2.343   0.998  0.0507 -0.2896 -0.0374
 3856TIP3    H111574   6.184   2.386   1.044 -0.4234 -0.7042 -0.4007
 3856TIP3    H211575   6.263   2.257   1.038  0.3556 -0.2541 -0.0017
 3857TIP3   OH211576   1.979   4.993   4.748  0.8412  0.3973  0.8821
 3857TIP3    H111577   1.925   5.064   4.714 -1.2144 -1.0961  0.7951
 3857TIP3    H211578   1.997   4.938   4.671 -0.8517 -1.1275  1.4925
 3858TIP3   OH211579   4.438   2.504   2.107 -0.0971  0.1824  0.9109
 3858TIP3    H111580   4.434   2.418   2.149  0.8021 -0.9344 -1.1517
 3858TIP3    H211581   4.416   2.487   2.015 -0.6053  2.2831  0.5865
 3859TIP3   OH211582   2.042   2.305   2.109 -0.0696  1.1344 -0.0917
 3859TIP3    H111583   2.123   2.337   2.148  0.4654  0.4766 -0.6484
 3859TIP3    H211584   1.988   2.383   2.099 -0.5176  1.2489  2.5808
 3860TIP3   OH211585   4.088   1.208   3.647 -0.4301 -0.2213 -0.1821
 3860TIP3    H111586   4.103   1.118   3.678  0.9712  0.6196  1.7685
 3860TIP3    H211587   4.066   1.258   3.726 -0.2372  1.3498 -1.0787
 3861TIP3   OH211588   3.133   3.342   3.241  0.0084  0.7521 -0.8523
 3861TIP3    H111589   3.052   3.301   3.210 -0.9883  3.1519 -1.6900
 3861TIP3    H211590   3.120   3.353   3.335 -0.8750  1.5098 -1.0457
 3862TIP3   OH211591   5.449   1.567   2.030  0.6143 -0.0036  0.1157
 3862TIP3    H111592   5.431   1.526   1.946  1.7244 -0.1480 -0.0605
 3862TIP3    H211593   5.363   1.576   2.071  0.2589 -1.8291 -0.1508
 3863TIP3   OH211594   5.218   1.837   2.153 -0.4314  0.0265 -0.5374
 3863TIP3    H111595   5.178   1.924   2.150  0.1596  0.4657  2.1515
 3863TIP3    H211596   5.178   1.790   2.080 -1.8258  2.0971 -1.1966
 3864TIP3   OH211597   5.823   4.868   2.440  0.2639 -0.1459  0.3690
 3864TIP3    H111598   5.836   4.961   2.426 -0.5773  0.1925  1.6543
 3864TIP3    H211599   5.872   4.848   2.519  1.0612 -0.9762 -0.3108
 3865TIP3   OH211600   1.506   2.265   0.454  0.4336 -0.5010  0.1883
 3865TIP3    H111601   1.565   2.201   0.495 -0.2294 -0.8377  0.6301
 3865TIP3    H211602   1.509   2.243   0.361  0.4837 -0.9497  0.2935
 3866TIP3   OH211603   4.776   3.251   0.409  0.2008  0.1652 -0.7449
 3866TIP3    H111604   4.820   3.191   0.349  0.5758  0.5698 -0.8734
 3866TIP3    H211605   4.821   3.334   0.398 -0.7084  0.6302 -0.9994
 3867TIP3   OH211606   5.955   2.255   0.436  0.1595 -0.3912  0.1355
 3867TIP3    H111607   5.972   2.251   0.342 -1.9263  1.0429 -0.3546
 3867TIP3    H211608   6.000   2.334   0.466 -0.4680  0.0057  0.0362
 3868TIP3   OH211609   0.189   4.578   4.623 -0.2876 -0.0550  0.1078
 3868TIP3    H111610   0.232   4.657   4.590 -1.9548  0.5050 -0.8460
 3868TIP3    H211611   0.129   4.610   4.690 -0.9177 -0.5059 -0.2316
 3869TIP3   OH211612   2.464   4.946   3.760  0.5134  0.1242 -0.1172
 3869TIP3    H111613   2.375   4.976   3.779  1.2332  3.6657 -1.6436
 3869TIP3    H211614   2.462   4.922   3.667  0.6136 -2.4638  0.4617
 3870TIP3   OH211615   1.066   0.873   5.189  0.0976 -0.4420 -0.6938
 3870TIP3    H111616   1.056   0.863   5.095  1.1931 -3.0402 -0.5988
 3870TIP3    H211617   0.979   0.858   5.225 -0.3808  0.8207 -1.2470
 3871TIP3   OH211618   5.492   0.764   4.285 -0.6350 -0.1603  0.2418
 3871TIP3    H111619   5.485   0.829   4.355 -1.6486 -1.8660  1.8143
 3871TIP3    H211620   5.404   0.726   4.278 -0.3882 -0.5308 -1.5109
 3872TIP3   OH211621   1.468   5.037   4.556  0.6218 -0.6710 -0.0197
 3872TIP3    H111622   1.375   5.055   4.540  0.9253  0.2018 -0.8778
 3872TIP3    H211623   1.483   4.950   4.520  0.1526 -0.7943  0.0757
 3873TIP3   OH211624   0.460   3.415   3.165  0.2500 -0.0939 -0.2161
 3873TIP3    H111625   0.534   3.413   3.226  0.1497 -1.1974 -0.1126
 3873TIP3    H211626   0.488   3.363   3.091  0.5239  1.5733 -1.3379
 3874TIP3   OH211627   5.511   0.243   4.391  1.0424 -0.0960  0.5085
 3874TIP3    H111628   5.436   0.187   4.412  1.8067 -0.8088  1.4020
 3874TIP3    H211629   5.571   0.232   4.465  2.0266  0.4729 -0.1803
 3875TIP3   OH211630   3.531   0.821   4.839  0.7548  0.1580 -0.0517
 3875TIP3    H111631   3.531   0.908   4.800  1.6878  0.1674 -0.0616
 3875TIP3    H211632   3.576   0.766   4.775 -0.7179 -0.5608 -0.5008
 3876TIP3   OH211633   3.803   5.655   2.739 -0.1289  0.5351 -0.0192
 3876TIP3    H111634   3.798   5.746   2.767  2.1780  0.9686 -0.7902
 3876TIP3    H211635   3.817   5.660   2.644 -0.6537 -0.6593 -0.1806
 3877TIP3   OH211636   2.814   4.488   0.773  0.4096 -0.1604 -0.1487
 3877TIP3    H111637   2.862   4.461   0.695 -1.0105 -3.6801  0.0052
 3877TIP3    H211638   2.749   4.551   0.742  2.5267  1.7216 -0.9778
 3878TIP3   OH211639   2.926   0.145   2.360 -0.8447 -0.1025 -0.0452
 3878TIP3    H111640   2.875   0.144   2.441 -0.8270 -0.1034 -0.0339
 3878TIP3    H211641   2.873   0.095   2.298 -0.4727 -0.8419  0.2071
 3879TIP3   OH211642   4.279   2.785   0.432 -0.0635 -0.1596  0.2532
 3879TIP3    H111643   4.315   2.743   0.354 -0.0063  1.0231 -0.3726
 3879TIP3    H211644   4.342   2.764   0.501  1.2982  0.9488 -0.5847
 3880TIP3   OH211645   3.229   5.759   1.642 -0.0212 -0.1105  0.3892
 3880TIP3    H111646   3.228   5.836   1.585  1.2174  0.0596  0.5775
 3880TIP3    H211647   3.313   5.718   1.625  0.2984 -0.1501  1.9588
 3881TIP3   OH211648   5.139   1.974   4.356 -0.5418  0.5357  0.1040
 3881TIP3    H111649   5.073   2.029   4.312 -0.8368  0.6040  0.6284
 3881TIP3    H211650   5.201   2.037   4.392  0.7362  0.4386 -1.7767
 3882TIP3   OH211651   5.924   5.128   4.611  0.9827  0.1554  0.0834
 3882TIP3    H111652   5.916   5.144   4.705  0.9181 -2.1241  0.5181
 3882TIP3    H211653   5.981   5.051   4.605 -1.7235 -1.9151 -1.5156
 3883TIP3   OH211654   4.035   4.566   3.982  0.0521 -0.1125  0.8036
 3883TIP3    H111655   4.064   4.651   3.949 -1.3635  1.3319  3.0034
 3883TIP3    H211656   4.020   4.514   3.903  0.2055  1.9259 -0.6637
 3884TIP3   OH211657   3.241   4.780   1.689  0.2291  0.0912 -0.7902
 3884TIP3    H111658   3.308   4.760   1.754  2.0750 -0.9629 -2.8920
 3884TIP3    H211659   3.235   4.875   1.688  0.2100  0.1339  0.8179
 3885TIP3   OH211660   3.242   2.802   2.576  0.7452  0.5076 -0.1365
 3885TIP3    H111661   3.332   2.787   2.603  0.7586  2.1646  0.8626
 3885TIP3    H211662   3.249   2.829   2.484  1.2246  0.3214 -0.1593
 3886TIP3   OH211663   4.501   1.616   1.786  0.5286 -0.0132  0.0626
 3886TIP3    H111664   4.561   1.560   1.835  0.1149  0.1714  0.8021
 3886TIP3    H211665   4.452   1.663   1.854  2.0030  2.4954 -0.4914
 3887TIP3   OH211666   2.332   0.784   1.237 -0.7628 -0.5280  0.0431
 3887TIP3    H111667   2.401   0.837   1.276 -0.6984 -0.6476  0.0918
 3887TIP3    H211668   2.283   0.845   1.183 -0.8713 -0.3529  0.3335
 3888TIP3   OH211669   2.569   1.520   1.992 -0.4777 -0.2545 -0.0162
 3888TIP3    H111670   2.489   1.573   2.002 -0.1162  0.5527 -1.2058
 3888TIP3    H211671   2.640   1.582   2.004 -0.0056 -0.9173  0.7216
 3889TIP3   OH211672   0.865   3.575   2.707 -0.4940  0.2277 -0.0912
 3889TIP3    H111673   0.895   3.484   2.713 -0.5991 -0.0109 -2.5047
 3889TIP3    H211674   0.771   3.569   2.726 -0.3602 -0.0158  0.5563
 3890TIP3   OH211675   3.970   5.075   4.098 -0.4612  0.0769  0.7053
 3890TIP3    H111676   3.984   5.045   4.008 -0.9013  0.2094  0.5921
 3890TIP3    H211677   4.051   5.053   4.143  0.0377  0.6492  0.1057
 3891TIP3   OH211678   1.408   0.833   4.116 -0.2264 -0.0168  0.1568
 3891TIP3    H111679   1.316   0.857   4.121 -0.5052 -1.1294  0.7084
 3891TIP3    H211680   1.448   0.902   4.063 -1.3399  0.5613  0.0397
 3892TIP3   OH211681   3.750   1.910   0.323 -0.0486  0.4966 -0.1875
 3892TIP3    H111682   3.676   1.972   0.315  0.5242  1.1014 -0.9859
 3892TIP3    H211683   3.712   1.833   0.365 -0.3801  2.0728  2.6614
 3893TIP3   OH211684   0.638   4.352   2.661  0.6496  0.2987 -0.0950
 3893TIP3    H111685   0.731   4.336   2.675  0.5875 -0.4595 -0.4990
 3893TIP3    H211686   0.597   4.334   2.746  0.7520 -0.3384 -0.1802
 3894TIP3   OH211687   5.809   4.459   0.486  0.0867  0.0578 -0.4493
 3894TIP3    H111688   5.756   4.476   0.564  0.5765 -0.4713  0.0154
 3894TIP3    H211689   5.892   4.503   0.504  0.7020 -1.2131 -0.0471
 3895TIP3   OH211690   4.941   3.365   2.499  0.3107 -0.1719  0.1146
 3895TIP3    H111691   4.924   3.367   2.405 -0.2420 -0.8916  0.1965
 3895TIP3    H211692   4.868   3.412   2.538  2.0586  2.9539  0.0242
 3896TIP3   OH211693   5.524   4.509   3.857 -0.1782 -0.1333 -0.1084
 3896TIP3    H111694   5.597   4.449   3.873  0.8109  0.7691 -1.1171
 3896TIP3    H211695   5.547   4.555   3.777 -0.9693  1.5130  0.5642
 3897TIP3   OH211696   6.279   4.597   0.960 -0.4155 -0.0399  0.5207
 3897TIP3    H111697   6.343   4.563   1.022  0.2564  0.3919  0.0691
 3897TIP3    H211698   6.200   4.611   1.013 -0.3864 -1.2786  0.9268
 3898TIP3   OH211699   4.855   4.951   4.852 -0.4635 -0.4572 -0.1547
 3898TIP3    H111700   4.925   4.917   4.795 -0.2577  0.2414 -0.3314
 3898TIP3    H211701   4.864   4.902   4.934 -0.6321 -1.3314 -0.6408
 3899TIP3   OH211702   3.096   5.542   4.869 -0.3986  0.1505 -0.3062
 3899TIP3    H111703   3.187   5.561   4.847 -0.8595  3.2953  0.0631
 3899TIP3    H211704   3.050   5.540   4.785 -0.2206  0.0118 -0.4002
 3900TIP3   OH211705   2.724   2.247   3.775 -0.0513 -0.0477  0.1026
 3900TIP3    H111706   2.797   2.275   3.830 -0.0604  0.2437 -0.0356
 3900TIP3    H211707   2.758   2.251   3.686  0.0190 -0.6878  0.0976
 3901TIP3   OH211708   2.463   5.101   0.286  0.7438 -0.4510  0.0963
 3901TIP3    H111709   2.470   5.019   0.238  1.6335 -0.8593  0.9023
 3901TIP3    H211710   2.502   5.166   0.228 -0.2907 -0.5035 -0.7007
 3902TIP3   OH211711   4.828   2.827   1.991  0.0698 -0.1284 -0.1222
 3902TIP3    H111712   4.850   2.897   2.052  0.1220  1.1713 -1.5654
 3902TIP3    H211713   4.750   2.786   2.029 -0.6511  1.4749  0.1882
 3903TIP3   OH211714   2.163   4.730   1.465 -0.1576 -0.3121  0.0747
 3903TIP3    H111715   2.106   4.757   1.393 -1.0061 -0.1333  0.8025
 3903TIP3    H211716   2.190   4.641   1.442 -0.0124 -0.0774 -0.7075
 3904TIP3   OH211717   4.800   3.488   2.007  0.2889 -0.2600 -0.1673
 3904TIP3    H111718   4.820   3.581   2.017 -0.0581 -0.0815 -1.0790
 3904TIP3    H211719   4.842   3.464   1.925  0.8300 -1.0456  0.3287
 3905TIP3   OH211720   0.684   3.558   3.039  0.1678 -0.3439  0.0670
 3905TIP3    H111721   0.589   3.545   3.033  0.0435 -0.4608  1.7243
 3905TIP3    H211722   0.693   3.638   3.091  0.9928 -0.1541 -0.3565
 3906TIP3   OH211723   1.535   0.171   4.272 -0.4116  0.4179  0.0405
 3906TIP3    H111724   1.565   0.128   4.352 -1.4732  0.5757  0.5520
 3906TIP3    H211725   1.466   0.113   4.239 -2.7840  2.2580  1.4335
 3907TIP3   OH211726   1.323   2.014   1.994 -0.2416 -0.3789 -0.0359
 3907TIP3    H111727   1.270   1.990   1.918 -1.2349  1.7280 -0.1012
 3907TIP3    H211728   1.332   2.109   1.987  1.2499 -0.3644  1.4881
 3908TIP3   OH211729   6.148   1.515   4.392 -0.2595  0.0958 -0.2305
 3908TIP3    H111730   6.223   1.570   4.416  0.8016 -1.9240  1.3919
 3908TIP3    H211731   6.175   1.472   4.310 -0.8030  1.3935 -1.1178
 3909TIP3   OH211732   0.387   5.860   3.393  0.0809  0.2372 -0.1597
 3909TIP3    H111733   0.379   5.885   3.485  0.6906  1.6468 -0.4669
 3909TIP3    H211734   0.394   5.764   3.395 -3.6705 -0.1403  0.9519
 3910TIP3   OH211735   4.077   4.565   3.410 -0.4566  0.1367  0.2110
 3910TIP3    H111736   4.124   4.611   3.341 -0.2885 -0.1690  0.1179
 3910TIP3    H211737   4.120   4.593   3.491  1.1919 -1.5691  0.0266
 3911TIP3   OH211738   2.163   2.296   2.656 -0.1421  0.5413 -1.0235
 3911TIP3    H111739   2.100   2.283   2.585 -1.5584 -1.4380  0.4926
 3911TIP3    H211740   2.166   2.211   2.701  1.4744  1.4334  0.6703
 3912TIP3   OH211741   5.569   3.865   4.034 -0.0324 -0.2723 -0.4217
 3912TIP3    H111742   5.645   3.872   4.091 -0.1281 -1.4772 -0.1011
 3912TIP3    H211743   5.503   3.822   4.088 -0.1435 -1.3997 -1.4061
 3913TIP3   OH211744   4.381   2.579   1.060 -0.5380 -0.2230 -0.1878
 3913TIP3    H111745   4.326   2.501   1.070  0.0017 -0.7173 -0.9135
 3913TIP3    H211746   4.382   2.595   0.966  1.5199 -0.9663 -0.3485
 3914TIP3   OH211747   5.601   3.256   1.883  0.4905  0.1017  0.4737
 3914TIP3    H111748   5.614   3.272   1.976 -0.3144 -0.0021  0.6168
 3914TIP3    H211749   5.509   3.280   1.867  1.0801  1.8472 -0.6678
 3915TIP3   OH211750   1.513   0.920   5.121 -0.1528  0.7511  0.4025
 3915TIP3    H111751   1.568   0.961   5.187  2.0048 -2.5214  0.8079
 3915TIP3    H211752   1.534   0.827   5.125 -2.2142 -0.0184 -2.8024
 3916TIP3   OH211753   1.134   0.190   3.998 -0.1949 -0.1164 -0.2697
 3916TIP3    H111754   1.056   0.200   4.052  1.3011  1.2241  1.7488
 3916TIP3    H211755   1.200   0.155   4.057  1.7386  2.1279 -0.9517
 3917TIP3   OH211756   3.721   5.126   1.740 -0.0220 -0.1242  0.1738
 3917TIP3    H111757   3.709   5.137   1.646 -0.2179  0.3840  0.2533
 3917TIP3    H211758   3.633   5.104   1.772  0.0673 -0.4116  0.2236
 3918TIP3   OH211759   1.530   5.005   3.139 -0.5361 -0.2521 -0.3915
 3918TIP3    H111760   1.586   5.000   3.061  0.2059  0.1037  0.1046
 3918TIP3    H211761   1.587   4.982   3.211 -0.2408  2.7232  0.4617
 3919TIP3   OH211762   3.421   3.481   1.683 -0.4474  0.0881  0.1724
 3919TIP3    H111763   3.381   3.568   1.672 -2.5460 -0.6250  1.6581
 3919TIP3    H211764   3.504   3.499   1.727 -0.4904  1.4102 -0.2407
 3920TIP3   OH211765   4.128   0.381   3.204 -0.3234 -0.1497 -0.2879
 3920TIP3    H111766   4.162   0.438   3.136  0.1908 -0.1325 -0.0192
 3920TIP3    H211767   4.136   0.431   3.285  1.4546 -1.0923  0.1741
 3921TIP3   OH211768   3.824   2.284   2.001 -0.3681 -0.1684  0.2935
 3921TIP3    H111769   3.784   2.241   1.925 -0.2557  0.0718  0.0974
 3921TIP3    H211770   3.913   2.250   2.004  0.0262  0.7531 -0.4283
 3922TIP3   OH211771   6.016   2.720   0.665 -0.8157  0.4190 -0.1113
 3922TIP3    H111772   5.950   2.785   0.642 -1.0154  0.7193  1.2545
 3922TIP3    H211773   5.987   2.684   0.749 -0.2041 -0.7534 -0.3760
 3923TIP3   OH211774   4.290   5.199   3.819  0.1892  0.4638 -0.2562
 3923TIP3    H111775   4.334   5.117   3.841  0.7668  0.2414 -2.0318
 3923TIP3    H211776   4.207   5.172   3.779 -0.2532  0.7947  0.4266
 3924TIP3   OH211777   5.138   3.552   2.999  0.3776 -0.4809 -0.0082
 3924TIP3    H111778   5.131   3.620   3.066 -1.0164 -1.3203  0.7519
 3924TIP3    H211779   5.049   3.543   2.965  0.9012 -0.6627 -1.4076
 3925TIP3   OH211780   2.377   4.048   1.726  0.4543 -0.5338  0.1752
 3925TIP3    H111781   2.460   4.078   1.688 -0.4124  1.2101 -0.4588
 3925TIP3    H211782   2.315   4.050   1.653 -1.1169  2.2909  1.4268
 3926TIP3   OH211783   1.968   3.648   4.163 -0.2444  0.3496  0.1879
 3926TIP3    H111784   1.972   3.554   4.182  0.2551 -0.0944 -1.8352
 3926TIP3    H211785   1.886   3.677   4.202 -1.3715 -1.3633 -0.7611
 3927TIP3   OH211786   1.671   3.620   2.785 -0.0170  0.3980  0.2218
 3927TIP3    H111787   1.629   3.681   2.723  1.6488  0.9084 -0.4637
 3927TIP3    H211788   1.750   3.667   2.814 -0.1997 -0.2959  1.9049
 3928TIP3   OH211789   2.322   0.813   2.782 -0.1185 -0.1010 -0.4206
 3928TIP3    H111790   2.403   0.839   2.824 -0.5162  1.7966 -0.7465
 3928TIP3    H211791   2.266   0.783   2.854  0.1552  0.5407  0.0668
 3929TIP3   OH211792   4.560   3.678   3.505  0.0703 -0.2232  0.1070
 3929TIP3    H111793   4.477   3.705   3.543  1.0014  0.9713  1.4035
 3929TIP3    H211794   4.573   3.588   3.535 -1.4288 -0.9887 -1.3722
 3930TIP3   OH211795   4.140   4.660   4.382 -0.1047  0.2213  0.2846
 3930TIP3    H111796   4.080   4.622   4.446  0.4057  0.5765  0.9980
 3930TIP3    H211797   4.136   4.601   4.307 -0.6079 -0.2903  0.7026
 3931TIP3   OH211798   2.661   5.466   0.130 -0.1297  0.1129  0.0990
 3931TIP3    H111799   2.638   5.551   0.091  1.0169  0.5081  0.2371
 3931TIP3    H211800   2.639   5.476   0.223  0.9833  0.6589  0.3231
 3932TIP3   OH211801   4.611   2.718   2.146  0.0484 -0.4283 -0.3151
 3932TIP3    H111802   4.674   2.729   2.216  0.1055  0.5819 -0.5096
 3932TIP3    H211803   4.566   2.636   2.166  0.8024 -0.6977  0.3025
 3933TIP3   OH211804   3.578   2.250   4.987  0.3892 -0.2229  0.4488
 3933TIP3    H111805   3.587   2.162   4.951 -0.2710  0.6041 -1.8997
 3933TIP3    H211806   3.653   2.299   4.953 -2.0546  1.5122 -3.0267
 3934TIP3   OH211807   4.011   1.357   2.509  0.0403 -0.2865  0.3897
 3934TIP3    H111808   3.984   1.449   2.506  0.9683  0.0606  1.9966
 3934TIP3    H211809   3.934   1.311   2.544 -0.3751 -0.1293 -0.2848
 3935TIP3   OH211810   2.289   3.784   0.786  0.7096 -0.0947  0.9547
 3935TIP3    H111811   2.337   3.762   0.706  0.7808  0.0082  0.9681
 3935TIP3    H211812   2.303   3.878   0.797 -0.6128  0.1991  0.2260
 3936TIP3   OH211813   0.481   3.815   3.938 -0.5103  0.2619 -0.1175
 3936TIP3    H111814   0.455   3.728   3.907  0.6594 -0.0390 -0.2830
 3936TIP3    H211815   0.518   3.799   4.025 -1.8030  0.8221  0.5567
 3937TIP3   OH211816   6.228   5.859   4.485  0.5571  0.3533  0.1107
 3937TIP3    H111817   6.320   5.865   4.462  0.4351  0.2414 -0.4164
 3937TIP3    H211818   6.225   5.797   4.557  1.0498  1.3785  1.0471
 3938TIP3   OH211819   0.937   4.932   0.591  0.0379  0.0773  0.6104
 3938TIP3    H111820   1.029   4.946   0.567 -0.0540  1.3500  0.9137
 3938TIP3    H211821   0.928   4.837   0.598  1.3542 -0.0591  0.6614
 3939TIP3   OH211822   0.535   2.611   0.755  0.3273  0.6835  0.0493
 3939TIP3    H111823   0.571   2.556   0.686 -0.1333 -0.3085  0.5838
 3939TIP3    H211824   0.611   2.647   0.800  0.6452 -0.2004  0.2306
 3940TIP3   OH211825   0.757   1.469   3.785  0.1720 -0.1356 -0.4631
 3940TIP3    H111826   0.795   1.476   3.698  0.0952 -0.8037 -0.5610
 3940TIP3    H211827   0.829   1.490   3.845  0.6745 -1.2513 -0.6502
 3941TIP3   OH211828   4.750   0.246   3.368  0.0602  0.4527  0.4029
 3941TIP3    H111829   4.728   0.319   3.426 -1.0518  1.5932 -1.3800
 3941TIP3    H211830   4.675   0.238   3.310  1.7026  0.3183 -1.8128
 3942TIP3   OH211831   2.070   0.550   3.107  0.2114 -0.1635 -0.4980
 3942TIP3    H111832   2.125   0.613   3.061 -0.6552  1.9530  1.1709
 3942TIP3    H211833   1.997   0.534   3.047  0.9566 -0.4223 -1.3624
 3943TIP3   OH211834   1.005   2.028   2.759 -0.2371  0.6334 -0.0706
 3943TIP3    H111835   1.009   2.117   2.795 -0.7667  0.9582 -0.8061
 3943TIP3    H211836   0.955   1.979   2.823 -0.1524  0.9216  0.2212
 3944TIP3   OH211837   0.837   1.567   1.866 -0.8679  0.7101 -0.1003
 3944TIP3    H111838   0.781   1.517   1.806  0.0147  0.1250 -0.4602
 3944TIP3    H211839   0.877   1.634   1.811  1.5859 -1.1206 -0.7216
 3945TIP3   OH211840   4.421   4.850   3.221  0.4418 -0.5054  0.0747
 3945TIP3    H111841   4.487   4.791   3.183  1.2634  0.9530 -0.8560
 3945TIP3    H211842   4.464   4.889   3.297  0.2926 -0.2828  0.0459
 3946TIP3   OH211843   5.577   1.495   2.908  0.3370 -0.5025  0.2401
 3946TIP3    H111844   5.539   1.489   2.995 -0.0447 -2.0007 -0.0034
 3946TIP3    H211845   5.516   1.447   2.851  1.4441 -1.0190 -0.5495
 3947TIP3   OH211846   5.469   4.115   5.086  0.1904  0.2474  0.5966
 3947TIP3    H111847   5.374   4.120   5.076  0.2823  1.3779  0.1688
 3947TIP3    H211848   5.491   4.025   5.061 -0.6678  0.2321 -0.1362
 3948TIP3   OH211849   1.075   2.610   1.167 -0.1282 -0.8318 -0.8841
 3948TIP3    H111850   1.083   2.677   1.099  0.8367  0.4307  0.4070
 3948TIP3    H211851   1.127   2.536   1.134 -0.2982 -0.5330 -1.8446
 3949TIP3   OH211852   1.638   3.937   2.819  0.6244 -0.1235  0.4882
 3949TIP3    H111853   1.545   3.932   2.844  0.3792 -1.0836 -0.5294
 3949TIP3    H211854   1.636   3.932   2.723  1.7355 -0.1374  0.4632
 3950TIP3   OH211855   4.947   1.762   2.052  0.4968  0.2062  0.7357
 3950TIP3    H111856   4.993   1.706   1.989  1.3380  0.4381  1.1317
 3950TIP3    H211857   4.957   1.851   2.017 -1.0328  0.1112 -0.0144
 3951TIP3   OH211858   5.532   1.074   2.678 -0.1904 -0.4015  0.7402
 3951TIP3    H111859   5.591   1.042   2.609  0.6100 -1.8065  2.0234
 3951TIP3    H211860   5.559   1.026   2.756 -1.1253  1.1156  2.0277
 3952TIP3   OH211861   4.546   1.008   2.201  0.0904  0.0304 -0.6758
 3952TIP3    H111862   4.510   1.020   2.113 -1.5453  0.1775 -0.0279
 3952TIP3    H211863   4.575   0.917   2.204  0.8258  0.2304 -1.5886
 3953TIP3   OH211864   2.704   4.691   5.064  0.1114  0.3592  0.0008
 3953TIP3    H111865   2.674   4.694   5.155  1.7914  3.1410  0.5673
 3953TIP3    H211866   2.779   4.631   5.066 -0.3385 -0.2069  0.2669
 3954TIP3   OH211867   1.054   4.950   2.570  0.1267  0.8108 -0.3619
 3954TIP3    H111868   1.058   4.946   2.665  0.9019 -1.6998 -0.4295
 3954TIP3    H211869   1.145   4.958   2.543  0.2105 -1.2916 -0.8885
 3955TIP3   OH211870   5.319   4.703   2.237 -0.5772  0.3520 -0.2219
 3955TIP3    H111871   5.387   4.758   2.276  0.0050 -0.9603  0.6877
 3955TIP3    H211872   5.309   4.736   2.148  0.7905  0.9946 -0.1550
 3956TIP3   OH211873   2.689   3.189   2.369  0.6187  0.1904 -0.2464
 3956TIP3    H111874   2.652   3.242   2.439  0.6934 -0.4219  0.2671
 3956TIP3    H211875   2.672   3.099   2.396  1.7930 -0.0829 -0.3734
 3957TIP3   OH211876   2.137   0.201   2.315 -0.0543  0.0647 -0.0372
 3957TIP3    H111877   2.123   0.265   2.385 -0.1998  0.0382 -0.0410
 3957TIP3    H211878   2.050   0.161   2.302 -0.0327  0.0888 -0.2519
 3958TIP3   OH211879   2.959   2.198   1.971 -0.2547 -0.2237 -0.4231
 3958TIP3    H111880   2.961   2.292   1.951  2.2424  0.0329  0.6911
 3958TIP3    H211881   2.990   2.155   1.892 -0.4695 -0.0490 -0.6041
 3959TIP3   OH211882   5.549   2.092   1.432  0.3535  0.1022  0.0810
 3959TIP3    H111883   5.475   2.133   1.387  0.9704  0.0817 -0.9787
 3959TIP3    H211884   5.576   2.157   1.497 -0.7378  0.0061  0.6624
 3960TIP3   OH211885   4.382   1.542   3.031  0.5927  0.4174  0.0245
 3960TIP3    H111886   4.347   1.453   3.039  0.6397  0.4398  0.5263
 3960TIP3    H211887   4.307   1.596   3.007 -0.3491  0.9127  3.5921
 3961TIP3   OH211888   0.987   2.955   0.134 -0.0952 -0.0931 -0.3159
 3961TIP3    H111889   1.076   2.975   0.162 -0.4780 -1.1132  1.8662
 3961TIP3    H211890   0.935   3.032   0.159 -0.0712 -0.1342 -0.1353
 3962TIP3   OH211891   4.576   4.441   3.039 -0.0420 -0.1313  0.0962
 3962TIP3    H111892   4.627   4.386   2.980  1.7561  0.2742  1.2173
 3962TIP3    H211893   4.513   4.382   3.080 -0.8862 -0.5397 -1.7006
 3963TIP3   OH211894   6.254   5.089   4.307  0.0473  0.5027 -0.1459
 3963TIP3    H111895   6.289   5.007   4.341  0.7420  0.9842  0.3202
 3963TIP3    H211896   6.315   5.156   4.337  0.5770  0.9865 -2.1266
 3964TIP3   OH211897   5.771   0.352   2.996  0.6931  0.4050  0.1380
 3964TIP3    H111898   5.754   0.259   3.011 -0.9218  0.8700  1.5876
 3964TIP3    H211899   5.706   0.379   2.932  1.4596  0.4582 -0.6352
 3965TIP3   OH211900   2.434  -0.011   3.923 -0.3555 -0.4194 -0.5638
 3965TIP3    H111901   2.340   0.002   3.933 -0.3259 -0.3082 -0.4194
 3965TIP3    H211902   2.472   0.077   3.934 -0.0827 -0.7275  1.2283
 3966TIP3   OH211903   4.967   3.201   3.414 -0.3095 -0.5654 -0.1253
 3966TIP3    H111904   4.981   3.274   3.475  0.6094 -1.2767  0.5468
 3966TIP3    H211905   5.042   3.206   3.355 -1.3269  0.2748 -1.3878
 3967TIP3   OH211906   0.741   1.548   4.271  0.1017  0.4166 -0.0981
 3967TIP3    H111907   0.730   1.621   4.209 -0.1311 -0.9000 -1.6671
 3967TIP3    H211908   0.684   1.479   4.237 -1.0632  0.0828  2.3607
 3968TIP3   OH211909   4.744   3.849   3.097 -0.4225 -0.7292 -0.3496
 3968TIP3    H111910   4.774   3.801   3.174 -0.4877  1.6698  1.2775
 3968TIP3    H211911   4.821   3.855   3.040  0.4351 -0.0774  0.8586
 3969TIP3   OH211912   2.823   1.275   1.040 -0.1462  0.3326  0.0210
 3969TIP3    H111913   2.822   1.254   1.133  0.2310  0.3481  0.0296
 3969TIP3    H211914   2.735   1.309   1.022 -0.8833 -1.4522 -0.0416
 3970TIP3   OH211915   5.954   4.795   1.792 -0.2081 -0.3561 -0.3560
 3970TIP3    H111916   5.868   4.835   1.776 -0.1225 -0.4119 -0.9798
 3970TIP3    H211917   5.953   4.774   1.885 -0.0919  1.4404  0.0768
 3971TIP3   OH211918   3.090   2.513   2.315 -0.2859 -0.1301 -0.0520
 3971TIP3    H111919   3.115   2.513   2.407 -0.1200  1.7819 -0.0615
 3971TIP3    H211920   3.025   2.443   2.307  0.3590 -0.9156  1.3068
 3972TIP3   OH211921   0.434   0.789   0.587 -0.6584 -0.7985 -0.0336
 3972TIP3    H111922   0.374   0.855   0.552  0.4899 -0.3218 -1.2028
 3972TIP3    H211923   0.426   0.798   0.682 -0.6685  0.9074 -0.1551
 3973TIP3   OH211924   5.348   4.856   1.738 -0.2616  0.4428  0.0308
 3973TIP3    H111925   5.326   4.865   1.831  3.1485 -1.6530  1.2165
 3973TIP3    H211926   5.379   4.943   1.712 -1.4816  1.1103  0.7415
 3974TIP3   OH211927   2.223   1.541   2.423  0.0448  0.5129  0.1168
 3974TIP3    H111928   2.145   1.581   2.461  0.9734  1.4877  1.0355
 3974TIP3    H211929   2.191   1.498   2.343 -2.1138 -2.2454  2.2345
 3975TIP3   OH211930   2.869   2.407   4.883  0.6051 -0.1711 -0.2371
 3975TIP3    H111931   2.949   2.393   4.934  1.2367  1.9491 -0.5296
 3975TIP3    H211932   2.885   2.363   4.800  1.3444 -0.0549 -0.1649
 3976TIP3   OH211933   0.321   3.808   4.363  0.0886 -0.7228  0.0596
 3976TIP3    H111934   0.299   3.893   4.326 -0.8689 -1.1079 -0.2822
 3976TIP3    H211935   0.368   3.828   4.444  2.1056  0.1401 -1.2541
 3977TIP3   OH211936   6.333   5.495   4.949 -0.1494 -0.4770 -0.0429
 3977TIP3    H111937   6.302   5.419   4.900  1.5231 -0.0167 -1.9549
 3977TIP3    H211938   6.395   5.460   5.013 -0.0693 -0.8086 -0.3035
 3978TIP3   OH211939   3.546   2.465   3.986  0.4429 -0.1447  0.5219
 3978TIP3    H111940   3.559   2.374   4.011 -0.8533  0.1878  2.6421
 3978TIP3    H211941   3.485   2.461   3.912  0.4186 -0.9988  0.5768
 3979TIP3   OH211942   1.284   1.816   0.819 -0.3334  0.0950 -0.1941
 3979TIP3    H111943   1.367   1.856   0.844 -0.6558  0.1602  0.8352
 3979TIP3    H211944   1.219   1.861   0.873 -0.6029 -2.5794  1.9460
 3980TIP3   OH211945   4.769   2.423   3.931 -0.2711  0.0330  0.1861
 3980TIP3    H111946   4.792   2.441   4.023 -1.6631 -2.2420  1.0743
 3980TIP3    H211947   4.682   2.461   3.920  0.2646  1.0924 -0.5023
 3981TIP3   OH211948   4.573   3.824   2.735  0.3065  0.0607  0.0905
 3981TIP3    H111949   4.654   3.853   2.694  1.4318 -0.8902  1.5306
 3981TIP3    H211950   4.526   3.905   2.755  0.3963  0.5812 -1.6661
 3982TIP3   OH211951   4.297   5.253   0.624  0.2839  0.0565  0.0221
 3982TIP3    H111952   4.239   5.299   0.564  0.0748  0.0507  0.2177
 3982TIP3    H211953   4.247   5.247   0.706  1.2012  1.5806  0.7433
 3983TIP3   OH211954   4.985   5.660   0.770 -0.1294  0.8771  0.8203
 3983TIP3    H111955   5.034   5.592   0.724 -0.2972  0.4903  1.2072
 3983TIP3    H211956   5.003   5.643   0.862 -0.1575  1.3733  0.9164
 3984TIP3   OH211957   4.078   5.602   4.950 -0.2267 -0.1701 -0.7849
 3984TIP3    H111958   4.135   5.543   4.999 -2.9479 -1.5656  0.9070
 3984TIP3    H211959   4.137   5.646   4.888  3.0295 -0.0281  2.0932
 3985TIP3   OH211960   3.181   1.971   1.979 -0.0334  0.3816  0.1885
 3985TIP3    H111961   3.089   1.991   1.997  0.0232 -1.0667  2.5398
 3985TIP3    H211962   3.221   2.055   1.960 -1.5651  1.2417  0.6262
 3986TIP3   OH211963   4.116   4.415   1.967  0.8071 -0.2442 -0.1612
 3986TIP3    H111964   4.103   4.372   2.052  1.7802  0.8381  0.5622
 3986TIP3    H211965   4.031   4.453   1.946  1.4268  3.0311  2.3919
 3987TIP3   OH211966   3.113   5.199   0.135 -0.3183  0.0541 -0.9392
 3987TIP3    H111967   3.099   5.293   0.125  0.0653 -0.0342 -2.8140
 3987TIP3    H211968   3.120   5.185   0.229 -0.1784  1.9296 -0.6315
 3988TIP3   OH211969   3.444   1.848   5.082  0.6146 -0.2307  0.2943
 3988TIP3    H111970   3.522   1.869   5.030  0.4466  0.6386  0.3749
 3988TIP3    H211971   3.393   1.929   5.082  0.0378 -0.5864  0.8164
 3989TIP3   OH211972   5.183   5.151   3.269 -0.1436  0.5123  0.3780
 3989TIP3    H111973   5.249   5.192   3.326 -0.8767  0.5726  1.2115
 3989TIP3    H211974   5.103   5.152   3.322 -0.6608 -0.1278 -0.3833
 3990TIP3   OH211975   5.407   1.339   0.492  0.1288  0.4266 -0.3609
 3990TIP3    H111976   5.467   1.407   0.460  0.4618 -0.1666 -1.0224
 3990TIP3    H211977   5.346   1.386   0.549  0.6635  1.1952 -0.4025
 3991TIP3   OH211978   4.842   3.120   1.006  0.0775 -0.5766  0.0145
 3991TIP3    H111979   4.758   3.131   0.961 -0.3574  0.1853  0.9784
 3991TIP3    H211980   4.903   3.092   0.938 -1.0625 -1.5910 -0.6074
 3992TIP3   OH211981   3.991   2.739   5.025 -0.2827 -0.4120  0.0303
 3992TIP3    H111982   3.914   2.735   5.082 -0.2800 -0.6046  0.0216
 3992TIP3    H211983   3.964   2.693   4.945 -0.5770  0.5990 -0.4677
 3993TIP3   OH211984   4.865   0.120   4.188  0.3564  0.0585 -0.8906
 3993TIP3    H111985   4.948   0.087   4.151  0.6701  0.9056 -0.9551
 3993TIP3    H211986   4.834   0.048   4.242  2.2115  0.4538  0.8317
 3994TIP3   OH211987   4.439   1.448   4.247 -0.6602  0.4587 -0.2521
 3994TIP3    H111988   4.403   1.376   4.298 -0.5394  0.4265 -0.2126
 3994TIP3    H211989   4.524   1.415   4.215 -0.4702  0.6919  0.0140
 3995TIP3   OH211990   4.266   0.808   0.049 -0.3623  0.2513  0.2578
 3995TIP3    H111991   4.307   0.730   0.013  0.1264  1.1699 -1.2655
 3995TIP3    H211992   4.212   0.842  -0.022  0.4923  2.0477  0.4150
 3996TIP3   OH211993   6.029   3.080   1.566  0.3585 -0.2203 -0.2809
 3996TIP3    H111994   5.949   3.121   1.533  1.2355  0.7879 -1.2397
 3996TIP3    H211995   6.007   2.987   1.571 -2.1335  0.3599  3.3024
 3997TIP3   OH211996   0.700   1.679   4.011  0.4515 -0.4898 -0.4633
 3997TIP3    H111997   0.630   1.743   3.997  1.0045  0.3095  0.3191
 3997TIP3    H211998   0.657   1.606   4.056 -0.0502 -0.3935 -0.7737
 3998TIP3   OH211999   1.584   3.172   3.022 -0.2770  0.7065 -0.2387
 3998TIP3    H112000   1.585   3.146   2.930 -1.8250 -0.4507  0.0185
 3998TIP3    H212001   1.613   3.263   3.022 -0.3123  0.7424 -1.8757
 3999TIP3   OH212002   6.210   0.286   3.830 -0.5559 -0.0783 -0.1527
 3999TIP3    H112003   6.197   0.263   3.738  0.9414 -0.4721 -0.2948
 3999TIP3    H212004   6.131   0.334   3.854 -0.7699  0.4613 -1.7870
 4000TIP3   OH212005   4.381   4.650   0.119 -0.4394  0.4435  0.0847
 4000TIP3    H112006   4.373   4.609   0.033 -3.6968  2.8955 -0.9819
 4000TIP3    H212007   4.472   4.682   0.121  0.3839 -1.5532 -1.4405
 4001TIP3   OH212008   3.041   4.123   0.278  0.1499  0.0721  0.1238
 4001TIP3    H112009   2.946   4.114   0.290 -0.0528 -0.2742 -1.4722
 4001TIP3    H212010   3.079   4.079   0.355 -0.9841 -2.7373 -0.7777
 4002TIP3   OH212011   3.548   4.329   0.411  0.7238 -0.1670 -0.3970
 4002TIP3    H112012   3.586   4.376   0.485 -0.9154  1.0298 -0.2647
 4002TIP3    H212013   3.496   4.259   0.451  2.4100 -1.5951 -0.5688
 4003TIP3   OH212014   2.017   5.349   3.939  0.0590 -0.1403  0.8191
 4003TIP3    H112015   1.935   5.342   3.987 -0.0458 -0.7290  0.5634
 4003TIP3    H212016   2.059   5.428   3.974 -0.6176  0.1749  0.9376
 4004TIP3   OH212017   0.529   3.459   1.595  0.0327 -0.5053 -0.0151
 4004TIP3    H112018   0.614   3.426   1.624 -0.5809 -0.8666  1.5079
 4004TIP3    H212019   0.475   3.455   1.674 -1.2365  0.2410 -0.8267
 4005TIP3   OH212020   4.365   0.021   2.690 -0.0084 -0.3221  0.0653
 4005TIP3    H112021   4.347  -0.002   2.781  1.6939  0.6760  0.7186
 4005TIP3    H212022   4.460   0.036   2.688  0.2234 -1.5758 -2.1798
 4006TIP3   OH212023   3.394   1.045   5.100 -0.2184  0.0737  0.5869
 4006TIP3    H112024   3.461   0.985   5.133 -1.0814 -0.4305  1.4797
 4006TIP3    H212025   3.422   1.131   5.130  1.7351  0.3876 -1.8138
 4007TIP3   OH212026   3.277   4.685   1.453 -0.1930 -0.2856  0.2192
 4007TIP3    H112027   3.351   4.629   1.476  0.1105  0.4004  0.9747
 4007TIP3    H212028   3.255   4.730   1.535 -2.2676 -1.4116  0.3316
 4008TIP3   OH212029   5.533   1.736   3.139 -0.1243 -0.4896 -0.3391
 4008TIP3    H112030   5.463   1.763   3.080 -1.0427 -1.3734  0.3084
 4008TIP3    H212031   5.555   1.814   3.190 -1.5301 -0.5022  0.3188
 4009TIP3   OH212032   0.667   2.039   1.373  0.5500  0.4910  0.1593
 4009TIP3    H112033   0.713   2.006   1.451 -0.8876  0.8865  1.2130
 4009TIP3    H212034   0.637   2.126   1.398  0.4564  0.8173 -1.0245
 4010TIP3   OH212035   2.065   5.359   0.566  0.6400 -0.0830  0.1005
 4010TIP3    H112036   2.111   5.293   0.514  0.6934 -0.8060  1.0319
 4010TIP3    H212037   2.134   5.413   0.604  0.7117 -0.7321  0.9287
 4011TIP3   OH212038   2.462   4.943   0.524  0.4405 -0.1260 -0.1184
 4011TIP3    H112039   2.490   5.003   0.455  1.1724 -0.2298  0.0733
 4011TIP3    H212040   2.406   4.995   0.581 -0.0263  0.0072 -0.6859
 4012TIP3   OH212041   4.794   2.140   3.929 -0.8418  0.0092 -0.1638
 4012TIP3    H112042   4.753   2.226   3.942  0.2836  0.6115 -0.3865
 4012TIP3    H212043   4.873   2.143   3.984 -1.3653 -1.3167  0.6971
 4013TIP3   OH212044   4.717   2.095   2.552 -0.4163  0.5668 -0.1008
 4013TIP3    H112045   4.754   2.029   2.493 -1.6321 -2.3078  2.1272
 4013TIP3    H212046   4.625   2.072   2.558 -0.5821  1.5861  1.8901
 4014TIP3   OH212047   3.816   4.665   3.413  0.2283  0.1370  0.4389
 4014TIP3    H112048   3.888   4.630   3.466  1.5824 -0.2027 -1.4910
 4014TIP3    H212049   3.851   4.665   3.323 -1.5707  1.6344 -0.3298
 4015TIP3   OH212050   4.837   3.526   0.750  0.1421 -0.2157 -0.0721
 4015TIP3    H112051   4.930   3.531   0.728 -0.1016  1.1456 -0.9303
 4015TIP3    H212052   4.828   3.576   0.830  0.1061 -0.1103 -0.1419
 4016TIP3   OH212053  -0.021   5.522   1.801  0.2456  0.5863 -0.1009
 4016TIP3    H112054  -0.048   5.594   1.858  1.0292 -0.2934  1.4419
 4016TIP3    H212055   0.075   5.527   1.800  0.3114 -0.4202  0.0415
 4017TIP3   OH212056   1.499   3.460   2.611 -0.4375  0.3729  0.2315
 4017TIP3    H112057   1.508   3.506   2.528  0.7206  0.7509  0.5514
 4017TIP3    H212058   1.562   3.502   2.669 -1.5518  0.4373  1.4634
 4018TIP3   OH212059   1.698   5.955   0.151 -0.2798  0.1605  0.4962
 4018TIP3    H112060   1.628   5.943   0.215 -0.0778  1.1915  0.9377
 4018TIP3    H212061   1.692   6.048   0.127  1.1434  0.3569  0.8182
 4019TIP3   OH212062   1.489   3.911   4.087  0.3614 -0.1588 -0.4415
 4019TIP3    H112063   1.539   3.959   4.020 -1.6830 -0.0707 -2.0046
 4019TIP3    H212064   1.411   3.965   4.100  0.7635 -0.1213  2.1721
 4020TIP3   OH212065   3.318   4.144   3.969 -0.7592 -0.4993  0.1302
 4020TIP3    H112066   3.294   4.236   3.968  0.2572 -0.2101 -1.2027
 4020TIP3    H212067   3.282   4.110   4.050 -4.5076  0.1468 -1.1029
 4021TIP3   OH212068   2.670   5.031   5.095 -0.6179  0.2723 -0.2839
 4021TIP3    H112069   2.758   4.991   5.098 -1.1895 -1.0071  0.3010
 4021TIP3    H212070   2.671   5.095   5.166  0.0779  0.7704 -0.7356
 4022TIP3   OH212071   4.507   1.567   0.185  0.2443  0.9765  0.3063
 4022TIP3    H112072   4.472   1.628   0.250  1.3866  0.0496  1.8761
 4022TIP3    H212073   4.542   1.495   0.237  3.4106  1.3006 -1.1597
 4023TIP3   OH212074   2.267   1.115   0.681 -0.0050 -0.2418  0.1895
 4023TIP3    H112075   2.257   1.029   0.722  0.7697 -1.9916 -2.9758
 4023TIP3    H212076   2.182   1.132   0.640  0.2235 -0.0754 -0.2205
 4024TIP3   OH212077   0.758   5.379   1.541  0.5493  0.0086 -0.3649
 4024TIP3    H112078   0.675   5.332   1.546 -0.3915  1.5291 -1.0060
 4024TIP3    H212079   0.763   5.429   1.623 -0.4922  1.9553 -1.4233
 4025TIP3   OH212080   5.487   4.743   4.080 -0.0649 -0.0979  0.0577
 4025TIP3    H112081   5.492   4.662   4.131  0.8173 -0.1751 -0.1217
 4025TIP3    H212082   5.435   4.720   4.003 -0.7126 -0.2001  0.5220
 4026TIP3   OH212083   2.433   5.229   2.643  0.1115  0.0486  0.1222
 4026TIP3    H112084   2.374   5.160   2.671  0.4283 -0.3726 -0.2206
 4026TIP3    H212085   2.434   5.222   2.547  0.0479  0.6126  0.0770
 4027TIP3   OH212086   5.174   2.501   2.150  0.6970  0.4985 -0.2358
 4027TIP3    H112087   5.080   2.483   2.150  0.5723  1.1172  0.2224
 4027TIP3    H212088   5.200   2.494   2.058  0.5178 -1.2089 -0.1999
 4028TIP3   OH212089   4.509   2.418   0.531 -0.1392  0.1820 -0.2960
 4028TIP3    H112090   4.450   2.343   0.531  0.8578 -0.6458 -1.8761
 4028TIP3    H212091   4.592   2.383   0.501  0.5560  1.7838 -0.3160
 4029TIP3   OH212092   3.743   1.419   0.647  0.1882  0.2414 -0.5814
 4029TIP3    H112093   3.791   1.352   0.695 -2.5376 -0.7983  0.8984
 4029TIP3    H212094   3.659   1.427   0.693 -1.4991  1.2434 -3.5327
 4030TIP3   OH212095   4.038   0.576   3.440 -0.5059  0.6039 -0.1545
 4030TIP3    H112096   3.969   0.582   3.506  0.0950  1.0835  0.4440
 4030TIP3    H212097   4.115   0.547   3.489  0.6245  3.3844 -0.1137
 4031TIP3   OH212098   1.702   4.542   2.325 -0.3011 -0.1189 -0.3850
 4031TIP3    H112099   1.754   4.517   2.248 -0.0547  1.5059 -0.7860
 4031TIP3    H212100   1.763   4.593   2.379 -0.6486 -0.7372  0.6148
 4032TIP3   OH212101   4.454   5.349   3.465 -0.9463 -0.5501  0.4479
 4032TIP3    H112102   4.485   5.278   3.521  0.0383 -0.5386 -0.0591
 4032TIP3    H212103   4.499   5.335   3.382 -0.6646  0.7170  0.3679
 4033TIP3   OH212104   1.733   2.376   2.295 -0.4670  0.1655 -0.3099
 4033TIP3    H112105   1.732   2.464   2.258 -0.9832  0.4261  0.2978
 4033TIP3    H212106   1.806   2.376   2.357 -1.2604  0.5845  0.6449
 4034TIP3   OH212107   0.460   3.303   2.330 -0.0271 -0.6386 -0.4331
 4034TIP3    H112108   0.381   3.353   2.354  0.8020  0.7916 -0.5315
 4034TIP3    H212109   0.468   3.315   2.235  0.1556 -1.0041 -0.4642
 4035TIP3   OH212110   5.720   3.681   0.883  0.1803 -0.6033 -0.1602
 4035TIP3    H112111   5.773   3.602   0.888 -0.2458 -0.8367  0.7756
 4035TIP3    H212112   5.763   3.743   0.941 -1.2137 -1.2028  1.6136
 4036TIP3   OH212113   2.304   5.557   0.722  0.3610 -0.1690 -0.6891
 4036TIP3    H112114   2.348   5.604   0.793  0.3404  0.9738 -1.4126
 4036TIP3    H212115   2.254   5.625   0.675 -1.2260 -1.2291 -0.6059
 4037TIP3   OH212116   4.638   0.840   2.445 -0.0923 -0.7432  0.6193
 4037TIP3    H112117   4.682   0.768   2.491  1.0929  0.6355  1.7499
 4037TIP3    H212118   4.708   0.883   2.396 -0.8317 -0.4779 -0.2284
 4038TIP3   OH212119   1.249   1.141   4.534  0.4413  0.0153  0.6992
 4038TIP3    H112120   1.326   1.116   4.484 -0.7374  1.4910 -2.0551
 4038TIP3    H212121   1.262   1.101   4.620  3.3401 -1.3280 -0.2527
 4039TIP3   OH212122   5.548   5.548   1.207 -0.3545 -0.2703 -0.1406
 4039TIP3    H112123   5.495   5.469   1.201 -0.6368 -0.2140  1.2949
 4039TIP3    H212124   5.621   5.524   1.264  0.5790 -0.0138 -1.1901
 4040TIP3   OH212125   2.393   4.144   3.677 -0.6806 -0.2009 -0.1284
 4040TIP3    H112126   2.361   4.217   3.730  1.8131  2.2586 -1.7269
 4040TIP3    H212127   2.417   4.077   3.740 -2.5206  0.5366  1.4495
 4041TIP3   OH212128   3.731   5.791   3.459 -0.0203 -0.6031  0.2231
 4041TIP3    H112129   3.703   5.880   3.436  1.1867 -0.2135  0.1633
 4041TIP3    H212130   3.674   5.734   3.408 -0.7670  0.1432  0.2115
 4042TIP3   OH212131   4.890   0.920   4.022  0.4063 -0.6417  0.0573
 4042TIP3    H112132   4.962   0.873   3.978  0.4602 -2.1479  1.6427
 4042TIP3    H212133   4.856   0.857   4.085 -1.7635  0.3590 -0.0491
 4043TIP3   OH212134   5.673   2.039   2.795  0.3433 -0.0526  0.2526
 4043TIP3    H112135   5.634   2.073   2.714 -1.0213  2.0356  1.7068
 4043TIP3    H212136   5.622   1.960   2.814 -0.2853  0.2304 -0.1966
 4044TIP3   OH212137   4.514   3.014   0.604 -0.4255 -0.1185  0.0717
 4044TIP3    H112138   4.484   3.001   0.514  1.2340 -0.9911 -0.4070
 4044TIP3    H212139   4.459   2.957   0.657 -2.0571  1.1075 -0.2189
 4045TIP3   OH212140  -0.025   0.622   4.646 -0.0553 -0.3581  0.6944
 4045TIP3    H112141   0.022   0.539   4.653 -0.2342 -0.6975 -1.5371
 4045TIP3    H212142   0.043   0.687   4.627 -0.2241 -0.5004 -0.4494
 4046TIP3   OH212143   3.693   0.409   1.422 -0.0621 -0.0381  0.0662
 4046TIP3    H112144   3.747   0.338   1.387 -0.8323  0.1968 -1.7310
 4046TIP3    H212145   3.700   0.478   1.356 -1.5629  0.4467  0.3754
 4047TIP3   OH212146   6.046   5.474   2.769  0.4534 -0.4639  0.4463
 4047TIP3    H112147   5.970   5.422   2.796 -0.9427  0.8684 -0.6955
 4047TIP3    H212148   6.062   5.533   2.843 -1.2853  0.9662 -0.2480
 4048TIP3   OH212149   1.565   5.021   4.185 -0.0920  0.0301  0.3360
 4048TIP3    H112150   1.562   4.953   4.253  2.5288 -0.3862  0.1745
 4048TIP3    H212151   1.529   4.978   4.107 -1.8224  0.0589  1.0747
 4049TIP3   OH212152   0.802   3.715   2.446  0.4629  0.1564 -0.6177
 4049TIP3    H112153   0.826   3.668   2.525 -0.5802  3.4739  1.9293
 4049TIP3    H212154   0.715   3.682   2.423  0.7968 -0.8730 -0.4177
 4050TIP3   OH212155   6.067   4.648   4.771  0.3736 -0.5298 -0.4054
 4050TIP3    H112156   6.022   4.565   4.757  1.9112 -2.0743  2.8357
 4050TIP3    H212157   6.001   4.705   4.810  0.2005 -1.5000  0.7654
 4051TIP3   OH212158   0.531   1.722   1.184  0.2006 -0.3000  0.2098
 4051TIP3    H112159   0.484   1.795   1.226 -1.8751 -0.9923 -0.8133
 4051TIP3    H212160   0.572   1.676   1.257  0.8491  1.3774  0.9647
 4052TIP3   OH212161   2.685   5.315   1.986  0.0981 -0.0997  0.1071
 4052TIP3    H112162   2.606   5.299   2.038 -0.9327  0.4153 -1.2684
 4052TIP3    H212163   2.675   5.405   1.954  2.4286  0.9268  1.9043
 4053TIP3   OH212164   1.611   5.266   4.066 -0.2670 -0.2118 -0.0513
 4053TIP3    H112165   1.702   5.283   4.091  0.6272 -2.4747 -1.3921
 4053TIP3    H212166   1.591   5.182   4.106 -0.9574 -0.8213 -1.6036
 4054TIP3   OH212167   2.396   0.184   3.195 -0.0631 -0.0559  0.4668
 4054TIP3    H112168   2.370   0.094   3.211 -0.5581 -0.4250 -1.9983
 4054TIP3    H212169   2.389   0.194   3.100  2.3394  1.8515  0.4039
 4055TIP3   OH212170   3.047   0.261   0.201  0.3604  0.4081 -0.2351
 4055TIP3    H112171   2.973   0.204   0.182  1.4119 -1.0092 -0.2567
 4055TIP3    H212172   3.064   0.306   0.118  0.6538 -0.6374 -0.7629
 4056TIP3   OH212173   4.601   5.921   3.720  0.0763  0.3879  0.2433
 4056TIP3    H112174   4.679   5.904   3.668  0.4274  2.6593 -0.0877
 4056TIP3    H212175   4.534   5.944   3.656 -0.9195 -1.5225  0.5217
 4057TIP3   OH212176   3.813   0.440   0.829  0.2931  0.6106  0.1623
 4057TIP3    H112177   3.806   0.499   0.754 -2.3267  0.0699 -0.1342
 4057TIP3    H212178   3.864   0.365   0.796 -0.4302  0.5872 -0.9538
 4058TIP3   OH212179   3.727   0.623   1.264 -0.0386 -0.7384  0.3143
 4058TIP3    H112180   3.740   0.715   1.240 -1.4640 -0.4513  0.5730
 4058TIP3    H212181   3.671   0.587   1.195 -0.5368 -1.0662  0.8791
 4059TIP3   OH212182   0.680   5.229   3.111  0.2859 -0.0634  0.1557
 4059TIP3    H112183   0.612   5.227   3.044  0.2351 -1.3836  0.2201
 4059TIP3    H212184   0.667   5.313   3.156  0.5534  1.0115 -1.6887
 4060TIP3   OH212185   3.870   4.003   1.669  0.1294 -0.2340  0.0582
 4060TIP3    H112186   3.873   3.929   1.609 -1.4312 -0.1273 -0.2201
 4060TIP3    H212187   3.787   4.047   1.648  0.5691  1.0464  0.8478
 4061TIP3   OH212188   4.439   4.284   2.730 -0.1065 -0.1985 -0.1284
 4061TIP3    H112189   4.489   4.325   2.801  0.9495 -1.5765 -0.0285
 4061TIP3    H212190   4.373   4.349   2.707  2.6988  2.4827 -1.3598
 4062TIP3   OH212191   1.536   0.826   4.373 -0.2382 -0.1699  0.1610
 4062TIP3    H112192   1.491   0.901   4.413 -0.9106 -0.1481 -0.6050
 4062TIP3    H212193   1.506   0.826   4.282  1.0144 -0.4012 -0.2692
 4063TIP3   OH212194   5.489   2.350   2.746  0.2769  0.1280 -0.0352
 4063TIP3    H112195   5.396   2.343   2.726 -0.2048  2.5125  1.0591
 4063TIP3    H212196   5.497   2.312   2.834  0.5857 -1.1050 -0.5695
 4064TIP3   OH212197   3.363   2.270   1.993  0.1356  0.0276 -0.0071
 4064TIP3    H112198   3.445   2.320   1.996 -0.1995  0.5218  1.3786
 4064TIP3    H212199   3.342   2.266   1.900  1.7071 -0.0849 -0.3959
 4065TIP3   OH212200   0.022   1.210   4.245  0.0819  0.6798 -0.7295
 4065TIP3    H112201   0.035   1.212   4.150 -0.1758  1.6856 -0.7520
 4065TIP3    H212202  -0.009   1.121   4.263 -3.7067  1.5256 -2.1336
 4066TIP3   OH212203   6.301   1.482   4.719  0.1431  0.4699  0.3749
 4066TIP3    H112204   6.363   1.484   4.792  0.4416 -0.5851  0.1707
 4066TIP3    H212205   6.260   1.396   4.725 -1.0898  1.0338  0.3210
 4067TIP3   OH212206   4.396   1.062   3.232  0.0952  0.3682 -0.6509
 4067TIP3    H112207   4.316   1.114   3.237 -0.2351  0.0747 -2.2701
 4067TIP3    H212208   4.373   0.978   3.272  0.2332  0.9832  0.7600
 4068TIP3   OH212209   2.829   0.976   3.386  0.0700 -0.1527  0.2115
 4068TIP3    H112210   2.810   0.992   3.478 -0.3622 -0.8154  0.2414
 4068TIP3    H212211   2.918   1.009   3.373  0.0941  0.0270  0.8435
 4069TIP3   OH212212   1.781   2.793   3.934 -0.1724  0.6082 -0.1633
 4069TIP3    H112213   1.817   2.866   3.883 -0.0780 -0.7882 -2.2412
 4069TIP3    H212214   1.747   2.733   3.868 -0.6494 -1.0276  1.5001
 4070TIP3   OH212215   1.318   0.127   0.148 -0.2528  0.2782 -0.5779
 4070TIP3    H112216   1.384   0.063   0.176 -0.1686  0.3595 -0.5891
 4070TIP3    H212217   1.347   0.154   0.061  0.1076  0.8649 -0.2807
 4071TIP3   OH212218   6.041   5.905   0.391  0.9378  0.1714  0.2883
 4071TIP3    H112219   6.051   5.839   0.461 -1.2381  0.2911  0.7599
 4071TIP3    H212220   6.097   5.872   0.321  1.0903 -1.4007  1.0784
 4072TIP3   OH212221   4.925   4.835   1.535 -0.3038 -0.2192  0.0737
 4072TIP3    H112222   4.947   4.913   1.484  1.4825 -0.5173  0.3379
 4072TIP3    H212223   4.979   4.766   1.497  0.5649 -0.6053  1.9017
 4073TIP3   OH212224   5.453   5.545   1.680  0.0079  0.3467  0.1541
 4073TIP3    H112225   5.459   5.616   1.617 -0.0705  0.3203  0.1169
 4073TIP3    H212226   5.366   5.555   1.720 -0.0967  0.1320 -0.0183
 4074TIP3   OH212227   5.545   4.319   4.458  0.1420 -0.2510 -0.3517
 4074TIP3    H112228   5.612   4.382   4.486  1.1873 -1.1724 -0.7086
 4074TIP3    H212229   5.589   4.234   4.460 -0.6881 -0.7473 -1.6260
 4075TIP3   OH212230   4.898   3.598   3.943 -0.0241 -0.3769  0.4843
 4075TIP3    H112231   4.882   3.684   3.981  1.9905 -0.2492  1.1721
 4075TIP3    H212232   4.989   3.579   3.965 -0.0467 -2.1363 -0.7542
 4076TIP3   OH212233   6.010   0.462   1.045 -0.5093 -0.4978 -0.5407
 4076TIP3    H112234   6.028   0.552   1.016 -0.6817 -0.3737 -0.2790
 4076TIP3    H212235   5.966   0.474   1.129 -1.9759 -0.7727 -1.2435
 4077TIP3   OH212236   0.791   5.958   1.994  0.2288 -0.5800 -0.3520
 4077TIP3    H112237   0.814   5.936   2.084  1.8948  1.6731 -0.1480
 4077TIP3    H212238   0.695   5.962   1.995  0.1543 -1.7174  0.9969
 4078TIP3   OH212239   2.007   1.186   0.550 -0.4529 -0.2742 -0.3472
 4078TIP3    H112240   1.989   1.143   0.466 -1.6852  0.3881 -0.4573
 4078TIP3    H212241   1.949   1.262   0.550 -1.2164 -0.8049  1.5506
 4079TIP3   OH212242   4.505   5.362   4.333  0.1037  0.2954 -0.2476
 4079TIP3    H112243   4.592   5.327   4.313  0.3528  0.6722  0.1617
 4079TIP3    H212244   4.480   5.315   4.413 -0.1804 -0.0020 -0.5113
 4080TIP3   OH212245   1.068   2.514   0.192 -0.4091 -0.3463 -0.1679
 4080TIP3    H112246   1.094   2.423   0.178 -1.1581 -0.9475  1.9923
 4080TIP3    H212247   1.005   2.532   0.122  2.3267 -0.2462 -2.8267
 4081TIP3   OH212248   2.338   1.448   0.615 -0.1768 -0.1730  0.2743
 4081TIP3    H112249   2.344   1.480   0.705 -0.7549 -0.5509  0.4548
 4081TIP3    H212250   2.267   1.499   0.576  0.5599  0.5187 -0.2082
 4082TIP3   OH212251   1.247   2.175   2.351  0.2052  0.7046  0.5207
 4082TIP3    H112252   1.263   2.153   2.259  0.0187  0.2076  0.6072
 4082TIP3    H212253   1.327   2.220   2.378  1.1693 -1.0692  0.7223
 4083TIP3   OH212254   1.526   2.224   4.528  0.2496 -0.3814 -0.0114
 4083TIP3    H112255   1.524   2.247   4.621 -2.1982  1.2847 -0.3833
 4083TIP3    H212256   1.594   2.280   4.491  1.9294 -1.7410  0.8469
 4084TIP3   OH212257   5.930   5.121   4.880  0.0770  1.0925 -0.2720
 4084TIP3    H112258   5.836   5.142   4.876 -0.1758  0.2460  0.8470
 4084TIP3    H212259   5.951   5.124   4.973  0.8766  0.0727 -0.4040
 4085TIP3   OH212260   3.750   5.954   1.615  0.3504 -1.1966 -0.1639
 4085TIP3    H112261   3.743   6.048   1.633  2.5925 -0.6301 -1.7852
 4085TIP3    H212262   3.672   5.935   1.563 -0.1865 -0.2694  0.2667
 4086TIP3   OH212263   5.617   2.964   3.873 -0.5244 -0.0297  0.2446
 4086TIP3    H112264   5.619   2.983   3.966 -2.1916 -0.2479  0.3657
 4086TIP3    H212265   5.622   3.049   3.830 -2.7016  0.3645  0.6465
 4087TIP3   OH212266   5.021   4.809   0.269  1.5262 -0.1078 -0.0116
 4087TIP3    H112267   5.046   4.779   0.181 -0.6637  0.2624 -0.8300
 4087TIP3    H212268   4.984   4.896   0.255  2.3036  0.4972  1.4925
 4088TIP3   OH212269   4.089   3.031   0.645  0.1603  0.1043 -0.7534
 4088TIP3    H112270   4.046   2.968   0.587 -1.2193  0.5845 -0.3010
 4088TIP3    H212271   4.047   3.017   0.730  0.6564  0.8405 -0.3775
 4089TIP3   OH212272   4.744   2.765   4.535 -0.4911  0.7009 -0.0200
 4089TIP3    H112273   4.696   2.691   4.572 -1.0106  0.9366 -0.2280
 4089TIP3    H212274   4.714   2.771   4.444  2.1718 -1.1081 -1.1824
 4090TIP3   OH212275   2.955   5.912   2.934  0.7158  0.0863  0.4686
 4090TIP3    H112276   2.914   5.883   2.852 -1.9497 -1.0489  2.0820
 4090TIP3    H212277   2.979   6.004   2.917 -0.4376  0.1123 -1.3399
 4091TIP3   OH212278   2.165   1.515   1.724 -0.2040 -0.0790  0.5099
 4091TIP3    H112279   2.107   1.474   1.789 -0.9503 -1.1734 -0.7843
 4091TIP3    H212280   2.106   1.547   1.656  0.6884 -1.7928 -1.1657
 4092TIP3   OH212281   4.568   1.398   0.423 -1.0046 -0.2436 -0.0233
 4092TIP3    H112282   4.582   1.307   0.398  0.6298  0.6948 -3.0456
 4092TIP3    H212283   4.644   1.420   0.477  0.5935  0.1692 -2.2585
 4093TIP3   OH212284   3.240   5.367   1.101  0.4320 -0.0988 -0.3810
 4093TIP3    H112285   3.318   5.341   1.053  0.8415  0.7290 -0.1876
 4093TIP3    H212286   3.180   5.402   1.035  0.9419  0.9157 -0.3314
 4094TIP3   OH212287   5.219   4.740   1.107  0.8169 -0.0946  0.9776
 4094TIP3    H112288   5.255   4.651   1.107 -0.2580 -0.5559  0.1954
 4094TIP3    H212289   5.169   4.746   1.026 -0.6091  0.5885  1.8501
 4095TIP3   OH212290   2.391   1.102   2.238  0.7523  1.0122 -0.0155
 4095TIP3    H112291   2.309   1.129   2.197 -0.3599 -1.1045  0.6763
 4095TIP3    H212292   2.456   1.105   2.167 -0.2739  1.1011 -0.9782
 4096TIP3   OH212293   4.221   5.606   0.138 -0.1525  0.3723 -0.1360
 4096TIP3    H112294   4.211   5.669   0.067 -1.0896  0.6142  0.1968
 4096TIP3    H212295   4.313   5.612   0.163  0.4951 -0.5597 -2.0842
 4097TIP3   OH212296   0.012   4.271   0.720 -0.4120  0.4557 -0.3297
 4097TIP3    H112297   0.072   4.336   0.756 -2.4658  2.5707 -0.5240
 4097TIP3    H212298   0.063   4.227   0.652  1.6991  0.3533  1.2173
 4098TIP3   OH212299   5.702   1.078   1.620 -0.2913 -0.4639 -0.5044
 4098TIP3    H112300   5.737   1.152   1.572 -0.7417 -0.3386 -0.6454
 4098TIP3    H212301   5.713   1.003   1.562  0.8551 -0.6559 -0.0665
 4099TIP3   OH212302   2.781   5.104   4.536 -0.3966  0.6089 -0.1586
 4099TIP3    H112303   2.836   5.097   4.458  1.3858  1.3340  0.9700
 4099TIP3    H212304   2.828   5.056   4.603 -1.7729  0.2113  0.5685
 4100TIP3   OH212305   5.026   1.826   3.546  0.1978  0.7181 -0.1386
 4100TIP3    H112306   4.979   1.749   3.578 -0.5561  0.4851 -1.6862
 4100TIP3    H212307   5.014   1.892   3.615 -0.1727 -0.1648  0.6668
 4101TIP3   OH212308   4.578   1.433   3.270  0.4280 -0.4007 -0.1834
 4101TIP3    H112309   4.578   1.382   3.189  2.5407 -0.0546 -0.4796
 4101TIP3    H212310   4.667   1.422   3.305  0.3860  1.5397  0.6954
 4102TIP3   OH212311   1.794   3.749   2.475 -0.0259 -0.3160 -0.1643
 4102TIP3    H112312   1.832   3.672   2.517  0.3025 -1.9248 -3.1515
 4102TIP3    H212313   1.700   3.741   2.491  0.2074  0.0282  1.5619
 4103TIP3   OH212314   6.149   4.738   2.881 -0.0815 -0.3358 -0.2926
 4103TIP3    H112315   6.069   4.687   2.875  0.3551 -1.2991  1.4276
 4103TIP3    H212316   6.220   4.674   2.874  0.6218  0.5573 -2.4104
 4104TIP3   OH212317   5.221   4.911   4.860 -0.0894  0.1017  0.3676
 4104TIP3    H112318   5.163   4.977   4.819 -0.6766  0.2820  1.4600
 4104TIP3    H212319   5.200   4.830   4.814  0.0800  0.5120 -0.4644
 4105TIP3   OH212320   4.297   3.061   4.941 -0.1944 -0.0132 -0.4484
 4105TIP3    H112321   4.359   3.130   4.965  0.3585 -0.7711  0.3830
 4105TIP3    H212322   4.278   3.076   4.848  0.4184  0.8578 -0.4398
 4106TIP3   OH212323   2.346   3.378   4.767  0.6792  0.8888  0.1526
 4106TIP3    H112324   2.259   3.416   4.758  0.7370  1.2254  0.9132
 4106TIP3    H212325   2.366   3.384   4.861  0.9683 -0.4174  0.1989
 4107TIP3   OH212326   0.484   2.702   4.340 -0.4448  0.2402 -0.5548
 4107TIP3    H112327   0.477   2.793   4.312 -0.5321  0.2485 -0.5054
 4107TIP3    H212328   0.522   2.706   4.427 -2.3517  0.3544  0.3251
 4108TIP3   OH212329   5.012   1.355   2.942 -0.2505 -0.4131 -0.2041
 4108TIP3    H112330   4.996   1.267   2.908  0.9112 -1.6174  2.1012
 4108TIP3    H212331   5.056   1.341   3.026 -1.1524  2.3479  0.8714
 4109TIP3   OH212332   4.248   3.519   4.561 -0.0616  0.5926  0.3070
 4109TIP3    H112333   4.255   3.438   4.510  0.4906  0.3045  0.8262
 4109TIP3    H212334   4.177   3.501   4.623 -0.6714  0.9101 -0.2816
 4110TIP3   OH212335   0.613   4.946   0.615 -0.1118 -0.3953  0.1585
 4110TIP3    H112336   0.603   4.861   0.658  0.1637 -1.0067 -0.9515
 4110TIP3    H212337   0.700   4.944   0.576  1.0863  1.5309  2.4660
 4111TIP3   OH212338   1.300   5.006   3.264  0.0787 -0.5656  0.3558
 4111TIP3    H112339   1.375   4.989   3.207  1.8064 -0.1434  2.3653
 4111TIP3    H212340   1.282   5.099   3.253 -0.9122 -0.8791 -0.9328
 4112TIP3   OH212341   3.371   5.845   4.840 -0.2089 -0.0135 -0.1255
 4112TIP3    H112342   3.383   5.810   4.751 -0.7697  0.5769 -0.4390
 4112TIP3    H212343   3.282   5.820   4.864 -2.9635  5.6453 -2.5281
 4113TIP3   OH212344   5.681   4.368   4.154  0.0372  0.0692  0.0862
 4113TIP3    H112345   5.644   4.313   4.084  1.1174  1.2384 -1.4676
 4113TIP3    H212346   5.607   4.420   4.185 -0.8449 -1.6587  1.0836
 4114TIP3   OH212347   6.154  -0.011   3.360 -0.6912  0.4415 -0.3691
 4114TIP3    H112348   6.176   0.050   3.431 -0.2179 -0.8673  0.6578
 4114TIP3    H212349   6.064  -0.037   3.378 -0.4297 -0.2140  0.0003
 4115TIP3   OH212350   3.819   5.361   3.751 -0.8279 -0.1535  0.3321
 4115TIP3    H112351   3.732   5.381   3.717 -0.3629 -0.3857 -1.0703
 4115TIP3    H212352   3.833   5.269   3.728  0.4912  0.3685 -1.1215
 4116TIP3   OH212353   1.528   2.253   2.841 -0.2835 -1.0459 -0.1059
 4116TIP3    H112354   1.603   2.200   2.866 -0.7723 -0.3427  3.2808
 4116TIP3    H212355   1.452   2.199   2.863 -0.8020 -0.5817 -0.7130
 4117TIP3   OH212356   5.870   2.672   4.147  0.6204  0.0916  0.0475
 4117TIP3    H112357   5.874   2.578   4.165  0.0846 -0.0332 -0.4528
 4117TIP3    H212358   5.812   2.679   4.071  1.4859  0.7391 -0.5631
 4118TIP3   OH212359  -0.022   1.333   2.693  0.0911 -0.0907 -0.0703
 4118TIP3    H112360   0.042   1.397   2.724  0.0129  0.3756 -0.8267
 4118TIP3    H212361  -0.007   1.255   2.747  1.2557  0.0239 -0.1931
 4119TIP3   OH212362   1.266   1.108   0.337 -0.2331  0.1671 -0.2199
 4119TIP3    H112363   1.295   1.060   0.414  0.3224  1.4956  0.4323
 4119TIP3    H212364   1.191   1.058   0.304 -0.3604 -0.5254  1.0647
 4120TIP3   OH212365   2.642   5.861   1.502  0.4483  0.3703 -0.0628
 4120TIP3    H112366   2.652   5.852   1.597 -0.5670 -3.0621 -0.1463
 4120TIP3    H212367   2.551   5.889   1.490  0.2749 -0.1795 -0.0395
 4121TIP3   OH212368   3.675   5.486   4.671 -0.2821 -0.2744 -0.3029
 4121TIP3    H112369   3.687   5.471   4.765 -1.8319 -0.1156 -0.0584
 4121TIP3    H212370   3.713   5.573   4.656 -0.0028 -0.3116  0.1686
 4122TIP3   OH212371   3.705   5.397   2.840  0.2230  0.0182 -0.0470
 4122TIP3    H112372   3.715   5.487   2.811 -0.5901  0.1945  0.1894
 4122TIP3    H212373   3.712   5.401   2.935 -1.1174  0.0363  0.0678
 4123TIP3   OH212374   1.706   1.329   5.155 -0.2538 -0.5461  0.0042
 4123TIP3    H112375   1.611   1.346   5.159 -0.2584 -0.4674 -0.4044
 4123TIP3    H212376   1.717   1.245   5.200 -0.3606  0.0314  1.1586
 4124TIP3   OH212377   1.229   2.726   0.118  0.1983 -0.0305 -0.1876
 4124TIP3    H112378   1.259   2.689   0.035 -2.0362  0.5298 -1.3273
 4124TIP3    H212379   1.164   2.663   0.150  0.7047 -0.0119  0.9299
 4125TIP3   OH212380   2.930   4.940   4.702 -0.1837 -0.0697 -0.2724
 4125TIP3    H112381   2.924   4.994   4.781 -0.6209  1.0449 -1.0554
 4125TIP3    H212382   2.887   4.858   4.726 -0.2660  0.2389  0.6662
 4126TIP3   OH212383   5.319   2.410   1.465  0.7506 -0.4590  0.0591
 4126TIP3    H112384   5.281   2.326   1.440  0.6311 -0.4941  0.3655
 4126TIP3    H212385   5.248   2.458   1.506  1.0625 -0.5656  0.7254
 4127TIP3   OH212386   4.569   0.256   1.529 -0.0441  0.0905 -0.5966
 4127TIP3    H112387   4.625   0.189   1.490 -0.5798 -1.7143  1.5057
 4127TIP3    H212388   4.628   0.304   1.587 -0.2334 -0.5624  0.1616
 4128TIP3   OH212389   3.560   1.279   3.434 -0.2905 -0.3050 -0.4676
 4128TIP3    H112390   3.495   1.348   3.422  0.1265  0.4952  1.4640
 4128TIP3    H212391   3.514   1.199   3.410 -2.3096  0.1333  1.5660
 4129TIP3   OH212392   4.753   1.917   3.396  0.0237 -0.3315 -0.2613
 4129TIP3    H112393   4.711   1.832   3.388 -1.9041  0.5632 -0.4782
 4129TIP3    H212394   4.816   1.907   3.467  2.2231 -2.7567 -2.3656
 4130TIP3   OH212395   3.231   0.596   4.411  0.0391 -0.0433 -0.9118
 4130TIP3    H112396   3.178   0.656   4.464  0.0669 -1.3961  0.7404
 4130TIP3    H212397   3.172   0.567   4.341 -0.7474  0.0605 -0.3071
 4131TIP3   OH212398   2.235   4.332   3.792  0.1708  0.7000 -0.0826
 4131TIP3    H112399   2.276   4.369   3.871  1.6642  0.7614 -0.8491
 4131TIP3    H212400   2.144   4.318   3.817  0.4294  1.4342  1.4131
 4132TIP3   OH212401   2.456   4.935   2.938  0.5193  0.4741  0.0915
 4132TIP3    H112402   2.365   4.965   2.945 -0.0714 -1.4056  1.3210
 4132TIP3    H212403   2.476   4.902   3.026  2.5148  1.1200 -0.0795
 4133TIP3   OH212404   5.089   2.491   4.189  0.1452 -0.0227 -0.1916
 4133TIP3    H112405   5.062   2.576   4.152  0.3696  0.2300  0.2170
 4133TIP3    H212406   5.161   2.462   4.134  0.1458  0.1094 -0.2603
 4134TIP3   OH212407   1.881   5.306   4.183  0.3447  0.3864 -0.1114
 4134TIP3    H112408   1.850   5.261   4.262  0.0516 -0.4048 -0.6624
 4134TIP3    H212409   1.953   5.361   4.213 -0.3484  0.7954  0.8625
 4135TIP3   OH212410   1.142   0.797   0.545 -0.3573  0.4078 -0.7547
 4135TIP3    H112411   1.101   0.766   0.625  0.3604 -0.4962 -0.7107
 4135TIP3    H212412   1.075   0.849   0.501 -1.2840 -0.4132 -0.3356
 4136TIP3   OH212413   0.309   2.900   4.292  0.0907 -0.2244 -0.3635
 4136TIP3    H112414   0.248   2.866   4.357  1.3223  0.4512  1.1983
 4136TIP3    H212415   0.320   2.993   4.315 -0.1122  0.2676 -2.0815
 4137TIP3   OH212416   2.169   4.838   2.541  0.6547  0.1382 -0.1469
 4137TIP3    H112417   2.126   4.783   2.608  0.3095  0.6424  0.0493
 4137TIP3    H212418   2.179   4.779   2.466 -1.2840  0.2586 -0.5491
 4138TIP3   OH212419   5.562   4.617   3.349  0.2744  0.6709  0.2474
 4138TIP3    H112420   5.644   4.651   3.314  0.9717 -0.4458  0.7101
 4138TIP3    H212421   5.555   4.529   3.311 -0.8262  0.8210  0.0574
 4139TIP3   OH212422   5.474   2.903   4.483 -0.3757  0.3651  0.6524
 4139TIP3    H112423   5.526   2.846   4.539  0.2566  1.2362  0.9587
 4139TIP3    H212424   5.454   2.849   4.406 -0.8211 -0.6662  1.4717
 4140TIP3   OH212425   5.566   2.863   1.247 -0.0456  0.2169  0.1674
 4140TIP3    H112426   5.490   2.921   1.242  0.2574  0.7298  1.1471
 4140TIP3    H212427   5.535   2.788   1.297 -0.1826 -0.0479 -0.3097
 4141TIP3   OH212428   5.311   0.689   1.767  0.3302  0.4531 -0.2655
 4141TIP3    H112429   5.315   0.597   1.742  1.8385  0.5493 -0.4422
 4141TIP3    H212430   5.260   0.690   1.848  3.1313 -0.9736  1.6509
 4142TIP3   OH212431   2.551   1.759   3.911 -0.5240  0.0773  0.3479
 4142TIP3    H112432   2.457   1.747   3.928 -0.4167 -0.7783  0.3997
 4142TIP3    H212433   2.558   1.846   3.873 -1.5258 -0.3844 -0.9847
 4143TIP3   OH212434   2.424   1.374   0.168  0.4863 -0.0657  0.2298
 4143TIP3    H112435   2.447   1.459   0.205 -0.6513 -0.1586  1.2219
 4143TIP3    H212436   2.389   1.324   0.242 -2.2745 -0.1162 -0.9651
 4144TIP3   OH212437   4.975   3.889   1.632 -0.3611  0.7867  0.1584
 4144TIP3    H112438   4.986   3.799   1.664 -0.4661  0.3242 -1.0396
 4144TIP3    H212439   5.055   3.907   1.582 -0.9168  0.8410 -0.7469
 4145TIP3   OH212440   5.649   2.766   2.915 -0.0549 -0.3759  0.2482
 4145TIP3    H112441   5.674   2.853   2.884 -1.2774 -0.9415 -2.6715
 4145TIP3    H212442   5.583   2.784   2.982 -0.5200  0.9957 -0.5118
 4146TIP3   OH212443   0.408   2.272   4.308 -0.1332  0.5762 -0.0407
 4146TIP3    H112444   0.461   2.280   4.229 -1.0062  0.0380 -0.6990
 4146TIP3    H212445   0.367   2.357   4.319 -0.8116  0.3512 -0.7649
 4147TIP3   OH212446   2.944   3.407   3.959 -0.3090 -0.3329 -0.0284
 4147TIP3    H112447   2.926   3.315   3.942 -1.2215 -0.0207 -0.8669
 4147TIP3    H212448   3.012   3.407   4.026  0.9970 -1.6013 -1.3155
 4148TIP3   OH212449   4.605   4.322   0.162  0.5635 -0.1061 -0.4296
 4148TIP3    H112450   4.523   4.274   0.147  0.4450  0.2863 -1.0991
 4148TIP3    H212451   4.594   4.364   0.247  0.8787 -1.6885  0.4281
 4149TIP3   OH212452   0.969   3.746   4.065  0.3968  0.0624  0.1404
 4149TIP3    H112453   0.931   3.720   3.981 -2.4154 -0.6873  1.5335
 4149TIP3    H212454   1.031   3.816   4.042 -0.0760 -0.2961 -2.5629
 4150TIP3   OH212455   3.322   1.309   4.797  0.5544  0.2436 -0.2224
 4150TIP3    H112456   3.250   1.283   4.854 -1.7360  0.4864 -2.7503
 4150TIP3    H212457   3.318   1.248   4.723  3.3354 -0.0486 -0.2503
 4151TIP3   OH212458   6.016   4.788   4.041  0.6056 -0.6191  0.5478
 4151TIP3    H112459   5.951   4.720   4.026  0.6438 -0.3932 -0.7622
 4151TIP3    H212460   5.983   4.837   4.116 -1.0317 -0.1850 -0.4021
 4152TIP3   OH212461   6.248   3.687   4.637  0.1390  0.2085  0.2070
 4152TIP3    H112462   6.289   3.724   4.558  0.3323  0.2465  0.3231
 4152TIP3    H212463   6.276   3.745   4.708  1.4319 -0.8171  0.5855
 4153TIP3   OH212464   4.981   5.708   4.036  0.3002 -0.5946 -0.1771
 4153TIP3    H112465   4.917   5.644   4.003 -0.3663  0.3450 -0.7508
 4153TIP3    H212466   5.065   5.664   4.028 -0.0645 -1.1349 -1.2882
 4154TIP3   OH212467   6.256   4.122   2.046  0.1681  0.3934 -0.4623
 4154TIP3    H112468   6.342   4.084   2.065  1.4160  2.7118 -1.1702
 4154TIP3    H212469   6.195   4.070   2.099  1.9318 -1.4676 -0.1090
 4155TIP3   OH212470   4.720   0.676   1.677  0.6281 -0.4018  0.2396
 4155TIP3    H112471   4.731   0.582   1.690  0.0852 -0.5566 -0.3632
 4155TIP3    H212472   4.763   0.694   1.594 -0.4887 -0.3826 -0.3531
 4156TIP3   OH212473   3.057   1.872   3.912  0.0707  0.0766  0.4115
 4156TIP3    H112474   3.048   1.810   3.985 -2.5867 -0.2586 -0.1042
 4156TIP3    H212475   2.967   1.889   3.884  0.9465  1.2157 -1.9549
 4157TIP3   OH212476   1.862   4.448   2.112  0.5504  0.2269  0.5624
 4157TIP3    H112477   1.948   4.405   2.117  0.7228  0.6206  1.0399
 4157TIP3    H212478   1.818   4.403   2.040  1.6901  0.9617 -0.6335
 4158TIP3   OH212479   1.367   2.357   3.567  0.4367 -0.2331  0.4838
 4158TIP3    H112480   1.333   2.443   3.543 -0.1939 -0.5139  0.3359
 4158TIP3    H212481   1.353   2.351   3.661 -0.2465 -0.4767  0.3736
 4159TIP3   OH212482   2.709   0.756   1.025  0.2512 -0.3574  0.0449
 4159TIP3    H112483   2.697   0.839   0.978  1.8861  0.4681  1.0159
 4159TIP3    H212484   2.693   0.778   1.117 -0.0210 -1.2924  0.2295
 4160TIP3   OH212485   3.732   5.294   0.186  0.7027 -0.4292  0.3679
 4160TIP3    H112486   3.795   5.333   0.125 -0.5803  1.5039  0.1741
 4160TIP3    H212487   3.693   5.222   0.136  0.8889  0.0492 -0.5004
 4161TIP3   OH212488   4.544   3.647   1.896  0.5944  0.1311  0.3412
 4161TIP3    H112489   4.491   3.624   1.819  2.4933 -2.1025 -0.4020
 4161TIP3    H212490   4.573   3.562   1.931  0.7412  1.1469  2.8604
 4162TIP3   OH212491   2.818   4.917   0.427 -0.1960  0.9838 -0.1663
 4162TIP3    H112492   2.903   4.960   0.424  1.0816 -1.3929 -1.4507
 4162TIP3    H212493   2.795   4.899   0.336 -0.9304 -0.4439  0.2506
 4163TIP3   OH212494   4.932   3.429   4.598 -0.5349  0.4379  0.7008
 4163TIP3    H112495   4.890   3.492   4.657  1.4176  1.8415  0.6825
 4163TIP3    H212496   4.904   3.455   4.511  0.3776  1.4064  0.6831
 4164TIP3   OH212497   4.606   5.457   3.705 -0.3133 -0.2637 -0.1749
 4164TIP3    H112498   4.537   5.452   3.771  0.0338 -0.6367  0.1632
 4164TIP3    H212499   4.568   5.416   3.627 -0.2364 -1.1261  0.2247
 4165TIP3   OH212500   3.389   1.331   1.957  0.0019  0.0211 -0.3392
 4165TIP3    H112501   3.298   1.352   1.980  0.5810  1.9612  0.4555
 4165TIP3    H212502   3.397   1.237   1.972 -1.7947 -0.1431 -0.1722
 4166TIP3   OH212503   1.522   3.804   2.595 -0.0874  0.0592 -0.0493
 4166TIP3    H112504   1.501   3.847   2.513 -0.8794 -1.6431 -0.7805
 4166TIP3    H212505   1.437   3.788   2.637  0.1977 -0.5149  0.3321
 4167TIP3   OH212506   1.498   1.489   2.121 -0.2204 -0.1750  0.4419
 4167TIP3    H112507   1.481   1.583   2.111 -2.2969 -0.7704 -3.0331
 4167TIP3    H212508   1.412   1.450   2.132  0.5253 -1.8232  0.7276
 4168TIP3   OH212509   0.827   2.244   0.015 -0.0975  1.2935 -0.1045
 4168TIP3    H112510   0.750   2.284   0.054  0.0886  1.1206  0.4511
 4168TIP3    H212511   0.855   2.178   0.079 -0.3163  0.3713 -0.9325
 4169TIP3   OH212512   5.678   3.423   0.234 -0.0118  0.3689 -0.9428
 4169TIP3    H112513   5.765   3.430   0.194 -0.6631 -1.2809 -2.8509
 4169TIP3    H212514   5.652   3.513   0.253  2.4177  0.8467  0.4455
 4170TIP3   OH212515   0.574   2.278   0.586  0.0821  0.2844 -0.0133
 4170TIP3    H112516   0.559   2.220   0.660  0.3980 -0.6474 -0.6555
 4170TIP3    H212517   0.667   2.300   0.592  0.3150 -0.4696 -0.5771
 4171TIP3   OH212518   4.430   0.414   2.452 -0.2330  0.1546 -0.4547
 4171TIP3    H112519   4.374   0.337   2.456  0.8541 -0.6192  1.7279
 4171TIP3    H212520   4.373   0.487   2.476 -0.6912 -0.3643  0.0628
 4172TIP3   OH212521   1.333   2.995   4.613 -0.1820  0.3577  0.1039
 4172TIP3    H112522   1.249   3.019   4.652 -0.0718  0.5387  0.2327
 4172TIP3    H212523   1.320   3.005   4.519 -0.1064  1.0458  0.1562
 4173TIP3   OH212524   2.656   1.901   0.925 -0.4953  0.4037  0.3067
 4173TIP3    H112525   2.716   1.921   0.997  1.0251 -2.1002 -0.1531
 4173TIP3    H212526   2.577   1.868   0.969  0.4295 -1.1397  0.8889
 4174TIP3   OH212527   5.097   5.591   3.391 -0.9697  0.7478  0.2580
 4174TIP3    H112528   5.108   5.681   3.421 -0.8840  0.5605  0.8037
 4174TIP3    H212529   5.164   5.542   3.438 -1.0079  0.3984 -0.0458
 4175TIP3   OH212530   5.710   4.839   1.493 -1.2129 -0.2801  0.4925
 4175TIP3    H112531   5.695   4.933   1.486  1.1748  0.0562 -4.1117
 4175TIP3    H212532   5.628   4.799   1.465 -1.4060  0.5533 -0.1779
 4176TIP3   OH212533   2.417   3.913   3.149  0.3316 -0.0431  0.1703
 4176TIP3    H112534   2.377   3.827   3.139 -1.6657  0.9340 -1.2032
 4176TIP3    H212535   2.452   3.933   3.062 -0.0567  0.8768  0.2110
 4177TIP3   OH212536   3.366   5.415   0.683 -0.1027  0.3400  0.1483
 4177TIP3    H112537   3.374   5.344   0.747  0.8116  0.3597  0.0794
 4177TIP3    H212538   3.383   5.494   0.734  2.9383  0.2050 -0.4737
 4178TIP3   OH212539   0.894   4.374   4.624  0.0049  0.2240  0.3264
 4178TIP3    H112540   0.930   4.330   4.547  0.9466  0.1396  0.7970
 4178TIP3    H212541   0.955   4.447   4.640 -0.9099  1.0313  0.2231
 4179TIP3   OH212542   3.255   0.362   3.244  0.0724  0.0044  0.1342
 4179TIP3    H112543   3.238   0.456   3.239  0.7660  0.2747  1.9756
 4179TIP3    H212544   3.349   0.353   3.225 -0.3121 -0.5317 -1.6764
 4180TIP3   OH212545   2.328   2.303   4.215  0.1003  0.0284  0.5988
 4180TIP3    H112546   2.328   2.387   4.261  1.6619 -0.2120  1.0869
 4180TIP3    H212547   2.272   2.318   4.139 -1.9406  0.6452  2.1400
 4181TIP3   OH212548   4.748   5.046   2.673 -0.0318  0.4528  0.8263
 4181TIP3    H112549   4.697   5.010   2.745  0.8123  1.9630  2.2466
 4181TIP3    H212550   4.735   4.984   2.601 -3.9911  0.8146  0.9891
 4182TIP3   OH212551   0.568   5.872   0.036  0.1049  0.4346  0.5575
 4182TIP3    H112552   0.578   5.777   0.044 -0.4197  0.4562  1.7404
 4182TIP3    H212553   0.487   5.891   0.083 -3.5200  0.7333 -4.8611
 4183TIP3   OH212554   1.750   3.609   0.160 -0.0518  0.3225  0.0180
 4183TIP3    H112555   1.817   3.676   0.151  1.5647 -1.0686  1.0670
 4183TIP3    H212556   1.749   3.565   0.075  0.3836  0.3465 -0.0009
 4184TIP3   OH212557   2.534   5.721   4.217 -0.5231  0.0174  0.1357
 4184TIP3    H112558   2.500   5.658   4.280  0.4778  0.7254  1.4316
 4184TIP3    H212559   2.584   5.783   4.270  1.7578 -0.2910 -1.5262
 4185TIP3   OH212560   3.301   5.483   1.384 -0.1052  0.2628  0.0402
 4185TIP3    H112561   3.296   5.488   1.288  0.9612  0.6036 -0.0109
 4185TIP3    H212562   3.232   5.542   1.415 -0.3543  0.2704 -0.5211
 4186TIP3   OH212563   5.410   0.797   0.240 -0.2379 -0.7115  0.1818
 4186TIP3    H112564   5.477   0.737   0.273 -0.2859 -0.5362  0.6100
 4186TIP3    H212565   5.409   0.868   0.304 -0.9635 -0.8059  0.2855
 4187TIP3   OH212566   4.296   1.693   1.374  0.6354  0.1180  0.2737
 4187TIP3    H112567   4.368   1.726   1.428 -0.7316  0.5857  1.9217
 4187TIP3    H212568   4.238   1.768   1.363 -0.1353 -0.5093 -0.0649
 4188TIP3   OH212569   1.216   1.946   1.137 -0.8233 -0.9591 -0.1650
 4188TIP3    H112570   1.154   2.014   1.164 -1.1926 -0.6030 -1.7962
 4188TIP3    H212571   1.281   1.992   1.084  1.2594 -1.2114  2.0004
 4189TIP3   OH212572   5.898   1.035   4.182 -0.7818  0.7762  0.4109
 4189TIP3    H112573   5.830   1.046   4.115 -0.7486  2.8633  0.6613
 4189TIP3    H212574   5.977   1.070   4.142  0.2361 -1.6414  0.1215
 4190TIP3   OH212575   4.388   4.722   1.514  0.9794 -0.4574  0.3419
 4190TIP3    H112576   4.356   4.632   1.516  1.9881 -0.8420  0.0946
 4190TIP3    H212577   4.483   4.714   1.513  1.0847  0.5893 -0.6085
 4191TIP3   OH212578   3.698   5.113   0.880  0.0274 -0.0177  0.3332
 4191TIP3    H112579   3.762   5.098   0.811 -0.1612  0.6250  0.0168
 4191TIP3    H212580   3.684   5.207   0.880 -0.2260 -0.0518  1.0239
 4192TIP3   OH212581   1.550   2.202   2.171  0.0022 -0.0917 -0.1228
 4192TIP3    H112582   1.519   2.279   2.122 -0.3072  0.3945  0.8025
 4192TIP3    H212583   1.618   2.237   2.229  0.0144 -0.5594  0.1489
 4193TIP3   OH212584   0.696   0.400   0.906 -0.5384 -0.3516  0.1667
 4193TIP3    H112585   0.770   0.458   0.924  0.2076 -0.6728 -1.6368
 4193TIP3    H212586   0.717   0.319   0.952  1.0341 -0.9668 -1.5145
 4194TIP3   OH212587   4.815   4.202   0.493  0.0313 -0.2991 -0.3268
 4194TIP3    H112588   4.746   4.137   0.508 -1.2035  0.9194 -0.5438
 4194TIP3    H212589   4.896   4.157   0.518 -0.8600 -1.6767  0.1995
 4195TIP3   OH212590   3.701   1.708   1.161 -0.2320 -0.1344  0.4348
 4195TIP3    H112591   3.729   1.799   1.147  0.3125  0.0495  2.3711
 4195TIP3    H212592   3.742   1.660   1.090  0.0524  1.0337 -0.2267
 4196TIP3   OH212593   1.810   0.616   3.321 -0.0331 -0.8700  0.2852
 4196TIP3    H112594   1.806   0.532   3.276  0.2492  0.1889 -1.8516
 4196TIP3    H212595   1.723   0.655   3.309 -0.0873 -0.7505  1.0380
 4197TIP3   OH212596   4.785   1.904   2.343 -0.1772 -0.0064 -0.4025
 4197TIP3    H112597   4.875   1.879   2.363 -0.6610 -1.6323 -0.1397
 4197TIP3    H212598   4.732   1.828   2.367 -1.5194  0.5310 -1.4816
 4198TIP3   OH212599   1.603   1.254   2.605  0.4016 -0.0639 -0.0571
 4198TIP3    H112600   1.557   1.247   2.689 -1.3249 -0.4029 -0.9773
 4198TIP3    H212601   1.671   1.188   2.610  0.5260  0.1283  1.1893
 4199TIP3   OH212602   4.018   0.182   4.877 -0.3412  0.2643  0.4654
 4199TIP3    H112603   3.923   0.179   4.887 -0.3776 -0.1695  0.0081
 4199TIP3    H212604   4.039   0.106   4.823  0.2410  0.4921  0.3663
 4200TIP3   OH212605   4.686   5.038   3.279 -0.3842 -0.1531 -0.1966
 4200TIP3    H112606   4.773   5.005   3.298 -1.0973 -2.3278 -0.4998
 4200TIP3    H212607   4.699   5.104   3.211  1.0873  0.2141  0.4072
 4201TIP3   OH212608   2.448   3.590   0.871 -0.2976  0.5142  0.1255
 4201TIP3    H112609   2.438   3.569   0.964  0.6658  2.0237  0.6049
 4201TIP3    H212610   2.378   3.654   0.854 -0.5666  0.1284 -0.2427
 4202TIP3   OH212611   3.788   0.701   0.228  0.0611 -0.2647  0.1570
 4202TIP3    H112612   3.707   0.660   0.259  0.3946 -1.3004 -0.3116
 4202TIP3    H212613   3.776   0.795   0.247 -1.2967 -0.3872 -0.0160
 4203TIP3   OH212614   0.917   3.188   3.128  0.0065 -0.5363  0.1561
 4203TIP3    H112615   0.921   3.141   3.045  0.8498 -0.9457  0.4193
 4203TIP3    H212616   0.841   3.151   3.174 -0.8555  0.1415 -0.6841
 4204TIP3   OH212617   3.536   1.732   1.968 -0.4126  0.6573  0.1691
 4204TIP3    H112618   3.587   1.655   1.942  0.0186 -0.4801  3.7620
 4204TIP3    H212619   3.445   1.707   1.953 -0.3917 -1.2946  2.5386
 4205TIP3   OH212620   6.076   1.813   3.851 -0.0003  0.5414 -0.8466
 4205TIP3    H112621   6.016   1.791   3.779 -0.9347 -1.2877  0.3957
 4205TIP3    H212622   6.143   1.745   3.847  0.1342  0.6376 -0.2082
 4206TIP3   OH212623   5.011   2.251   4.648 -0.7097 -0.1714 -0.4020
 4206TIP3    H112624   5.094   2.298   4.642 -1.0957  0.5645 -0.1200
 4206TIP3    H212625   5.035   2.162   4.674 -0.0583  0.2018  0.3105
 4207TIP3   OH212626   5.919   0.728   2.106  0.2629  0.9514  0.1577
 4207TIP3    H112627   5.945   0.650   2.156 -3.1724 -1.0023 -0.7251
 4207TIP3    H212628   5.964   0.719   2.022 -0.8690 -0.7883 -0.3298
 4208TIP3   OH212629   1.220   3.760   0.542 -0.3611  0.2381  0.6682
 4208TIP3    H112630   1.296   3.814   0.520  0.3746 -0.7394  0.6837
 4208TIP3    H212631   1.145   3.809   0.512  0.3698  0.6552 -0.5265
 4209TIP3   OH212632   0.773   0.218   3.091 -0.0108 -0.5387  0.4944
 4209TIP3    H112633   0.866   0.206   3.072  0.3481  0.5005  1.4655
 4209TIP3    H212634   0.767   0.215   3.187 -1.0198 -0.8472  0.4367
 4210TIP3   OH212635   0.691   4.081   1.236 -0.1018  0.2765 -0.0577
 4210TIP3    H112636   0.747   4.140   1.287  1.4535  0.4499 -1.8687
 4210TIP3    H212637   0.604   4.091   1.275  0.4056  2.6311  0.6189
 4211TIP3   OH212638   1.215   2.468   0.808  0.0771 -0.4257  0.8299
 4211TIP3    H112639   1.222   2.448   0.902  0.7599 -3.0897  0.2989
 4211TIP3    H212640   1.304   2.489   0.782 -0.2214  0.9585  0.8712
 4212TIP3   OH212641   2.106   3.484   3.921 -0.6715  0.1418  0.1300
 4212TIP3    H112642   2.075   3.463   4.009  0.9753  2.2702  1.3362
 4212TIP3    H212643   2.175   3.420   3.904 -2.6825 -1.9191 -0.7990
 4213TIP3   OH212644   0.278   3.159   2.665 -0.5475  0.1483 -0.2974
 4213TIP3    H112645   0.244   3.217   2.734 -0.4287 -0.7699  0.5460
 4213TIP3    H212646   0.267   3.210   2.585 -0.7504  1.2187  0.3803
 4214TIP3   OH212647   6.357   3.314   4.861  0.0882  0.4356  0.1257
 4214TIP3    H112648   6.315   3.280   4.782  0.6602 -1.5783  0.6368
 4214TIP3    H212649   6.347   3.409   4.854 -1.0943  0.2326 -1.6661
 4215TIP3   OH212650   5.982   0.183   4.789  0.5449 -0.2827  0.8840
 4215TIP3    H112651   6.063   0.132   4.793  0.1654 -1.2103 -1.6461
 4215TIP3    H212652   5.913   0.118   4.777 -0.2001  0.6628 -0.2052
 4216TIP3   OH212653   4.603   5.245   3.928 -0.4429  0.0757 -0.1743
 4216TIP3    H112654   4.617   5.237   3.834 -1.5028 -0.2425 -0.3230
 4216TIP3    H212655   4.579   5.157   3.957 -2.0276  0.5221  0.0206
 4217TIP3   OH212656   5.319   3.172   4.994  0.4540 -0.7317 -0.5531
 4217TIP3    H112657   5.318   3.252   5.045 -1.2069 -0.7586 -0.4862
 4217TIP3    H212658   5.281   3.197   4.909 -1.3524 -1.6893 -0.0720
 4218TIP3   OH212659   1.131   1.560   1.948 -0.4679  0.7974  0.4558
 4218TIP3    H112660   1.153   1.467   1.942  0.2606  0.9873  0.0902
 4218TIP3    H212661   1.036   1.563   1.933 -0.2376  0.2720 -1.3275
 4219TIP3   OH212662   4.082   1.670   1.051 -0.1499 -0.2413  0.1630
 4219TIP3    H112663   4.008   1.685   1.110  0.2996 -1.0632  0.9534
 4219TIP3    H212664   4.150   1.731   1.081  0.8665 -2.1271  1.9433
 4220TIP3   OH212665   2.982   1.331   2.867 -0.2542  0.2866 -0.5092
 4220TIP3    H112666   3.062   1.283   2.885  0.1992  0.9637 -0.6641
 4220TIP3    H212667   3.002   1.381   2.787 -0.7065  0.7333 -0.3475
 4221TIP3   OH212668   5.849   3.077   4.546 -0.0525  0.1679 -0.4746
 4221TIP3    H112669   5.781   3.139   4.572  0.7566  0.4959  0.9676
 4221TIP3    H212670   5.803   3.010   4.495 -0.7832  2.4882 -3.1069
 4222TIP3   OH212671   2.835   2.225   4.657  0.0220 -0.0123  0.5067
 4222TIP3    H112672   2.855   2.225   4.564  0.7238 -0.6201  0.6474
 4222TIP3    H212673   2.744   2.196   4.662  0.1838 -0.6300  0.0428
 4223TIP3   OH212674   5.641   4.572   0.726  0.0515 -0.4175 -0.2189
 4223TIP3    H112675   5.612   4.628   0.654 -0.6264 -0.0203  0.3365
 4223TIP3    H212676   5.700   4.628   0.777  1.6013 -1.1357 -1.1916
 4224TIP3   OH212677   5.393   4.305   2.109 -0.0595 -0.4714 -0.2739
 4224TIP3    H112678   5.472   4.331   2.156 -0.0970 -0.7938 -0.0277
 4224TIP3    H212679   5.421   4.296   2.018  0.6141 -2.2801  0.0687
 4225TIP3   OH212680   0.921   1.136   2.042  0.2667  0.1019 -0.2584
 4225TIP3    H112681   0.905   1.111   2.133  0.2362  0.2586 -0.2199
 4225TIP3    H212682   0.834   1.145   2.004  0.2850 -0.2400 -0.3793
 4226TIP3   OH212683   1.883   0.580   3.762  0.3961 -0.2168 -0.5896
 4226TIP3    H112684   1.938   0.645   3.719  0.3943  0.8223  0.9056
 4226TIP3    H212685   1.934   0.499   3.757  0.6934  0.0280 -1.8880
 4227TIP3   OH212686   4.742   5.093   1.459  0.5978 -0.3114  0.2020
 4227TIP3    H112687   4.691   5.060   1.533  0.0643  1.1885  0.5177
 4227TIP3    H212688   4.716   5.184   1.449  0.9520 -0.3639 -1.6064
 4228TIP3   OH212689   3.697   0.949   4.453  0.3229 -0.0423 -0.2561
 4228TIP3    H112690   3.742   1.029   4.427 -0.3390 -0.1442 -1.7741
 4228TIP3    H212691   3.671   0.907   4.371 -0.4046 -1.2136  0.5332
 4229TIP3   OH212692   4.942   1.972   4.884 -0.3512 -0.1140  0.2725
 4229TIP3    H112693   4.993   1.902   4.925  1.3947  0.4300 -0.8398
 4229TIP3    H212694   4.976   1.976   4.794 -0.1894  2.3253  0.3824
 4230TIP3   OH212695   5.470   3.855   1.701  0.0079  0.0723 -0.0487
 4230TIP3    H112696   5.398   3.795   1.717 -0.4450  0.1612 -1.5937
 4230TIP3    H212697   5.497   3.884   1.789 -1.0785 -0.8218  0.6110
 4231TIP3   OH212698   0.112   2.765   4.418 -0.3298  0.2341 -0.2741
 4231TIP3    H112699   0.134   2.727   4.503  0.6755  2.5129  0.5760
 4231TIP3    H212700   0.091   2.690   4.363  3.0313 -1.7340  0.8013
 4232TIP3   OH212701   3.274   0.130   2.594  0.1943 -0.1049 -0.3433
 4232TIP3    H112702   3.240   0.162   2.678  0.8522 -1.0110  0.2933
 4232TIP3    H212703   3.308   0.043   2.614  1.9242  0.3453 -1.1662
 4233TIP3   OH212704   0.080   1.654   3.974  0.1139 -0.4563 -0.7180
 4233TIP3    H112705   0.053   1.724   3.915  1.1257  1.0191  0.4803
 4233TIP3    H212706   0.175   1.663   3.980  0.0974 -0.8771  0.6856
 4234TIP3   OH212707   5.238   0.734   4.762 -0.2378  0.2692 -0.2166
 4234TIP3    H112708   5.257   0.657   4.708 -0.6478  0.6974 -0.9861
 4234TIP3    H212709   5.146   0.754   4.744  0.2104  1.7060 -1.0167
 4235TIP3   OH212710   0.877   2.645   4.587  0.5443  0.4945 -0.3275
 4235TIP3    H112711   0.875   2.653   4.492  0.5548  0.3661 -0.3388
 4235TIP3    H212712   0.804   2.586   4.608  1.1934 -0.3386 -0.3482
 4236TIP3   OH212713   0.423   4.517   2.161  0.0616  0.1675 -0.3142
 4236TIP3    H112714   0.362   4.480   2.098 -0.0633  0.6722 -0.4912
 4236TIP3    H212715   0.468   4.441   2.198  0.0475 -0.1380 -0.9161
 4237TIP3   OH212716   2.797   5.490   1.438 -0.6668 -0.1617  0.3175
 4237TIP3    H112717   2.888   5.495   1.409 -0.1176  0.0392  1.9958
 4237TIP3    H212718   2.753   5.560   1.390  0.0731 -0.2107 -0.4567
 4238TIP3   OH212719   2.127   5.195   3.742 -0.0176 -0.2585 -0.3724
 4238TIP3    H112720   2.079   5.237   3.814 -2.6252 -1.5972 -1.2019
 4238TIP3    H212721   2.165   5.267   3.692  0.8843  0.7412  1.6492
 4239TIP3   OH212722   2.001   1.968   2.647 -0.0369 -0.4314 -0.4185
 4239TIP3    H112723   2.035   1.934   2.564  0.2931 -1.2868  0.0553
 4239TIP3    H212724   1.929   1.909   2.669 -0.4480  0.0953 -0.3434
 4240TIP3   OH212725   0.360   5.728   1.361  0.2737 -0.4059 -0.1326
 4240TIP3    H112726   0.424   5.660   1.382  0.6742 -0.0847 -0.2927
 4240TIP3    H212727   0.292   5.719   1.428  0.4864 -0.7506  0.0386
 4241TIP3   OH212728   2.024   0.718   1.908 -0.5023  0.2461 -0.0697
 4241TIP3    H112729   2.061   0.764   1.983 -0.1263  1.4276 -0.9419
 4241TIP3    H212730   2.090   0.728   1.839 -1.4177  0.3433 -0.9539
 4242TIP3   OH212731   1.120   3.608   1.704  0.3057  0.2401 -0.0661
 4242TIP3    H112732   1.065   3.611   1.783  0.4333  0.3759  0.0186
 4242TIP3    H212733   1.138   3.514   1.692  0.4120  0.2289  0.1576
 4243TIP3   OH212734   0.151   0.098   1.816 -0.4269  0.6835 -0.2263
 4243TIP3    H112735   0.131   0.007   1.794 -1.9427  0.8527  0.2789
 4243TIP3    H212736   0.119   0.148   1.741  0.7544  0.7947 -0.6752
 4244TIP3   OH212737   4.559   1.743   2.223 -0.0174  0.4197  0.1651
 4244TIP3    H112738   4.626   1.724   2.157  0.4211  1.7302  0.2029
 4244TIP3    H212739   4.594   1.706   2.304  1.5393  2.5553  0.5614
 4245TIP3   OH212740   5.974   5.372   0.352 -0.1034 -0.0495 -0.0753
 4245TIP3    H112741   5.956   5.389   0.445 -0.2265  0.9034 -0.2597
 4245TIP3    H212742   6.068   5.384   0.343 -0.3092  1.5713 -0.3861
 4246TIP3   OH212743   2.262   5.073   0.657 -0.4150 -0.4341  0.4100
 4246TIP3    H112744   2.259   5.132   0.732 -1.1180  1.4393 -1.0155
 4246TIP3    H212745   2.278   5.130   0.582 -0.2524 -2.1804 -0.9574
 4247TIP3   OH212746   4.294   3.962   4.829 -0.1071 -0.0461  0.1744
 4247TIP3    H112747   4.229   3.942   4.762  0.5671 -0.8772 -0.2644
 4247TIP3    H212748   4.275   4.052   4.855 -1.6340 -0.3797  0.3075
 4248TIP3   OH212749   4.902   1.222   0.638  0.6350  0.8830  0.2502
 4248TIP3    H112750   4.922   1.178   0.556 -1.6153  0.0251  0.0752
 4248TIP3    H212751   4.942   1.167   0.705  0.4544  0.2613 -0.1464
 4249TIP3   OH212752   2.663   0.254   0.840  0.0905  0.0969 -0.1679
 4249TIP3    H112753   2.751   0.230   0.811  0.3679 -0.1734  0.8508
 4249TIP3    H212754   2.618   0.170   0.851 -0.2844  0.2328 -0.6384
 4250TIP3   OH212755   5.917   4.429   3.197 -0.0958 -0.4725  0.4461
 4250TIP3    H112756   5.965   4.502   3.236 -0.9391  0.1490  0.3603
 4250TIP3    H212757   5.857   4.400   3.266 -0.1763 -0.6939  0.2836
 4251TIP3   OH212758   5.912   5.435   4.774 -0.0091  0.6122  0.0820
 4251TIP3    H112759   5.855   5.444   4.850 -1.5074  1.3207 -1.0577
 4251TIP3    H212760   5.947   5.346   4.781 -0.3864  0.5417  1.3951
 4252TIP3   OH212761   4.353   3.520   0.364  0.0999  0.1969  0.1092
 4252TIP3    H112762   4.392   3.503   0.450  0.5632  0.2285 -0.0950
 4252TIP3    H212763   4.259   3.511   0.379  0.1002  1.2487  0.8552
 4253TIP3   OH212764   5.119   3.130   1.806 -0.8661  0.0070  0.6243
 4253TIP3    H112765   5.118   3.042   1.844 -0.4860  0.1838  1.0476
 4253TIP3    H212766   5.212   3.152   1.800 -0.8600 -0.3728 -1.2490
 4254TIP3   OH212767   0.259   3.977   1.371  0.7040  0.2997  0.1324
 4254TIP3    H112768   0.262   3.982   1.467  1.0741  2.0594  0.0695
 4254TIP3    H212769   0.342   3.936   1.347  0.7206  0.0762  0.5482
 4255TIP3   OH212770   4.486   4.346   1.109 -0.4643  0.6848 -0.3016
 4255TIP3    H112771   4.403   4.324   1.066  0.1870  1.6646 -2.2075
 4255TIP3    H212772   4.552   4.331   1.041  0.8389  0.6962  0.9234
 4256TIP3   OH212773   1.548   1.866   0.833 -0.5198  0.1617  0.5002
 4256TIP3    H112774   1.573   1.951   0.868 -1.0875 -0.9087  3.8505
 4256TIP3    H212775   1.630   1.815   0.835 -0.7197 -0.1474  1.1401
 4257TIP3   OH212776   3.728   0.896   2.800 -0.2391  0.6721 -0.3593
 4257TIP3    H112777   3.692   0.808   2.812  1.3948  0.1832  1.6397
 4257TIP3    H212778   3.674   0.952   2.855 -0.6878  0.7583 -0.8816
 4258TIP3   OH212779   1.020   3.255   4.845 -0.0441 -0.0691  0.0515
 4258TIP3    H112780   1.005   3.224   4.755 -0.2188  0.9201 -0.2765
 4258TIP3    H212781   0.950   3.215   4.896 -0.6093  0.2417 -0.4663
 4259TIP3   OH212782   1.503   4.059   0.086 -0.3036 -0.1816 -0.2477
 4259TIP3    H112783   1.570   4.006   0.044 -0.0085 -0.7936  0.9569
 4259TIP3    H212784   1.551   4.132   0.126 -0.2769 -0.8503  0.9803
 4260TIP3   OH212785   2.587   1.589   5.010 -0.3343  0.4836 -0.0153
 4260TIP3    H112786   2.544   1.510   4.977 -0.2249 -0.2454  1.4910
 4260TIP3    H212787   2.552   1.601   5.099  0.0964  1.7901  0.0050
 4261TIP3   OH212788   0.900  -0.032   1.923  0.2915 -0.0836  0.0682
 4261TIP3    H112789   0.991  -0.006   1.909  0.1041  0.6835  0.2202
 4261TIP3    H212790   0.849   0.046   1.900 -0.3373 -0.5476 -0.1457
 4262TIP3   OH212791   6.292   5.206   0.100  0.3873  0.0558 -0.6171
 4262TIP3    H112792   6.319   5.139   0.162  0.0161 -0.1036 -0.6235
 4262TIP3    H212793   6.326   5.177   0.016 -0.1715 -0.3703 -0.7024
 4263TIP3   OH212794   3.185   0.542   0.749 -0.5037  0.0189  0.0668
 4263TIP3    H112795   3.174   0.453   0.781 -1.4838  0.9168  2.4453
 4263TIP3    H212796   3.280   0.554   0.743 -0.3554 -1.6550 -1.9051
 4264TIP3   OH212797   2.189   3.615   1.531 -0.6771  0.3753 -0.0809
 4264TIP3    H112798   2.259   3.575   1.584 -0.2192  0.0476 -0.9113
 4264TIP3    H212799   2.196   3.572   1.446 -3.0978 -1.0201  0.3280
 4265TIP3   OH212800   1.255   4.418   5.094  0.1618 -0.3062  0.2654
 4265TIP3    H112801   1.339   4.461   5.112  1.0208 -0.9912 -1.8170
 4265TIP3    H212802   1.271   4.325   5.110 -1.0249 -0.2070  2.4621
 4266TIP3   OH212803   2.403   1.690   2.150  0.3851  0.1777 -0.2466
 4266TIP3    H112804   2.391   1.781   2.124 -0.2092  0.6149  1.4238
 4266TIP3    H212805   2.385   1.690   2.244  2.4374 -1.2773  0.1969
 4267TIP3   OH212806   5.416   3.602   2.340 -0.0686  0.3187  0.1067
 4267TIP3    H112807   5.483   3.540   2.367  0.3856  1.2809  1.2652
 4267TIP3    H212808   5.460   3.687   2.338 -1.2967  1.0340  1.2551
 4268TIP3   OH212809   3.563   1.369   2.435  0.3744  0.4622  0.0634
 4268TIP3    H112810   3.509   1.448   2.448 -0.7838  0.0451 -1.8626
 4268TIP3    H212811   3.628   1.395   2.370  0.0250 -0.1322 -0.5346
 4269TIP3   OH212812   2.913   3.843   1.100 -0.0023  0.8767  0.0784
 4269TIP3    H112813   2.981   3.910   1.093 -0.3210  1.1618 -0.3206
 4269TIP3    H212814   2.849   3.866   1.033  0.2165 -0.2239 -0.5446
 4270TIP3   OH212815   4.382   3.649   2.807 -0.3730  0.4834  0.1542
 4270TIP3    H112816   4.386   3.566   2.759 -4.1748  1.3129 -1.9528
 4270TIP3    H212817   4.433   3.710   2.753  0.2191  0.1310  0.3060
 4271TIP3   OH212818   1.051   5.768   2.685 -0.3125  0.4664  0.0490
 4271TIP3    H112819   1.139   5.792   2.715 -0.9585  1.1174  1.5493
 4271TIP3    H212820   0.999   5.766   2.765 -1.4611 -0.8704 -0.7064
 4272TIP3   OH212821   5.653   0.980   3.667  0.0360 -1.2438  0.1311
 4272TIP3    H112822   5.590   0.916   3.634 -0.7899 -0.5302  0.2951
 4272TIP3    H212823   5.705   1.004   3.590 -0.9213 -0.6802 -0.3706
 4273TIP3   OH212824   6.254   1.475   4.105  0.0729  0.8124 -0.7827
 4273TIP3    H112825   6.316   1.539   4.070  1.2775  0.7661  1.1375
 4273TIP3    H212826   6.303   1.393   4.110 -0.3091  0.6261  0.1808
 4274TIP3   OH212827   2.567   0.994   4.166 -0.2481 -1.0083  0.0823
 4274TIP3    H112828   2.605   0.934   4.102  1.2810 -0.3046  0.2853
 4274TIP3    H212829   2.545   1.072   4.115 -0.3608 -0.9896  0.1610
 4275TIP3   OH212830   2.165   5.047   2.273 -0.0393  0.2828  1.1587
 4275TIP3    H112831   2.189   5.039   2.181 -1.8041  0.3824  0.6484
 4275TIP3    H212832   2.248   5.042   2.321  0.7983 -0.9122 -0.3560
 4276TIP3   OH212833   2.869   5.290   2.213  0.4429 -0.0682  0.3878
 4276TIP3    H112834   2.932   5.359   2.191  0.2344  0.0550  0.1770
 4276TIP3    H212835   2.808   5.288   2.139 -1.0497  1.2590  1.5086
 4277TIP3   OH212836   3.480   3.440   3.548 -0.7768  0.3512  0.0598
 4277TIP3    H112837   3.393   3.401   3.541 -0.5821 -0.0261 -0.3415
 4277TIP3    H212838   3.465   3.534   3.552 -1.2656  0.2382  1.1784
 4278TIP3   OH212839   5.631   0.360   0.143 -0.3637 -0.5482 -0.0360
 4278TIP3    H112840   5.593   0.368   0.055  0.8596 -0.1942 -0.5460
 4278TIP3    H212841   5.725   0.358   0.129 -0.1159  0.2405  1.3274
 4279TIP3   OH212842   3.230   4.955   0.634 -0.4557 -0.1835 -0.3739
 4279TIP3    H112843   3.158   4.894   0.615 -0.2450 -1.0094  1.2991
 4279TIP3    H212844   3.246   4.945   0.728  1.3401  0.5389 -0.5576
 4280TIP3   OH212845   1.194   0.335   1.067 -0.0436 -0.0081 -0.3178
 4280TIP3    H112846   1.185   0.251   1.023 -2.0721 -0.2390  0.4110
 4280TIP3    H212847   1.230   0.313   1.153  2.1885  0.2423 -1.1307
 4281TIP3   OH212848   5.175   4.180   3.049  0.0514 -0.1949 -0.1808
 4281TIP3    H112849   5.241   4.218   2.991  1.5995 -2.3084  0.0893
 4281TIP3    H212850   5.165   4.246   3.119 -0.7102  1.6747 -1.9577
 4282TIP3   OH212851   2.089   5.985   4.479  0.0920 -0.0477  0.7533
 4282TIP3    H112852   2.082   5.990   4.574 -2.5580  0.2244  0.6100
 4282TIP3    H212853   2.032   5.912   4.455 -0.7414  1.0450 -0.7282
 4283TIP3   OH212854   6.131   3.048   2.414  0.4379  0.6203  0.6600
 4283TIP3    H112855   6.125   2.989   2.489  1.3997  1.2170  1.2122
 4283TIP3    H212856   6.040   3.063   2.389  0.1328 -0.0980  1.2948
 4284TIP3   OH212857   5.621   1.687   3.439 -0.0007  0.1921 -1.0158
 4284TIP3    H112858   5.648   1.746   3.369  2.3054  2.0730  1.2766
 4284TIP3    H212859   5.582   1.744   3.505  1.1829 -0.9740  0.7753
 4285TIP3   OH212860   1.990   1.774   0.064  0.0340  0.1295 -0.1743
 4285TIP3    H112861   2.073   1.734   0.039  0.1298  0.1124  0.1552
 4285TIP3    H212862   1.963   1.724   0.141 -0.5360 -0.1951 -0.5833
 4286TIP3   OH212863   1.259   5.300   3.227  0.0498  0.2032  0.0352
 4286TIP3    H112864   1.185   5.324   3.282  0.9539  0.1969  1.2813
 4286TIP3    H212865   1.229   5.319   3.138 -1.4685  0.1291  0.4953
 4287TIP3   OH212866   0.875   0.362   4.684  0.0276 -0.1707  0.0281
 4287TIP3    H112867   0.820   0.329   4.755 -0.6326 -0.7398 -0.7233
 4287TIP3    H212868   0.878   0.290   4.621 -3.4299  1.8228 -2.8256
 4288TIP3   OH212869   1.809   3.856   4.419 -0.1203  0.0420 -0.5549
 4288TIP3    H112870   1.865   3.928   4.390  0.0261 -0.3420 -1.2650
 4288TIP3    H212871   1.771   3.821   4.338  0.2962 -1.0691 -0.2909
 4289TIP3   OH212872   1.871   3.179   1.684  0.1076  0.4755 -0.2777
 4289TIP3    H112873   1.940   3.189   1.750  0.9226  0.5860 -1.1253
 4289TIP3    H212874   1.861   3.084   1.675 -0.9169  0.4505  0.9148
 4290TIP3   OH212875   4.132   2.286   4.662 -0.1234  0.1198  0.3987
 4290TIP3    H112876   4.218   2.252   4.638  0.9096  1.8460  1.4642
 4290TIP3    H212877   4.145   2.328   4.747 -2.0339  0.4051  0.6038
 4291TIP3   OH212878   6.187   2.274   4.917 -0.2939  0.0571 -0.1520
 4291TIP3    H112879   6.144   2.189   4.921 -2.1415  0.9894  0.4975
 4291TIP3    H212880   6.130   2.333   4.965  1.1279  1.6162 -0.2765
 4292TIP3   OH212881   5.839   1.629   2.128 -0.1343 -0.2108  0.1373
 4292TIP3    H112882   5.894   1.694   2.172 -2.7317  1.4492  1.2137
 4292TIP3    H212883   5.825   1.561   2.194 -1.0682  0.4571  0.6542
 4293TIP3   OH212884   2.976   3.257   2.354  0.3518  0.2727 -0.9425
 4293TIP3    H112885   2.967   3.339   2.403  1.2596 -0.6015  0.7859
 4293TIP3    H212886   2.889   3.219   2.355  0.9072 -1.4822  3.3905
 4294TIP3   OH212887   3.088   4.790   3.179 -0.6539 -0.5746  0.1273
 4294TIP3    H112888   3.129   4.868   3.216  1.2172 -1.8146  0.8059
 4294TIP3    H212889   3.054   4.742   3.254  0.5531 -1.6647  0.0237
 4295TIP3   OH212890   2.041   2.179   3.785 -0.2889 -0.1270 -0.4140
 4295TIP3    H112891   2.045   2.109   3.849 -0.0986 -1.8842 -2.2288
 4295TIP3    H212892   1.982   2.146   3.717 -2.3915  2.6233 -0.1198
 4296TIP3   OH212893   0.745   1.473   2.667 -0.2223 -0.0096 -0.0571
 4296TIP3    H112894   0.684   1.529   2.619 -1.6250 -1.8176 -0.4899
 4296TIP3    H212895   0.763   1.521   2.748 -0.7368  1.3979 -0.7410
 4297TIP3   OH212896   4.631   3.599   0.313 -0.2738  0.2165  0.1791
 4297TIP3    H112897   4.548   3.565   0.279 -0.5117  0.1683  0.8095
 4297TIP3    H212898   4.695   3.577   0.245 -0.9225  1.0470 -0.7310
 4298TIP3   OH212899   1.896   0.218   0.123  0.1949 -0.2195  0.4149
 4298TIP3    H112900   1.804   0.195   0.130  0.4692 -1.7271 -0.4915
 4298TIP3    H212901   1.937   0.141   0.083  1.9501  0.1810  1.3644
 4299TIP3   OH212902   2.603   3.270   0.788 -0.1693  0.1947  0.1489
 4299TIP3    H112903   2.568   3.258   0.876  1.6116 -1.1003  0.7487
 4299TIP3    H212904   2.679   3.327   0.800  0.9950 -1.1957 -0.2523
 4300TIP3   OH212905   4.232   2.205   1.814  0.0356  0.8500  0.0907
 4300TIP3    H112906   4.215   2.111   1.818  1.5181  0.5328 -0.4580
 4300TIP3    H212907   4.165   2.239   1.755 -0.4319  0.1149  0.1972
 4301TIP3   OH212908   1.391   0.739   2.888  0.0072  0.3709  0.3031
 4301TIP3    H112909   1.457   0.685   2.931 -0.3448  0.3392  0.8186
 4301TIP3    H212910   1.354   0.792   2.958 -0.5487  0.3492  0.0315
 4302TIP3   OH212911   5.227   3.763   0.893 -0.0789 -0.0364 -0.5779
 4302TIP3    H112912   5.222   3.709   0.972  0.8923  3.3830  2.0595
 4302TIP3    H212913   5.320   3.764   0.871  0.1515  1.6882  0.3511
 4303TIP3   OH212914   3.863   3.045   4.826 -0.3083 -0.0053 -0.1247
 4303TIP3    H112915   3.804   3.108   4.866 -1.5894 -0.3200 -1.4608
 4303TIP3    H212916   3.941   3.047   4.882 -0.7027  2.0034  0.4247
 4304TIP3   OH212917   0.600   3.040   2.993 -0.1153  0.2538  0.6591
 4304TIP3    H112918   0.598   2.993   2.910 -2.3087  1.3009  0.0407
 4304TIP3    H212919   0.597   3.133   2.968 -1.1144  0.5762  1.8832
 4305TIP3   OH212920   1.481   0.273   2.210 -0.2675 -0.3064 -0.2202
 4305TIP3    H112921   1.513   0.189   2.178 -1.7085 -0.6214 -0.9254
 4305TIP3    H212922   1.549   0.304   2.270  0.2508 -1.9970  0.1036
 4306TIP3   OH212923   3.225   2.072   0.973  0.0213 -0.5690 -0.3273
 4306TIP3    H112924   3.207   1.979   0.986 -0.2067 -0.5101 -0.2178
 4306TIP3    H212925   3.312   2.085   1.011 -1.0778 -0.1658  2.2844
 4307TIP3   OH212926   0.748   2.171   3.009  0.1237  0.0245 -0.0062
 4307TIP3    H112927   0.745   2.260   2.974 -0.8106  0.2567  0.6119
 4307TIP3    H212928   0.806   2.176   3.085 -0.1349  0.1679  0.1825
 4308TIP3   OH212929   5.479   5.789   0.634  0.3304  0.0842 -0.1192
 4308TIP3    H112930   5.527   5.870   0.613  1.0222 -0.4488 -0.6576
 4308TIP3    H212931   5.426   5.772   0.556  0.1469  0.0508  0.0142
 4309TIP3   OH212932   4.530   0.365   3.607  0.1422  0.1780 -0.0639
 4309TIP3    H112933   4.606   0.348   3.664  0.7325  0.8237 -0.6273
 4309TIP3    H212934   4.467   0.297   3.629 -0.3641  1.3767  2.5927
 4310TIP3   OH212935   2.838   0.485   0.410  0.5547 -0.0557  0.5500
 4310TIP3    H112936   2.881   0.510   0.492  1.6941  0.9494 -0.3338
 4310TIP3    H212937   2.879   0.402   0.386  0.7733  0.0410  0.5893
 4311TIP3   OH212938   5.354   5.116   1.039 -0.4634  0.3963  0.3164
 4311TIP3    H112939   5.346   5.060   1.116 -1.1897 -1.8332 -1.2924
 4311TIP3    H212940   5.444   5.102   1.008 -0.4298  0.6734  0.2825
 4312TIP3   OH212941   6.199   5.791   0.195  0.0159  0.7736 -0.6402
 4312TIP3    H112942   6.258   5.866   0.190  0.4631  0.5676  0.9340
 4312TIP3    H212943   6.252   5.721   0.234 -1.0757  0.3876  0.2130
 4313TIP3   OH212944   4.124   4.279   2.866 -0.0207  0.4126 -0.3568
 4313TIP3    H112945   4.042   4.316   2.898 -0.4047  1.3020 -2.2503
 4313TIP3    H212946   4.104   4.187   2.847 -0.2549  0.3329  0.2618
 4314TIP3   OH212947   0.566   1.394   2.205  0.3502  0.2333 -0.4158
 4314TIP3    H112948   0.633   1.451   2.167 -1.5110  1.0904 -2.6398
 4314TIP3    H212949   0.503   1.454   2.245 -0.3581 -0.3876 -0.5760
 4315TIP3   OH212950   2.000   4.698   2.693  0.0533 -0.0211 -0.3176
 4315TIP3    H112951   1.958   4.678   2.609 -0.3563  0.9508 -0.3596
 4315TIP3    H212952   2.046   4.617   2.716  1.2023  0.0603 -2.0848
 4316TIP3   OH212953   2.541   3.852   4.959 -0.6860 -0.3271 -0.2246
 4316TIP3    H112954   2.546   3.764   4.995 -1.6008 -1.2221 -2.1331
 4316TIP3    H212955   2.452   3.881   4.977 -0.2552  0.4411  0.8064
 4317TIP3   OH212956   5.569   1.174  -0.007 -0.4701  0.2551  0.6250
 4317TIP3    H112957   5.480   1.140  -0.003 -0.5991  0.3899 -0.7611
 4317TIP3    H212958   5.609   1.147   0.077 -1.3563 -1.0509  0.6533
 4318TIP3   OH212959   3.850   0.232   1.300  0.4596  0.8068  0.6059
 4318TIP3    H112960   3.922   0.238   1.363  0.8238  1.5227  0.1394
 4318TIP3    H212961   3.893   0.212   1.217 -0.0396 -0.3595  0.6209
 4319TIP3   OH212962   0.905   4.910   3.123 -0.1794  0.1179 -0.1971
 4319TIP3    H112963   0.837   4.905   3.056 -1.8582  0.2646  1.4407
 4319TIP3    H212964   0.865   4.872   3.201  2.2825 -1.6463  0.3429
 4320TIP3   OH212965   1.609   4.198   5.065  0.0821  0.1045  0.0173
 4320TIP3    H112966   1.636   4.289   5.076 -0.7589  0.1486  2.2164
 4320TIP3    H212967   1.516   4.198   5.087  0.6047 -1.6529  2.6492
 4321TIP3   OH212968   5.683   2.737   3.637 -0.0559 -0.5957  0.7123
 4321TIP3    H112969   5.684   2.822   3.593  0.8839 -0.9087  0.1117
 4321TIP3    H212970   5.592   2.725   3.662 -0.3795  0.1617 -0.0313
 4322TIP3   OH212971   6.017   4.059   4.797  0.1725  0.2533 -0.1646
 4322TIP3    H112972   6.099   4.042   4.751  1.2254 -2.3116  2.3288
 4322TIP3    H212973   5.955   3.998   4.758  0.3682 -0.1006  0.0660
 4323TIP3   OH212974   0.712   1.287   0.611  0.5374  0.3446  0.2011
 4323TIP3    H112975   0.789   1.293   0.668  2.2473 -1.8739 -1.6380
 4323TIP3    H212976   0.740   1.325   0.528  0.5854 -2.5689 -1.2436
 4324TIP3   OH212977   2.497   5.719   3.550 -0.1156  0.2597  0.1167
 4324TIP3    H112978   2.551   5.730   3.472 -0.7697 -1.5065 -0.6651
 4324TIP3    H212979   2.546   5.657   3.604 -0.2712  0.4647  0.4928
 4325TIP3   OH212980   1.610   5.057   2.644 -0.0213 -0.3826 -0.3000
 4325TIP3    H112981   1.561   4.982   2.609 -0.2935 -0.4779  0.2899
 4325TIP3    H212982   1.552   5.131   2.634 -0.1962 -0.4541  0.1817
 4326TIP3   OH212983   4.859   3.261  -0.002  0.2265 -0.0543  0.2427
 4326TIP3    H112984   4.919   3.240   0.069 -1.3324 -1.4448  1.2154
 4326TIP3    H212985   4.870   3.190  -0.065  0.8083  0.5975 -0.4158
 4327TIP3   OH212986   2.337   5.722   0.490  0.6116 -0.3659  0.3539
 4327TIP3    H112987   2.288   5.804   0.499  0.0729 -0.8173  1.8095
 4327TIP3    H212988   2.429   5.749   0.491  0.5852  0.0859  3.8546
 4328TIP3   OH212989   1.821   3.808   1.531  0.2988 -0.0220 -0.0868
 4328TIP3    H112990   1.728   3.804   1.552  0.4700  1.5441  1.1564
 4328TIP3    H212991   1.824   3.828   1.438 -0.5554 -2.3575 -0.6741
 4329TIP3   OH212992   2.358   1.177  -0.003  0.1563 -0.0092 -1.0085
 4329TIP3    H112993   2.381   1.255   0.048  0.0797 -1.1712  0.9152
 4329TIP3    H212994   2.263   1.179  -0.007  0.1843  0.3777 -1.6312
 4330TIP3   OH212995   1.614   3.822   1.857 -0.0518  0.3100 -0.3840
 4330TIP3    H112996   1.536   3.838   1.910  0.2680  2.0127 -0.3713
 4330TIP3    H212997   1.592   3.854   1.770  1.0851  2.2297 -0.0256
 4331TIP3   OH212998   4.133   1.974   2.373  0.3590 -0.1293 -0.0299
 4331TIP3    H112999   4.179   2.047   2.416  1.1247 -1.5910  1.7387
 4331TIP3    H213000   4.201   1.908   2.359 -0.7271 -1.3532  0.3434
 4332TIP3   OH213001   2.140   4.479   2.773 -0.0920  0.3329  0.3918
 4332TIP3    H113002   2.226   4.453   2.803 -0.3388 -0.8282  0.1352
 4332TIP3    H213003   2.082   4.407   2.797 -0.5132 -0.1168 -1.7176
 4333TIP3   OH213004   1.299   5.358   2.274  0.0285  0.0379 -0.6277
 4333TIP3    H113005   1.302   5.404   2.357  0.2356  0.0038 -0.6164
 4333TIP3    H213006   1.384   5.314   2.268 -0.1641 -0.3399 -0.6364
 4334TIP3   OH213007   1.169   2.514   4.329 -0.0852 -0.5168 -0.1812
 4334TIP3    H113008   1.160   2.503   4.424  0.3105  0.3708 -0.0325
 4334TIP3    H213009   1.257   2.549   4.317 -0.7887  1.2198 -0.6820
 4335TIP3   OH213010   1.558   3.840   1.576 -0.6292 -0.4072 -0.7110
 4335TIP3    H113011   1.476   3.793   1.562 -1.4698  0.8121 -0.1251
 4335TIP3    H213012   1.532   3.932   1.583  1.2191  0.6138 -4.4943
 4336TIP3   OH213013   0.052   0.245   1.612 -0.1415 -0.1112  0.3997
 4336TIP3    H113014   0.040   0.183   1.540  1.0395 -1.8424  1.6236
 4336TIP3    H213015  -0.036   0.257   1.648 -0.3887 -1.0440  0.1221
 4337TIP3   OH213016   4.256   0.307   2.749 -0.3118 -0.2724  0.5745
 4337TIP3    H113017   4.254   0.212   2.754 -0.6399 -0.2531  0.9046
 4337TIP3    H213018   4.249   0.327   2.656  2.0045 -0.6042  0.2929
 4338TIP3   OH213019   0.495   2.952   3.271  0.2358  0.4266  0.2158
 4338TIP3    H113020   0.464   2.953   3.181 -0.1309 -2.8066  0.1889
 4338TIP3    H213021   0.418   2.931   3.323  0.8970 -0.0334  1.0379
 4339TIP3   OH213022   1.483   1.252   0.164  0.1841 -0.1240  0.6344
 4339TIP3    H113023   1.403   1.284   0.204  0.4476  1.2250  0.1302
 4339TIP3    H213024   1.461   1.241   0.071  0.4469 -0.2433  0.5847
 4340TIP3   OH213025   0.365   5.455   2.619 -0.1063  0.5786  0.3387
 4340TIP3    H113026   0.447   5.497   2.593  0.2126 -0.1114  0.2183
 4340TIP3    H213027   0.358   5.471   2.713  1.0163 -0.7719  0.6826
 4341TIP3   OH213028   2.958   0.533   4.595  0.5009  0.4554  0.6346
 4341TIP3    H113029   2.968   0.619   4.635  3.6931  0.6429 -0.3199
 4341TIP3    H213030   3.030   0.481   4.631 -0.9189 -1.6425  0.6388
 4342TIP3   OH213031   0.146   1.747   4.941  0.2653  0.3314 -0.0836
 4342TIP3    H113032   0.061   1.736   4.983 -0.1886  1.1181 -0.7785
 4342TIP3    H213033   0.208   1.749   5.014 -0.2648 -0.5169  0.4126
 4343TIP3   OH213034   3.104   5.004   1.379 -0.2887  0.5920 -0.0615
 4343TIP3    H113035   3.017   5.005   1.419 -0.3630 -1.9387  0.0064
 4343TIP3    H213036   3.164   5.026   1.451 -0.7904  1.6776  0.0463
 4344TIP3   OH213037   0.494   2.408   2.977 -0.6347 -0.2787 -0.7048
 4344TIP3    H113038   0.487   2.354   3.056 -1.2574 -1.5529 -1.5912
 4344TIP3    H213039   0.428   2.372   2.917  0.7087 -0.2119 -2.2938
 4345TIP3   OH213040   4.815   1.470   0.560  0.6817 -0.7177  0.0162
 4345TIP3    H113041   4.825   1.388   0.609  1.7858 -1.0307 -0.6819
 4345TIP3    H213042   4.902   1.485   0.521  0.6505  1.0540  0.5374
 4346TIP3   OH213043   4.897   5.275   2.662 -0.2708  0.5938 -0.6397
 4346TIP3    H113044   4.962   5.225   2.612  2.1611  1.4433  1.3945
 4346TIP3    H213045   4.824   5.215   2.674  1.1557 -1.3228 -1.0645
 4347TIP3   OH213046   4.657   1.442   2.353  0.7692  0.0542 -0.0614
 4347TIP3    H113047   4.589   1.469   2.291 -0.6714  0.0537  1.4476
 4347TIP3    H213048   4.706   1.523   2.372 -0.1428  0.5173  0.3930
 4348TIP3   OH213049   2.792   2.197   4.374  0.0134  0.3863  0.1388
 4348TIP3    H113050   2.714   2.252   4.369  0.9148  1.7201  0.3407
 4348TIP3    H213051   2.865   2.258   4.372  1.0618 -0.8160  0.2685
 4349TIP3   OH213052   4.765   0.205   3.061  0.4478  0.2500 -0.4468
 4349TIP3    H113053   4.790   0.123   3.105 -0.2780 -0.2845 -1.0043
 4349TIP3    H213054   4.673   0.193   3.040  0.7314  0.5607 -1.9515
 4350TIP3   OH213055   5.433   5.504   4.964 -0.6972  0.0816  0.1803
 4350TIP3    H113056   5.456   5.566   4.895 -0.4497  0.4906  0.6261
 4350TIP3    H213057   5.340   5.484   4.948 -1.1153  1.4591  0.7052
 4351TIP3   OH213058   2.822   0.730   1.816  0.3458  0.3012  0.6547
 4351TIP3    H113059   2.794   0.651   1.862 -0.5985 -0.8821 -1.7817
 4351TIP3    H213060   2.742   0.781   1.805  0.2845 -0.0955 -0.8482
 4352TIP3   OH213061   3.952   3.892   4.633 -0.1456  0.0046 -0.3979
 4352TIP3    H113062   3.873   3.837   4.625  0.1178 -0.6104  0.9039
 4352TIP3    H213063   3.920   3.981   4.620 -1.0187 -0.2600 -0.1775
 4353TIP3   OH213064   0.987   1.143   4.361  0.8721 -0.0543 -0.3214
 4353TIP3    H113065   0.904   1.122   4.404  1.4265  1.8791  1.8999
 4353TIP3    H213066   1.053   1.124   4.427  1.9899  0.7420 -1.1876
 4354TIP3   OH213067   5.774   5.830   1.445 -0.3344  0.0473 -0.0938
 4354TIP3    H113068   5.786   5.791   1.532 -0.6092 -0.3711 -0.2391
 4354TIP3    H213069   5.858   5.819   1.402 -0.7693 -1.6082 -0.6124
 4355TIP3   OH213070   0.352   3.560   3.831  0.1298  0.5571 -0.1636
 4355TIP3    H113071   0.320   3.521   3.750  2.3701 -1.0026 -0.3899
 4355TIP3    H213072   0.300   3.519   3.900 -0.8612  0.8693 -0.7085
 4356TIP3   OH213073   4.674   1.787   0.610  0.1002  0.4898  0.0411
 4356TIP3    H113074   4.699   1.856   0.671  0.6273  0.2582  0.0979
 4356TIP3    H213075   4.638   1.718   0.665  0.6691  0.2397  0.1049
 4357TIP3   OH213076   3.072   5.505   2.159  0.1025 -0.0239  0.0021
 4357TIP3    H113077   3.140   5.534   2.220 -1.2667 -0.9522  2.0552
 4357TIP3    H213078   3.121   5.467   2.085  1.8107  0.1399  1.0027
 4358TIP3   OH213079   2.753   1.370   0.255  0.3040  0.6669 -0.5618
 4358TIP3    H113080   2.768   1.276   0.263  0.6944  0.5845 -1.9829
 4358TIP3    H213081   2.705   1.393   0.334  1.0834 -0.5332  0.3053
 4359TIP3   OH213082   3.063   3.922   2.212  0.3517 -0.3340 -0.0287
 4359TIP3    H113083   3.022   3.904   2.128  0.1129 -1.2408  0.2681
 4359TIP3    H213084   3.027   3.856   2.271 -0.3803  0.9928  1.0742
 4360TIP3   OH213085   0.821   5.096   1.702  0.4192 -0.2601  0.4853
 4360TIP3    H113086   0.772   5.016   1.724 -1.5621  0.9250  0.6278
 4360TIP3    H213087   0.805   5.108   1.608  1.1415 -0.2898  0.3548
 4361TIP3   OH213088   6.319   1.549   1.440 -0.1700 -0.0999 -0.3237
 4361TIP3    H113089   6.318   1.467   1.390 -0.6296 -0.5880  0.4706
 4361TIP3    H213090   6.245   1.599   1.407 -0.0009 -0.0758 -0.6769
 4362TIP3   OH213091   1.743   4.386   0.833 -0.5281 -0.0492  0.2234
 4362TIP3    H113092   1.813   4.401   0.896  0.2635 -0.4564 -0.5308
 4362TIP3    H213093   1.711   4.298   0.854  1.1906 -1.0973 -1.2447
 4363TIP3   OH213094   4.609   0.748   4.702  0.0247 -0.0183 -0.4198
 4363TIP3    H113095   4.679   0.683   4.698  1.1961  1.0312  1.4636
 4363TIP3    H213096   4.568   0.735   4.788 -0.4521  0.9775 -0.4728
 4364TIP3   OH213097   4.287   0.935   1.652  0.5653  0.4874 -0.0888
 4364TIP3    H113098   4.208   0.890   1.621  1.0331 -0.8921  0.6022
 4364TIP3    H213099   4.259   0.983   1.729  1.0181 -3.0472  2.5161
 4365TIP3   OH213100   2.289   3.201   0.767 -0.0825  0.3256 -0.1720
 4365TIP3    H113101   2.379   3.232   0.758 -0.5582  1.4311 -1.5801
 4365TIP3    H213102   2.243   3.275   0.807 -0.9627  1.0280 -2.3292
 4366TIP3   OH213103   0.142   0.833   4.600  0.1463  0.1821 -0.6163
 4366TIP3    H113104   0.214   0.853   4.660  1.7952 -1.2593 -1.9724
 4366TIP3    H213105   0.122   0.916   4.557  0.8879  0.6499 -0.0826
 4367TIP3   OH213106   3.417   5.332   4.149 -0.1955 -0.2268  0.0778
 4367TIP3    H113107   3.394   5.423   4.171 -1.6491 -0.5502 -0.0772
 4367TIP3    H213108   3.503   5.340   4.106  0.1379  0.9697  0.8934
 4368TIP3   OH213109   2.331   1.263   2.448 -0.4411 -0.4785 -0.5000
 4368TIP3    H113110   2.346   1.222   2.363  1.5928  1.9358 -1.4318
 4368TIP3    H213111   2.321   1.189   2.508 -0.1272 -2.2851 -2.5319
 4369TIP3   OH213112   1.736   2.161   3.018  0.0250  0.4099 -0.7361
 4369TIP3    H113113   1.777   2.082   3.054  0.2621  0.5878 -0.6149
 4369TIP3    H213114   1.695   2.203   3.094 -0.5273  0.1522 -0.8790
 4370TIP3   OH213115   1.787   5.535   3.315 -0.3603 -0.0342 -0.4378
 4370TIP3    H113116   1.759   5.533   3.223 -3.1531  1.2217  0.2913
 4370TIP3    H213117   1.877   5.568   3.311 -0.3497 -0.1157 -2.7042
 4371TIP3   OH213118   1.696   0.370   2.364  0.2880 -0.2501  0.0316
 4371TIP3    H113119   1.765   0.379   2.299  0.5937 -0.5799  0.3046
 4371TIP3    H213120   1.725   0.424   2.438  0.8886 -1.3832  0.6544
 4372TIP3   OH213121   5.390   2.890   4.131 -0.1706  0.3795 -0.0204
 4372TIP3    H113122   5.398   2.796   4.146 -0.6014  0.4654  0.7931
 4372TIP3    H213123   5.473   2.927   4.160 -0.5282  0.4001  1.0170
 4373TIP3   OH213124   2.776   2.655   3.424 -0.4186 -0.0530  0.1879
 4373TIP3    H113125   2.859   2.610   3.441  1.4059  2.9994  0.0040
 4373TIP3    H213126   2.767   2.654   3.329  0.5329  1.4199  0.0657
 4374TIP3   OH213127   3.947   2.484   0.618  0.3229  0.0726 -0.0787
 4374TIP3    H113128   3.906   2.550   0.675 -2.7559 -2.5863  1.0782
 4374TIP3    H213129   3.875   2.448   0.566  2.2728 -0.8778 -2.3153
 4375TIP3   OH213130   2.191   3.904   1.556  0.8156  0.2976 -0.2567
 4375TIP3    H113131   2.154   3.961   1.489 -0.2638 -0.0777  0.0067
 4375TIP3    H213132   2.165   3.816   1.530 -0.6423  0.2442  1.2700
 4376TIP3   OH213133   4.072   5.152   2.750  0.4246 -0.0758 -0.2074
 4376TIP3    H113134   4.009   5.086   2.776  0.4222  0.2222  0.5593
 4376TIP3    H213135   4.140   5.104   2.703  0.2498 -0.5696  0.0443
 4377TIP3   OH213136   5.640   4.660   4.692  0.6072  0.0172 -0.3462
 4377TIP3    H113137   5.700   4.589   4.673  2.1175  0.4761  2.2239
 4377TIP3    H213138   5.638   4.712   4.611  2.1676 -1.0593 -1.1328
 4378TIP3   OH213139   3.086   3.996   1.696  0.8055  0.6635  0.1758
 4378TIP3    H113140   3.078   4.089   1.674  0.5823  0.4155 -0.8149
 4378TIP3    H213141   3.161   3.965   1.646  0.2896  0.0868 -0.2572
 4379TIP3   OH213142   5.699   3.484   4.907  0.7018 -0.1786  0.4278
 4379TIP3    H113143   5.631   3.449   4.850 -0.5989  1.2715  1.0153
 4379TIP3    H213144   5.780   3.444   4.875 -0.2024 -0.7312 -1.3051
 4380TIP3   OH213145   0.892   4.996   4.672 -0.5371  0.5457 -0.3081
 4380TIP3    H113146   0.833   4.925   4.647 -0.9784  0.8495 -0.1271
 4380TIP3    H213147   0.932   4.965   4.754 -0.1544  0.1732 -0.6355
 4381TIP3   OH213148   0.181   1.957   3.130  0.5561 -0.5056  0.5301
 4381TIP3    H113149   0.262   1.967   3.080  0.6488 -1.0234  0.5739
 4381TIP3    H213150   0.146   2.046   3.138 -0.2017 -0.5270 -1.7211
 4382TIP3   OH213151   0.567   0.772   4.332 -0.4728 -0.1356 -0.6910
 4382TIP3    H113152   0.555   0.844   4.270 -0.0018 -0.6816 -1.4413
 4382TIP3    H213153   0.517   0.700   4.294  0.0707 -0.5655 -0.5899
 4383TIP3   OH213154   1.744   1.303   0.603  0.1551  0.2668 -0.2019
 4383TIP3    H113155   1.738   1.211   0.578 -0.8286  0.2607  0.0047
 4383TIP3    H213156   1.701   1.350   0.532  0.3304  0.5372 -0.1298
 4384TIP3   OH213157   4.699   0.644   2.793 -0.3425  0.0929  0.5035
 4384TIP3    H113158   4.710   0.646   2.888 -0.2871 -0.4826  0.5107
 4384TIP3    H213159   4.760   0.711   2.761 -0.3764  0.3014  0.8743
 4385TIP3   OH213160   1.432   4.620   2.842 -0.2026 -0.3622  0.1289
 4385TIP3    H113161   1.409   4.628   2.749 -2.0931  0.1996  0.5951
 4385TIP3    H213162   1.464   4.530   2.851 -0.2350 -0.5068 -1.0222
 4386TIP3   OH213163   3.292   4.114   4.909  0.0772  0.1128  0.2106
 4386TIP3    H113164   3.303   4.026   4.874 -2.2421 -0.5217  0.9122
 4386TIP3    H213165   3.382   4.148   4.918  1.2233 -3.0317  2.0915
 4387TIP3   OH213166   5.263   5.205   4.115 -0.4696  0.1917  0.5629
 4387TIP3    H113167   5.332   5.156   4.071  0.5094  2.2327 -0.2790
 4387TIP3    H213168   5.221   5.255   4.045 -0.6515  1.4585  1.5565
 4388TIP3   OH213169   0.164   1.726   2.476  0.4289  0.7979 -0.2701
 4388TIP3    H113170   0.090   1.672   2.450  0.6252 -0.7694  2.1183
 4388TIP3    H213171   0.241   1.682   2.440  0.4757  0.1728  0.5542
 4389TIP3   OH213172   3.719   3.245   4.328 -0.0050  0.7212 -0.3490
 4389TIP3    H113173   3.650   3.180   4.320 -1.5873  2.2345  0.3638
 4389TIP3    H213174   3.717   3.293   4.245  0.2838  0.6814 -0.3795
 4390TIP3   OH213175   0.988   4.930   1.306 -0.6187 -0.8882  0.0860
 4390TIP3    H113176   0.982   4.931   1.401 -1.9060 -0.3871  0.0214
 4390TIP3    H213177   0.979   4.838   1.282 -1.5418 -0.8910  0.3995
 4391TIP3   OH213178   5.740   5.197   3.163 -0.5449  0.4162  0.6386
 4391TIP3    H113179   5.650   5.183   3.194  0.1192 -0.2896  2.3167
 4391TIP3    H213180   5.778   5.259   3.225  0.3739  0.0987  0.4120
 4392TIP3   OH213181   2.108   4.797   1.731  0.5141 -0.1811 -0.1237
 4392TIP3    H113182   2.115   4.735   1.658 -1.3504 -0.4238 -0.1510
 4392TIP3    H213183   2.087   4.881   1.689 -1.4653 -0.5051  0.1276
 4393TIP3   OH213184   4.424   5.756   0.662 -0.1768 -0.2205  0.3880
 4393TIP3    H113185   4.508   5.747   0.708 -0.2969 -0.6464  0.5296
 4393TIP3    H213186   4.427   5.844   0.624  0.0825  0.0017  0.9027
 4394TIP3   OH213187   2.690   4.149   3.617  0.1929  0.1317 -0.5960
 4394TIP3    H113188   2.703   4.081   3.551  1.2177 -0.2960  0.0317
 4394TIP3    H213189   2.597   4.143   3.639  0.5770 -2.3187  0.7409
 4395TIP3   OH213190   3.284   1.655   4.894  0.4762 -0.0709  0.3267
 4395TIP3    H113191   3.219   1.588   4.915 -0.9387  1.4071  0.7737
 4395TIP3    H213192   3.368   1.610   4.905 -0.3703 -2.7702 -2.6489
 4396TIP3   OH213193   4.490   4.248   4.857 -0.0544 -0.1692 -0.3355
 4396TIP3    H113194   4.531   4.309   4.918 -0.1453 -0.0158 -0.4298
 4396TIP3    H213195   4.518   4.277   4.771 -0.2758 -0.1306 -0.3930
 4397TIP3   OH213196   1.448   5.359   4.690  0.2154  0.3125 -0.6071
 4397TIP3    H113197   1.369   5.366   4.636  0.7225  0.4999 -1.3232
 4397TIP3    H213198   1.444   5.271   4.726  0.5456 -0.2869 -1.9883
 4398TIP3   OH213199   4.201   1.079   1.438 -0.3755  0.2953  0.1104
 4398TIP3    H113200   4.294   1.080   1.418 -0.7337 -0.4802 -1.8738
 4398TIP3    H213201   4.193   1.024   1.516  0.7783  0.1385  0.1295
 4399TIP3   OH213202   5.780   0.423   2.338  0.2473  0.0440 -0.4249
 4399TIP3    H113203   5.823   0.394   2.419  0.2143 -1.3461 -0.8728
 4399TIP3    H213204   5.853   0.443   2.278  0.2696  0.8694 -0.1361
 4400TIP3   OH213205   1.155   3.526   4.510 -0.3074  0.5083 -0.1021
 4400TIP3    H113206   1.117   3.505   4.595 -1.0100  1.2625 -0.2163
 4400TIP3    H213207   1.096   3.592   4.473  0.4689  0.8312 -0.7982
 4401TIP3   OH213208   0.527   5.760   0.433 -0.1162 -0.1201  0.1743
 4401TIP3    H113209   0.608   5.711   0.420 -0.0165  0.1101 -0.0698
 4401TIP3    H213210   0.480   5.749   0.350  0.0312  0.4319  0.0161
 4402TIP3   OH213211   3.778   1.580   0.941 -0.0770 -0.4476 -0.8337
 4402TIP3    H113212   3.725   1.637   0.885  0.3318  0.6480 -0.1346
 4402TIP3    H213213   3.860   1.570   0.894  0.2107  0.3509 -0.5124
 4403TIP3   OH213214   1.927   1.378   2.731  0.5661 -0.2953  0.0520
 4403TIP3    H113215   1.838   1.403   2.756  0.7583  1.8962 -1.1386
 4403TIP3    H213216   1.917   1.333   2.648  0.6217  1.5310 -1.0047
 4404TIP3   OH213217   3.181   1.243   2.324 -0.2396  0.3559 -0.4926
 4404TIP3    H113218   3.182   1.286   2.410  0.3302 -1.0124  0.2121
 4404TIP3    H213219   3.187   1.315   2.262  0.0771  1.3409  0.6294
 4405TIP3   OH213220   0.447   2.664   5.121 -0.1967  0.1189 -0.0358
 4405TIP3    H113221   0.406   2.750   5.119 -0.9908 -0.2557 -0.3266
 4405TIP3    H213222   0.427   2.626   5.035  0.3928 -0.2451 -0.0213
 4406TIP3   OH213223   0.034   5.492   3.516  0.2950  0.7713  0.1771
 4406TIP3    H113224   0.108   5.471   3.573  0.8150  0.3987 -0.5997
 4406TIP3    H213225   0.008   5.408   3.479 -0.5723  0.8930  0.4988
 4407TIP3   OH213226   0.101   2.241   3.151 -0.4866  0.1072  0.2469
 4407TIP3    H113227   0.107   2.332   3.123 -2.7763  0.0070 -0.7405
 4407TIP3    H213228   0.083   2.246   3.245 -0.1659  0.6363  0.2847
 4408TIP3   OH213229   1.197   0.277   4.282  0.0294 -0.0943 -0.6499
 4408TIP3    H113230   1.164   0.357   4.323 -1.2231 -1.1955  0.5647
 4408TIP3    H213231   1.161   0.206   4.334  1.6406 -1.4685 -1.3076
 4409TIP3   OH213232   3.449   0.510   1.767  0.2805 -0.1264  0.6570
 4409TIP3    H113233   3.542   0.530   1.760  0.4772 -1.4272 -1.3714
 4409TIP3    H213234   3.405   0.585   1.725  0.8037 -1.8734 -3.4524
 4410TIP3   OH213235   3.805   3.344   4.067 -0.0637 -0.2422  0.1687
 4410TIP3    H113236   3.899   3.328   4.078  0.2091  1.9205  1.8069
 4410TIP3    H213237   3.800   3.419   4.008 -0.8238 -0.9761 -0.7166
 4411TIP3   OH213238   3.191   2.443   3.181  0.5167  0.4833  0.1648
 4411TIP3    H113239   3.256   2.415   3.116 -0.5320  1.8477 -1.5610
 4411TIP3    H213240   3.157   2.361   3.217  0.6805 -0.3520 -1.4872
 4412TIP3   OH213241   0.493   2.827   0.401  0.4325  0.1923  0.2447
 4412TIP3    H113242   0.423   2.769   0.370 -0.6581  0.1035  2.6857
 4412TIP3    H213243   0.471   2.913   0.364  1.1202 -0.5165 -1.9961
 4413TIP3   OH213244   3.462   5.146   1.845  0.9919 -0.3239  0.3187
 4413TIP3    H113245   3.475   5.194   1.927  0.3202  0.1090  0.1798
 4413TIP3    H213246   3.431   5.212   1.783 -0.2297 -0.9726  0.1940
 4414TIP3   OH213247   1.774   3.115   5.164  0.0068 -0.0963  0.5582
 4414TIP3    H113248   1.765   3.020   5.153 -1.7160 -0.1067  1.7379
 4414TIP3    H213249   1.868   3.130   5.155  0.2903 -1.8588  0.0272
 4415TIP3   OH213250   5.164   0.777   0.146  0.3234  0.3507 -0.6798
 4415TIP3    H113251   5.160   0.865   0.109  0.2611  0.6122 -0.0588
 4415TIP3    H213252   5.253   0.769   0.181 -0.1806  0.8080  0.7913
 4416TIP3   OH213253   2.455   1.764   3.574  0.0641  0.6116  0.0891
 4416TIP3    H113254   2.479   1.744   3.484  3.3560  0.5723  0.8491
 4416TIP3    H213255   2.432   1.857   3.573 -2.1333  0.1334 -1.0846
 4417TIP3   OH213256   2.899   2.610   2.610  0.0927 -0.2633  0.2784
 4417TIP3    H113257   2.911   2.690   2.558  0.2951  0.1987  1.0270
 4417TIP3    H213258   2.980   2.560   2.595 -0.0642 -0.3715 -0.2489
 4418TIP3   OH213259   3.073   2.196   4.211  0.4688  0.8819  0.1612
 4418TIP3    H113260   3.137   2.126   4.223 -0.3384  0.1744  0.4758
 4418TIP3    H213261   3.096   2.261   4.277  2.1457  1.6424 -1.1122
 4419TIP3   OH213262   2.830   5.631   4.423  0.2229  0.1799 -0.1165
 4419TIP3    H113263   2.840   5.547   4.379 -1.8133 -0.2961  0.2216
 4419TIP3    H213264   2.745   5.625   4.467 -1.0020  3.1545 -1.7607
 4420TIP3   OH213265   1.565   6.011   3.308 -0.0979 -0.2902 -0.7644
 4420TIP3    H113266   1.612   5.961   3.241  1.1751 -2.9347  1.8758
 4420TIP3    H213267   1.507   5.948   3.350 -0.5990  1.1593  0.8786
 4421TIP3   OH213268   0.839   0.509   2.959  0.6225  0.1493  0.0700
 4421TIP3    H113269   0.891   0.429   2.962  0.5094  0.0460 -0.6291
 4421TIP3    H213270   0.896   0.574   2.916  1.0588  0.7186  1.4345
 4422TIP3   OH213271   3.042   3.024   2.252  0.0079 -0.4209  0.3057
 4422TIP3    H113272   3.035   3.116   2.276 -4.1085  0.1006 -1.9468
 4422TIP3    H213273   3.076   3.025   2.162 -0.4456 -1.0453  0.1180
 4423TIP3   OH213274   0.461   5.447   1.671  0.1084 -0.2506 -0.0734
 4423TIP3    H113275   0.376   5.404   1.682 -0.9158  1.7674  0.2929
 4423TIP3    H213276   0.498   5.407   1.592 -1.0297 -1.3862 -0.0556
 4424TIP3   OH213277   4.964   5.083   0.812  0.1837 -0.1764  0.0515
 4424TIP3    H113278   4.994   5.093   0.902  0.1802 -1.4175  0.2155
 4424TIP3    H213279   4.899   5.013   0.816 -0.9848  0.8237 -0.6846
 4425TIP3   OH213280   0.128   0.958   0.930 -0.4633 -0.4246  0.0269
 4425TIP3    H113281   0.117   1.041   0.883  1.3303 -0.2574 -0.1856
 4425TIP3    H213282   0.197   0.912   0.881 -1.0867 -1.8407  0.4224
 4426TIP3   OH213283   3.227   1.040   1.819  0.1895  0.0416 -1.0664
 4426TIP3    H113284   3.297   1.075   1.876 -0.0714  2.3523 -2.0633
 4426TIP3    H213285   3.165   1.001   1.880  0.9598  0.5286  0.0840
 4427TIP3   OH213286   2.037   3.155   2.314 -0.1863  0.5181  0.0757
 4427TIP3    H113287   1.942   3.165   2.309 -0.2393  0.8912  1.4192
 4427TIP3    H213288   2.050   3.060   2.322 -0.3768  0.3877 -0.9928
 4428TIP3   OH213289   2.282   5.223   0.449 -0.2317 -0.0663 -0.0536
 4428TIP3    H113290   2.306   5.183   0.365 -0.4452 -2.2753  0.8645
 4428TIP3    H213291   2.337   5.301   0.455 -0.4515  0.3611 -2.3601
 4429TIP3   OH213292   5.704   3.745   1.939  0.2602  0.3995  0.3593
 4429TIP3    H113293   5.694   3.656   1.972 -1.0236  0.5804  0.4930
 4429TIP3    H213294   5.709   3.735   1.844 -0.1443  0.2045  0.3560
 4430TIP3   OH213295   2.841   4.169   2.807 -0.2373 -0.2962 -0.2433
 4430TIP3    H113296   2.878   4.141   2.891 -0.1421 -0.4688 -0.3423
 4430TIP3    H213297   2.916   4.200   2.757 -0.2083 -0.7493 -0.4849
 4431TIP3   OH213298   0.900   4.865   0.304  0.0450  0.6971  0.3941
 4431TIP3    H113299   0.901   4.809   0.382  0.9728 -0.3813 -0.3650
 4431TIP3    H213300   0.975   4.922   0.315 -0.1908  0.9772  0.5785
 4432TIP3   OH213301   4.910   2.063   1.461  0.2480 -0.0543 -0.4263
 4432TIP3    H113302   4.926   2.130   1.393 -0.7001 -1.5043 -2.1622
 4432TIP3    H213303   4.993   2.015   1.466  0.7567  0.8550  0.4476
 4433TIP3   OH213304   1.657   5.002   2.902 -0.3770 -0.7467  0.3115
 4433TIP3    H113305   1.634   5.023   2.811  0.4546 -1.1090  0.0013
 4433TIP3    H213306   1.672   4.908   2.901 -0.8590 -0.8335  0.9482
 4434TIP3   OH213307   4.238   2.123   5.032  0.0887  0.7087 -0.1162
 4434TIP3    H113308   4.312   2.114   4.972 -0.3087  1.6570 -0.7711
 4434TIP3    H213309   4.175   2.176   4.984 -0.3393  1.2925  1.0594
 4435TIP3   OH213310   5.252   3.929   2.901 -0.2317 -0.2907 -0.0921
 4435TIP3    H113311   5.172   3.937   2.952 -1.5614 -1.3684 -1.8769
 4435TIP3    H213312   5.261   4.013   2.856 -0.9573 -0.5035 -0.6587
 4436TIP3   OH213313   2.994   0.791   3.284 -0.2226 -0.2460  0.5845
 4436TIP3    H113314   2.919   0.834   3.324  1.1225  0.5859  2.3602
 4436TIP3    H213315   3.010   0.839   3.203  0.1184  1.4426  1.6190
 4437TIP3   OH213316   1.177   3.347   1.496 -0.0432  0.0604 -0.1928
 4437TIP3    H113317   1.213   3.283   1.434  1.1568  1.4992 -1.0500
 4437TIP3    H213318   1.086   3.359   1.468 -0.2481 -1.1392 -0.0956
 4438TIP3   OH213319   1.346   0.987   1.599 -0.0900  0.0731  0.6873
 4438TIP3    H113320   1.423   1.028   1.640  2.3770 -0.5184 -2.8797
 4438TIP3    H213321   1.290   1.060   1.574  0.4682  0.6958  1.2011
 4439TIP3   OH213322   1.488   4.786   1.021  0.3542 -0.0662  0.0347
 4439TIP3    H113323   1.575   4.754   0.997  0.8285  0.8637  0.4528
 4439TIP3    H213324   1.497   4.881   1.022 -0.6247  0.0379  0.2662
 4440TIP3   OH213325   0.022   5.724   3.054 -0.5717  0.8003 -0.4370
 4440TIP3    H113326   0.081   5.657   3.019 -2.7430 -1.2596 -0.4100
 4440TIP3    H213327   0.027   5.796   2.991  1.4928  0.4872 -0.7175
 4441TIP3   OH213328   2.851   1.648   4.034 -0.2888 -0.0270 -0.2022
 4441TIP3    H113329   2.766   1.688   4.015  0.1257 -0.0693 -2.3906
 4441TIP3    H213330   2.839   1.556   4.011  0.1044 -0.2199  0.3530
 4442TIP3   OH213331   5.730   0.038   3.374  0.3552 -0.6299  0.2776
 4442TIP3    H113332   5.673   0.084   3.312  1.0011 -1.0100 -0.6333
 4442TIP3    H213333   5.726   0.090   3.454 -0.9693 -0.4504  0.1182
 4443TIP3   OH213334   5.147   2.933   4.227 -0.4544 -0.2328  0.0439
 4443TIP3    H113335   5.102   2.858   4.187  0.0359  0.4110 -1.8050
 4443TIP3    H213336   5.237   2.927   4.195 -0.4074  1.1338 -0.1298
 4444TIP3   OH213337   6.062   5.705   0.923  0.7713  0.1989  0.0107
 4444TIP3    H113338   6.012   5.633   0.886  2.0820 -1.4151  1.2229
 4444TIP3    H213339   6.154   5.680   0.910  1.2578  1.3949  0.9051
 4445TIP3   OH213340   6.174   0.891   0.591 -0.6550  0.1664 -0.1466
 4445TIP3    H113341   6.131   0.806   0.587 -0.5421  0.1516 -1.4693
 4445TIP3    H213342   6.260   0.877   0.553 -0.2608  0.6533  0.5543
 4446TIP3   OH213343   5.154   3.390   1.607  0.1227 -0.2165 -0.5535
 4446TIP3    H113344   5.097   3.337   1.552 -2.6746  0.8755  1.0540
 4446TIP3    H213345   5.178   3.464   1.552 -3.2649  1.2800 -0.3223
 4447TIP3   OH213346   4.958   3.400   2.238 -0.4261  0.2147  0.0202
 4447TIP3    H113347   5.050   3.408   2.215 -0.0494  1.0962  1.6312
 4447TIP3    H213348   4.910   3.422   2.158  0.7041 -2.1045 -1.4069
 4448TIP3   OH213349   4.596   3.182   3.986 -0.8265  0.0573 -0.3420
 4448TIP3    H113350   4.658   3.135   3.930  0.3688  0.5272  0.5330
 4448TIP3    H213351   4.644   3.197   4.067 -1.9564  0.8202  0.2134
 4449TIP3   OH213352   5.914   0.241   0.740  0.5671  0.4355  0.2273
 4449TIP3    H113353   6.005   0.212   0.748  0.2551 -0.7801 -0.2462
 4449TIP3    H213354   5.878   0.185   0.671 -0.3530  1.3685 -0.0629
 4450TIP3   OH213355   6.118   4.018   3.693  0.2468  0.0297 -0.1790
 4450TIP3    H113356   6.170   4.034   3.771 -0.2390 -1.3480  0.4570
 4450TIP3    H213357   6.048   3.960   3.722  0.7939 -1.6056 -1.9000
 4451TIP3   OH213358   2.020   1.464   1.399  0.3599  0.0141 -0.8101
 4451TIP3    H113359   1.958   1.456   1.328  0.6339 -1.3681 -0.9231
 4451TIP3    H213360   1.984   1.532   1.456 -0.8886 -0.2892 -1.2271
 4452TIP3   OH213361   1.009   4.041   1.227  0.2276 -0.1801  0.3641
 4452TIP3    H113362   0.940   3.984   1.193 -0.1573  0.3528  0.2464
 4452TIP3    H213363   0.981   4.129   1.204  1.9090 -0.0524 -1.4940
 4453TIP3   OH213364   5.386   5.958   2.190  0.1126  0.9482  0.5592
 4453TIP3    H113365   5.432   5.976   2.108 -1.2997  0.8176 -0.3013
 4453TIP3    H213366   5.400   5.865   2.205 -2.6573  0.0080 -1.6262
 4454TIP3   OH213367   1.532   5.416   0.295 -0.6231  0.7513  0.3672
 4454TIP3    H113368   1.520   5.509   0.275 -1.7951  0.4287 -0.5405
 4454TIP3    H213369   1.557   5.414   0.387  0.0686  2.0002  0.2269
 4455TIP3   OH213370   2.542   3.809   2.420  0.1058 -0.2173  0.4992
 4455TIP3    H113371   2.462   3.838   2.377 -0.4215  0.0705  1.6307
 4455TIP3    H213372   2.612   3.861   2.379 -0.0670 -1.4202 -1.4396
 4456TIP3   OH213373   3.970   3.898   2.362 -0.0268  0.5463  0.6085
 4456TIP3    H113374   3.913   3.848   2.420  0.7176 -0.5625  0.3987
 4456TIP3    H213375   3.945   3.989   2.377 -2.9718  0.0725 -0.5818
 4457TIP3   OH213376   0.035   3.468   0.050  0.2930 -0.3229 -0.0377
 4457TIP3    H113377   0.042   3.475   0.145  0.3496  0.9214 -0.1085
 4457TIP3    H213378  -0.035   3.405   0.035 -0.1724 -0.0266  0.8359
 4458TIP3   OH213379   6.189   3.074   3.310  0.1813 -0.7835  0.2959
 4458TIP3    H113380   6.220   2.999   3.360  0.5699 -0.8127  0.0139
 4458TIP3    H213381   6.183   3.145   3.374  0.6950 -0.8147  0.3866
 4459TIP3   OH213382   0.152   4.307   4.502 -0.2504 -0.3315  0.2073
 4459TIP3    H113383   0.116   4.268   4.581  0.6703 -0.1932  0.7148
 4459TIP3    H213384   0.152   4.401   4.519  1.5752 -0.3997  0.7937
 4460TIP3   OH213385   3.919   1.931   2.550  0.1761  0.2591 -0.1018
 4460TIP3    H113386   3.996   1.940   2.494  0.1170  0.8143 -0.1038
 4460TIP3    H213387   3.845   1.948   2.491  0.1407  1.4107  0.2559
 4461TIP3   OH213388   2.393   4.613   1.828 -0.1406  0.5520  0.5204
 4461TIP3    H113389   2.327   4.594   1.761  1.0225 -2.5410  0.0938
 4461TIP3    H213390   2.465   4.653   1.781 -0.8805  2.0872  0.6515
 4462TIP3   OH213391   5.550   5.045   0.523  0.5248  0.2787  0.1171
 4462TIP3    H113392   5.625   5.072   0.469  0.4704  0.1556 -0.0189
 4462TIP3    H213393   5.539   5.117   0.586 -0.1496  0.9905 -0.7825
 4463TIP3   OH213394   1.626   0.289   1.547  0.1913 -0.0432 -0.4562
 4463TIP3    H113395   1.580   0.372   1.554  0.7112  0.1845  0.3940
 4463TIP3    H213396   1.562   0.230   1.507 -0.4033  0.5922 -0.4656
 4464TIP3   OH213397   0.173   0.169   2.533 -0.0333  0.4591 -0.0601
 4464TIP3    H113398   0.197   0.082   2.562  1.0579  0.6316 -0.4100
 4464TIP3    H213399   0.132   0.210   2.609 -0.3097 -0.2519  0.1822
 4465TIP3   OH213400   0.883   0.797   0.393  0.6089 -0.1534 -0.1745
 4465TIP3    H113401   0.818   0.765   0.457  1.5875  0.2941  1.0852
 4465TIP3    H213402   0.893   0.724   0.332  0.3877 -1.0201  0.7770
 4466TIP3   OH213403   2.927   4.342   2.197  0.0817 -0.1054  0.4780
 4466TIP3    H113404   2.863   4.277   2.226 -0.7887 -0.1191 -1.3459
 4466TIP3    H213405   2.877   4.424   2.195  0.6250  0.2418  0.7577
 4467TIP3   OH213406   5.755   0.795   1.552 -0.3039  0.1200  0.0743
 4467TIP3    H113407   5.717   0.769   1.468 -0.1667 -0.8636  0.3021
 4467TIP3    H213408   5.841   0.830   1.529 -0.5168  0.4486 -0.2478
 4468TIP3   OH213409   0.137   1.133   0.129 -0.1894 -0.0754 -0.5179
 4468TIP3    H113410   0.231   1.145   0.114  0.3929  0.0123  2.5059
 4468TIP3    H213411   0.120   1.042   0.104  1.3497 -0.9529  1.3666
 4469TIP3   OH213412   3.111   1.819   2.208  0.4315  0.1597 -0.7477
 4469TIP3    H113413   3.077   1.859   2.288 -1.6850  0.5224 -1.7593
 4469TIP3    H213414   3.124   1.892   2.148  1.3476 -0.1872 -0.9896
 4470TIP3   OH213415   0.634   2.333   2.708 -0.5544  0.3057  0.3649
 4470TIP3    H113416   0.593   2.275   2.643  0.8247 -2.2794  1.6232
 4470TIP3    H213417   0.576   2.328   2.784 -0.0300 -0.0999  0.7467
 4471TIP3   OH213418   0.356   1.744   4.367 -0.2910 -0.0743  0.5570
 4471TIP3    H113419   0.364   1.798   4.288 -2.7520  1.7532  1.4159
 4471TIP3    H213420   0.432   1.766   4.419  1.1868 -1.0309 -1.0895
 4472TIP3   OH213421   4.793   1.581   1.078 -0.0424 -0.6750  0.2258
 4472TIP3    H113422   4.861   1.618   1.022  0.3655  0.4316  1.3775
 4472TIP3    H213423   4.837   1.510   1.125 -0.1449 -1.0350 -0.2196
 4473TIP3   OH213424   5.620   0.369   0.571 -0.0341 -0.1260  0.7206
 4473TIP3    H113425   5.549   0.313   0.603  0.5201 -0.5508  1.2233
 4473TIP3    H213426   5.691   0.309   0.550 -0.2246  0.1845 -0.9544
 4474TIP3   OH213427   5.886   5.285   2.218 -0.1433 -0.1651 -0.2084
 4474TIP3    H113428   5.962   5.342   2.221 -1.0256  1.0141  2.4794
 4474TIP3    H213429   5.811   5.344   2.217 -1.0843 -1.2998 -1.7939
 4475TIP3   OH213430   4.730   4.110   3.213 -0.0980  0.1737 -0.1199
 4475TIP3    H113431   4.699   4.020   3.199 -0.0116  0.1288 -0.0208
 4475TIP3    H213432   4.805   4.118   3.154 -0.7295  0.5163 -0.9065
 4476TIP3   OH213433   5.149   3.753   0.434 -0.7193 -0.3963 -0.1439
 4476TIP3    H113434   5.147   3.734   0.341 -3.1208 -0.6394 -0.0935
 4476TIP3    H213435   5.061   3.783   0.455 -0.4715 -1.0930  2.1990
 4477TIP3   OH213436   6.019   3.693   1.168  0.2561 -0.0705  0.1831
 4477TIP3    H113437   6.032   3.750   1.244 -1.3186  0.7527 -0.1170
 4477TIP3    H213438   5.931   3.657   1.179  0.7458 -1.4820 -0.2802
 4478TIP3   OH213439   4.957   5.082   0.544 -0.3317 -0.3787  0.0899
 4478TIP3    H113440   4.967   5.098   0.638 -2.0404 -0.1076  0.2658
 4478TIP3    H213441   4.869   5.045   0.536 -0.7389  0.8505 -1.5319
 4479TIP3   OH213442   5.922   5.249   1.673  0.3659 -0.3517  0.4201
 4479TIP3    H113443   5.931   5.226   1.765  0.8791 -1.8192  0.0371
 4479TIP3    H213444   5.850   5.311   1.670  0.4587 -0.1527  1.8209
 4480TIP3   OH213445   2.300   3.210   2.231  0.4795  0.2819  0.1369
 4480TIP3    H113446   2.213   3.198   2.271 -0.1951  3.8795  0.0813
 4480TIP3    H213447   2.349   3.132   2.257 -2.5516 -1.5936  0.7024
 4481TIP3   OH213448   2.976   4.548   4.067 -0.1465 -0.1484  0.4057
 4481TIP3    H113449   2.897   4.578   4.112  0.8756  0.5415  1.8019
 4481TIP3    H213450   3.007   4.474   4.119 -0.7919 -1.5399 -1.1150
 4482TIP3   OH213451   4.045   2.238   0.742  0.0504 -0.6473 -0.2206
 4482TIP3    H113452   4.017   2.330   0.739  1.3311 -0.2470 -0.5008
 4482TIP3    H213453   4.134   2.241   0.774  0.1593 -1.7944 -0.3765
 4483TIP3   OH213454   2.832   1.935   2.904 -0.0959 -0.4334 -0.4441
 4483TIP3    H113455   2.813   1.842   2.919 -1.5554 -0.3815 -1.7554
 4483TIP3    H213456   2.844   1.942   2.809  1.0217  0.5540 -0.2524
 4484TIP3   OH213457   1.232   0.355   0.733  0.7504  0.0933  0.0588
 4484TIP3    H113458   1.255   0.408   0.809  0.6799  1.5079 -0.8731
 4484TIP3    H213459   1.140   0.333   0.747  0.9782 -0.4312  0.8126
 4485TIP3   OH213460   5.445   4.301   0.004  0.1198 -0.2527 -0.3744
 4485TIP3    H113461   5.384   4.373  -0.011  1.2094  0.9690  0.8214
 4485TIP3    H213462   5.421   4.267   0.090  0.5059 -0.3960 -0.3225
 4486TIP3   OH213463   5.507   2.949   1.889 -0.0074 -0.5504 -0.1505
 4486TIP3    H113464   5.423   2.978   1.925 -0.4974 -1.9752 -0.0807
 4486TIP3    H213465   5.572   2.981   1.952 -0.5728 -0.2231  0.2778
 4487TIP3   OH213466   5.768   0.024   0.840  0.7355  0.2551  0.0022
 4487TIP3    H113467   5.801   0.107   0.806  0.0074  0.5624  0.0143
 4487TIP3    H213468   5.720  -0.015   0.767  1.2851 -0.2782 -0.0791
 4488TIP3   OH213469   1.111   5.500   4.972  0.4477 -0.0008 -0.0541
 4488TIP3    H113470   1.053   5.427   4.991 -0.5272  1.3277  2.5023
 4488TIP3    H213471   1.087   5.528   4.884 -1.3230 -0.8047  0.1361
 4489TIP3   OH213472   2.107   4.290   2.110  0.1156  0.7234 -0.6320
 4489TIP3    H113473   2.173   4.315   2.046 -0.1341  2.9720 -0.1012
 4489TIP3    H213474   2.108   4.194   2.110  3.4756  0.6322 -0.5539
 4490TIP3   OH213475   4.027   2.698   0.868  0.1985 -0.2152 -0.0902
 4490TIP3    H113476   4.031   2.778   0.920  3.4720  0.1387 -0.6886
 4490TIP3    H213477   3.966   2.718   0.797  0.1834  1.3594  0.3445
 4491TIP3   OH213478   0.129   3.661   2.069  0.5588  0.2659 -0.7334
 4491TIP3    H113479   0.202   3.599   2.058  0.0427 -0.2901 -1.1021
 4491TIP3    H213480   0.170   3.747   2.065  1.2970 -0.0475 -0.1747
 4492TIP3   OH213481   3.590   3.443   1.189  0.0355 -0.0647  0.0785
 4492TIP3    H113482   3.605   3.461   1.096  2.6780  0.0410  0.4393
 4492TIP3    H213483   3.531   3.367   1.190  2.7718 -2.4190 -1.8253
 4493TIP3   OH213484   6.111   2.095   4.282 -0.1977  0.3363 -0.6487
 4493TIP3    H113485   6.110   2.009   4.241 -0.6901  0.2292 -0.4127
 4493TIP3    H213486   6.139   2.078   4.372 -0.4696  0.3976 -0.5513
 4494TIP3   OH213487   5.422   2.270   3.020 -0.4651 -0.2709  0.0963
 4494TIP3    H113488   5.383   2.202   3.075 -0.8516 -0.4820 -0.4231
 4494TIP3    H213489   5.465   2.329   3.081  1.2667 -1.8336  0.4856
 4495TIP3   OH213490   0.607   3.248   3.791 -0.5872  0.3955  0.5357
 4495TIP3    H113491   0.661   3.327   3.797 -1.3304  0.8079  3.2092
 4495TIP3    H213492   0.541   3.269   3.724  2.3706 -0.1375 -2.8359
 4496TIP3   OH213493   2.622   1.536   3.781 -0.2054 -0.7351  0.0415
 4496TIP3    H113494   2.544   1.485   3.761 -0.1512 -0.7034 -0.2653
 4496TIP3    H213495   2.590   1.612   3.829 -0.6461  0.3429 -1.8361
 4497TIP3   OH213496   3.816   4.583   0.437  0.5526 -0.8279 -0.6465
 4497TIP3    H113497   3.900   4.555   0.400 -0.1633 -1.2610 -2.0244
 4497TIP3    H213498   3.751   4.546   0.377 -0.6598 -1.1993  0.8596
 4498TIP3   OH213499   2.242   2.287   3.966 -0.0114  0.3554  0.4161
 4498TIP3    H113500   2.317   2.298   3.907 -0.1573 -0.5854  0.0413
 4498TIP3    H213501   2.166   2.289   3.908 -0.0920 -1.7574  0.3874
 4499TIP3   OH213502   6.000   0.638   5.055 -0.1249 -0.2480 -0.0465
 4499TIP3    H113503   5.944   0.689   4.996 -1.3340  2.1903  2.9676
 4499TIP3    H213504   5.979   0.547   5.034  0.6373  0.3376 -4.2721
 4500TIP3   OH213505   0.268   1.497   1.855 -0.0365  0.4094  0.1714
 4500TIP3    H113506   0.206   1.533   1.919 -1.1577 -2.0523  0.5581
 4500TIP3    H213507   0.303   1.418   1.897  1.5854  0.4372 -1.0335
 4501TIP3   OH213508   0.942   2.623   4.848  0.0488 -0.1464  0.2953
 4501TIP3    H113509   0.858   2.627   4.893 -0.3083 -0.1863 -0.3599
 4501TIP3    H213510   0.922   2.642   4.757  0.8237  0.3632  0.2190
 4502TIP3   OH213511   5.837   3.197   2.578 -0.4144 -0.0917  0.1272
 4502TIP3    H113512   5.807   3.106   2.577  0.0698 -0.2691  1.0315
 4502TIP3    H213513   5.877   3.210   2.492 -1.2504 -0.4693 -0.3268
 4503TIP3   OH213514   4.126   3.336   1.508  0.0005 -0.2438  0.0230
 4503TIP3    H113515   4.045   3.290   1.482 -1.1491  1.4837  0.3633
 4503TIP3    H213516   4.097   3.402   1.571  1.7408  0.2422  0.3691
 4504TIP3   OH213517   3.491   3.627   4.829  0.2039 -0.5205 -0.0565
 4504TIP3    H113518   3.487   3.606   4.922 -1.7195  0.9866  0.2624
 4504TIP3    H213519   3.443   3.556   4.786  1.1608 -1.2579  0.0653
 4505TIP3   OH213520   3.192   0.517   5.016 -0.1421 -0.1778  0.7225
 4505TIP3    H113521   3.285   0.508   4.995  0.1371 -3.1474  2.7195
 4505TIP3    H213522   3.189   0.550   5.106 -1.1006  0.7440  0.3906
 4506TIP3   OH213523   5.872   5.310   3.524 -0.1958 -0.5901  0.1535
 4506TIP3    H113524   5.912   5.230   3.558  0.8883 -0.7584 -1.4156
 4506TIP3    H213525   5.936   5.379   3.544 -0.3824 -0.3918  0.0676
 4507TIP3   OH213526   4.088   0.840   3.373 -0.0485 -0.2502  0.1388
 4507TIP3    H113527   4.051   0.752   3.385 -0.3046 -0.0790  0.6447
 4507TIP3    H213528   4.083   0.855   3.278 -1.8485 -0.0049  0.2307
 4508TIP3   OH213529   4.364   3.229   1.934 -0.0995  0.7314 -0.4273
 4508TIP3    H113530   4.306   3.203   1.862 -0.5818  1.5257 -0.3363
 4508TIP3    H213531   4.434   3.163   1.934 -1.8251 -1.2058  0.4853
 4509TIP3   OH213532   5.760   4.709   4.016 -0.3592 -0.7780 -0.0203
 4509TIP3    H113533   5.738   4.736   3.927  0.5418 -0.4278 -0.1501
 4509TIP3    H213534   5.678   4.718   4.065 -0.3328  1.3147 -0.2818
 4510TIP3   OH213535   4.001   4.845   0.891 -0.6774 -0.0255 -0.3787
 4510TIP3    H113536   3.983   4.928   0.847 -0.4096 -0.5862 -1.6065
 4510TIP3    H213537   3.992   4.779   0.821  1.4262 -0.8023  0.0229
 4511TIP3   OH213538   2.113   4.640   4.265 -0.4045  0.4029 -0.2629
 4511TIP3    H113539   2.164   4.713   4.301 -0.9409  0.2672  0.8128
 4511TIP3    H213540   2.024   4.657   4.295 -0.9474  0.4717 -1.8593
 4512TIP3   OH213541   5.088   4.303  -0.005 -0.8993  0.3550 -0.4723
 4512TIP3    H113542   5.092   4.270   0.085 -1.3404 -0.3054 -0.6888
 4512TIP3    H213543   4.994   4.319  -0.021 -0.6529  2.7062 -0.0354
 4513TIP3   OH213544   1.169   3.521   3.541  0.4218 -0.1184 -0.4426
 4513TIP3    H113545   1.127   3.497   3.623  0.6917  0.3187 -0.1740
 4513TIP3    H213546   1.145   3.450   3.480 -0.3827 -0.0740 -0.1940
 4514TIP3   OH213547   6.109   3.873   2.518  0.2142 -0.0714 -0.2846
 4514TIP3    H113548   6.082   3.923   2.442 -1.0909  1.1615  0.9171
 4514TIP3    H213549   6.076   3.785   2.503  0.3350  0.0495 -1.2973
 4515TIP3   OH213550   5.860   1.760   3.687  0.4942  0.7427  0.5304
 4515TIP3    H113551   5.805   1.690   3.722  0.1718  0.2875 -0.8471
 4515TIP3    H213552   5.809   1.840   3.701 -0.0958  0.4376  0.1373
 4516TIP3   OH213553   1.400   2.678   4.248  0.0901 -0.1169  0.3689
 4516TIP3    H113554   1.444   2.714   4.325 -1.6164 -0.1791  1.4242
 4516TIP3    H213555   1.416   2.742   4.179  3.0212 -0.8134  0.2511
 4517TIP3   OH213556   2.256   2.827   3.479  0.0347 -0.2715  0.4813
 4517TIP3    H113557   2.321   2.894   3.499  2.4096 -1.9660 -1.0716
 4517TIP3    H213558   2.240   2.784   3.564  0.0199  0.9077  1.0959
 4518TIP3   OH213559   3.535   0.223   0.120  0.2606  0.1494  0.6414
 4518TIP3    H113560   3.508   0.313   0.100  1.3370 -0.2430 -3.6068
 4518TIP3    H213561   3.627   0.230   0.146  0.0789  0.3556  1.2232
 4519TIP3   OH213562   4.489   3.522   4.863  0.3141 -0.0255 -0.6661
 4519TIP3    H113563   4.422   3.576   4.906  0.7044 -0.3513  0.3945
 4519TIP3    H213564   4.563   3.523   4.924  0.3693 -1.6818 -0.6497
 4520TIP3   OH213565   5.537   3.027   4.801  0.5139  0.0900 -0.1777
 4520TIP3    H113566   5.479   2.954   4.821  1.5125  0.0315  2.9862
 4520TIP3    H213567   5.624   2.987   4.795  0.7475  0.7007 -0.9421
 4521TIP3   OH213568   5.064   2.477   1.561 -0.7351  0.2632 -0.5515
 4521TIP3    H113569   4.995   2.430   1.608  0.4357  0.5229  1.5363
 4521TIP3    H213570   5.060   2.566   1.595  0.8809  0.1769 -0.0644
 4522TIP3   OH213571   2.346   3.470   3.493 -0.0102  0.3302  0.4365
 4522TIP3    H113572   2.289   3.426   3.557  0.4410  0.7320  1.1274
 4522TIP3    H213573   2.332   3.422   3.411  1.7117 -2.2497  1.5090
 4523TIP3   OH213574   3.428   5.548   5.046  0.5441 -0.6877  0.5347
 4523TIP3    H113575   3.510   5.500   5.056  1.0012  0.1370  0.8248
 4523TIP3    H213576   3.396   5.523   4.959  1.8905  0.1506 -0.2335
 4524TIP3   OH213577   3.832   3.596   3.931  0.2098 -0.1134  0.4329
 4524TIP3    H113578   3.769   3.583   3.861 -1.2581  0.5134  1.5787
 4524TIP3    H213579   3.902   3.648   3.892 -0.5919  0.2623 -0.5484
 4525TIP3   OH213580   0.866   0.169   3.589  0.0964 -0.1605 -0.7639
 4525TIP3    H113581   0.820   0.180   3.506  2.3360 -0.1162 -2.0938
 4525TIP3    H213582   0.911   0.252   3.604 -0.6261  0.0005  0.7739
 4526TIP3   OH213583   3.290   5.388   0.434 -0.6338  0.0429 -0.3227
 4526TIP3    H113584   3.309   5.305   0.390  1.1721  1.1467 -1.7818
 4526TIP3    H213585   3.343   5.387   0.513  0.8136  0.5018 -1.2471
 4527TIP3   OH213586   1.618   1.680   4.184  0.1701 -0.3646 -0.2159
 4527TIP3    H113587   1.682   1.743   4.215  0.8748 -1.2334  0.1467
 4527TIP3    H213588   1.534   1.725   4.192  0.5863  0.2821  0.6675
 4528TIP3   OH213589   3.991   0.548   2.817  0.4419  0.1869  0.3653
 4528TIP3    H113590   4.023   0.626   2.774  0.7746  0.3585  0.9098
 4528TIP3    H213591   4.054   0.532   2.888 -0.0831 -0.0807  0.7829
 4529TIP3   OH213592   1.446   2.424   2.018  0.0439 -0.6262 -0.9319
 4529TIP3    H113593   1.357   2.460   2.014  0.2530 -0.1965 -2.1963
 4529TIP3    H213594   1.449   2.360   1.947  0.6641 -0.8411 -0.7137
 4530TIP3   OH213595   5.722   0.981   0.442 -0.4236 -0.3266 -0.1079
 4530TIP3    H113596   5.693   0.931   0.518 -3.2461  0.4117 -0.6103
 4530TIP3    H213597   5.757   0.915   0.382 -0.7123 -1.2313  0.7033
 4531TIP3   OH213598   2.124   3.997   2.076 -0.2188  0.1066  0.1420
 4531TIP3    H113599   2.085   3.910   2.073 -1.8112  0.8187 -0.8655
 4531TIP3    H213600   2.204   3.989   2.024 -0.4751 -0.7057 -0.1414
 4532TIP3   OH213601   5.169   3.634   1.116  0.2871 -0.0085 -0.2365
 4532TIP3    H113602   5.220   3.661   1.192 -0.1217  1.5870 -0.5031
 4532TIP3    H213603   5.078   3.651   1.140  0.2462  2.2108 -1.6669
 4533TIP3   OH213604   2.704   2.505   1.750 -0.5522 -0.3104 -0.2289
 4533TIP3    H113605   2.717   2.414   1.724 -2.2302 -1.1810  1.6959
 4533TIP3    H213606   2.772   2.554   1.704  0.4484 -2.5483 -1.2274
 4534TIP3   OH213607   1.668   3.183   1.906 -0.9399 -0.1279 -0.6169
 4534TIP3    H113608   1.635   3.129   1.834  0.7902 -1.8085 -0.2389
 4534TIP3    H213609   1.600   3.250   1.919 -1.8431 -0.4748 -2.9978
 4535TIP3   OH213610   5.650   1.797   0.786 -0.1748 -0.4522  0.5058
 4535TIP3    H113611   5.707   1.813   0.861 -0.2400 -1.0612  0.6911
 4535TIP3    H213612   5.684   1.716   0.748  0.0867  0.0354 -0.3407
 4536TIP3   OH213613   2.755   3.262   0.367  0.2289  0.2003  0.9709
 4536TIP3    H113614   2.832   3.291   0.319 -1.3294 -1.3733 -2.8146
 4536TIP3    H213615   2.693   3.334   0.358 -0.8420 -0.9215 -1.5442
 4537TIP3   OH213616   4.361   4.166   1.431 -0.3097  0.5235  0.2920
 4537TIP3    H113617   4.453   4.141   1.434 -0.3417  0.2819 -0.4257
 4537TIP3    H213618   4.315   4.095   1.476 -0.1289  0.7751  0.8884
 4538TIP3   OH213619   0.451   0.540   2.506 -0.1163  0.4683  0.1356
 4538TIP3    H113620   0.362   0.573   2.493 -0.5472 -1.2306 -1.6675
 4538TIP3    H213621   0.446   0.493   2.590 -1.1839 -0.3441 -0.3575
 4539TIP3   OH213622   2.548   4.651   4.849 -0.2808 -0.1287 -0.2091
 4539TIP3    H113623   2.590   4.678   4.931  0.4848  0.7161 -0.8506
 4539TIP3    H213624   2.484   4.586   4.875  1.2596 -1.2957  0.8454
 4540TIP3   OH213625   2.836   4.953   1.079  0.1507  0.1709  0.7259
 4540TIP3    H113626   2.787   4.894   1.022 -1.1162  2.0980 -0.3081
 4540TIP3    H213627   2.785   4.956   1.160  0.7367 -0.8411  1.1506
 4541TIP3   OH213628   5.640   4.121   0.593  0.9517 -0.4070  0.7356
 4541TIP3    H113629   5.714   4.061   0.600  1.6424  0.4238  0.7458
 4541TIP3    H213630   5.618   4.143   0.684  0.0848 -1.3565  0.7732
 4542TIP3   OH213631   4.214   3.758   0.757  0.3849  0.0084 -0.2666
 4542TIP3    H113632   4.198   3.678   0.709 -0.3837  0.2619 -0.4405
 4542TIP3    H213633   4.187   3.739   0.847  1.9296 -0.5024  0.1171
 4543TIP3   OH213634   0.032   2.602   2.000  0.2031 -0.2210 -0.1656
 4543TIP3    H113635  -0.032   2.644   1.944 -0.0076  0.0747  0.2881
 4543TIP3    H213636   0.083   2.674   2.037 -0.0237 -0.3701  0.4520
 4544TIP3   OH213637   5.108   3.635   4.299  0.6024 -0.6383  0.2794
 4544TIP3    H113638   5.014   3.651   4.306  0.7183  0.8204 -0.9147
 4544TIP3    H213639   5.144   3.670   4.380  0.1316 -1.2661  0.7760
 4545TIP3   OH213640   6.213   4.445   3.512  0.4696 -1.0403  0.5666
 4545TIP3    H113641   6.303   4.441   3.545  1.1718  2.0799 -0.6146
 4545TIP3    H213642   6.197   4.539   3.499 -2.9384 -1.5074  0.5937
 4546TIP3   OH213643   0.757   1.225   4.049 -0.1356 -0.1998  0.3471
 4546TIP3    H113644   0.687   1.225   3.984  0.5693 -1.8710 -0.4611
 4546TIP3    H213645   0.711   1.227   4.133 -1.0793  0.6796 -0.1603
 4547TIP3   OH213646   5.632   4.004   1.549 -0.4130  0.4799 -0.5801
 4547TIP3    H113647   5.573   3.975   1.618  0.5425  0.4290  0.2512
 4547TIP3    H213648   5.621   4.099   1.544  1.0364  0.7912  1.1674
 4548TIP3   OH213649   1.270   3.008   4.041  0.0768  0.3023 -0.0617
 4548TIP3    H113650   1.243   3.099   4.028  0.3265  0.3222 -0.4479
 4548TIP3    H213651   1.205   2.956   3.994  0.1178  0.2953 -0.1100
 4549TIP3   OH213652   4.054   0.608   0.907  0.3879  0.5421 -0.1959
 4549TIP3    H113653   4.104   0.544   0.957  0.6536  1.5706  0.9074
 4549TIP3    H213654   3.974   0.562   0.881 -0.2016  0.2292  1.9896
 4550TIP3   OH213655   0.076   0.599   0.802 -0.1616 -0.2283  0.3484
 4550TIP3    H113656   0.034   0.522   0.839  1.3674 -1.4164 -0.2669
 4550TIP3    H213657   0.022   0.673   0.831 -0.5194 -1.3198  2.6950
 4551TIP3   OH213658   1.756   4.423   5.074  0.3206  0.0997 -0.1271
 4551TIP3    H113659   1.778   4.511   5.044  1.4567  0.3326  1.2443
 4551TIP3    H213660   1.841   4.379   5.084 -0.0151 -0.1822  1.9084
 4552TIP3   OH213661   5.407   2.533   5.121  0.1175 -0.0954  0.2520
 4552TIP3    H113662   5.317   2.507   5.137  0.1147  0.5107  1.2343
 4552TIP3    H213663   5.453   2.514   5.203  1.0376 -1.0006 -0.4335
 4553TIP3   OH213664   3.120   2.129   0.175  0.7759  0.5467 -0.0334
 4553TIP3    H113665   3.166   2.060   0.223 -2.4426 -1.0024  1.1306
 4553TIP3    H213666   3.104   2.091   0.089  1.2094  0.8831 -0.2652
 4554TIP3   OH213667   0.914   5.868   1.764 -0.0257  0.5901  0.1006
 4554TIP3    H113668   0.877   5.903   1.846  1.2666  1.7423  0.2113
 4554TIP3    H213669   0.985   5.811   1.793  0.1222  0.6152 -0.2193
 4555TIP3   OH213670   5.060   0.227   0.642  0.5013  0.3269 -0.1638
 4555TIP3    H113671   5.009   0.183   0.710 -1.8070  1.1540 -1.2274
 4555TIP3    H213672   5.128   0.275   0.689 -0.8878  0.7111  1.5622
 4556TIP3   OH213673   2.941   2.685   4.799  0.1296 -0.2980 -0.0496
 4556TIP3    H113674   2.954   2.768   4.846 -0.7860 -0.9523  1.4102
 4556TIP3    H213675   2.989   2.621   4.852  0.8906 -0.7172 -1.2129
 4557TIP3   OH213676   0.838   4.030   0.777 -0.1306  0.1342  0.2733
 4557TIP3    H113677   0.816   4.122   0.759  2.0873  0.9432  1.1906
 4557TIP3    H213678   0.806   3.982   0.701  1.2587  2.1253 -1.7369
 4558TIP3   OH213679   3.168   0.949   4.121 -0.4222  0.3888 -0.1271
 4558TIP3    H113680   3.178   0.946   4.216 -1.8886  0.0336  0.0450
 4558TIP3    H213681   3.170   0.857   4.093 -0.6990  0.4460 -0.3440
 4559TIP3   OH213682   1.406   5.139   4.853  0.5208  0.2834 -0.4476
 4559TIP3    H113683   1.487   5.116   4.899  0.2166  0.9840  0.4639
 4559TIP3    H213684   1.353   5.060   4.858  0.5615  0.2967  0.2678
 4560TIP3   OH213685   3.046   1.422   1.008  0.3922  0.1599  0.4059
 4560TIP3    H113686   2.969   1.365   1.004  0.6595 -0.3009  1.4241
 4560TIP3    H213687   3.067   1.442   0.917 -0.0795 -0.8564  0.0663
 4561TIP3   OH213688   2.700   5.275   1.524  0.4187 -0.3260  0.2589
 4561TIP3    H113689   2.760   5.245   1.593  0.8369  0.5098  0.2618
 4561TIP3    H213690   2.731   5.362   1.501 -0.8952  0.1970  0.3655
 4562TIP3   OH213691   3.476   4.560   4.503  0.0593 -0.1827 -0.2899
 4562TIP3    H113692   3.484   4.653   4.521  0.1241  0.0399 -1.4384
 4562TIP3    H213693   3.430   4.525   4.579  0.5389  0.6791  0.4170
 4563TIP3   OH213694   3.100   0.147   1.955 -0.2604 -0.1505  0.1180
 4563TIP3    H113695   3.152   0.131   1.876 -1.2309  0.2936 -0.6394
 4563TIP3    H213696   3.038   0.074   1.957 -2.2993  1.4056 -1.3230
 4564TIP3   OH213697   3.284   2.329   4.321 -0.1358 -0.8933  0.1232
 4564TIP3    H113698   3.276   2.311   4.415 -0.8208 -1.4027 -0.0287
 4564TIP3    H213699   3.339   2.257   4.288  0.6951 -0.3322  0.2423
 4565TIP3   OH213700   4.430   0.960   1.307 -1.0715  0.0570  0.1705
 4565TIP3    H113701   4.478   0.958   1.224  1.2479 -1.3953  1.4431
 4565TIP3    H213702   4.458   1.042   1.349  0.3964 -0.8087  0.9294
 4566TIP3   OH213703   2.683   5.443   0.406  0.2343 -0.1047  0.5493
 4566TIP3    H113704   2.767   5.468   0.444  0.9904 -1.8190  0.1042
 4566TIP3    H213705   2.694   5.351   0.382 -0.8906  0.3466 -1.9506
 4567TIP3   OH213706   3.708   3.400   2.230  0.2153  0.2200 -0.2326
 4567TIP3    H113707   3.689   3.492   2.250  0.9168  0.8156 -2.1008
 4567TIP3    H213708   3.664   3.384   2.147  0.2291 -1.1065  0.0015
 4568TIP3   OH213709   1.817   4.377   3.621  0.0143 -0.4404 -0.7419
 4568TIP3    H113710   1.897   4.430   3.624  0.5268 -1.2342  0.1957
 4568TIP3    H213711   1.832   4.308   3.686 -0.9505 -1.2917 -1.4016
 4569TIP3   OH213712   3.136   0.648   0.050  0.9121  0.0879 -0.4946
 4569TIP3    H113713   3.062   0.673   0.105  0.8703  1.0575 -0.9541
 4569TIP3    H213714   3.126   0.702  -0.029  1.5881 -0.4519 -0.9661
 4570TIP3   OH213715   5.153   0.212   4.157 -0.4586  0.4340  0.1806
 4570TIP3    H113716   5.198   0.127   4.158  2.4300  1.8549 -0.2017
 4570TIP3    H213717   5.190   0.258   4.082 -1.5869  2.2315  0.6684
 4571TIP3   OH213718   5.620   0.771   1.785 -0.1413 -0.2273  0.8740
 4571TIP3    H113719   5.536   0.727   1.769 -0.1224 -0.1878  0.6723
 4571TIP3    H213720   5.658   0.784   1.698 -0.3312  0.5496  0.8925
 4572TIP3   OH213721   3.142   5.689   1.186 -0.4003  0.1937 -0.6030
 4572TIP3    H113722   3.225   5.736   1.180 -1.1293  1.3424 -2.5013
 4572TIP3    H213723   3.076   5.758   1.188 -1.3845 -0.7264 -0.3963
 4573TIP3   OH213724   1.546   5.651   5.160  1.0154 -0.0710 -0.1309
 4573TIP3    H113725   1.507   5.565   5.180 -0.7978  0.6844 -0.2083
 4573TIP3    H213726   1.625   5.631   5.111  0.5586 -1.7026 -0.2595
 4574TIP3   OH213727   0.351   4.247   5.024  0.3813  0.0976 -0.1542
 4574TIP3    H113728   0.365   4.318   4.961  1.5627  0.9474  1.0136
 4574TIP3    H213729   0.278   4.278   5.078  0.4775  0.1345 -0.0453
 4575TIP3   OH213730   1.412   1.474   4.735  0.0127 -0.1295 -0.1352
 4575TIP3    H113731   1.398   1.503   4.645 -0.8393 -0.7984 -0.2315
 4575TIP3    H213732   1.504   1.452   4.740 -0.3116 -1.9545 -1.4076
 4576TIP3   OH213733   4.737   2.281   0.373  0.3303 -0.2244 -0.7009
 4576TIP3    H113734   4.789   2.233   0.438  0.7259  1.0342 -0.0611
 4576TIP3    H213735   4.708   2.214   0.311  0.7783 -1.2995  0.2246
 4577TIP3   OH213736   3.264   0.503   0.299 -0.5829  0.7222  0.6920
 4577TIP3    H113737   3.205   0.578   0.304  0.3079  1.6349 -1.3404
 4577TIP3    H213738   3.213   0.437   0.252 -0.4397  1.0672  0.0359
 4578TIP3   OH213739   4.778   1.031   1.610 -0.5665  0.0129 -0.4146
 4578TIP3    H113740   4.837   0.963   1.640 -1.1812 -0.7127 -0.8216
 4578TIP3    H213741   4.697   1.016   1.657 -0.3191  1.2689  0.4690
 4579TIP3   OH213742   2.627   1.883   4.920 -0.0930  0.4091  0.0329
 4579TIP3    H113743   2.710   1.838   4.904 -1.5202 -1.6650 -2.1885
 4579TIP3    H213744   2.568   1.814   4.949 -1.1545  1.8130  1.3687
 4580TIP3   OH213745   3.505   1.406   0.792 -0.2163  0.2021 -0.5102
 4580TIP3    H113746   3.418   1.375   0.816 -0.8544  1.3327 -1.2868
 4580TIP3    H213747   3.529   1.467   0.863 -0.0987 -0.0314 -0.3487
 4581TIP3   OH213748   0.684   1.976   1.938 -0.5810 -0.0374 -0.2122
 4581TIP3    H113749   0.623   1.927   1.992  0.8562 -1.3872  0.2701
 4581TIP3    H213750   0.732   2.031   2.001 -1.3464  1.0896 -0.5954
 4582TIP3   OH213751   5.309   0.569   2.313  0.1187  0.1258 -0.2246
 4582TIP3    H113752   5.223   0.554   2.276  0.2591 -0.8487 -0.1824
 4582TIP3    H213753   5.292   0.589   2.406  0.0407 -2.2078  0.3098
 4583TIP3   OH213754   1.021   5.050   2.072 -0.3353  0.5083  0.0361
 4583TIP3    H113755   1.040   5.087   2.158 -0.3402 -1.6267  1.0132
 4583TIP3    H213756   1.077   4.972   2.066 -1.2067 -0.0613 -1.3945
 4584TIP3   OH213757   4.657   1.199   0.901  0.7944 -0.2705 -0.1360
 4584TIP3    H113758   4.587   1.255   0.933 -1.7492 -1.3950 -3.2390
 4584TIP3    H213759   4.652   1.206   0.805  1.6393 -4.1270 -0.6382
 4585TIP3   OH213760   0.611   3.658   0.682 -0.0575  0.6974 -0.3717
 4585TIP3    H113761   0.706   3.658   0.669  0.0850 -1.6658  0.3036
 4585TIP3    H213762   0.587   3.566   0.689 -2.2793  1.2640  0.4338
 4586TIP3   OH213763   3.481   2.792   2.291 -0.0274 -0.3519  0.5429
 4586TIP3    H113764   3.494   2.808   2.198  0.7013 -2.4103  0.2259
 4586TIP3    H213765   3.388   2.774   2.300  0.1375 -1.6910 -0.1121
 4587TIP3   OH213766   2.183   5.054   2.735 -0.6701  0.2146  0.0983
 4587TIP3    H113767   2.171   4.980   2.675  0.4899 -1.6185  1.9930
 4587TIP3    H213768   2.095   5.082   2.756 -1.1681 -1.1871 -0.0246
 4588TIP3   OH213769   1.831   1.973   0.197  0.0381 -0.1507  0.5332
 4588TIP3    H113770   1.850   1.900   0.138  0.3484  0.1694  0.2433
 4588TIP3    H213771   1.906   1.976   0.256  0.9725  1.1594 -0.6587
 4589TIP3   OH213772   1.848   1.708   3.742 -0.1924  0.8875 -0.6209
 4589TIP3    H113773   1.851   1.685   3.835  1.1936  2.2413 -0.2895
 4589TIP3    H213774   1.755   1.701   3.719 -0.7347  1.5931  1.1552
 4590TIP3   OH213775   1.642   4.962   3.389 -0.1591  0.2608 -0.0815
 4590TIP3    H113776   1.712   4.898   3.402 -0.5955 -0.1724  0.1637
 4590TIP3    H213777   1.687   5.045   3.373  0.4218  0.2174  1.1927
 4591TIP3   OH213778   0.863   1.964   4.186  0.0430 -0.3786  0.6328
 4591TIP3    H113779   0.899   1.880   4.215 -1.3567 -1.4657 -0.6121
 4591TIP3    H213780   0.769   1.956   4.200 -0.2412  0.5258 -0.5520
 4592TIP3   OH213781   0.351   5.586   4.990  0.2015  0.3769 -0.0785
 4592TIP3    H113782   0.344   5.681   4.983  1.8597  0.6981  1.9492
 4592TIP3    H213783   0.280   5.561   5.049  0.7210  0.5690  0.6393
 4593TIP3   OH213784   1.909   4.945   2.263 -0.3221 -0.3247 -0.1225
 4593TIP3    H113785   1.998   4.972   2.288 -0.4819  0.8360 -0.7564
 4593TIP3    H213786   1.923   4.869   2.205  0.3264  0.4817 -1.0608
 4594TIP3   OH213787   4.627   2.663   0.856  0.5767  0.5154 -0.4831
 4594TIP3    H113788   4.686   2.656   0.781  0.6391 -0.1999 -0.3766
 4594TIP3    H213789   4.667   2.730   0.911 -0.3940  2.3264 -1.8968
 4595TIP3   OH213790   1.951   2.936   4.185 -0.3511 -0.6398 -0.4061
 4595TIP3    H113791   1.985   2.867   4.128  0.8907 -0.0028 -0.4843
 4595TIP3    H213792   1.857   2.919   4.190 -0.1577 -1.9939 -0.8666
 4596TIP3   OH213793   3.488   5.627   1.675  0.0784 -0.1564  0.3667
 4596TIP3    H113794   3.489   5.657   1.584 -1.2657 -1.2990 -0.0757
 4596TIP3    H213795   3.565   5.667   1.715 -0.3269  1.9069 -0.7652
 4597TIP3   OH213796   1.689   1.420   0.857 -0.0032  0.1641 -0.4772
 4597TIP3    H113797   1.707   1.397   0.766  0.2623  3.0805 -1.2441
 4597TIP3    H213798   1.595   1.404   0.868 -0.0072 -0.3616 -1.1941
 4598TIP3   OH213799   2.579   5.434   0.730 -0.1655  0.0335 -0.0501
 4598TIP3    H113800   2.485   5.448   0.725 -0.0658  1.1816  0.9364
 4598TIP3    H213801   2.594   5.398   0.817  0.2721 -0.6318 -0.3836
 4599TIP3   OH213802   2.835   4.912   0.115 -0.0220  0.3909 -0.2851
 4599TIP3    H113803   2.773   4.985   0.110  0.4397  0.7925 -0.2156
 4599TIP3    H213804   2.916   4.946   0.078 -0.1591 -0.4947 -1.4619
 4600TIP3   OH213805   4.186   2.799   2.412 -0.0852 -0.0106  0.4221
 4600TIP3    H113806   4.216   2.722   2.363  0.6268 -0.2190  1.1540
 4600TIP3    H213807   4.235   2.872   2.374  1.7406 -0.4001  1.8528
 4601TIP3   OH213808   1.618   0.759   4.862 -0.4314  0.0856  0.2361
 4601TIP3    H113809   1.561   0.711   4.922 -0.6416  0.9505  0.7376
 4601TIP3    H213810   1.623   0.703   4.784  0.0324 -1.1574  1.1329
 4602TIP3   OH213811   2.443   1.894   1.500 -0.1577 -0.4485 -0.1651
 4602TIP3    H113812   2.404   1.856   1.579  0.9566  0.7852  1.0399
 4602TIP3    H213813   2.436   1.989   1.514  2.7043 -0.1615 -0.1294
 4603TIP3   OH213814   6.338   2.376   0.431 -0.4438  0.0593  0.2018
 4603TIP3    H113815   6.254   2.402   0.469 -1.4732 -1.6183 -0.8072
 4603TIP3    H213816   6.326   2.385   0.336  0.3348 -0.7494  0.0129
 4604TIP3   OH213817   3.232   4.818   4.735 -0.1886  0.2631 -0.2627
 4604TIP3    H113818   3.185   4.796   4.655 -1.0226 -0.1828  0.3342
 4604TIP3    H213819   3.195   4.760   4.802  0.5452  0.5709  0.4342
 4605TIP3   OH213820   5.672   1.384   2.030  0.2034 -0.1782  0.0294
 4605TIP3    H113821   5.640   1.300   2.060  0.5116 -0.7624 -1.2164
 4605TIP3    H213822   5.626   1.448   2.084  1.2475 -1.1579  2.2052
 4606TIP3   OH213823   3.908   3.300   3.617  0.9455  0.2652 -0.4555
 4606TIP3    H113824   3.979   3.279   3.556  0.9345 -1.4735  0.0838
 4606TIP3    H213825   3.859   3.219   3.625 -1.5602  1.6010 -1.3347
 4607TIP3   OH213826   3.971   3.127   2.431  0.2464  0.3603  0.4384
 4607TIP3    H113827   4.050   3.154   2.479 -0.3537 -0.5264  2.0173
 4607TIP3    H213828   3.959   3.194   2.364  1.7801  1.0441  0.8038
 4608TIP3   OH213829   1.814   1.682   0.851 -0.7155 -0.0606  0.0910
 4608TIP3    H113830   1.769   1.611   0.898 -0.3464 -1.3921 -1.4777
 4608TIP3    H213831   1.823   1.650   0.762  1.1455  1.1845 -0.2369
 4609TIP3   OH213832   1.018   5.585   1.318  0.0052 -0.1529  1.0159
 4609TIP3    H113833   1.007   5.594   1.412 -0.1024 -1.0535  1.0959
 4609TIP3    H213834   0.953   5.644   1.280 -0.5020 -0.3965  1.4975
 4610TIP3   OH213835   0.541   1.781   0.136 -0.0294  0.0636  0.1345
 4610TIP3    H113836   0.599   1.839   0.184  0.8969 -0.2179 -0.6072
 4610TIP3    H213837   0.473   1.757   0.199  0.6214  0.4440  1.0043
 4611TIP3   OH213838   2.171   2.670   2.209 -0.1992 -0.1404  0.2561
 4611TIP3    H113839   2.089   2.676   2.258 -0.3365 -1.6362  0.2619
 4611TIP3    H213840   2.169   2.745   2.150 -1.7408 -0.3235  0.0253
 4612TIP3   OH213841   3.850   4.883   4.875  0.4571  0.1955 -0.0773
 4612TIP3    H113842   3.900   4.957   4.842  0.1273  0.6964  0.5297
 4612TIP3    H213843   3.806   4.847   4.797 -0.8833  1.7900 -0.1299
 4613TIP3   OH213844   3.504   5.094   0.044 -0.2376 -0.2707  0.0128
 4613TIP3    H113845   3.492   5.100  -0.051  0.3656  1.7865  0.0208
 4613TIP3    H213846   3.548   5.010   0.058  1.3326  0.2018 -1.7217
 4614TIP3   OH213847   4.983   4.367   3.784 -0.0206 -0.1102 -0.0788
 4614TIP3    H113848   4.892   4.394   3.775 -0.1857 -0.1586  1.2927
 4614TIP3    H213849   4.979   4.274   3.805  0.3680 -0.1765 -0.2758
 4615TIP3   OH213850   0.947   1.677   1.280 -0.2734 -0.0306 -0.4175
 4615TIP3    H113851   0.882   1.640   1.339  0.3031  0.2396  0.4098
 4615TIP3    H213852   0.905   1.675   1.194 -1.4804  0.3685  0.1257
 4616TIP3   OH213853   5.780   4.938   1.091 -0.2032  0.3154 -0.0466
 4616TIP3    H113854   5.702   4.895   1.126  0.6444 -0.5060  0.8830
 4616TIP3    H213855   5.795   4.895   1.007  1.2220 -1.9965  1.3231
 4617TIP3   OH213856   2.441   0.549   0.590 -0.4938 -0.3501  0.2028
 4617TIP3    H113857   2.442   0.544   0.686 -0.2844 -1.9818  0.1500
 4617TIP3    H213858   2.466   0.461   0.562  0.4723  0.3828 -1.3585
 4618TIP3   OH213859   1.591   4.157   0.337  0.3110 -0.7917 -0.1074
 4618TIP3    H113860   1.655   4.090   0.313  2.1503  1.3450 -1.5471
 4618TIP3    H213861   1.634   4.208   0.406 -0.4260 -0.1619 -0.0946
 4619TIP3   OH213862   2.284   3.763   2.891 -0.1029 -0.0568 -0.0387
 4619TIP3    H113863   2.248   3.693   2.836  0.6089 -2.4090  2.3185
 4619TIP3    H213864   2.314   3.719   2.970  2.6437  2.5753  0.5875
 4620TIP3   OH213865   0.766   2.739   1.205 -0.6460  0.0072 -0.8029
 4620TIP3    H113866   0.709   2.663   1.207 -0.7965  0.1320 -0.1073
 4620TIP3    H213867   0.846   2.711   1.249  0.5839 -0.7246 -3.2727
 4621TIP3   OH213868   4.581   4.121   1.768  0.4714  0.1432  0.2169
 4621TIP3    H113869   4.580   4.142   1.862 -0.3774  0.6478  0.1060
 4621TIP3    H213870   4.545   4.199   1.726 -0.5114 -0.6225 -0.4144
 4622TIP3   OH213871   6.289   4.481   0.414  0.1299 -0.2327  0.5549
 4622TIP3    H113872   6.352   4.525   0.471 -0.4418  0.4218  0.6984
 4622TIP3    H213873   6.343   4.432   0.353  0.8646  1.7298 -0.4834
 4623TIP3   OH213874   5.211   1.143   0.686  0.2381  0.3452 -0.0055
 4623TIP3    H113875   5.262   1.114   0.762 -0.8477  0.9442  0.9907
 4623TIP3    H213876   5.211   1.238   0.692 -0.4504  0.3749 -0.3412
 4624TIP3   OH213877   0.156   2.111   0.928  0.0422 -0.4903 -0.3697
 4624TIP3    H113878   0.229   2.157   0.885  0.3340 -1.6201 -1.1300
 4624TIP3    H213879   0.174   2.119   1.022  1.2627 -0.9094 -0.5516
 4625TIP3   OH213880   2.976   4.021   4.294  0.3203  0.1183 -0.4440
 4625TIP3    H113881   2.903   4.079   4.312  0.7424  0.4939  0.1129
 4625TIP3    H213882   2.953   3.976   4.213 -0.6587  0.0119 -0.1130
 4626TIP3   OH213883   4.521   5.099   5.133  0.3671  0.2118  0.1566
 4626TIP3    H113884   4.529   5.121   5.041 -0.3509  1.3361  0.3446
 4626TIP3    H213885   4.446   5.151   5.164 -0.1305 -1.0151  1.1020
 4627TIP3   OH213886   6.177   5.738   4.024 -0.0360  0.7034  0.2961
 4627TIP3    H113887   6.230   5.676   4.073  0.8532  1.0885 -0.1673
 4627TIP3    H213888   6.101   5.754   4.081  0.1032 -0.1894  0.7625
 4628TIP3   OH213889   3.272   0.613   1.026  0.4155 -0.1833 -0.2555
 4628TIP3    H113890   3.222   0.552   0.972 -0.0943  0.0226 -0.0220
 4628TIP3    H213891   3.206   0.657   1.079  0.4538  2.3966 -2.1678
 4629TIP3   OH213892   1.015   1.107   0.554  0.2703  0.0253  0.1244
 4629TIP3    H113893   0.954   1.034   0.546  0.1344 -0.0488  1.6668
 4629TIP3    H213894   0.986   1.169   0.487 -1.5006 -0.0199  0.7839
 4630TIP3   OH213895   3.849   2.577   3.401 -0.1803 -0.0750  0.5572
 4630TIP3    H113896   3.931   2.597   3.355  1.2398 -1.0154  2.5370
 4630TIP3    H213897   3.807   2.662   3.413  1.5383  0.7303  1.3124
 4631TIP3   OH213898   6.030   0.469   2.189 -0.4077  0.5798  0.3572
 4631TIP3    H113899   6.085   0.518   2.250  1.5155 -0.0119 -0.8025
 4631TIP3    H213900   6.053   0.505   2.103  0.3084 -1.6068 -0.4189
 4632TIP3   OH213901   6.186   1.084   0.025  0.0117  0.1336  0.5862
 4632TIP3    H113902   6.163   1.156   0.084 -0.8176  1.2105 -0.9680
 4632TIP3    H213903   6.232   1.126  -0.048  0.1905 -1.0112  0.0057
 4633TIP3   OH213904   2.942   4.798   2.576 -0.4567  0.4523  0.8660
 4633TIP3    H113905   2.977   4.863   2.637 -0.8691 -0.6186  2.2966
 4633TIP3    H213906   2.856   4.833   2.551 -0.7431  0.4142  1.7490
 4634TIP3   OH213907   4.241   3.472   1.931  0.1321  0.3591 -0.6963
 4634TIP3    H113908   4.280   3.510   2.010  1.6655  0.6074 -1.5227
 4634TIP3    H213909   4.250   3.378   1.942  0.5812  0.4017 -0.6832
 4635TIP3   OH213910   1.626   4.799   5.201 -0.4865 -0.1964  0.0990
 4635TIP3    H113911   1.661   4.885   5.222  1.3550 -1.0021  0.4925
 4635TIP3    H213912   1.678   4.769   5.126 -2.3494 -0.2358 -1.2615
 4636TIP3   OH213913   6.232   5.461   0.569  0.2194 -0.9617  0.4673
 4636TIP3    H113914   6.225   5.417   0.484  1.5569  0.1392 -0.2603
 4636TIP3    H213915   6.215   5.392   0.633  0.1896 -2.0536 -0.6803
 4637TIP3   OH213916   6.148   4.969   3.034  0.0503  0.1326 -0.7512
 4637TIP3    H113917   6.229   5.020   3.035  0.2398 -0.1247 -1.9916
 4637TIP3    H213918   6.175   4.882   3.003 -0.6716 -0.0179 -0.9691
 4638TIP3   OH213919   1.686   1.302   3.385 -0.5244  0.1079  0.5163
 4638TIP3    H113920   1.646   1.328   3.467  1.0543  1.0847  1.0200
 4638TIP3    H213921   1.690   1.382   3.333  2.7391  0.6527  1.3767
 4639TIP3   OH213922   4.046   0.746   0.492 -0.5460 -0.0771 -0.1095
 4639TIP3    H113923   4.054   0.768   0.400 -2.7508  1.2511 -0.0662
 4639TIP3    H213924   4.132   0.712   0.517  0.3502  0.3442 -2.4107
 4640TIP3   OH213925   3.607   2.451   2.017 -0.3060 -0.3934  0.2886
 4640TIP3    H113926   3.679   2.388   2.012 -1.5373 -2.0507  1.9443
 4640TIP3    H213927   3.626   2.504   2.094 -0.5354 -0.4041  0.3533
 4641TIP3   OH213928   1.519   3.495   0.629 -0.8772 -0.4204 -0.9611
 4641TIP3    H113929   1.553   3.581   0.604  1.0277 -1.2803 -1.5562
 4641TIP3    H213930   1.458   3.473   0.559 -0.8758  0.1606 -1.1543
 4642TIP3   OH213931   1.283   3.992   3.339 -0.1667  0.0788  0.2915
 4642TIP3    H113932   1.221   3.963   3.272  0.0012 -2.7434  1.2310
 4642TIP3    H213933   1.322   4.071   3.303 -1.0608 -0.5739 -2.3245
 4643TIP3   OH213934   2.659   0.787   3.634  0.2208 -0.4929 -0.0505
 4643TIP3    H113935   2.666   0.693   3.649 -0.9547 -0.3639  1.5709
 4643TIP3    H213936   2.567   0.807   3.650  0.5034  0.9810 -0.1186
 4644TIP3   OH213937   0.810   3.665   5.035  0.2140  0.4285 -0.1252
 4644TIP3    H113938   0.868   3.740   5.048 -0.6562  0.9798  0.6784
 4644TIP3    H213939   0.729   3.690   5.078 -0.1723 -0.8871 -0.0648
 4645TIP3   OH213940   0.884   4.450   3.611  0.3552 -0.1735 -0.3042
 4645TIP3    H113941   0.956   4.510   3.592  0.1572  0.1888  0.0931
 4645TIP3    H213942   0.894   4.429   3.704 -0.0376 -0.1413 -0.2522
 4646TIP3   OH213943   1.629   5.958   0.518  0.0953 -0.0748 -0.0361
 4646TIP3    H113944   1.691   5.888   0.494  1.5797  1.5393 -1.1438
 4646TIP3    H213945   1.576   5.970   0.439 -0.4291 -0.1847  0.2917
 4647TIP3   OH213946   1.605   0.094   2.474  0.3571 -0.2364  0.9016
 4647TIP3    H113947   1.518   0.132   2.461  0.4379 -0.4574 -0.4326
 4647TIP3    H213948   1.618   0.036   2.399  1.5244 -0.4692  1.2513
 4648TIP3   OH213949   0.987   4.383   2.803  0.0679  0.2282  0.2983
 4648TIP3    H113950   0.938   4.375   2.884 -0.5423 -1.4129 -0.1939
 4648TIP3    H213951   0.974   4.474   2.776 -2.3333 -0.0030  0.4335
 4649TIP3   OH213952   0.244   0.692   1.438  0.4171  0.2412  0.0637
 4649TIP3    H113953   0.275   0.780   1.460 -1.1579  0.6260  1.0001
 4649TIP3    H213954   0.227   0.652   1.524  0.6328 -0.7809 -0.3686
 4650TIP3   OH213955   4.146   1.479   5.004 -0.0951 -0.8233 -0.0855
 4650TIP3    H113956   4.163   1.518   4.919 -2.4216 -0.0523 -0.2623
 4650TIP3    H213957   4.231   1.449   5.035  1.0489  0.4045 -1.9236
 4651TIP3   OH213958   2.964   4.935   5.097 -0.0861 -0.1906 -0.2965
 4651TIP3    H113959   3.043   4.976   5.062  0.0819  0.5002  0.8457
 4651TIP3    H213960   2.970   4.843   5.069  2.0737 -0.6103  1.2868
 4652TIP3   OH213961   5.731   0.197   4.012  0.5582  0.3825 -0.0892
 4652TIP3    H113962   5.678   0.268   3.975 -0.5624 -0.4394 -0.1133
 4652TIP3    H213963   5.756   0.229   4.098 -2.5714 -0.3216  1.2458
 4653TIP3   OH213964   1.128   2.690   2.347  0.0592 -0.1401 -0.2329
 4653TIP3    H113965   1.089   2.629   2.410 -0.2107 -1.0283 -1.2207
 4653TIP3    H213966   1.201   2.730   2.394 -1.1989  0.5340  1.2039
 4654TIP3   OH213967   4.518   2.989   0.302 -0.4830 -0.0956  0.1291
 4654TIP3    H113968   4.613   2.984   0.289 -0.4420 -0.2037  0.4598
 4654TIP3    H213969   4.484   2.911   0.257 -0.4081 -0.0986  0.0773
 4655TIP3   OH213970   4.287   3.971   2.541 -0.6582  0.0502  0.2881
 4655TIP3    H113971   4.213   4.031   2.544 -0.1936  0.6124  1.3193
 4655TIP3    H213972   4.331   3.984   2.626  0.0655 -0.9618  0.0857
 4656TIP3   OH213973   3.062   0.560   2.150 -0.0842  0.3307  0.0093
 4656TIP3    H113974   2.997   0.586   2.084  0.4678 -0.0716 -0.7043
 4656TIP3    H213975   3.095   0.476   2.119  0.5208  0.3629  0.5567
 4657TIP3   OH213976   5.985   3.855   1.385  0.3306  0.1170  0.0383
 4657TIP3    H113977   6.032   3.835   1.465  0.2079 -0.0049  0.0818
 4657TIP3    H213978   5.892   3.846   1.409  0.2951  0.0391 -0.1256
 4658TIP3   OH213979   2.030   0.404   2.544 -0.4910 -0.2758  0.5332
 4658TIP3    H113980   1.973   0.456   2.489 -0.6277 -2.5416 -1.6320
 4658TIP3    H213981   2.116   0.446   2.536 -0.9031  0.4978  0.0817
 4659TIP3   OH213982   3.578   5.003   2.736 -0.0913 -0.2925 -0.1233
 4659TIP3    H113983   3.542   4.964   2.656  1.3846 -1.5867 -0.2076
 4659TIP3    H213984   3.577   4.931   2.799  3.1012 -0.7164 -0.4067
 4660TIP3   OH213985   5.914   3.975   0.597 -0.3197 -0.2377  0.1995
 4660TIP3    H113986   5.927   3.928   0.515 -0.2490  1.3270 -0.7275
 4660TIP3    H213987   6.003   3.991   0.630 -0.3074  0.2596 -0.0804
 4661TIP3   OH213988   2.310   2.019   4.014  0.0649 -0.4187  0.1353
 4661TIP3    H113989   2.269   2.105   4.006 -0.8592 -0.9364 -1.0127
 4661TIP3    H213990   2.400   2.032   3.984  0.0692  0.2277  0.4057
 4662TIP3   OH213991   5.919   3.418   2.377  0.5630  0.3070 -0.1192
 4662TIP3    H113992   5.993   3.459   2.421 -0.5486  0.7357  1.4268
 4662TIP3    H213993   5.874   3.490   2.333 -0.0085  0.3882  0.5701
 4663TIP3   OH213994   2.635   4.107   4.857  0.2578  0.4400 -0.0136
 4663TIP3    H113995   2.573   4.044   4.820  0.5335  0.9997 -1.4942
 4663TIP3    H213996   2.676   4.060   4.930  0.5421 -1.1463 -1.1335
 4664TIP3   OH213997   2.177   3.012   0.469 -0.0241 -0.1105  0.2726
 4664TIP3    H113998   2.256   2.960   0.482  0.9617  1.6438  1.8235
 4664TIP3    H213999   2.205   3.084   0.413 -0.5943  0.3419  0.5574
 4665TIP3   OH214000   1.377   3.453   4.714 -0.5540  1.0848 -0.4826
 4665TIP3    H114001   1.288   3.484   4.729 -0.3607  1.3676  0.0935
 4665TIP3    H214002   1.376   3.362   4.743 -0.2777  1.5223  0.9493
 4666TIP3   OH214003   4.921   4.499   1.712 -0.4245  0.0420 -0.2280
 4666TIP3    H114004   4.901   4.413   1.748 -1.4762  1.1106  1.9009
 4666TIP3    H214005   4.942   4.482   1.620  1.0919 -2.6679  0.5064
 4667TIP3   OH214006   1.635   5.165   1.403  0.4758  0.6541 -0.0391
 4667TIP3    H114007   1.716   5.215   1.394  1.6608 -1.5674 -2.7815
 4667TIP3    H214008   1.592   5.173   1.318  0.0170 -1.7825 -0.0962
 4668TIP3   OH214009   2.081   0.158   0.338  0.4687  0.2508  0.0853
 4668TIP3    H114010   2.024   0.163   0.262  0.7031 -2.6745 -0.3990
 4668TIP3    H214011   2.021   0.160   0.413 -0.3170 -2.1263 -0.3952
 4669TIP3   OH214012   4.608   2.533   4.815  0.0536  0.4269  0.1779
 4669TIP3    H114013   4.696   2.531   4.853 -0.7770 -2.0835  2.2518
 4669TIP3    H214014   4.568   2.613   4.850  1.1602  1.0994 -0.0393
 4670TIP3   OH214015   6.266   3.304   3.025 -0.4524 -0.4753  0.0958
 4670TIP3    H114016   6.213   3.335   3.098  0.7121 -0.1721  0.8438
 4670TIP3    H214017   6.342   3.262   3.066  0.9676  0.9995 -0.8837
 4671TIP3   OH214018   1.734   2.385   1.348 -0.7771 -0.7606 -0.1845
 4671TIP3    H114019   1.811   2.336   1.377  1.3016  2.1668 -0.3667
 4671TIP3    H214020   1.737   2.381   1.253  0.5717  1.2356 -0.2794
 4672TIP3   OH214021   2.719   3.777   2.116  0.0518  0.6202  0.1754
 4672TIP3    H114022   2.759   3.778   2.029  0.7694  0.4168  0.4941
 4672TIP3    H214023   2.771   3.713   2.165 -0.9087  0.0657  0.4880
 4673TIP3   OH214024   1.096   1.814   1.489 -0.2285 -0.5278  0.2853
 4673TIP3    H114025   1.184   1.798   1.456 -0.2390  0.0485 -0.0486
 4673TIP3    H214026   1.039   1.793   1.415 -0.1271  3.1605 -1.0735
 4674TIP3   OH214027   3.696   5.514   1.418 -0.0736 -0.4224 -0.1873
 4674TIP3    H114028   3.753   5.587   1.394 -0.1427 -0.3953 -0.2721
 4674TIP3    H214029   3.609   5.541   1.389 -0.0481 -0.6692 -0.5005
 4675TIP3   OH214030   0.597   5.569   2.996  0.2111  0.3556  0.1775
 4675TIP3    H114031   0.509   5.558   2.962 -0.1322  0.9586  0.8509
 4675TIP3    H214032   0.599   5.517   3.077 -0.0246  1.5666  0.9857
 4676TIP3   OH214033   4.265   2.586   0.796  0.0378 -0.2737  0.1590
 4676TIP3    H114034   4.178   2.625   0.786 -0.6563 -2.0445 -1.4247
 4676TIP3    H214035   4.311   2.610   0.715  1.1628  0.9188  1.1293
 4677TIP3   OH214036   6.140   5.602   3.404  0.0746 -0.7105  0.1816
 4677TIP3    H114037   6.222   5.581   3.449 -0.3298  0.3511  1.4694
 4677TIP3    H214038   6.078   5.536   3.435  0.0936 -0.6754  0.2943
 4678TIP3   OH214039   5.707   0.110   1.970  0.3368 -0.8076  0.6620
 4678TIP3    H114040   5.762   0.139   1.897 -0.0732 -0.7473  0.3717
 4678TIP3    H214041   5.757   0.132   2.048  0.2978  0.1637  0.4339
 4679TIP3   OH214042   5.163   0.589   4.325  0.2873  0.3487  0.1642
 4679TIP3    H114043   5.193   0.589   4.234 -0.1388  0.7972  0.0186
 4679TIP3    H214044   5.187   0.502   4.358 -0.2048 -0.0969 -0.5986
 4680TIP3   OH214045   0.681   4.859   1.786  0.5526 -0.7063  0.3949
 4680TIP3    H114046   0.594   4.850   1.825  0.8598  1.0209  1.5809
 4680TIP3    H214047   0.708   4.769   1.766 -0.9032 -1.3819  1.3372
 4681TIP3   OH214048   0.526   0.048   0.812  0.2937  0.3513 -0.0421
 4681TIP3    H114049   0.478   0.071   0.732 -0.2078  1.7946  0.6235
 4681TIP3    H214050   0.618   0.060   0.789  0.1701  0.5012 -0.4802
 4682TIP3   OH214051   0.823   0.611   3.279  0.0886  0.5022  0.1955
 4682TIP3    H114052   0.804   0.659   3.198 -1.0749 -0.9002 -0.3993
 4682TIP3    H214053   0.843   0.679   3.343 -0.5538  1.7277 -0.8671
 4683TIP3   OH214054   2.771   0.892   2.121 -0.3422  0.0519  0.4766
 4683TIP3    H114055   2.843   0.952   2.138 -0.2637 -0.2848  1.3661
 4683TIP3    H214056   2.741   0.915   2.033  1.9516 -0.9201 -0.6481
 4684TIP3   OH214057   2.896   3.193   0.643  0.3021  0.1913 -0.5484
 4684TIP3    H114058   2.836   3.224   0.575 -2.4945 -2.0189  0.6838
 4684TIP3    H214059   2.897   3.264   0.708  0.1633  0.8413 -1.2431
 4685TIP3   OH214060   0.592   4.633   4.957 -0.1645  0.4115 -0.1413
 4685TIP3    H114061   0.669   4.671   4.914  1.6335 -2.3150  0.3949
 4685TIP3    H214062   0.556   4.573   4.891  1.3982 -2.2554  1.2499
 4686TIP3   OH214063   0.477   1.876   4.005  0.2129  0.0419  0.1576
 4686TIP3    H114064   0.510   1.924   4.081  0.3183  0.8006 -0.3538
 4686TIP3    H214065   0.465   1.943   3.938 -0.3570 -0.5423 -0.3402
 4687TIP3   OH214066   5.884   4.758   0.051  0.3808  0.4172 -0.0986
 4687TIP3    H114067   5.904   4.713  -0.032 -2.3398  0.5745 -0.9654
 4687TIP3    H214068   5.924   4.703   0.118 -0.4781 -1.8577 -1.3067
 4688TIP3   OH214069   0.647   2.575   0.095  0.1580  0.4879 -0.0450
 4688TIP3    H114070   0.719   2.571   0.033  1.5419  2.6034  1.2924
 4688TIP3    H214071   0.578   2.624   0.050 -0.3815 -1.2554 -1.2075
 4689TIP3   OH214072   0.546   3.085   1.477 -0.0279  0.2027  0.4939
 4689TIP3    H114073   0.534   3.170   1.435  1.4910  1.0201  1.6140
 4689TIP3    H214074   0.532   3.021   1.408 -1.0634  1.3654 -0.4033
 4690TIP3   OH214075   4.208   4.864   2.395 -0.0002 -0.3076 -0.0762
 4690TIP3    H114076   4.240   4.794   2.337  0.7448 -0.0597  0.0306
 4690TIP3    H214077   4.148   4.819   2.455  1.3607 -1.0946  0.7440
 4691TIP3   OH214078   5.085   5.361   1.207  0.1025  0.1068  0.0385
 4691TIP3    H114079   5.003   5.369   1.159  0.4300  0.9747 -0.4171
 4691TIP3    H214080   5.061   5.326   1.292 -0.3262 -3.0104 -1.2283
 4692TIP3   OH214081   4.257   2.219   2.504  0.0616 -0.5806  0.3077
 4692TIP3    H114082   4.288   2.310   2.498 -1.8749  0.2214  1.5974
 4692TIP3    H214083   4.335   2.169   2.529  0.9024  0.9247  0.8292
 4693TIP3   OH214084   2.320   2.056   1.273  0.2521  0.1883 -0.1653
 4693TIP3    H114085   2.404   2.078   1.314  0.5052 -0.6925 -0.1773
 4693TIP3    H214086   2.345   2.012   1.192 -0.2286  0.3952 -0.4225
 4694TIP3   OH214087   0.882   1.495   4.504 -0.4368 -0.1322  0.3926
 4694TIP3    H114088   0.945   1.434   4.467  1.4872  1.7266  0.4428
 4694TIP3    H214089   0.810   1.498   4.440  0.7686 -0.3051 -1.0055
 4695TIP3   OH214090   5.137   0.727   2.499 -0.0855 -0.8420 -0.8567
 4695TIP3    H114091   5.081   0.670   2.447 -1.2463 -0.4691 -0.0441
 4695TIP3    H214092   5.144   0.808   2.447  0.1338 -1.0718 -1.1916
 4696TIP3   OH214093   2.899   3.562   2.175 -0.1862 -0.0668 -0.4232
 4696TIP3    H114094   2.836   3.489   2.177  0.7732 -0.9337  1.2301
 4696TIP3    H214095   2.973   3.528   2.125 -0.5362  0.5131 -1.3442
 4697TIP3   OH214096   4.079   0.023   1.860  0.5393 -0.1992  1.0318
 4697TIP3    H114097   4.129   0.104   1.855  0.9682 -0.4905  0.5115
 4697TIP3    H214098   4.138  -0.040   1.900  1.9696 -1.5130 -2.6711
 4698TIP3   OH214099   5.508   1.042   4.087 -0.0377  0.2753  0.0424
 4698TIP3    H114100   5.498   1.099   4.163 -1.4889  0.2757 -0.1129
 4698TIP3    H214101   5.442   0.974   4.099  1.7213 -1.4624  0.2638
 4699TIP3   OH214102   3.702   3.591   1.826  0.1438 -0.5649  0.1304
 4699TIP3    H114103   3.701   3.653   1.754  1.2646 -0.7501 -0.0588
 4699TIP3    H214104   3.769   3.624   1.887 -0.3570 -0.7349  0.7916
 4700TIP3   OH214105   5.470   1.033   3.174  0.0918  0.0580  0.7711
 4700TIP3    H114106   5.430   0.965   3.229 -0.0119 -0.3970  0.1446
 4700TIP3    H214107   5.398   1.091   3.150 -0.3069 -0.9965 -0.7045
 4701TIP3   OH214108   5.756   4.913   5.105  0.5437 -0.0796 -0.2875
 4701TIP3    H114109   5.662   4.928   5.095  0.8666  1.4343 -1.4716
 4701TIP3    H214110   5.782   4.968   5.179  0.5220 -0.4551  0.0043
 4702TIP3   OH214111   5.585   0.120   1.138  0.3632  0.3012 -0.4872
 4702TIP3    H114112   5.677   0.138   1.120  0.1562  0.0762 -1.8498
 4702TIP3    H214113   5.541   0.203   1.123  0.5230  0.9160  1.9347
 4703TIP3   OH214114   5.927   2.304   2.377  0.5132  0.0464 -0.3893
 4703TIP3    H114115   5.984   2.228   2.377  0.5229  0.0414 -1.5205
 4703TIP3    H214116   5.892   2.309   2.288  1.2467  1.8929 -0.6265
 4704TIP3   OH214117   2.475   1.902   0.456 -0.4541 -0.4168 -0.4159
 4704TIP3    H114118   2.500   1.986   0.494 -1.0812 -0.5262  0.2503
 4704TIP3    H214119   2.469   1.842   0.531 -1.3280 -0.7276 -0.7182
 4705TIP3   OH214120   4.418   5.529   4.899 -0.3362  0.2386 -0.4070
 4705TIP3    H114121   4.467   5.581   4.962 -0.4042 -0.1506 -0.0303
 4705TIP3    H214122   4.485   5.495   4.839 -0.2575  0.5092 -0.4728
 4706TIP3   OH214123   2.258   2.938   3.802 -0.7793 -0.2402  0.3785
 4706TIP3    H114124   2.163   2.952   3.802 -0.7533  0.3477  2.6276
 4706TIP3    H214125   2.268   2.845   3.819 -0.9834 -0.2318  0.5650
 4707TIP3   OH214126   0.490   0.841   2.394 -0.5416  0.5751  0.2752
 4707TIP3    H114127   0.441   0.844   2.476 -0.8173  1.9803  0.0858
 4707TIP3    H214128   0.516   0.932   2.378  1.6848 -0.0247  0.0931
 4708TIP3   OH214129   5.413   5.120   1.730 -0.4476 -0.2987  0.1358
 4708TIP3    H114130   5.343   5.180   1.706 -0.1465 -0.1706 -0.4210
 4708TIP3    H214131   5.468   5.113   1.652 -0.3815 -1.1600  0.2440
 4709TIP3   OH214132   2.577   0.830   3.953  0.2716  0.1491 -0.7799
 4709TIP3    H114133   2.627   0.751   3.930  1.5698  0.6012  0.3668
 4709TIP3    H214134   2.511   0.798   4.016 -1.3017 -0.5398 -2.6803
 4710TIP3   OH214135   4.361   1.377   1.706 -0.7530  0.2492 -0.4410
 4710TIP3    H114136   4.298   1.408   1.641 -0.0610 -0.0694 -1.2664
 4710TIP3    H214137   4.414   1.454   1.726  0.5708 -0.1944 -2.0404
 4711TIP3   OH214138   0.424   2.082   3.826  0.8697 -0.3500 -0.4310
 4711TIP3    H114139   0.364   2.132   3.882  0.6949 -1.3386  0.2832
 4711TIP3    H214140   0.368   2.044   3.758  0.7342 -0.9820  0.0298
 4712TIP3   OH214141   6.227   4.935   3.554 -0.2095 -0.3066 -0.0399
 4712TIP3    H114142   6.211   4.998   3.484  0.9887 -0.1607 -0.2127
 4712TIP3    H214143   6.256   4.989   3.628  1.4002 -0.6670 -0.3729
 4713TIP3   OH214144   5.094   4.356   1.370 -0.5890 -0.6661  0.0334
 4713TIP3    H114145   5.042   4.392   1.442 -1.3384 -1.9754  0.1817
 4713TIP3    H214146   5.046   4.380   1.291 -1.1522 -1.4025  0.1385
 4714TIP3   OH214147   0.668   2.728   3.357  0.2516 -0.0978  0.1508
 4714TIP3    H114148   0.609   2.790   3.314 -1.1134  0.5988  2.8364
 4714TIP3    H214149   0.741   2.781   3.389  1.5574 -0.6993 -1.6490
 4715TIP3   OH214150   5.041   1.206   1.520 -0.0679 -0.2686 -0.0653
 4715TIP3    H114151   5.118   1.216   1.464  0.3779  0.3907  0.6447
 4715TIP3    H214152   4.969   1.193   1.459  0.8090 -2.5460 -0.7121
 4716TIP3   OH214153   0.358   3.745   2.506  0.7726 -0.4095 -0.5352
 4716TIP3    H114154   0.431   3.730   2.447  0.1418 -0.3456 -1.3505
 4716TIP3    H214155   0.351   3.664   2.557  1.0857 -0.6121 -0.8109
 4717TIP3   OH214156   2.395   5.643   3.970 -0.2160  0.2460  0.1616
 4717TIP3    H114157   2.446   5.569   3.937 -1.1198 -0.6169  0.6513
 4717TIP3    H214158   2.448   5.678   4.041 -0.2904 -0.6477  0.6752
 4718TIP3   OH214159   4.582   4.397   2.512 -0.2172  0.1913  0.1381
 4718TIP3    H114160   4.542   4.339   2.577 -1.1062  0.6256 -0.0095
 4718TIP3    H214161   4.508   4.437   2.467  0.3924  0.5048 -0.6021
 4719TIP3   OH214162   1.209   2.719   3.788 -0.4139  0.2826 -0.2892
 4719TIP3    H114163   1.170   2.640   3.826  0.0217  0.5391  0.6877
 4719TIP3    H214164   1.164   2.792   3.831  0.1436  0.5779 -0.2031
 4720TIP3   OH214165   4.599   4.618   2.077  0.2791  0.0699 -0.1878
 4720TIP3    H114166   4.611   4.664   1.994  1.0495 -0.4953 -0.4066
 4720TIP3    H214167   4.590   4.526   2.053 -1.0096  0.0622  0.2635
 4721TIP3   OH214168   4.293   2.968   4.471 -0.2690 -0.1636  0.5301
 4721TIP3    H114169   4.313   2.897   4.532  0.6027 -0.5077 -0.1297
 4721TIP3    H214170   4.222   2.934   4.416 -0.3320 -0.2584  0.6724
 4722TIP3   OH214171   2.984   2.379   4.453  0.1856  0.7724  0.1585
 4722TIP3    H114172   3.070   2.359   4.490 -0.0926  1.4811  1.2251
 4722TIP3    H214173   2.959   2.463   4.493 -1.1794  0.3791  0.1875
 4723TIP3   OH214174   5.002   5.194   4.243  0.1376 -0.2173  0.1590
 4723TIP3    H114175   5.041   5.133   4.306  1.1474  3.2645  3.3175
 4723TIP3    H214176   5.058   5.190   4.166  0.7382 -2.4236  0.6401
 4724TIP3   OH214177   1.001   2.660   3.534 -0.0415 -0.6913  0.4293
 4724TIP3    H114178   0.991   2.582   3.590  0.5636  0.2176  1.8727
 4724TIP3    H214179   0.924   2.713   3.554 -0.3378 -0.7994 -0.3888
 4725TIP3   OH214180   5.943   5.069   0.639 -0.1290  0.6269 -0.2822
 4725TIP3    H114181   5.876   5.108   0.584 -0.1320  0.7155 -0.2138
 4725TIP3    H214182   5.975   4.995   0.587 -0.2012  0.6510 -0.3615
 4726TIP3   OH214183   3.119   3.689   4.259 -0.3076  0.4823 -0.1450
 4726TIP3    H114184   3.041   3.741   4.242 -0.6145  1.0122  2.5330
 4726TIP3    H214185   3.169   3.740   4.322  1.0327 -0.9395  0.0052
 4727TIP3   OH214186   5.470   3.866   0.302 -0.0658 -0.2807  0.2520
 4727TIP3    H114187   5.541   3.802   0.306 -0.7133 -1.3809 -2.8655
 4727TIP3    H214188   5.391   3.813   0.293 -0.7572  0.8828 -1.0914
 4728TIP3   OH214189   5.882   3.949   1.972  0.0264 -0.4022  0.0988
 4728TIP3    H114190   5.872   3.949   2.067 -0.9040 -1.8123  0.0218
 4728TIP3    H214191   5.804   3.906   1.938  0.0327  0.6436 -1.3634
 4729TIP3   OH214192   4.623   1.632   4.344  0.5310 -0.4294  0.0809
 4729TIP3    H114193   4.542   1.582   4.331 -0.6350  1.2165  0.7236
 4729TIP3    H214194   4.660   1.597   4.425 -1.1316  0.7633  1.4280
 4730TIP3   OH214195   4.444   1.525   4.699  0.7106  0.2424  0.3272
 4730TIP3    H114196   4.480   1.507   4.786  0.5011 -0.4248  0.2871
 4730TIP3    H214197   4.474   1.613   4.678 -0.3008  0.9364  1.6202
 4731TIP3   OH214198   1.922   2.965   3.094  0.5085 -0.4794  0.1013
 4731TIP3    H114199   1.879   2.902   3.036 -0.1950 -0.8769  1.0341
 4731TIP3    H214200   2.009   2.928   3.108 -0.0301 -1.4777  0.9541
 4732TIP3   OH214201   4.078   5.432   3.603  0.1965 -0.0823  0.6674
 4732TIP3    H114202   4.030   5.514   3.615  0.1703 -0.1907  1.3826
 4732TIP3    H214203   4.041   5.373   3.670  1.7170  0.0205  1.6431
 4733TIP3   OH214204   6.062   4.911   3.804  0.2724  0.1647  0.0716
 4733TIP3    H114205   6.152   4.914   3.774 -0.1313 -1.5485 -1.4830
 4733TIP3    H214206   6.068   4.886   3.897  1.3889 -2.3944 -0.6028
 4734TIP3   OH214207   3.091   4.533   4.565 -0.5867  0.6625 -0.0840
 4734TIP3    H114208   3.127   4.569   4.485 -0.2113  0.2560 -0.1035
 4734TIP3    H214209   3.030   4.465   4.536 -2.3440  2.1639 -0.0969
 4735TIP3   OH214210   5.774   1.827   1.508 -0.0354 -0.6871  0.3307
 4735TIP3    H114211   5.704   1.861   1.563  0.3202 -0.3106  0.5540
 4735TIP3    H214212   5.854   1.866   1.543  0.1413  0.0078 -0.7878
 4736TIP3   OH214213   5.619   1.796   2.040 -0.3069  0.4978  0.1464
 4736TIP3    H114214   5.549   1.730   2.045  0.5294 -0.4594 -0.2605
 4736TIP3    H214215   5.700   1.744   2.036  0.4600  1.5827  0.9924
 4737TIP3   OH214216   1.355   1.267   3.718  0.0952  0.1920  0.9934
 4737TIP3    H114217   1.289   1.309   3.773  0.3282 -0.5028  1.8154
 4737TIP3    H214218   1.310   1.191   3.680  0.2479  0.0548  1.0850
 4738TIP3   OH214219   0.496   2.906   1.673  0.2106  0.1287  0.2906
 4738TIP3    H114220   0.404   2.896   1.650  0.5530 -1.9050 -0.3844
 4738TIP3    H214221   0.528   2.976   1.616 -0.7459  0.3598  0.0272
 4739TIP3   OH214222   2.892   5.484   2.457  0.7009 -0.7648  0.2960
 4739TIP3    H114223   2.950   5.490   2.533  0.9962  0.0309  0.0176
 4739TIP3    H214224   2.950   5.496   2.382  0.2517 -0.4729 -0.0060
 4740TIP3   OH214225   2.787   3.615   1.178  0.0908 -0.4885  0.3449
 4740TIP3    H114226   2.845   3.691   1.176 -2.3356  1.4477 -1.0196
 4740TIP3    H214227   2.725   3.634   1.248 -0.8472 -0.9550 -0.3407
 4741TIP3   OH214228   5.624   5.305   3.798 -0.4590 -0.0537  0.5268
 4741TIP3    H114229   5.571   5.230   3.770  1.0070 -0.7986 -0.3558
 4741TIP3    H214230   5.713   5.271   3.806  0.3022  1.6414 -0.1931
 4742TIP3   OH214231   3.958   4.649   2.456 -0.0460  0.3537  0.1363
 4742TIP3    H114232   3.956   4.654   2.551 -0.7968 -1.4724  0.2594
 4742TIP3    H214233   3.883   4.594   2.433  1.9972 -2.1011 -1.2218
 4743TIP3   OH214234   2.361   0.737   4.107  0.3440  0.0335  0.0919
 4743TIP3    H114235   2.416   0.719   4.182  0.0416 -0.3564  0.2242
 4743TIP3    H214236   2.299   0.664   4.104  0.5791 -0.1371 -0.7439
 4744TIP3   OH214237   3.582   2.064   3.466 -0.6473 -0.0347 -0.2475
 4744TIP3    H114238   3.515   2.101   3.523 -0.1017  0.8065 -0.1262
 4744TIP3    H214239   3.659   2.053   3.523 -0.9227 -1.8476 -0.1564
 4745TIP3   OH214240   3.857   0.914   4.872 -0.2386 -0.6366 -0.0617
 4745TIP3    H114241   3.814   0.997   4.855  2.0155  0.4799 -0.7415
 4745TIP3    H214242   3.866   0.873   4.786  2.7080  0.6198 -0.4834
 4746TIP3   OH214243   6.101   3.807   1.623  0.1893 -0.0530 -0.1120
 4746TIP3    H114244   6.062   3.751   1.690  0.0214 -0.0652 -0.2213
 4746TIP3    H214245   6.099   3.895   1.661  0.1317 -0.0661 -0.0847
 4747TIP3   OH214246   1.482   4.583   3.219 -0.2572 -0.2562 -0.9489
 4747TIP3    H114247   1.391   4.572   3.246 -0.0531  2.1101  1.0073
 4747TIP3    H214248   1.533   4.552   3.295  0.4222  2.3177 -0.2661
 4748TIP3   OH214249   4.047   0.899   1.885 -0.0101  0.6969 -0.6193
 4748TIP3    H114250   3.971   0.844   1.866  0.2983  0.5001 -1.3207
 4748TIP3    H214251   4.033   0.929   1.975  0.0922 -0.9777 -0.0105
 4749TIP3   OH214252   4.432   1.940   4.875  0.2599 -0.5756 -0.5065
 4749TIP3    H114253   4.406   1.861   4.922  1.4615 -1.3191 -1.0288
 4749TIP3    H214254   4.398   1.928   4.786  1.2602 -0.9814 -0.8527
 4750TIP3   OH214255   3.119   5.302   1.817 -0.0703  0.2055  0.0256
 4750TIP3    H114256   3.119   5.271   1.907  0.2907 -3.1350 -1.0037
 4750TIP3    H214257   3.204   5.344   1.807 -0.7486  2.1266  1.6104
 4751TIP3   OH214258   5.937   3.840   3.796 -0.6133 -0.2113  0.6433
 4751TIP3    H114259   5.873   3.911   3.802  1.6229  1.9737  0.3382
 4751TIP3    H214260   5.942   3.804   3.884 -1.7180  0.0510  0.8277
 4752TIP3   OH214261   6.038   5.741   4.940 -0.5007  0.0194  0.3528
 4752TIP3    H114262   6.119   5.723   4.893 -0.5761  0.8349 -0.1172
 4752TIP3    H214263   5.973   5.755   4.871 -0.9766 -0.3331  0.7220
 4753TIP3   OH214264   4.203   2.428   1.295 -0.1130  0.4375  0.1785
 4753TIP3    H114265   4.276   2.367   1.309 -0.1372  0.6290  1.2223
 4753TIP3    H214266   4.180   2.417   1.203  0.8984 -0.0007 -0.0357
 4754TIP3   OH214267   2.217   4.448   3.520 -0.8446 -0.0104 -0.3288
 4754TIP3    H114268   2.194   4.374   3.577 -0.0016  0.1656  0.2506
 4754TIP3    H214269   2.257   4.512   3.578  0.5226 -0.0361 -1.1870
 4755TIP3   OH214270   3.748   5.253   2.604 -0.0743  0.0468 -0.6533
 4755TIP3    H114271   3.700   5.308   2.544  1.1702  1.1670 -0.6751
 4755TIP3    H214272   3.741   5.297   2.689  0.5264 -0.0082 -0.5682
 4756TIP3   OH214273   0.358   4.891   2.523  0.3022  0.2855 -0.3512
 4756TIP3    H114274   0.304   4.926   2.452  1.1665 -1.7947 -2.1558
 4756TIP3    H214275   0.444   4.933   2.511  0.5761 -0.3964 -0.8578
 4757TIP3   OH214276   1.198   5.345   4.559  0.2022  0.8155 -0.0511
 4757TIP3    H114277   1.148   5.337   4.477  1.0166 -2.1267 -0.4034
 4757TIP3    H214278   1.134   5.327   4.628 -0.1631  1.7424 -0.1388
 4758TIP3   OH214279   5.486   4.558   1.807 -0.0668 -0.0988  0.6226
 4758TIP3    H114280   5.502   4.518   1.721  1.5937 -0.9245  1.2552
 4758TIP3    H214281   5.475   4.651   1.789  1.8371 -0.0196 -0.3806
 4759TIP3   OH214282   1.826   2.140   1.554  0.1591  0.2637 -0.6708
 4759TIP3    H114283   1.851   2.085   1.480  0.7704 -0.7599  0.2613
 4759TIP3    H214284   1.732   2.153   1.544 -0.2743 -2.1305 -0.2080
 4760TIP3   OH214285   1.531   4.396   0.585 -0.1135 -0.2811  0.2726
 4760TIP3    H114286   1.458   4.338   0.607 -0.4248 -0.0757 -0.2165
 4760TIP3    H214287   1.514   4.423   0.495  2.0960 -2.5703 -0.9561
 4761TIP3   OH214288   3.170   3.751   3.471 -0.0737  0.1520  0.4916
 4761TIP3    H114289   3.241   3.719   3.415  1.3637  4.1262 -0.2282
 4761TIP3    H214290   3.186   3.707   3.555  1.9462 -0.6894 -0.2504
 4762TIP3   OH214291   2.315   0.288   0.277  0.2079 -0.3057 -0.3946
 4762TIP3    H114292   2.246   0.223   0.288 -0.9289  0.8881 -0.2635
 4762TIP3    H214293   2.279   0.369   0.314  2.0883  0.1039  0.6861
 4763TIP3   OH214294   4.128   1.837   4.136  0.2508  0.2599 -0.2272
 4763TIP3    H114295   4.128   1.761   4.196  0.1480 -0.0337 -0.5971
 4763TIP3    H214296   4.066   1.898   4.176  0.3569  0.1601  0.0919
 4764TIP3   OH214297   4.260   0.285   3.483 -0.4518 -0.3554 -0.1159
 4764TIP3    H114298   4.225   0.216   3.538 -0.0128 -0.3998  0.1130
 4764TIP3    H214299   4.333   0.244   3.436  1.0666  0.4212  1.4453
 4765TIP3   OH214300   6.311   4.825   1.182 -0.1406  0.3586  0.2184
 4765TIP3    H114301   6.382   4.782   1.136 -1.4575 -0.9284 -0.7180
 4765TIP3    H214302   6.271   4.756   1.235 -1.0308  0.9047  0.2867
 4766TIP3   OH214303   1.187   1.354   2.448 -0.1485 -0.1289  0.0971
 4766TIP3    H114304   1.150   1.422   2.392  0.4406 -0.4938 -0.7577
 4766TIP3    H214305   1.222   1.401   2.523 -1.4766  0.3135  0.4542
 4767TIP3   OH214306   1.721   5.790   2.172  0.1220  0.3500  0.7840
 4767TIP3    H114307   1.633   5.759   2.193 -0.9401  1.9716 -0.9528
 4767TIP3    H214308   1.757   5.722   2.115 -1.4234  1.2557 -1.3938
 4768TIP3   OH214309   5.281   5.736   3.684  0.3274  0.0241  0.2081
 4768TIP3    H114310   5.376   5.728   3.694  0.2565  0.1957  1.0834
 4768TIP3    H214311   5.259   5.815   3.733 -0.2494  0.0849 -0.1440
 4769TIP3   OH214312   3.224   3.190   2.881 -0.1192 -0.4902  0.2273
 4769TIP3    H114313   3.249   3.198   2.789 -1.2991  0.1542 -0.0706
 4769TIP3    H214314   3.128   3.194   2.880 -0.1290  1.9734  1.6702
 4770TIP3   OH214315   1.305   3.873   0.806 -0.1947  0.7660  0.0880
 4770TIP3    H114316   1.260   3.938   0.860 -0.4664  0.7662 -0.1333
 4770TIP3    H214317   1.272   3.889   0.717 -0.1534  0.4205  0.0082
 4771TIP3   OH214318   2.098   1.974   2.366 -0.0056 -0.0584 -0.1995
 4771TIP3    H114319   2.010   1.961   2.331 -0.3312 -0.7458  0.7949
 4771TIP3    H214320   2.125   2.059   2.334 -1.3347  0.4866  0.0577
 4772TIP3   OH214321   3.577   0.415   2.363 -0.5429 -0.2045 -0.1369
 4772TIP3    H114322   3.591   0.340   2.305  2.4909  0.5223 -0.5489
 4772TIP3    H214323   3.561   0.377   2.449  1.9366 -1.4425 -0.1330
 4773TIP3   OH214324   4.076   5.765   0.784  0.1692 -0.3575 -0.5796
 4773TIP3    H114325   4.100   5.672   0.782  0.2353 -0.3317 -0.9995
 4773TIP3    H214326   4.020   5.777   0.707  0.0460 -0.0797 -0.4471
 4774TIP3   OH214327   0.047   3.066   0.017  0.1804 -0.2640 -0.4813
 4774TIP3    H114328   0.089   3.135  -0.034  0.0633 -0.1245 -0.3895
 4774TIP3    H214329   0.102   3.057   0.095  0.7355 -0.9370 -0.9412
 4775TIP3   OH214330   5.263   0.057   4.487  0.5131  0.2992  0.2440
 4775TIP3    H114331   5.254   0.086   4.397  1.4746  0.2899  0.1337
 4775TIP3    H214332   5.246  -0.037   4.484  2.1057  0.0037 -0.2100
 4776TIP3   OH214333   3.389   1.687   2.881 -0.7898  0.3869  0.1285
 4776TIP3    H114334   3.433   1.623   2.826 -0.2045  0.8039  0.0928
 4776TIP3    H214335   3.296   1.679   2.859 -0.5670  0.5565 -0.9386
 4777TIP3   OH214336   3.214   0.235   3.630  0.8316 -0.4698 -0.2812
 4777TIP3    H114337   3.143   0.171   3.625 -2.2164  2.5985  0.5105
 4777TIP3    H214338   3.247   0.228   3.719 -0.4491 -0.0501  0.2446
 4778TIP3   OH214339   4.473   1.368   1.004  0.4224  0.1865 -0.0319
 4778TIP3    H114340   4.378   1.358   1.005  0.3600  0.7287 -0.5602
 4778TIP3    H214341   4.488   1.461   1.016  0.8011  0.4948 -2.3826
 4779TIP3   OH214342   2.827   5.204   0.352 -0.0405  0.0945  0.9713
 4779TIP3    H114343   2.831   5.189   0.446  0.7595  0.9816  1.0913
 4779TIP3    H214344   2.917   5.189   0.321 -0.4779 -1.0393  0.2106
 4780TIP3   OH214345   0.903   2.187   0.848  0.5081  0.1557  0.5780
 4780TIP3    H114346   0.850   2.213   0.772 -0.9921  0.3657  1.6365
 4780TIP3    H214347   0.993   2.188   0.817  0.0566  1.6713 -0.8128
 4781TIP3   OH214348   5.085   0.779   3.835 -0.6309  0.6593 -0.0898
 4781TIP3    H114349   5.071   0.851   3.773 -0.7523 -0.0774 -0.9359
 4781TIP3    H214350   5.071   0.700   3.784 -1.1413  0.0244  0.9812
 4782TIP3   OH214351   0.793   5.318   4.135  0.4008 -0.4332  0.1694
 4782TIP3    H114352   0.791   5.409   4.108 -0.6964 -1.2284 -2.8906
 4782TIP3    H214353   0.702   5.288   4.126  0.8537 -1.9779  0.3401
 4783TIP3   OH214354   5.782   0.069   3.087 -0.4245  0.5291  0.0019
 4783TIP3    H114355   5.739   0.037   3.008 -0.6127  0.7827 -0.0026
 4783TIP3    H214356   5.769  -0.000   3.152 -1.4696  0.8943  0.2084
 4784TIP3   OH214357   4.349   4.353   3.709  0.0321 -0.1574  0.1460
 4784TIP3    H114358   4.400   4.271   3.713 -1.3173 -1.1846 -1.9296
 4784TIP3    H214359   4.261   4.328   3.736 -0.0178  1.0425  1.1977
 4785TIP3   OH214360   4.825   2.156   4.468 -0.2619 -0.4860 -0.3728
 4785TIP3    H114361   4.876   2.196   4.538  0.0691 -0.3661 -0.6817
 4785TIP3    H214362   4.884   2.154   4.393 -0.8478  0.0294 -0.8508
 4786TIP3   OH214363   3.537   1.492   2.760  0.1963 -0.0608  0.8097
 4786TIP3    H114364   3.589   1.555   2.710 -0.0291  0.1553  0.8463
 4786TIP3    H214365   3.600   1.450   2.818  0.8145 -1.5243 -0.8010
 4787TIP3   OH214366   1.352   0.516   0.943 -0.3666  0.4040  0.2965
 4787TIP3    H114367   1.263   0.484   0.958 -0.2364 -0.8031 -1.2242
 4787TIP3    H214368   1.406   0.469   1.006 -0.6144  0.0495  0.2477
 4788TIP3   OH214369   3.961   4.802   2.210  0.2747  0.1572 -0.5539
 4788TIP3    H114370   4.003   4.761   2.285 -0.6182  0.8784  0.3627
 4788TIP3    H214371   3.886   4.746   2.190  0.2442  0.2197 -0.6163
 4789TIP3   OH214372   3.042   5.174   0.726  0.4006  0.5934 -0.3977
 4789TIP3    H114373   3.044   5.244   0.660  2.0928  0.0201 -1.0137
 4789TIP3    H214374   3.114   5.116   0.701 -0.0983 -0.6358  0.9051
 4790TIP3   OH214375   0.489   0.169   3.122 -0.4231 -0.0654 -0.0201
 4790TIP3    H114376   0.511   0.166   3.215 -0.3568  1.7038  0.0606
 4790TIP3    H214377   0.560   0.219   3.082 -0.7692 -0.2759 -0.9226
 4791TIP3   OH214378   2.797   5.817   0.153  0.0264 -0.3340 -0.0243
 4791TIP3    H114379   2.867   5.848   0.212 -0.6297 -1.3537  1.3366
 4791TIP3    H214380   2.779   5.892   0.097 -0.3004  1.2067  2.0064
 4792TIP3   OH214381   0.674   3.848   0.098 -0.7194  0.7482 -0.7229
 4792TIP3    H114382   0.629   3.787   0.157 -0.6759  0.8453 -0.5889
 4792TIP3    H214383   0.745   3.884   0.150  0.5581 -0.6532 -1.4393
 4793TIP3   OH214384   6.001   3.443   0.693  0.2475 -0.7429  0.0367
 4793TIP3    H114385   6.089   3.475   0.710  1.1556 -3.2257  0.3024
 4793TIP3    H214386   5.953   3.457   0.775 -0.0598  1.7539 -0.4805
 4794TIP3   OH214387   4.082   3.674   1.239  0.2490 -0.2722 -0.5820
 4794TIP3    H114388   4.146   3.680   1.310  0.7642  1.9240 -1.1497
 4794TIP3    H214389   3.999   3.655   1.283  0.4943  1.3460  0.6689
 4795TIP3   OH214390   1.933   2.432   2.486  0.1400 -0.2707 -0.4558
 4795TIP3    H114391   1.897   2.459   2.571 -0.4838 -0.8724 -0.5235
 4795TIP3    H214392   1.963   2.513   2.446  1.3567 -0.0670  0.7474
 4796TIP3   OH214393   2.727   1.389   4.309  0.2911 -0.9390 -0.3013
 4796TIP3    H114394   2.707   1.421   4.398  1.3814 -0.1494 -0.3172
 4796TIP3    H214395   2.664   1.434   4.253  1.1264  0.4522 -0.1903
 4797TIP3   OH214396   2.750   0.491   1.301 -1.0413  0.2376  0.0785
 4797TIP3    H114397   2.775   0.427   1.234  1.2473  1.0260  0.0961
 4797TIP3    H214398   2.679   0.542   1.260 -0.0009  0.4116 -1.6037
 4798TIP3   OH214399   0.341   5.204   0.125  0.2121  0.3956 -0.2196
 4798TIP3    H114400   0.275   5.137   0.107 -1.7126  1.5953  1.8800
 4798TIP3    H214401   0.421   5.154   0.146 -1.3684 -1.3500  2.1612
 4799TIP3   OH214402   5.897   3.438   0.069 -0.2190 -0.3149  0.3660
 4799TIP3    H114403   5.980   3.472   0.102 -0.1035  0.4675 -0.6736
 4799TIP3    H214404   5.880   3.490  -0.010 -1.6728 -0.5028  0.5341
 4800TIP3   OH214405   0.220   0.558   2.044 -0.3611  0.2176  0.0913
 4800TIP3    H114406   0.255   0.488   1.989  0.8020  1.5840 -0.9761
 4800TIP3    H214407   0.294   0.587   2.096 -1.2127 -0.3652  1.7295
 4801TIP3   OH214408   1.295   1.722   2.919 -0.8485 -0.1716  0.7034
 4801TIP3    H114409   1.258   1.634   2.934  1.3850 -1.0595  1.3962
 4801TIP3    H214410   1.264   1.746   2.832 -0.4102 -2.2569 -0.0846
 4802TIP3   OH214411   3.889   4.065   0.365 -0.2479 -0.4777 -0.0630
 4802TIP3    H114412   3.979   4.058   0.334  0.3786 -1.3232  1.7927
 4802TIP3    H214413   3.865   3.975   0.388 -0.2611  0.1541  2.8024
 4803TIP3   OH214414   0.609   5.950   3.922 -0.0565 -0.0788 -0.6074
 4803TIP3    H114415   0.614   5.928   4.015  0.5423 -0.1769 -0.6533
 4803TIP3    H214416   0.516   5.953   3.902 -0.1792 -0.5040 -0.1088
 4804TIP3   OH214417   4.430   0.710   1.102  0.3233  0.1606 -0.2125
 4804TIP3    H114418   4.401   0.683   1.190 -0.4810 -0.1720 -0.5662
 4804TIP3    H214419   4.507   0.765   1.118  0.4247 -0.2206  0.6784
 4805TIP3   OH214420   0.931   0.966   2.502  0.3362 -0.7100  0.2752
 4805TIP3    H114421   0.944   0.924   2.417  3.1106 -2.2140  1.3061
 4805TIP3    H214422   0.861   0.915   2.544 -1.7977  0.6799 -1.3655
 4806TIP3   OH214423   2.047   3.151   4.051 -0.3879  0.0844  0.1082
 4806TIP3    H114424   2.020   3.064   4.082 -0.2022 -0.4495 -1.1705
 4806TIP3    H214425   2.057   3.141   3.956 -0.4287  1.5255 -0.0765
 4807TIP3   OH214426   5.476   3.332   2.159 -0.2647 -0.2073  0.1207
 4807TIP3    H114427   5.565   3.307   2.185 -0.2505 -1.1265 -0.7577
 4807TIP3    H214428   5.420   3.289   2.224 -0.1380 -1.0188 -0.2892
 4808TIP3   OH214429   2.470   2.854   1.237  0.5617 -0.5729  0.1479
 4808TIP3    H114430   2.448   2.847   1.330 -0.4392 -0.7624 -0.1006
 4808TIP3    H214431   2.424   2.781   1.195  0.9345 -0.4394 -0.5140
 4809TIP3   OH214432   3.764   2.664   4.108  0.0278  0.0141  0.0647
 4809TIP3    H114433   3.673   2.669   4.137 -0.0478  0.5617 -0.2449
 4809TIP3    H214434   3.764   2.598   4.039 -0.5695  1.5185 -1.4455
 4810TIP3   OH214435   0.183   0.619   0.563 -0.0711 -1.0584 -0.2302
 4810TIP3    H114436   0.256   0.561   0.587 -0.5853 -1.0690  1.4666
 4810TIP3    H214437   0.131   0.626   0.643  0.8754  3.1674  0.2128
 4811TIP3   OH214438   0.681   5.750   4.182  0.3267 -0.2847  0.3586
 4811TIP3    H114439   0.728   5.673   4.148  1.0466 -0.3619  1.4592
 4811TIP3    H214440   0.594   5.718   4.203  0.1192 -0.4168 -0.6603
 4812TIP3   OH214441   1.196   1.064   3.605  0.1453  0.1322  0.5252
 4812TIP3    H114442   1.176   1.022   3.689  0.9580 -1.6343 -0.1003
 4812TIP3    H214443   1.119   1.117   3.585  0.5006  1.6826  3.0024
 4813TIP3   OH214444   3.794   2.121   1.199  0.0042  0.5551  0.1389
 4813TIP3    H114445   3.786   2.056   1.129  1.5508 -1.8112  1.9515
 4813TIP3    H214446   3.709   2.118   1.243  1.0517 -3.2733  2.4304
 4814TIP3   OH214447   5.594   5.262   1.928 -0.5579 -0.0624 -0.4227
 4814TIP3    H114448   5.526   5.224   1.873 -0.7233 -1.0989  0.4524
 4814TIP3    H214449   5.675   5.221   1.897 -0.6472 -0.6210  0.0704
 4815TIP3   OH214450   2.663   1.317   1.837 -0.0066 -0.2334 -0.2741
 4815TIP3    H114451   2.633   1.240   1.885  1.0741 -0.4948  0.0209
 4815TIP3    H214452   2.640   1.391   1.893 -1.1576 -0.3278 -0.6145
 4816TIP3   OH214453   0.486   0.454   1.745 -0.0408 -0.0019  0.0246
 4816TIP3    H114454   0.531   0.455   1.829 -2.2204  0.0638  1.2794
 4816TIP3    H214455   0.542   0.402   1.688  1.9063  0.6470  1.2538
 4817TIP3   OH214456   2.546   1.384   4.825 -0.3628 -0.2511 -0.3287
 4817TIP3    H114457   2.519   1.306   4.874  0.4554 -0.9641 -0.9798
 4817TIP3    H214458   2.489   1.383   4.747 -0.4272 -0.1389 -0.2827
 4818TIP3   OH214459   0.016   5.613   1.242 -0.1797 -0.2683 -0.1089
 4818TIP3    H114460   0.101   5.608   1.198 -0.2097  2.7462 -0.7124
 4818TIP3    H214461  -0.046   5.578   1.177  0.2776  0.1812 -0.8004
 4819TIP3   OH214462   2.889   0.377   3.169  0.1259  0.5647  0.2734
 4819TIP3    H114463   2.927   0.290   3.165  0.9257  0.8690  0.9917
 4819TIP3    H214464   2.797   0.362   3.191 -0.7360 -0.2778 -3.3074
 4820TIP3   OH214465   5.405   4.152   2.789 -0.2667  0.0111 -0.2669
 4820TIP3    H114466   5.496   4.148   2.817 -0.1705  2.3134 -0.0605
 4820TIP3    H214467   5.409   4.166   2.695 -0.4534 -0.8045 -0.4064
 4821TIP3   OH214468   3.993   5.208   1.818 -0.2088  0.2559 -0.0079
 4821TIP3    H114469   3.959   5.182   1.904  0.4641  0.6825  0.4011
 4821TIP3    H214470   3.924   5.184   1.756 -0.3753 -0.7745  0.5607
 4822TIP3   OH214471   5.866   1.281   1.415 -0.6578 -0.2805 -0.6055
 4822TIP3    H114472   5.863   1.257   1.322 -0.6239  0.3769 -0.7765
 4822TIP3    H214473   5.957   1.266   1.441 -0.7179 -0.6794 -0.6166
 4823TIP3   OH214474   2.528   1.879   0.044 -0.4555  0.2488  0.3376
 4823TIP3    H114475   2.469   1.940   0.000 -0.7285 -0.4333 -0.2785
 4823TIP3    H214476   2.612   1.889  -0.002 -0.6475 -0.2162 -0.1273
 4824TIP3   OH214477   0.873   4.005   2.233 -0.1992 -0.4719 -0.0169
 4824TIP3    H114478   0.888   4.099   2.243 -0.8141 -0.2292 -1.2363
 4824TIP3    H214479   0.939   3.964   2.290  0.3616  0.6768  0.1878
 4825TIP3   OH214480   0.824   3.028   1.230 -0.2880  0.0900 -0.0852
 4825TIP3    H114481   0.836   2.940   1.194 -2.3350 -0.8488  1.3415
 4825TIP3    H214482   0.768   3.073   1.167 -0.6913 -0.2542  0.0183
 4826TIP3   OH214483   0.710   2.410   5.116 -0.1924 -0.3868 -0.3693
 4826TIP3    H114484   0.660   2.436   5.193  0.2275 -0.1625 -0.1674
 4826TIP3    H214485   0.687   2.475   5.049  0.7439  0.4456  0.0903
 4827TIP3   OH214486   6.344   3.121   4.303  0.2494 -0.5091  0.2411
 4827TIP3    H114487   6.252   3.093   4.310  0.1042 -0.4160 -1.0641
 4827TIP3    H214488   6.394   3.040   4.298  0.0459 -0.5730 -1.0624
 4828TIP3   OH214489   3.504   1.185   0.194  0.6015 -0.7032 -0.3468
 4828TIP3    H114490   3.557   1.211   0.269 -0.0601  0.3220 -0.2173
 4828TIP3    H214491   3.564   1.137   0.137  1.8409  1.0047 -0.5304
 4829TIP3   OH214492   2.667   3.060   4.974  0.5557 -0.7617  0.1524
 4829TIP3    H114493   2.723   3.121   4.926  3.4281 -2.8089  0.6573
 4829TIP3    H214494   2.679   3.084   5.066 -0.5299 -0.3722  0.2077
 4830TIP3   OH214495   5.878   5.190   3.856  0.3910 -0.9932 -0.2512
 4830TIP3    H114496   5.944   5.257   3.875 -0.6088 -0.4191  1.3955
 4830TIP3    H214497   5.929   5.112   3.832  1.6582 -0.4610  0.6128
 4831TIP3   OH214498   3.656   2.578   2.923 -0.0170 -0.2373  0.2608
 4831TIP3    H114499   3.709   2.647   2.884 -0.2497 -0.8063 -1.1488
 4831TIP3    H214500   3.676   2.500   2.871 -0.8330 -0.8907  0.8935
 4832TIP3   OH214501   1.921   1.264   1.032  0.3834  0.8292 -0.2963
 4832TIP3    H114502   2.010   1.240   1.061 -0.0115  0.9653  1.0963
 4832TIP3    H214503   1.875   1.180   1.024  0.2660  0.8298  0.2940
 4833TIP3   OH214504   5.095   4.783   0.881 -0.4852 -0.1608  0.0820
 4833TIP3    H114505   5.078   4.852   0.817  1.0017  0.2377  0.0908
 4833TIP3    H214506   5.058   4.704   0.842  1.1892 -0.1135 -1.7210
 4834TIP3   OH214507   4.636   5.082   1.700 -0.0971  0.0399  0.5527
 4834TIP3    H114508   4.577   5.012   1.731  0.5840 -0.5032  0.6540
 4834TIP3    H214509   4.590   5.163   1.721 -0.8493 -0.3748  0.5522
 4835TIP3   OH214510   6.051   5.196   3.245 -0.9112  0.3805 -0.1792
 4835TIP3    H114511   6.126   5.233   3.290 -0.8056  1.2346 -1.0170
 4835TIP3    H214512   5.992   5.270   3.231 -0.9514  0.1389 -1.3961
 4836TIP3   OH214513   2.825   2.479   0.334 -0.0642  0.2082  0.0078
 4836TIP3    H114514   2.756   2.413   0.345 -0.5396  0.6112 -0.5419
 4836TIP3    H214515   2.890   2.456   0.401 -0.4000 -0.5920  0.0770
 4837TIP3   OH214516   0.105   2.997   2.178 -0.5097  0.0845  0.8873
 4837TIP3    H114517   0.171   2.934   2.207 -0.8908 -0.9357 -0.3645
 4837TIP3    H214518   0.053   2.950   2.113 -2.1876  1.0147  1.4897
 4838TIP3   OH214519   2.563   2.258   1.151  0.1181  0.4386  0.8581
 4838TIP3    H114520   2.571   2.353   1.157 -2.4552  0.7115  0.9473
 4838TIP3    H214521   2.559   2.228   1.242  0.2799  0.3063  0.8229
 4839TIP3   OH214522   5.328   4.112   0.650 -0.3315 -0.1987  0.0995
 4839TIP3    H114523   5.407   4.060   0.639  1.0954  1.4819  1.6470
 4839TIP3    H214524   5.307   4.104   0.743 -0.6338  1.1784  0.1666
 4840TIP3   OH214525   1.322   4.976   0.747  0.4586  0.2282  0.4652
 4840TIP3    H114526   1.268   5.005   0.821  1.8413  2.0165  0.8644
 4840TIP3    H214527   1.260   4.955   0.678 -0.9159 -1.9550  2.2193
 4841TIP3   OH214528   2.790   3.228   4.232 -0.1735 -0.1368  0.1776
 4841TIP3    H114529   2.703   3.262   4.207 -0.0732 -0.1451 -0.1982
 4841TIP3    H214530   2.840   3.306   4.255 -0.6882 -0.2349  1.7536
 4842TIP3   OH214531   4.946   1.325   2.129 -0.2109  0.4758 -0.2441
 4842TIP3    H114532   4.883   1.271   2.176  1.0648  0.4551  1.5673
 4842TIP3    H214533   4.951   1.287   2.041  0.3103 -2.1293  0.8235
 4843TIP3   OH214534   3.710   4.895   5.138  0.2165  0.0308  0.4535
 4843TIP3    H114535   3.704   4.990   5.152 -0.3880  0.1566 -0.5298
 4843TIP3    H214536   3.763   4.886   5.059  0.2764 -0.4546  0.5446
 4844TIP3   OH214537   3.784   4.368   0.668 -0.0227  0.4204 -0.2523
 4844TIP3    H114538   3.747   4.358   0.756  2.0760  1.4082  0.8295
 4844TIP3    H214539   3.839   4.291   0.657 -1.0839 -0.2352 -1.1820
 4845TIP3   OH214540   5.355   1.928   4.597 -0.4534 -0.0970  0.3602
 4845TIP3    H114541   5.419   1.866   4.630 -0.6133  0.5817  2.0112
 4845TIP3    H214542   5.402   1.979   4.531  0.2606 -0.5945  0.4824
 4846TIP3   OH214543   5.732   1.531   0.058 -0.2491 -0.1372  0.0482
 4846TIP3    H114544   5.712   1.624   0.058  0.4183  0.0109  0.9820
 4846TIP3    H214545   5.820   1.525   0.021 -0.2477 -0.3975  0.0893
 4847TIP3   OH214546   2.307   4.261   1.921 -0.7181 -0.4133 -0.2016
 4847TIP3    H114547   2.371   4.208   1.873 -1.2595  0.8805 -2.4531
 4847TIP3    H214548   2.275   4.325   1.857 -2.8888  0.1966  1.3861
 4848TIP3   OH214549   0.716   5.241   2.744  0.7818 -0.0482  0.3564
 4848TIP3    H114550   0.645   5.184   2.773 -1.7868  1.7237 -1.9340
 4848TIP3    H214551   0.751   5.197   2.666 -1.1749  1.3084 -1.3883
 4849TIP3   OH214552   4.241   5.534   0.705 -0.0663  0.3407 -0.0001
 4849TIP3    H114553   4.303   5.604   0.686  0.9278 -0.5672 -0.1443
 4849TIP3    H214554   4.205   5.509   0.619 -2.8582  2.7895  0.2820
 4850TIP3   OH214555   1.900   4.689   1.866  0.0949 -0.3403 -0.5003
 4850TIP3    H114556   1.967   4.734   1.815 -0.8658  0.7891 -0.8383
 4850TIP3    H214557   1.866   4.622   1.808  0.0779 -0.0824 -0.7914
 4851TIP3   OH214558   0.203   2.860   2.665 -0.6881  0.2962  0.1023
 4851TIP3    H114559   0.200   2.954   2.683 -0.9460  0.1281  1.0250
 4851TIP3    H214560   0.175   2.820   2.747 -2.3210 -0.5409 -0.8195
 4852TIP3   OH214561   3.570   5.135   3.257  0.1093 -0.1863  0.0847
 4852TIP3    H114562   3.506   5.071   3.226 -0.6187 -0.1617  1.4585
 4852TIP3    H214563   3.638   5.082   3.299 -0.3593 -0.0974  0.9824
 4853TIP3   OH214564   3.456   2.345   0.057  0.0816  0.0466  0.0381
 4853TIP3    H114565   3.513   2.271   0.075 -0.4255  0.1182  2.2092
 4853TIP3    H214566   3.391   2.342   0.127 -1.6967  0.8544 -1.4803
 4854TIP3   OH214567   2.398   5.458   0.468 -0.1548 -0.4029 -0.0383
 4854TIP3    H114568   2.356   5.542   0.487  0.1271 -0.1510 -0.5074
 4854TIP3    H214569   2.488   5.481   0.445  0.7288 -1.0529  2.4665
 4855TIP3   OH214570   4.043   0.318   4.145  0.1956  0.0219  0.5453
 4855TIP3    H114571   4.098   0.274   4.210  0.7548 -1.1151 -0.6416
 4855TIP3    H214572   3.959   0.272   4.149  1.2553 -2.4567 -1.8081
 4856TIP3   OH214573   1.384   1.199   2.335  0.2985 -0.3629 -0.0822
 4856TIP3    H114574   1.324   1.248   2.391  1.1407  0.2334  0.3132
 4856TIP3    H214575   1.416   1.128   2.391  0.5987 -0.1845 -0.0249
 4857TIP3   OH214576   4.927   4.417   1.105  0.5535 -0.3657 -0.3479
 4857TIP3    H114577   4.939   4.448   1.016 -0.4603  0.7825 -0.1113
 4857TIP3    H214578   4.898   4.494   1.154 -2.3534 -1.6606  0.1919
 4858TIP3   OH214579   1.257   4.894   4.826  0.1908 -0.1120 -0.5137
 4858TIP3    H114580   1.245   4.827   4.759  0.1198  0.8579 -1.5041
 4858TIP3    H214581   1.168   4.915   4.855  0.2442 -0.7667  0.1216
 4859TIP3   OH214582   4.274   2.530   3.357 -0.2986 -0.0074 -0.5045
 4859TIP3    H114583   4.280   2.620   3.325  0.1237  0.4083  0.6982
 4859TIP3    H214584   4.346   2.521   3.419 -0.6860 -0.9915 -0.1731
 4860TIP3   OH214585   0.524   4.082   5.129  0.5124 -0.1353 -0.5221
 4860TIP3    H114586   0.592   4.121   5.074  1.3115 -0.1498  0.4374
 4860TIP3    H214587   0.451   4.145   5.125  1.0883  0.5440 -0.4792
 4861TIP3   OH214588   0.847   3.917   2.677 -0.4227 -0.4841  0.1127
 4861TIP3    H114589   0.806   3.856   2.616 -2.0740 -0.4316  1.1031
 4861TIP3    H214590   0.811   3.893   2.763  0.6871  0.3980  0.8566
 4862TIP3   OH214591   5.111   5.239   0.354 -0.0998  0.7703 -0.1445
 4862TIP3    H114592   5.059   5.200   0.424  1.5010 -2.3471 -0.5248
 4862TIP3    H214593   5.185   5.279   0.399  0.5272 -0.5535  0.0346
 4863TIP3   OH214594   5.593   2.465   4.209 -0.3945 -0.2044 -0.3968
 4863TIP3    H114595   5.674   2.428   4.174  0.5072  2.0000 -0.8158
 4863TIP3    H214596   5.529   2.396   4.198  1.1196 -1.5415 -1.3405
 4864TIP3   OH214597   1.283   5.252   3.555 -0.0383  0.1201  0.1423
 4864TIP3    H114598   1.315   5.164   3.573 -0.7236 -0.3227 -0.7160
 4864TIP3    H214599   1.362   5.306   3.548  0.3364 -0.1114  2.1307
 4865TIP3   OH214600   5.269   4.382   4.958 -0.1839 -0.1264  0.2988
 4865TIP3    H114601   5.340   4.446   4.951 -1.4171  1.1463 -1.3634
 4865TIP3    H214602   5.269   4.336   4.874 -0.7365 -0.7594  0.6309
 4866TIP3   OH214603   1.263   4.696   1.189 -0.1453  0.9053  0.0871
 4866TIP3    H114604   1.212   4.713   1.110  1.1047  1.0488 -0.7268
 4866TIP3    H214605   1.349   4.733   1.169  0.4710  0.0823  1.1494
 4867TIP3   OH214606   0.026   0.072   1.412 -0.2815 -0.2949  0.1860
 4867TIP3    H114607   0.041  -0.022   1.403  0.7636 -0.0976 -0.3076
 4867TIP3    H214608   0.054   0.109   1.328 -1.1854  0.4065  0.1735
 4868TIP3   OH214609   3.665   1.564   2.197 -0.0445  0.3187 -0.3762
 4868TIP3    H114610   3.628   1.652   2.201 -1.1829 -0.1529  0.2936
 4868TIP3    H214611   3.598   1.512   2.153  0.7972 -0.1310 -1.1437
 4869TIP3   OH214612   3.077   4.290   1.282 -0.1629 -0.3139  0.0071
 4869TIP3    H114613   3.089   4.384   1.290 -0.3150 -0.2998  0.0790
 4869TIP3    H214614   3.033   4.278   1.198 -2.0552 -0.1416  0.9118
 4870TIP3   OH214615   5.239   0.231   4.951 -0.1187 -0.1418  0.1166
 4870TIP3    H114616   5.177   0.162   4.972 -0.0451  0.0406  0.9440
 4870TIP3    H214617   5.184   0.305   4.924 -0.3005  0.1598  1.2513
 4871TIP3   OH214618   3.146   2.412   0.161 -0.1003 -0.2323  0.5932
 4871TIP3    H114619   3.073   2.459   0.122  0.4242 -1.2503 -1.8226
 4871TIP3    H214620   3.117   2.321   0.166  0.7324 -0.5368  0.2175
 4872TIP3   OH214621   1.387   3.919   0.340 -0.0118  0.2882 -0.4929
 4872TIP3    H114622   1.451   3.895   0.274  0.6487 -2.5862  1.0211
 4872TIP3    H214623   1.438   3.960   0.410  0.1330 -1.2939  0.3734
 4873TIP3   OH214624   0.143   5.703   4.412 -0.0223  0.3970 -0.0026
 4873TIP3    H114625   0.190   5.708   4.495 -0.2813  0.9523  0.1120
 4873TIP3    H214626   0.138   5.793   4.381 -0.4619  0.2674 -0.3231
 4874TIP3   OH214627   3.733   2.847   4.976 -0.3115 -0.4041 -0.3502
 4874TIP3    H114628   3.678   2.793   4.919  0.6382 -0.2409 -1.4852
 4874TIP3    H214629   3.785   2.900   4.915 -1.3888  2.0117  0.7366
 4875TIP3   OH214630   1.218   2.749   4.879  0.5949 -0.1764 -0.2775
 4875TIP3    H114631   1.198   2.664   4.919 -2.2520 -0.3442 -1.8107
 4875TIP3    H214632   1.248   2.728   4.791  1.0896  0.3912 -0.2542
 4876TIP3   OH214633   4.559   3.391   0.960 -0.2790 -0.0185  0.2803
 4876TIP3    H114634   4.581   3.373   0.869  1.3800  0.5356  0.5405
 4876TIP3    H214635   4.563   3.306   1.003  0.1542 -0.1087  0.0680
 4877TIP3   OH214636   0.278   5.801   2.479  0.2052 -0.3073  0.2076
 4877TIP3    H114637   0.285   5.708   2.456  0.1176 -0.3226  0.2457
 4877TIP3    H214638   0.347   5.843   2.427  1.2520 -0.5914  1.3134
 4878TIP3   OH214639   1.656   5.903   1.013 -0.0258 -0.2596 -0.1813
 4878TIP3    H114640   1.672   5.969   0.945  2.2890 -0.8125 -0.2421
 4878TIP3    H214641   1.607   5.950   1.080  0.0034  1.0388 -1.0190
 4879TIP3   OH214642   3.063   4.369   4.258 -0.0789 -1.7262 -0.1288
 4879TIP3    H114643   3.151   4.338   4.280  0.2642 -0.8073 -0.1688
 4879TIP3    H214644   3.007   4.333   4.327  0.8411  0.3963  1.8621
 4880TIP3   OH214645   1.506   2.796   4.473 -0.4230  0.4962 -0.4134
 4880TIP3    H114646   1.477   2.874   4.519 -1.0151  0.1805 -0.2342
 4880TIP3    H214647   1.602   2.797   4.480 -0.4908  0.5484  0.6737
 4881TIP3   OH214648   5.869   1.619   1.821  0.2101  0.4766 -0.0440
 4881TIP3    H114649   5.882   1.527   1.847  1.4094  0.6065 -0.0951
 4881TIP3    H214650   5.859   1.666   1.904 -3.3724 -0.0190 -0.0446
 4882TIP3   OH214651   5.135   0.910   0.598 -0.5836 -0.0882 -0.1468
 4882TIP3    H114652   5.168   0.988   0.642 -0.0529 -1.4653  2.0454
 4882TIP3    H214653   5.090   0.943   0.521  1.3505  2.2167 -0.3765
 4883TIP3   OH214654   1.856   3.966   2.331  0.2195 -0.0593  0.4812
 4883TIP3    H114655   1.816   3.889   2.370 -2.3287  1.3053  0.7930
 4883TIP3    H214656   1.886   3.936   2.245 -1.7691 -1.1874  0.1071
 4884TIP3   OH214657   1.277   4.513   3.403  0.1593  0.0386 -0.4590
 4884TIP3    H114658   1.194   4.560   3.404 -0.5934 -1.2597  0.2962
 4884TIP3    H214659   1.266   4.442   3.466  0.5526 -2.3072 -2.8287
 4885TIP3   OH214660   5.658   2.486   2.460  0.0678 -0.6290  0.0509
 4885TIP3    H114661   5.587   2.441   2.506 -0.3579  0.7509  0.8064
 4885TIP3    H214662   5.737   2.439   2.486 -0.2846 -0.5300  1.3734
 4886TIP3   OH214663   4.381   5.630   3.400 -0.0841  0.2939  0.0435
 4886TIP3    H114664   4.303   5.659   3.352 -1.3387  1.0008  2.3419
 4886TIP3    H214665   4.368   5.535   3.411  0.0481  0.1850 -0.6829
 4887TIP3   OH214666   5.148   0.197   3.194  0.2313 -0.6282 -0.6607
 4887TIP3    H114667   5.203   0.224   3.267 -1.8596  1.1923  0.3612
 4887TIP3    H214668   5.084   0.137   3.233  0.2181 -1.1254 -1.4165
 4888TIP3   OH214669   0.428   4.906   3.001 -0.2566  0.1598  0.0054
 4888TIP3    H114670   0.488   4.940   2.934 -0.2564  0.2909  0.0716
 4888TIP3    H214671   0.351   4.877   2.953 -0.0200 -0.2815 -0.1123
 4889TIP3   OH214672   3.762   0.688   4.077  0.2403  0.1934 -0.4270
 4889TIP3    H114673   3.688   0.721   4.129 -1.1789 -0.2453 -2.0489
 4889TIP3    H214674   3.767   0.747   4.002 -0.5883 -1.5656 -1.9727
 4890TIP3   OH214675   4.475   5.209   0.408  0.0646  0.3971  0.0204
 4890TIP3    H114676   4.414   5.263   0.358 -0.5720 -0.0943  0.2440
 4890TIP3    H214677   4.433   5.200   0.494 -0.0696 -0.8073 -0.1474
 4891TIP3   OH214678   2.487   1.718   2.579 -0.5588  0.7459 -0.0092
 4891TIP3    H114679   2.451   1.783   2.519 -0.7247 -0.1958 -0.9710
 4891TIP3    H214680   2.434   1.726   2.658 -0.1945  2.1625  0.1208
 4892TIP3   OH214681   2.055   4.878   0.597 -0.2436 -0.3095  0.2290
 4892TIP3    H114682   2.100   4.953   0.634  1.6106 -1.5115  0.5502
 4892TIP3    H214683   1.972   4.913   0.565  0.6185  1.8761  0.2152
 4893TIP3   OH214684   2.421   0.103   1.918  0.0887  0.4900 -0.0039
 4893TIP3    H114685   2.407   0.146   1.834 -1.5253 -1.3263 -0.7367
 4893TIP3    H214686   2.333   0.078   1.947  0.8930 -2.2577  0.3591
 4894TIP3   OH214687   5.887   5.895   2.697  0.7277 -0.9762  0.1758
 4894TIP3    H114688   5.835   5.959   2.649 -0.3100 -0.7529  1.5411
 4894TIP3    H214689   5.843   5.811   2.680  0.8157 -1.0096  0.1133
 4895TIP3   OH214690   2.069   3.973   2.927  0.0823  0.6034  0.3134
 4895TIP3    H114691   2.040   3.884   2.904  1.0244  0.0264  1.2544
 4895TIP3    H214692   1.989   4.026   2.923 -0.5921 -0.3880  0.2449
 4896TIP3   OH214693   1.120   3.910   2.622  0.4149 -0.1833 -0.0040
 4896TIP3    H114694   1.025   3.903   2.634  0.4926 -0.5714  0.4002
 4896TIP3    H214695   1.143   3.990   2.668  0.1428  0.4732 -0.9759
 4897TIP3   OH214696   5.731   3.336   4.001  0.1629 -0.1019 -0.1262
 4897TIP3    H114697   5.653   3.310   4.049  0.3578 -0.2909  0.0942
 4897TIP3    H214698   5.712   3.313   3.910 -0.3290  0.5406 -0.1925
 4898TIP3   OH214699   2.783   1.721   1.997 -0.0197 -0.5552 -0.3248
 4898TIP3    H114700   2.779   1.816   1.986  0.2698 -0.6377 -1.2449
 4898TIP3    H214701   2.785   1.707   2.092  1.1823  0.4114 -0.1855
 4899TIP3   OH214702   4.766   0.038   2.244 -0.9421  0.1916 -0.4014
 4899TIP3    H114703   4.769   0.015   2.336  0.7076  0.5336 -0.3280
 4899TIP3    H214704   4.718   0.121   2.242 -0.6575  0.3771  0.1965
 4900TIP3   OH214705   5.115   0.077   1.965  0.5475 -0.4641 -0.0055
 4900TIP3    H114706   5.151  -0.000   1.921  1.3856  0.4034 -0.8891
 4900TIP3    H214707   5.035   0.096   1.916 -0.3706 -1.5223  1.0350
 4901TIP3   OH214708   5.404   3.768   2.051  0.2517  0.0627  0.4020
 4901TIP3    H114709   5.438   3.854   2.025  0.3409  0.0352  0.4292
 4901TIP3    H214710   5.328   3.788   2.106 -0.6923  0.1174 -0.8826
 4902TIP3   OH214711   1.785   5.448   0.511  0.0111  0.0143 -0.2462
 4902TIP3    H114712   1.879   5.438   0.530  0.3053  2.8560  0.1030
 4902TIP3    H214713   1.776   5.538   0.480 -2.7987  0.1904  0.8345
 4903TIP3   OH214714   5.477   0.127   4.878  0.2767 -0.2739 -0.1775
 4903TIP3    H114715   5.390   0.141   4.916  1.2570  0.3759  1.9467
 4903TIP3    H214716   5.491   0.033   4.884  0.0891 -0.2728  0.3346
 4904TIP3   OH214717   3.547   5.147   4.814  0.0820  0.2097  0.8164
 4904TIP3    H114718   3.473   5.182   4.763  0.0117 -0.2753  0.5797
 4904TIP3    H214719   3.604   5.106   4.749  1.2445  1.7218  0.8242
 4905TIP3   OH214720   0.047   1.316   0.328 -0.2081 -0.6445 -0.6651
 4905TIP3    H114721  -0.038   1.348   0.300  0.3100 -0.0912 -1.6826
 4905TIP3    H214722   0.078   1.262   0.255  0.9720  0.4540 -1.0291
 4906TIP3   OH214723   0.574   5.649   4.466 -0.8401  0.4381 -0.0274
 4906TIP3    H114724   0.527   5.574   4.502  1.3320 -0.9316  0.1323
 4906TIP3    H214725   0.544   5.654   4.375 -0.1314 -1.4845 -0.4299
 4907TIP3   OH214726   2.425   0.162   2.309  0.2513  0.6681  0.0916
 4907TIP3    H114727   2.451   0.217   2.382  0.7500  0.2585  0.2233
 4907TIP3    H214728   2.329   0.163   2.312  0.2650  0.9342  0.5363
 4908TIP3   OH214729   3.738   4.740   4.664  0.0381  0.6218 -0.0001
 4908TIP3    H114730   3.649   4.768   4.645  0.1463  0.3000 -1.0413
 4908TIP3    H214731   3.736   4.644   4.656  0.7353  0.6890 -1.2621
 4909TIP3   OH214732   3.081   4.582   1.299  0.2030 -0.2263  0.6006
 4909TIP3    H114733   3.153   4.623   1.346 -0.1431  1.6193 -0.3863
 4909TIP3    H214734   3.074   4.632   1.217 -2.2515 -0.2598  0.7138
 4910TIP3   OH214735   4.106   1.346   2.233 -0.1983  0.1608  0.3989
 4910TIP3    H114736   4.035   1.360   2.170  0.9482 -0.9058 -1.1972
 4910TIP3    H214737   4.065   1.357   2.318 -1.8799  1.3432 -0.5047
 4911TIP3   OH214738   0.499   1.426   4.412  0.0805 -0.1834 -0.5902
 4911TIP3    H114739   0.508   1.454   4.503  2.3718  0.1630 -0.8778
 4911TIP3    H214740   0.414   1.462   4.385  0.3639  1.6423  0.7484
 4912TIP3   OH214741   5.660   1.949   3.774  0.1214  0.2742  0.2015
 4912TIP3    H114742   5.681   1.927   3.865  1.1179 -0.1797 -0.1247
 4912TIP3    H214743   5.693   2.038   3.763 -2.3162  1.3717  1.0015
 4913TIP3   OH214744   5.565   1.473   0.986 -0.1261 -0.1788  0.4901
 4913TIP3    H114745   5.589   1.558   1.023 -0.0009 -0.6548  1.5380
 4913TIP3    H214746   5.553   1.490   0.893  0.1573  0.9320  0.6418
 4914TIP3   OH214747   4.547   3.308   4.553  0.2027 -0.2333  0.3391
 4914TIP3    H114748   4.552   3.400   4.530  2.3480 -0.4470 -0.2230
 4914TIP3    H214749   4.466   3.301   4.604 -0.3124  1.8199 -0.0979
 4915TIP3   OH214750   3.849   5.060   2.424 -0.1117 -0.4878 -0.4505
 4915TIP3    H114751   3.810   4.982   2.463  0.3938  0.4413  2.1571
 4915TIP3    H214752   3.840   5.128   2.492  0.6192  1.3739 -2.1038
 4916TIP3   OH214753   3.962   3.073   3.206 -0.3605  0.1137  0.1949
 4916TIP3    H114754   4.014   3.085   3.127 -1.6238 -2.5149 -1.1686
 4916TIP3    H214755   3.892   3.138   3.198  0.2508  0.7352 -0.1783
 4917TIP3   OH214756   4.653   4.671   0.088  0.5842  0.2040  0.1738
 4917TIP3    H114757   4.698   4.596   0.129 -0.5574 -1.1975 -1.0067
 4917TIP3    H214758   4.679   4.746   0.141  0.2116 -1.2997  2.6818
 4918TIP3   OH214759   5.103   5.539   4.287  0.3532 -0.3529 -0.2431
 4918TIP3    H114760   5.028   5.486   4.312  0.8935 -0.4364  1.2979
 4918TIP3    H214761   5.131   5.503   4.202 -1.2322 -0.4081 -0.7659
 4919TIP3   OH214762   1.871   2.923   1.628 -0.0392  0.3712  0.0313
 4919TIP3    H114763   1.882   2.868   1.551  0.6294 -0.1500  0.4813
 4919TIP3    H214764   1.873   2.862   1.702 -1.8176  0.7258  0.4254
 4920TIP3   OH214765   5.726   2.860   5.082  0.2906  0.0920  1.0528
 4920TIP3    H114766   5.639   2.899   5.090  0.5811  1.8736 -2.6062
 4920TIP3    H214767   5.709   2.768   5.062 -0.7402  0.3230  0.8111
 4921TIP3   OH214768   4.809   4.565   4.417 -0.2741 -0.1809 -0.8424
 4921TIP3    H114769   4.789   4.501   4.348 -1.3606  0.0243 -0.7350
 4921TIP3    H214770   4.816   4.512   4.496 -0.0694 -0.2982 -0.9387
 4922TIP3   OH214771   1.018   1.272   1.315  0.3741 -0.0041  0.8565
 4922TIP3    H114772   0.940   1.222   1.291  1.4514 -1.8428  0.9677
 4922TIP3    H214773   1.055   1.300   1.231 -0.8551  1.6994  0.8296
 4923TIP3   OH214774   4.611   1.359   1.293  0.0183 -0.0337  0.1418
 4923TIP3    H114775   4.568   1.382   1.376  0.7346 -1.5602  0.9781
 4923TIP3    H214776   4.540   1.334   1.234 -0.4316  0.1468  0.6001
 4924TIP3   OH214777   4.326   2.228   0.802 -0.3833  0.3348  0.0641
 4924TIP3    H114778   4.361   2.140   0.789 -0.8209 -0.0167  1.1727
 4924TIP3    H214779   4.403   2.285   0.803 -0.0202 -0.1549  0.2659
 4925TIP3   OH214780   5.645   0.500   1.891 -0.8198  0.1734  0.4418
 4925TIP3    H114781   5.712   0.475   1.826 -0.6269 -1.4451  1.2114
 4925TIP3    H214782   5.633   0.594   1.878  1.0175  0.3545 -0.2766
 4926TIP3   OH214783   5.416   3.159   1.570 -0.1826  0.6351  0.1504
 4926TIP3    H114784   5.467   3.087   1.607 -0.6757 -0.4978 -1.2754
 4926TIP3    H214785   5.384   3.208   1.647  3.1431  1.5422  1.1036
 4927TIP3   OH214786   1.009   3.530   4.208  0.1586  0.9471  0.0151
 4927TIP3    H114787   0.973   3.607   4.164 -0.8843  0.1254 -0.6131
 4927TIP3    H214788   0.932   3.479   4.233  0.7671  0.8309  1.8047
 4928TIP3   OH214789   4.771   0.528   3.506  0.2502  0.0980 -0.1990
 4928TIP3    H114790   4.768   0.616   3.469 -2.1769  1.1907  2.1978
 4928TIP3    H214791   4.835   0.535   3.578  0.9103 -0.4612 -0.7171
 4929TIP3   OH214792   3.186   1.500   3.812  0.6720  0.0344  0.4101
 4929TIP3    H114793   3.244   1.425   3.809  0.5183 -0.0704 -0.1030
 4929TIP3    H214794   3.108   1.469   3.858 -0.0043 -0.5766 -1.0649
 4930TIP3   OH214795   4.867   5.089   3.979  0.1454  0.2592  0.0907
 4930TIP3    H114796   4.821   5.135   3.909 -0.3950  0.6501  0.6914
 4930TIP3    H214797   4.915   5.158   4.025  1.3422 -0.1443 -0.5258
 4931TIP3   OH214798   3.238   5.079   3.471  0.5565 -0.1198 -0.3751
 4931TIP3    H114799   3.150   5.099   3.441  0.7796 -0.1052 -1.0353
 4931TIP3    H214800   3.231   5.075   3.566 -0.2893 -0.7709 -0.4568
 4932TIP3   OH214801   5.692   3.202   0.692  0.1765 -0.5599  0.7115
 4932TIP3    H114802   5.698   3.285   0.645  1.7347 -2.2596 -2.4207
 4932TIP3    H214803   5.599   3.193   0.713 -0.1897  1.4400  0.2154
 4933TIP3   OH214804   1.144   5.059   1.828  0.1721  0.2368 -0.0876
 4933TIP3    H114805   1.229   5.049   1.871  1.0189 -0.2145 -1.7528
 4933TIP3    H214806   1.083   5.078   1.899  1.1710 -2.0197  1.4906
 4934TIP3   OH214807   0.130   5.262   0.973  0.2077 -0.3597  0.4299
 4934TIP3    H114808   0.201   5.262   1.036 -0.3518  0.2616  1.0769
 4934TIP3    H214809   0.075   5.188   0.998 -0.1132 -0.0021  0.7920
 4935TIP3   OH214810   0.464   3.838   3.111 -0.4348  0.0766 -0.6058
 4935TIP3    H114811   0.418   3.921   3.097 -0.0112  0.5834  0.7833
 4935TIP3    H214812   0.513   3.851   3.192 -1.1145 -1.8598  0.1847
 4936TIP3   OH214813   3.352   0.527   1.301  0.1668 -0.5411  0.5208
 4936TIP3    H114814   3.375   0.594   1.365 -0.0623 -0.7059  0.7766
 4936TIP3    H214815   3.331   0.577   1.222 -1.4710 -0.1794  1.1281
 4937TIP3   OH214816   5.130   0.035   0.870 -0.2911 -0.4979 -0.2576
 4937TIP3    H114817   5.202  -0.023   0.846 -1.4032 -1.3802 -1.5808
 4937TIP3    H214818   5.171   0.122   0.876  0.9262 -1.0174 -0.6517
 4938TIP3   OH214819   2.007   3.750   2.186  0.4743  0.2729  0.0491
 4938TIP3    H114820   1.935   3.689   2.169  1.1026  0.0713 -2.1282
 4938TIP3    H214821   2.083   3.693   2.200  0.4888  0.5231  1.1283
 4939TIP3   OH214822   4.009   5.993   2.634 -0.0314 -0.3765  0.4222
 4939TIP3    H114823   4.052   5.913   2.663  0.3382 -0.3708 -0.0926
 4939TIP3    H214824   4.007   5.986   2.539 -0.5353 -0.0462  0.4041
 4940TIP3   OH214825   0.536   0.888   4.574 -0.4980  0.3904  0.0620
 4940TIP3    H114826   0.485   0.968   4.560  0.7978  1.1520 -0.4232
 4940TIP3    H214827   0.537   0.845   4.488  2.4724  2.1033 -0.9129
 4941TIP3   OH214828   2.461   2.816   0.769 -0.4381 -0.4074  0.4047
 4941TIP3    H114829   2.515   2.887   0.803 -0.6658 -0.8550  1.7899
 4941TIP3    H214830   2.505   2.787   0.690  0.8924 -0.2235  1.0597
 4942TIP3   OH214831   4.089   0.260   5.203  0.1185  0.4683  0.2312
 4942TIP3    H114832   4.037   0.235   5.126  2.5134  0.2289 -1.4160
 4942TIP3    H214833   4.147   0.186   5.218  1.2653  1.4601  0.8184
 4943TIP3   OH214834   5.132   2.111   2.137 -0.6432  0.4410  0.3885
 4943TIP3    H114835   5.110   2.152   2.053 -1.6459  0.1182  0.4782
 4943TIP3    H214836   5.214   2.152   2.162  0.6358 -0.7489 -1.6017
 4944TIP3   OH214837   5.304   1.996  -0.036 -0.9537  0.4696  0.3851
 4944TIP3    H114838   5.383   1.953  -0.003 -0.2402  1.8340  0.5568
 4944TIP3    H214839   5.271   2.046   0.039 -2.3694 -0.5717  0.5010
 4945TIP3   OH214840   3.663   2.173   0.126 -0.0156  0.0895  0.3743
 4945TIP3    H114841   3.759   2.174   0.127  0.0105  1.2667  2.5361
 4945TIP3    H214842   3.638   2.172   0.219 -2.1184 -0.5811 -0.1421
 4946TIP3   OH214843   5.792   2.860   4.354  0.7268 -0.0200  0.0714
 4946TIP3    H114844   5.835   2.796   4.298  0.6260  0.2953 -0.3723
 4946TIP3    H214845   5.698   2.841   4.344  0.7504 -0.9012  1.2660
 4947TIP3   OH214846   4.897   3.830   2.863 -0.6491 -0.7454 -0.2781
 4947TIP3    H114847   4.846   3.862   2.788  0.3569 -0.1373 -0.7236
 4947TIP3    H214848   4.906   3.736   2.847  0.4345 -0.4660 -1.5055
 4948TIP3   OH214849   4.353   3.524   1.219 -0.1300 -0.2278 -0.1435
 4948TIP3    H114850   4.384   3.479   1.298  1.3265  0.2033 -0.4252
 4948TIP3    H214851   4.287   3.585   1.251  3.0706  2.7566  1.4922
 4949TIP3   OH214852   0.287   5.443   0.266  0.7288  0.0503 -0.5995
 4949TIP3    H114853   0.236   5.389   0.325  0.4690 -0.4535 -1.2720
 4949TIP3    H214854   0.313   5.384   0.195  2.9623  0.0617  0.1304
 4950TIP3   OH214855   1.796   2.833   4.532 -0.3097 -0.1112  0.0723
 4950TIP3    H114856   1.764   2.868   4.615 -1.7879 -1.9667  0.3480
 4950TIP3    H214857   1.795   2.908   4.472 -2.2369  0.5928  0.9138
 4951TIP3   OH214858   3.381   0.464   4.161  0.2936  0.1438  0.5179
 4951TIP3    H114859   3.339   0.398   4.215 -0.7940 -0.4241 -0.9447
 4951TIP3    H214860   3.336   0.546   4.183 -0.5822 -0.1958  0.0589
 4952TIP3   OH214861   3.152   3.927   0.447 -0.1548 -0.0639 -0.2272
 4952TIP3    H114862   3.060   3.906   0.464 -0.6538  1.2274 -1.2159
 4952TIP3    H214863   3.193   3.842   0.430 -1.7291 -0.4736 -2.3529
 4953TIP3   OH214864   0.474   2.114   4.718  0.4800  0.1628 -0.0530
 4953TIP3    H114865   0.523   2.179   4.769  0.6119  0.1393 -0.1480
 4953TIP3    H214866   0.485   2.032   4.767  1.2695 -0.0302 -0.5250
 4954TIP3   OH214867   3.901   5.187   0.450  0.2963  0.0518 -0.4416
 4954TIP3    H114868   3.810   5.198   0.423  0.5315  1.3552 -0.7543
 4954TIP3    H214869   3.944   5.142   0.377  0.1017  0.2097 -0.6505
 4955TIP3   OH214870   0.522   2.570   4.042 -0.2112 -0.0837 -0.4258
 4955TIP3    H114871   0.522   2.642   4.105  0.8562  0.0911 -0.6091
 4955TIP3    H214872   0.560   2.607   3.963 -0.5706 -0.5916 -0.8438
 4956TIP3   OH214873   5.000   0.833   1.662  0.1071  0.0414 -0.5055
 4956TIP3    H114874   5.036   0.896   1.723 -0.5887  0.3613 -0.4109
 4956TIP3    H214875   5.074   0.778   1.636  0.2039 -0.9289  1.6218
 4957TIP3   OH214876   4.962   2.776   0.276  0.0559  0.3801  0.0302
 4957TIP3    H114877   5.002   2.708   0.331 -0.4703 -0.5080 -0.6400
 4957TIP3    H214878   5.010   2.770   0.194 -1.0832 -0.3637 -0.6142
 4958TIP3   OH214879   0.159   3.440   4.015  0.6021  0.3102  0.2363
 4958TIP3    H114880   0.094   3.428   4.084  0.9594 -0.3748  0.4593
 4958TIP3    H214881   0.114   3.413   3.935  0.7226 -0.5363  0.4436
 4959TIP3   OH214882   4.315   4.734   1.023  0.3494 -0.4793 -0.5128
 4959TIP3    H114883   4.265   4.722   1.103 -0.8315  1.8289 -0.8140
 4959TIP3    H214884   4.281   4.669   0.962 -0.3929 -0.7126  0.1446
 4960TIP3   OH214885   4.524   4.864   0.653 -0.0454  0.6863 -0.2783
 4960TIP3    H114886   4.526   4.788   0.595 -0.1430  1.7361 -1.7071
 4960TIP3    H214887   4.438   4.902   0.640 -0.1072  0.8828  0.6500
 4961TIP3   OH214888   5.385   3.563   0.185 -0.2340  0.5333  0.3935
 4961TIP3    H114889   5.405   3.519   0.268 -1.5597  0.9957  0.9749
 4961TIP3    H214890   5.311   3.620   0.205  0.5961  2.0463 -0.6731
 4962TIP3   OH214891   1.671   4.011   4.595  0.1887  0.1792  0.1834
 4962TIP3    H114892   1.718   3.969   4.523 -0.2160 -0.5486  0.3378
 4962TIP3    H214893   1.619   3.941   4.635 -0.2109  0.7433  0.6817
 4963TIP3   OH214894   3.505   4.830   3.188 -0.7601  0.3701  0.1727
 4963TIP3    H114895   3.511   4.737   3.208  1.9338  0.6108  0.8161
 4963TIP3    H214896   3.412   4.851   3.200 -1.3648 -2.1181  0.3808
 4964TIP3   OH214897   2.147   2.922   2.430 -0.2729  0.4077 -0.8469
 4964TIP3    H114898   2.203   2.865   2.484 -1.4656  1.1244  1.2597
 4964TIP3    H214899   2.059   2.888   2.444 -0.7566  1.4539 -1.2705
 4965TIP3   OH214900   1.886   1.719   0.569  0.7934 -0.9108 -0.2668
 4965TIP3    H114901   1.925   1.802   0.540  0.1055 -0.2223  0.6983
 4965TIP3    H214902   1.794   1.727   0.548  0.5106 -0.9240  0.8687
 4966TIP3   OH214903   0.420   5.130   0.633 -0.0935  0.4569 -0.4827
 4966TIP3    H114904   0.476   5.054   0.621  1.4875  1.1800  1.7123
 4966TIP3    H214905   0.452   5.194   0.570  0.8803  0.4990  0.0402
 4967TIP3   OH214906   0.130   5.090   3.452 -0.3325  0.0894 -0.3193
 4967TIP3    H114907   0.135   5.022   3.519  0.4350  0.1237 -0.3311
 4967TIP3    H214908   0.201   5.069   3.391 -0.6736  0.3749 -0.8261
 4968TIP3   OH214909   4.438   2.783   3.055 -0.2610  0.3026 -0.6241
 4968TIP3    H114910   4.470   2.820   2.972  2.4067  0.6268  0.4397
 4968TIP3    H214911   4.504   2.717   3.078 -2.5915 -2.0540 -0.2625
 4969TIP3   OH214912   0.570   1.526   3.438 -0.0259 -0.5436  0.3667
 4969TIP3    H114913   0.501   1.464   3.460 -0.0500 -0.3117  0.9753
 4969TIP3    H214914   0.524   1.605   3.409 -0.0607 -0.0223  1.7621
 4970TIP3   OH214915   3.086   1.543   0.411  0.2458 -0.0212 -0.5614
 4970TIP3    H114916   3.076   1.496   0.327 -0.2337  1.2377 -1.2294
 4970TIP3    H214917   3.000   1.582   0.427  0.1594 -0.7147  0.8392
 4971TIP3   OH214918   4.236   4.444   3.070  0.3649 -0.0656 -0.6234
 4971TIP3    H114919   4.209   4.378   3.006  0.9499  0.4154 -1.3731
 4971TIP3    H214920   4.280   4.393   3.138  0.4357 -0.4982 -0.9854
 4972TIP3   OH214921   6.003   0.723   0.961  0.4169  0.0925  0.3889
 4972TIP3    H114922   5.940   0.794   0.965  0.6390  0.3755 -0.7129
 4972TIP3    H214923   6.077   0.759   0.911  0.8076 -0.6997  0.3777
 4973TIP3   OH214924   2.296   0.620   0.143  0.0457  0.4540 -0.0860
 4973TIP3    H114925   2.275   0.591   0.232  3.1824 -0.3140  0.5320
 4973TIP3    H214926   2.350   0.699   0.157 -1.0490  1.4859 -1.4333
 4974TIP3   OH214927   5.370   1.074   0.900  0.4736  0.1687 -0.2574
 4974TIP3    H114928   5.464   1.059   0.886  0.3074 -2.2463  0.7136
 4974TIP3    H214929   5.331   0.987   0.895 -1.7560  1.1232 -0.6827
 4975TIP3   OH214930   0.672   0.814   3.842  0.9004  0.0654 -0.0302
 4975TIP3    H114931   0.667   0.738   3.784 -0.0178  0.1711 -0.1077
 4975TIP3    H214932   0.609   0.876   3.806  0.4968  0.2341  0.9360
 4976TIP3   OH214933   4.553   0.307   2.170  0.4096 -0.6857 -0.3420
 4976TIP3    H114934   4.521   0.249   2.100  1.5553 -0.5308 -1.0093
 4976TIP3    H214935   4.491   0.293   2.242  0.0457 -1.9388 -0.8653
 4977TIP3   OH214936   4.727   5.709   4.743  0.4420 -0.1668  0.3641
 4977TIP3    H114937   4.655   5.656   4.711 -0.8131  0.9588  1.2249
 4977TIP3    H214938   4.724   5.788   4.688  1.4743 -0.4021 -0.0535
 4978TIP3   OH214939   4.720   3.223   4.216  0.4840 -0.0538  0.1850
 4978TIP3    H114940   4.812   3.238   4.196  0.1188 -0.2167 -1.8228
 4978TIP3    H214941   4.721   3.147   4.274  1.6261  0.1917  0.5167
 4979TIP3   OH214942   3.874   5.423   4.855 -0.1488  0.2445 -0.3832
 4979TIP3    H114943   3.880   5.411   4.761  0.0221  0.0779 -0.3515
 4979TIP3    H214944   3.939   5.492   4.874  0.8566 -0.7200 -0.2008
 4980TIP3   OH214945   2.125   4.173   4.871  0.1361 -0.3473 -0.1812
 4980TIP3    H114946   2.140   4.248   4.929  0.8279 -0.1842 -0.5506
 4980TIP3    H214947   2.033   4.150   4.884  0.2506 -0.2437  0.8805
 4981TIP3   OH214948   4.528   5.992   0.557 -0.1394  0.0626  0.2580
 4981TIP3    H114949   4.602   5.941   0.525 -0.2318 -0.9107  1.5264
 4981TIP3    H214950   4.486   6.025   0.478  0.0304 -1.6874 -0.6008
 4982TIP3   OH214951   1.131   2.775   1.400 -0.2723 -0.1792  0.0247
 4982TIP3    H114952   1.138   2.854   1.346 -1.4820 -0.2797 -0.3085
 4982TIP3    H214953   1.131   2.703   1.338  0.2862 -0.4188  0.2947
 4983TIP3   OH214954   4.339   0.554   1.326 -0.5042 -0.4098 -0.3766
 4983TIP3    H114955   4.381   0.555   1.411 -0.7392 -2.6616 -0.1639
 4983TIP3    H214956   4.248   0.580   1.343 -0.5097 -0.7016  0.0467
 4984TIP3   OH214957   0.815   2.693   4.324  0.2065 -0.6875  0.1727
 4984TIP3    H114958   0.778   2.731   4.244  1.9592 -1.8515 -1.2663
 4984TIP3    H214959   0.802   2.599   4.313 -0.6025 -0.7992  1.8568
 4985TIP3   OH214960   2.979   3.812   5.051  0.1551 -0.8054 -0.2861
 4985TIP3    H114961   3.034   3.752   5.100 -0.5733 -1.3798 -0.1517
 4985TIP3    H214962   2.982   3.780   4.961 -0.4396 -1.2180 -0.1688
 4986TIP3   OH214963   1.320   1.672   4.111 -0.5993  0.1819  0.5424
 4986TIP3    H114964   1.258   1.719   4.055 -1.4013 -2.3907 -0.8668
 4986TIP3    H214965   1.390   1.645   4.053  0.6548  0.9144  1.6517
 4987TIP3   OH214966   0.361   5.714   0.203 -0.4355  0.1937 -0.0457
 4987TIP3    H114967   0.362   5.622   0.229  0.0467 -0.0364 -0.8445
 4987TIP3    H214968   0.290   5.720   0.139  0.1274  0.1779 -0.6759
 4988TIP3   OH214969   3.587   5.807   1.011  0.5397  0.0008 -0.3268
 4988TIP3    H114970   3.672   5.764   1.023  1.1606  1.4563  0.7097
 4988TIP3    H214971   3.605   5.881   0.953  0.0388  0.4720  0.1024
 4989TIP3   OH214972   3.613   2.351   1.630  0.1384  0.3705 -0.4093
 4989TIP3    H114973   3.553   2.379   1.561  1.7326  1.4176 -1.4685
 4989TIP3    H214974   3.699   2.353   1.588  1.0890  0.3573  1.4356
 4990TIP3   OH214975   1.013   0.465   4.429 -0.1383  0.1598 -0.4425
 4990TIP3    H114976   0.923   0.468   4.396 -0.3139 -1.1727 -0.1398
 4990TIP3    H214977   1.003   0.441   4.521  0.4331  2.1954  0.1967
 4991TIP3   OH214978   0.589   3.321   1.335 -0.4759  0.0235  0.1149
 4991TIP3    H114979   0.567   3.394   1.394  0.1646  0.5567 -0.2917
 4991TIP3    H214980   0.681   3.302   1.355 -0.2143  0.2952 -0.7902
 4992TIP3   OH214981   1.964   2.375   1.643  0.5051 -0.0796  0.1261
 4992TIP3    H114982   1.913   2.297   1.621  0.8065 -0.0137 -0.8578
 4992TIP3    H214983   2.029   2.381   1.573  0.0614  1.4194 -0.1923
 4993TIP3   OH214984   0.923   4.616   2.676  0.1559 -0.3430 -0.3786
 4993TIP3    H114985   0.855   4.666   2.633 -0.2914 -0.0060  0.6814
 4993TIP3    H214986   0.973   4.681   2.726 -0.5876 -0.9492  1.2216
 4994TIP3   OH214987   5.306   4.912   2.014  0.4514  0.3805 -0.1583
 4994TIP3    H114988   5.212   4.929   2.009  0.1049 -1.5959 -1.5882
 4994TIP3    H214989   5.346   4.998   2.029 -1.5997  1.1642  1.1525
 4995TIP3   OH214990   1.626   3.995   1.122 -0.5681  0.4061  0.3281
 4995TIP3    H114991   1.696   4.024   1.064  1.0213 -2.9513  0.2873
 4995TIP3    H214992   1.566   3.946   1.066  0.8971 -2.7276  1.2337
 4996TIP3   OH214993   2.373   4.313   2.811  0.1526  0.0326 -0.2290
 4996TIP3    H114994   2.460   4.319   2.850  0.0639 -0.2983  0.0226
 4996TIP3    H214995   2.389   4.307   2.717  0.3693  0.7823 -0.2471
 4997TIP3   OH214996   0.067   0.861   0.478  0.8470  0.4843 -0.2259
 4997TIP3    H114997   0.121   0.915   0.421  1.4655  0.0547 -0.0581
 4997TIP3    H214998   0.124   0.787   0.502  0.4202  0.3917  0.5199
 4998TIP3   OH214999   5.142   4.090   1.994 -0.9310  0.4938  0.3561
 4998TIP3    H115000   5.163   4.069   2.085  0.9355  2.0434  0.3602
 4998TIP3    H215001   5.049   4.070   1.985 -0.7686 -1.3070  2.0954
 4999TIP3   OH215002   0.079   4.848   4.139 -0.3159 -0.1768 -0.5865
 4999TIP3    H115003   0.028   4.918   4.098 -0.2886  1.2253  1.6097
 4999TIP3    H215004   0.034   4.767   4.115 -0.7965  0.6173 -2.5526
 5000TIP3   OH215005   2.219   0.635   3.765 -0.0670  0.1858  0.1097
 5000TIP3    H115006   2.299   0.588   3.788  0.9095  0.3939 -2.4790
 5000TIP3    H215007   2.248   0.726   3.753 -0.6405  0.2441 -0.9506
 5001TIP3   OH215008   2.228   2.760   1.760 -0.8152 -0.1809 -0.6098
 5001TIP3    H115009   2.252   2.793   1.846 -1.0262  1.4711 -1.1396
 5001TIP3    H215010   2.194   2.673   1.776 -0.9910  0.1535  0.9936
 5002TIP3   OH215011   1.263   0.796   0.180 -0.0397 -0.0269 -0.1308
 5002TIP3    H115012   1.198   0.757   0.122 -0.4822 -2.2831  1.7493
 5002TIP3    H215013   1.278   0.730   0.247  2.6597  1.2688  0.6865
 5003TIP3   OH215014   2.165   1.945   5.007  0.2192  0.0710  0.6279
 5003TIP3    H115015   2.162   1.854   4.980 -0.3667  0.5417 -1.0279
 5003TIP3    H215016   2.244   1.952   5.060  0.2454 -1.3875  0.8293
 5004TIP3   OH215017   3.520   4.199   0.127 -0.7924  0.4157 -0.4841
 5004TIP3    H115018   3.520   4.196   0.222 -0.2962  3.0259 -0.3156
 5004TIP3    H215019   3.436   4.160   0.101 -0.3484 -1.5878  0.8895
 5005TIP3   OH215020   4.896   5.187   2.345 -0.3385 -0.7438  0.5800
 5005TIP3    H115021   4.841   5.256   2.382 -0.9842 -1.0895  0.3036
 5005TIP3    H215022   4.835   5.113   2.333 -0.0330 -0.8080 -0.6751
 5006TIP3   OH215023   2.317   0.219   2.910  0.3319 -0.4661  0.4240
 5006TIP3    H115024   2.228   0.199   2.940 -0.7914  1.3752 -1.4473
 5006TIP3    H215025   2.333   0.157   2.839  0.9092 -1.3512  1.3059
 5007TIP3   OH215026   5.500   1.824   0.070  0.2957  0.6078  0.4272
 5007TIP3    H115027   5.584   1.854   0.034 -0.5859 -0.1783 -2.5596
 5007TIP3    H215028   5.524   1.758   0.135  2.0054  0.0439 -0.7076
 5008TIP3   OH215029   5.474   1.647   5.148  0.0387 -0.2236 -0.0024
 5008TIP3    H115030   5.456   1.724   5.092  1.0421  1.0853  1.3956
 5008TIP3    H215031   5.466   1.680   5.237  1.6002 -1.4622  0.6403
 5009TIP3   OH215032   0.584   5.062   1.225  0.6269 -0.0409 -0.3511
 5009TIP3    H115033   0.512   5.001   1.213  1.7433 -1.4155 -0.2828
 5009TIP3    H215034   0.653   5.030   1.167  1.4953  0.7434  0.2160
 5010TIP3   OH215035   0.993   1.349   0.679  0.0594 -0.2681 -0.1190
 5010TIP3    H115036   1.073   1.309   0.714  0.2971  0.3072  0.0156
 5010TIP3    H215037   1.003   1.343   0.584  0.6213  0.4684 -0.1177
 5011TIP3   OH215038   2.466   4.098   3.358  0.4413  0.2358  0.1571
 5011TIP3    H115039   2.467   4.040   3.282  0.9208 -0.9333  1.0081
 5011TIP3    H215040   2.379   4.087   3.396  0.9602 -1.0166  1.0726
 5012TIP3   OH215041   2.608   2.959   2.504 -0.0386 -1.0235  0.1685
 5012TIP3    H115042   2.581   2.881   2.455  0.8910 -2.1783  1.4141
 5012TIP3    H215043   2.651   2.924   2.582  2.3096  0.7146 -0.2477
 5013TIP3   OH215044   4.257   5.431   5.100  0.1800  0.3857  0.4572
 5013TIP3    H115045   4.292   5.352   5.140 -0.7196 -0.4519 -0.3643
 5013TIP3    H215046   4.322   5.455   5.034 -0.2570 -0.5658 -0.3485
 5014TIP3   OH215047   5.589   4.380   2.283  0.6224  0.5847 -0.3808
 5014TIP3    H115048   5.575   4.473   2.265  0.8082  0.4700 -1.1526
 5014TIP3    H215049   5.684   4.369   2.280  1.2644  1.4103  5.0756
 5015TIP3   OH215050   0.571   1.190   4.806 -1.2738  0.1499 -0.5510
 5015TIP3    H115051   0.645   1.241   4.776 -0.7222 -0.5203 -0.3681
 5015TIP3    H215052   0.508   1.193   4.734 -0.0325 -1.3222 -1.7816
 5016TIP3   OH215053   3.060   0.530   1.539 -0.6932  0.0863 -0.4651
 5016TIP3    H115054   2.983   0.494   1.495 -0.9305  0.8380 -0.6802
 5016TIP3    H215055   3.111   0.454   1.566 -1.0239 -0.3975 -1.2020
 5017TIP3   OH215056   5.342   0.828   1.545  0.2761 -0.1262 -0.1752
 5017TIP3    H115057   5.352   0.920   1.570 -4.3691  0.7986 -0.8240
 5017TIP3    H215058   5.325   0.782   1.627  2.7076 -0.5285  0.1629
 5018TIP3   OH215059   4.562   0.903   1.700  0.6317  0.4703  0.0596
 5018TIP3    H115060   4.469   0.903   1.676  0.5168  0.3967  0.4954
 5018TIP3    H215061   4.580   0.813   1.724  1.1780  0.1706 -1.3641
 5019TIP3   OH215062   5.595   1.101   0.731 -0.4015 -0.2007  0.1389
 5019TIP3    H115063   5.636   1.149   0.803 -0.0553  0.2403 -0.3374
 5019TIP3    H215064   5.575   1.169   0.666 -0.7797 -0.5786 -0.1470
 5020TIP3   OH215065   4.751   4.361   3.308  0.3774  1.0028 -0.2111
 5020TIP3    H115066   4.732   4.275   3.270 -1.5587  0.6768  1.3277
 5020TIP3    H215067   4.795   4.409   3.238  0.6701 -0.9167 -1.4249
 5021TIP3   OH215068   0.611   3.761   3.389  0.9600  0.5160  0.0168
 5021TIP3    H115069   0.690   3.721   3.427  1.1852  1.0067  0.0841
 5021TIP3    H215070   0.590   3.833   3.449  0.6158  0.5520 -0.1449
 5022TIP3   OH215071   6.092   4.254   4.461  0.3834 -0.1696 -0.0047
 5022TIP3    H115072   6.135   4.310   4.526  4.5864 -1.1958 -1.5783
 5022TIP3    H215073   6.117   4.291   4.377  0.8780 -2.6447 -1.0479
 5023TIP3   OH215074   5.986   1.463   3.776  0.4104 -0.2356  0.4899
 5023TIP3    H115075   5.931   1.453   3.698 -0.1255  1.0298  0.6769
 5023TIP3    H215076   6.064   1.509   3.745  0.7996 -0.9076  0.4619
 5024TIP3   OH215077   4.645   2.834   1.092  0.0407  0.1227  0.0957
 5024TIP3    H115078   4.589   2.787   1.153  0.5328  0.3168  0.7042
 5024TIP3    H215079   4.635   2.926   1.116  1.6287  0.0651  1.0898
 5025TIP3   OH215080   0.409   5.188   4.382  0.2663 -0.6200  0.0801
 5025TIP3    H115081   0.425   5.280   4.406  1.8709 -0.7554 -0.3756
 5025TIP3    H215082   0.317   5.174   4.403  0.1942  0.8641  0.9228
 5026TIP3   OH215083   5.946   4.990   1.296 -1.0550  0.5936  0.4149
 5026TIP3    H115084   5.987   4.905   1.311 -1.0897  0.8977  2.5341
 5026TIP3    H215085   5.887   4.976   1.222 -0.0688 -0.8483 -0.1474
 5027TIP3   OH215086   4.000   1.287   3.905  0.8395 -0.4350 -0.5206
 5027TIP3    H115087   3.932   1.337   3.859  1.3020  2.1201  1.3618
 5027TIP3    H215088   3.965   1.198   3.909 -1.5294  0.3693 -1.2872
 5028TIP3   OH215089   5.513   1.260   4.292  0.3705  0.1668  0.4480
 5028TIP3    H115090   5.602   1.290   4.275  0.4698  0.4055  1.3327
 5028TIP3    H215091   5.480   1.319   4.360 -0.2557 -0.2800  0.5429
 5029TIP3   OH215092   0.105   0.381   4.582 -0.3662  0.9975 -0.3774
 5029TIP3    H115093   0.144   0.440   4.647  0.1126  0.5867 -0.2800
 5029TIP3    H215094   0.110   0.428   4.499  0.5113  0.8818 -0.3959
 5030TIP3   OH215095   1.394   2.035   3.868 -0.2822 -0.3905  0.8462
 5030TIP3    H115096   1.410   2.127   3.847 -0.8832 -0.7393 -1.4797
 5030TIP3    H215097   1.327   2.037   3.936 -0.3141  0.8874  0.8057
 5031TIP3   OH215098   2.868   0.549   0.959 -0.7872  0.1160  0.3342
 5031TIP3    H115099   2.810   0.619   0.988 -0.1415  1.1206 -0.7156
 5031TIP3    H215100   2.955   0.577   0.986 -0.4745 -0.0937 -0.4176
 5032TIP3   OH215101   3.641   0.924   0.345 -0.0636 -0.0717  0.2711
 5032TIP3    H115102   3.589   0.958   0.272 -0.9786  3.1533  2.1994
 5032TIP3    H215103   3.578   0.913   0.416  1.1269 -1.0185  1.2216
 5033TIP3   OH215104   1.662   2.354   3.223 -0.5107  0.2610 -0.0148
 5033TIP3    H115105   1.753   2.335   3.246 -1.7078 -0.7103  5.0555
 5033TIP3    H215106   1.633   2.418   3.288 -3.6778 -0.0517 -0.9406
 5034TIP3   OH215107   2.689   2.946   0.436 -0.2749  0.1473  0.0442
 5034TIP3    H115108   2.624   3.010   0.466  0.7521  0.1080  2.6854
 5034TIP3    H215109   2.772   2.980   0.469  0.5824 -1.4957 -0.3192
 5035TIP3   OH215110   0.027   3.397   4.261 -0.0661 -0.0173  0.2839
 5035TIP3    H115111   0.053   3.307   4.279 -0.7864 -0.2920 -0.0157
 5035TIP3    H215112  -0.054   3.410   4.309 -0.2669  0.2887 -0.1203
 5036TIP3   OH215113   4.489   4.375   4.618  0.0480  0.3672 -0.2083
 5036TIP3    H115114   4.463   4.459   4.656 -1.9409 -0.8003  1.2105
 5036TIP3    H215115   4.480   4.387   4.524  1.0195  2.0849 -0.1278
 5037TIP3   OH215116   2.150   3.720   3.477  0.0305 -0.8051 -0.1555
 5037TIP3    H115117   2.124   3.776   3.403 -0.6209 -0.8408  0.0454
 5037TIP3    H215118   2.238   3.690   3.453  0.3556  0.2231 -0.3103
 5038TIP3   OH215119   1.182   5.419   3.745 -0.5714 -0.3059  0.5362
 5038TIP3    H115120   1.268   5.439   3.782 -0.2611 -1.1683  0.2994
 5038TIP3    H215121   1.198   5.408   3.651 -1.4091  2.1842  0.0292
 5039TIP3   OH215122   1.264   0.592   3.980 -0.1813  0.7877 -0.9783
 5039TIP3    H115123   1.305   0.663   4.029  3.6913 -3.2310  2.5333
 5039TIP3    H215124   1.180   0.577   4.024  0.6426  0.9222  0.7014
 5040TIP3   OH215125   4.618   5.817   3.191  0.1747 -0.1499  0.4526
 5040TIP3    H115126   4.542   5.834   3.136 -0.7711 -1.3468  1.3240
 5040TIP3    H215127   4.693   5.822   3.132 -0.6092  0.6807 -0.4958
 5041TIP3   OH215128   5.912   5.699   4.376 -0.2052  0.3702  0.3828
 5041TIP3    H115129   5.970   5.641   4.327 -2.7927 -1.9548 -0.2162
 5041TIP3    H215130   5.894   5.651   4.457 -2.0528  0.4561  0.0686
 5042TIP3   OH215131   0.993   0.388   1.745  0.2805  0.4740 -0.6893
 5042TIP3    H115132   1.004   0.479   1.719 -0.7052  1.0641  0.8002
 5042TIP3    H215133   1.030   0.383   1.833 -0.6272 -0.3115 -0.3335
 5043TIP3   OH215134   2.321   0.829   3.197  0.5876  0.3948  0.1629
 5043TIP3    H115135   2.348   0.886   3.269  0.8419  0.4306  0.0409
 5043TIP3    H215136   2.402   0.811   3.149  0.3400  0.7734 -0.4034
 5044TIP3   OH215137   2.124   3.483   0.839 -0.2992 -0.1007 -0.2492
 5044TIP3    H115138   2.043   3.468   0.789 -0.3239  1.1003 -0.6167
 5044TIP3    H215139   2.172   3.548   0.787  0.4326 -0.0439  0.4789
 5045TIP3   OH215140   6.001   5.400   0.055 -0.0313 -0.5623 -0.6680
 5045TIP3    H115141   6.010   5.305   0.064 -0.7647 -0.6403 -0.7077
 5045TIP3    H215142   6.008   5.433   0.145 -0.8164 -0.7517 -0.5340
 5046TIP3   OH215143   6.251   3.021   4.595 -0.6625  0.6889  0.2109
 5046TIP3    H115144   6.172   2.973   4.570  0.5671 -0.8947 -0.8008
 5046TIP3    H215145   6.231   3.112   4.573 -2.2371  0.3427  0.0630
 5047TIP3   OH215146   0.076   0.300   4.294 -0.4403 -0.1912 -0.2225
 5047TIP3    H115147   0.005   0.274   4.353 -0.9413  0.8534 -0.3288
 5047TIP3    H215148   0.034   0.304   4.208 -0.2580  0.4165 -0.2892
 5048TIP3   OH215149   2.384   5.093   1.843  0.3340 -0.1027 -0.1148
 5048TIP3    H115150   2.306   5.084   1.897 -0.8593  0.9004 -1.5583
 5048TIP3    H215151   2.449   5.035   1.883 -0.1344  1.2628  2.9001
 5049TIP3   OH215152   4.295   3.264   0.937  0.1331 -0.4112  0.3404
 5049TIP3    H115153   4.217   3.273   0.992 -0.8457  1.2069 -1.1983
 5049TIP3    H215154   4.331   3.353   0.932  1.4148 -0.9303  0.0905
 5050TIP3   OH215155   0.914   4.668   0.122  0.3540 -0.2452 -0.5629
 5050TIP3    H115156   0.994   4.634   0.163  1.6777  0.8214 -2.1485
 5050TIP3    H215157   0.895   4.748   0.171  0.4933 -0.2795 -0.4523
 5051TIP3   OH215158   4.871   5.642   0.357 -0.4997 -0.1528  0.3349
 5051TIP3    H115159   4.874   5.617   0.265 -1.4136  1.3292 -0.1286
 5051TIP3    H215160   4.811   5.578   0.397  2.4402 -2.9619  0.7166
 5052TIP3   OH215161   6.273   3.128   1.477 -0.1872  0.3168  0.4235
 5052TIP3    H115162   6.325   3.073   1.536 -0.4459 -0.4248 -0.0282
 5052TIP3    H215163   6.183   3.102   1.493 -0.4273  1.4824  1.0842
 5053TIP3   OH215164   4.985   1.773   1.344 -0.3502 -0.3819 -0.1569
 5053TIP3    H115165   4.897   1.788   1.309  0.2717  0.9470 -1.1971
 5053TIP3    H215166   4.977   1.690   1.391 -1.5332 -1.6785 -2.4518
 5054TIP3   OH215167   5.625   1.657   4.469 -0.2833  0.1451  0.2735
 5054TIP3    H115168   5.620   1.678   4.376  0.1511  3.6048  0.8997
 5054TIP3    H215169   5.719   1.651   4.487 -0.3711 -1.7387  0.3391
 5055TIP3   OH215170   0.574   0.567   4.151  0.5904  0.6093 -0.8534
 5055TIP3    H115171   0.631   0.558   4.075  1.3758 -1.2792 -0.0915
 5055TIP3    H215172   0.502   0.507   4.134  1.2209 -0.5026  0.2494
 5056TIP3   OH215173   2.815   1.349   1.334  0.2443  0.7707 -0.4132
 5056TIP3    H115174   2.890   1.291   1.328  0.0499  0.5265 -0.4831
 5056TIP3    H215175   2.829   1.398   1.415  0.2550  0.4129 -0.1968
 5057TIP3   OH215176   3.668   5.375   2.360  0.1673 -0.3280  0.7175
 5057TIP3    H115177   3.735   5.404   2.298 -1.5060  1.7207 -0.2477
 5057TIP3    H215178   3.647   5.286   2.332  1.1512 -0.3088 -0.1439
 5058TIP3   OH215179   0.540   3.680   0.280  0.1357  0.2930  0.1770
 5058TIP3    H115180   0.489   3.600   0.263 -1.9388  1.8207 -1.3450
 5058TIP3    H215181   0.496   3.721   0.354  1.3432 -0.0401  1.1132
 5059TIP3   OH215182   5.275   3.828   4.843  0.1322 -0.5543  0.1244
 5059TIP3    H115183   5.304   3.771   4.772  0.7536 -0.1689  0.0569
 5059TIP3    H215184   5.233   3.902   4.798  0.6128 -0.2619  0.1427
 5060TIP3   OH215185   1.646   3.114   1.473  0.0188 -0.3333  0.0054
 5060TIP3    H115186   1.722   3.096   1.528  0.0691 -0.8636 -0.2299
 5060TIP3    H215187   1.681   3.167   1.401 -0.3074  1.6355  1.2089
 5061TIP3   OH215188   5.558   2.975   0.330  0.0848 -0.1463 -0.5390
 5061TIP3    H115189   5.569   2.975   0.235  2.3585  2.0473 -0.3701
 5061TIP3    H215190   5.562   3.067   0.355 -0.4202 -0.6692  1.6956
 5062TIP3   OH215191   4.413   5.248   1.813 -0.4229  0.1051 -0.3117
 5062TIP3    H115192   4.405   5.256   1.718  0.4915 -0.4862 -0.4518
 5062TIP3    H215193   4.391   5.335   1.847 -0.1860  0.4766 -1.1035
 5063TIP3   OH215194   3.751   3.746   2.467 -0.0114  0.1095  0.2723
 5063TIP3    H115195   3.692   3.812   2.501  0.8248  0.1101  1.7883
 5063TIP3    H215196   3.697   3.694   2.407 -0.6520  2.1916 -1.0579
 5064TIP3   OH215197   2.705   4.365   4.115 -0.5085 -0.1069  0.0036
 5064TIP3    H115198   2.672   4.421   4.186  1.7205  1.1842  0.0992
 5064TIP3    H215199   2.737   4.426   4.049 -0.7635 -1.3118 -1.2906
 5065TIP3   OH215200   3.853   0.555   0.573 -0.0045  0.0664 -0.3006
 5065TIP3    H115201   3.881   0.487   0.512  0.6690 -0.2705  0.3539
 5065TIP3    H215202   3.911   0.629   0.556 -0.3271  0.2518 -0.5931
 5066TIP3   OH215203   2.883   3.186   1.846 -0.4048  0.5429  0.4049
 5066TIP3    H115204   2.834   3.151   1.921 -0.3127 -0.0174  0.2097
 5066TIP3    H215205   2.815   3.215   1.784 -0.4913  1.9455  1.1127
 5067TIP3   OH215206   0.044   3.074   1.093  0.4161  0.1438 -0.4230
 5067TIP3    H115207   0.127   3.064   1.139  0.6329  0.2196 -0.7930
 5067TIP3    H215208   0.002   3.148   1.135 -0.7710 -1.6291  1.7074
 5068TIP3   OH215209   1.480   0.354   4.090  0.3728 -0.5188  0.1533
 5068TIP3    H115210   1.390   0.352   4.122  0.2735 -1.2634 -0.1338
 5068TIP3    H215211   1.528   0.296   4.149  0.9702  0.9293  1.1384
 5069TIP3   OH215212   0.266   5.271   2.464 -0.0871 -0.4115  0.5135
 5069TIP3    H115213   0.310   5.338   2.517 -1.2715  0.7647  0.0422
 5069TIP3    H215214   0.337   5.232   2.413  0.6821  0.2152  1.0610
 5070TIP3   OH215215   2.150   0.865   2.112 -0.3636  0.0928 -0.0018
 5070TIP3    H115216   2.127   0.929   2.180  1.0337  0.9868 -0.3404
 5070TIP3    H215217   2.218   0.811   2.151 -0.4293 -0.1944 -0.2772
 5071TIP3   OH215218   5.270   3.381   4.119 -0.2026 -0.0473  0.0386
 5071TIP3    H115219   5.235   3.469   4.103 -1.0910 -0.4623 -0.3441
 5071TIP3    H215220   5.255   3.366   4.212 -1.1506 -0.2630 -0.1460
 5072TIP3   OH215221   2.954   3.754   0.144 -0.5107 -0.4250 -0.3888
 5072TIP3    H115222   2.974   3.746   0.237 -0.8775  0.6269 -0.2082
 5072TIP3    H215223   2.859   3.754   0.139 -0.5242  0.8907 -0.6088
 5073TIP3   OH215224   0.886   3.331   3.813 -0.4938 -0.1847 -0.3784
 5073TIP3    H115225   0.896   3.305   3.905 -1.5891 -0.8284 -0.4245
 5073TIP3    H215226   0.975   3.347   3.783  0.1280 -2.5264  0.0585
 5074TIP3   OH215227   5.596   3.652   4.605 -0.4489  0.0508  0.5959
 5074TIP3    H115228   5.637   3.700   4.677  1.1590  0.1587 -0.3383
 5074TIP3    H215229   5.670   3.613   4.557 -1.5465 -0.9528 -0.3388
 5075TIP3   OH215230   2.125   2.953   2.764 -0.5448  0.1390 -0.1342
 5075TIP3    H115231   2.177   3.002   2.699  0.9135 -1.7206 -0.4807
 5075TIP3    H215232   2.054   2.915   2.713 -0.7877  0.6319 -0.1665
 5076TIP3   OH215233   3.914   1.646   2.192 -0.2223  0.0213 -0.2473
 5076TIP3    H115234   3.910   1.713   2.123  2.0320  1.3524  0.7953
 5076TIP3    H215235   3.823   1.617   2.202 -1.0032  1.5963 -2.0274
 5077TIP3   OH215236   3.038   3.460   0.579 -0.0751 -0.4481 -0.1945
 5077TIP3    H115237   3.114   3.402   0.570  0.5326  0.1792  0.6944
 5077TIP3    H215238   3.011   3.450   0.670 -0.6159 -0.1215 -0.3153
 5078TIP3   OH215239   0.331   4.493   2.846  0.0644  0.1031  0.3221
 5078TIP3    H115240   0.336   4.522   2.938  2.0666  0.9141  0.0224
 5078TIP3    H215241   0.378   4.561   2.798 -2.0126  0.3455 -1.5207
 5079TIP3   OH215242   3.503   2.351   3.267 -0.5289 -0.1002 -0.2396
 5079TIP3    H115243   3.492   2.441   3.238 -1.0138 -0.0981 -0.0534
 5079TIP3    H215244   3.474   2.351   3.358 -0.0631 -0.3424 -0.0833
 5080TIP3   OH215245   2.538   2.053   3.843  0.8272 -0.4376 -0.3943
 5080TIP3    H115246   2.567   2.058   3.934 -1.0776  3.0107  0.1775
 5080TIP3    H215247   2.615   2.081   3.793  1.3533 -0.6315  0.2809
 5081TIP3   OH215248   0.199   3.281   2.127  0.0210  0.4335 -0.0488
 5081TIP3    H115249   0.109   3.288   2.095  0.1724 -0.0237 -0.5823
 5081TIP3    H215250   0.216   3.187   2.129  1.0065  0.5654 -1.4137
 5082TIP3   OH215251   5.774   1.017   3.945  0.5234 -0.1245 -0.0821
 5082TIP3    H115252   5.688   1.007   3.984  0.9010  0.0997  0.8439
 5082TIP3    H215253   5.761   1.001   3.851 -0.8137  1.5096 -0.2148
 5083TIP3   OH215254   3.821   3.070   1.038  0.4258  0.0382  0.1374
 5083TIP3    H115255   3.737   3.040   1.002 -0.2340  0.6061  1.1630
 5083TIP3    H215256   3.820   3.042   1.129  1.2670  0.2372  0.2137
 5084TIP3   OH215257   5.699   2.366   4.508  0.2067  0.1311 -0.1740
 5084TIP3    H115258   5.734   2.430   4.447  0.4475  0.9533  0.7964
 5084TIP3    H215259   5.720   2.281   4.469  1.7883  0.6134 -0.4435
 5085TIP3   OH215260   3.354   4.856   3.826  0.0482  0.2816 -0.1571
 5085TIP3    H115261   3.293   4.907   3.773 -0.6526  1.1625  1.4151
 5085TIP3    H215262   3.314   4.853   3.913  1.0145 -1.3409  0.2773
 5086TIP3   OH215263   4.672   5.009   0.932 -0.2075 -0.2341 -0.0144
 5086TIP3    H115264   4.659   5.097   0.897  2.9390 -0.3648 -1.8713
 5086TIP3    H215265   4.669   4.952   0.856  1.0580 -1.2834  0.6846
 5087TIP3   OH215266   0.353   2.824   3.499 -0.2027 -0.2122  0.0661
 5087TIP3    H115267   0.325   2.734   3.519  1.6654 -0.6302  1.0713
 5087TIP3    H215268   0.279   2.878   3.525 -1.5822 -1.4671 -1.0414
 5088TIP3   OH215269   1.954   3.448   2.187 -0.3670 -0.7200  0.0575
 5088TIP3    H115270   1.921   3.384   2.250  1.5518 -1.8719 -0.0394
 5088TIP3    H215271   1.912   3.423   2.104  1.3259 -2.7627 -0.2733
 5089TIP3   OH215272   6.140   5.597   4.274  0.2248 -0.4716 -0.5366
 5089TIP3    H115273   6.172   5.684   4.298  0.6821 -0.9269  0.6077
 5089TIP3    H215274   6.208   5.537   4.304 -0.3182 -1.2547 -0.8251
 5090TIP3   OH215275   5.884   2.062   1.852  0.3445  0.2820 -0.1221
 5090TIP3    H115276   5.788   2.058   1.848  0.4001 -0.6827 -0.9236
 5090TIP3    H215277   5.906   2.023   1.936  0.0949 -1.0292 -0.6511
 5091TIP3   OH215278   3.197   3.267   0.143  0.0940  0.1542 -0.4786
 5091TIP3    H115279   3.213   3.177   0.172  0.0869 -0.6183 -2.6706
 5091TIP3    H215280   3.284   3.302   0.125  0.1698  0.9532  1.2021
 5092TIP3   OH215281   1.187   2.287   1.503  0.4411  0.5589 -0.0411
 5092TIP3    H115282   1.132   2.322   1.432 -0.1511  2.5053  1.2786
 5092TIP3    H215283   1.125   2.255   1.568  0.9561 -0.3975 -0.0174
 5093TIP3   OH215284   5.458   2.477   1.006  0.1441 -0.0037  0.1984
 5093TIP3    H115285   5.444   2.420   0.931 -1.7415  0.5835  0.0434
 5093TIP3    H215286   5.499   2.555   0.969  0.7365 -0.3773  0.0590
 5094TIP3   OH215287   3.637   0.962   0.062  0.2024 -0.1364 -0.1360
 5094TIP3    H115288   3.589   0.934  -0.017  1.2197 -0.9786 -0.4773
 5094TIP3    H215289   3.728   0.967   0.034  0.1389  3.6779 -0.1198
 5095TIP3   OH215290   4.191   2.021   0.140  0.6716  0.1731 -0.3238
 5095TIP3    H115291   4.219   2.040   0.051  4.0168 -1.5247  0.2241
 5095TIP3    H215292   4.172   1.928   0.140  1.6387 -0.0479  0.9030
 5096TIP3   OH215293   6.185   0.938   3.664 -0.0125 -0.2406 -0.7146
 5096TIP3    H115294   6.106   0.990   3.674  0.8017  1.0563 -0.8838
 5096TIP3    H215295   6.171   0.862   3.721 -1.3318 -0.0032 -0.6957
 5097TIP3   OH215296   3.454   2.005   3.236  0.4425 -0.4657 -0.7643
 5097TIP3    H115297   3.435   1.915   3.265 -0.1513 -0.7445 -1.9646
 5097TIP3    H215298   3.493   2.047   3.313  0.7725 -1.7620 -0.1945
 5098TIP3   OH215299   1.607   0.322   2.933  0.0477 -0.0130 -0.1003
 5098TIP3    H115300   1.522   0.278   2.932  0.6937 -1.3137 -0.4405
 5098TIP3    H215301   1.649   0.297   2.851  0.7518  0.6272  0.0468
 5099TIP3   OH215302   5.228   2.605   3.069  0.0006  0.1034 -0.4072
 5099TIP3    H115303   5.188   2.563   2.992 -1.0295  0.2719  0.0208
 5099TIP3    H215304   5.224   2.538   3.137  0.7763  0.0082 -0.4392
 5100TIP3   OH215305   5.163   2.161   5.029  0.1987 -0.6808 -0.1067
 5100TIP3    H115306   5.247   2.167   4.985 -0.1402  0.1683 -0.6631
 5100TIP3    H215307   5.185   2.164   5.123  0.7343  0.6406 -0.2521
 5101TIP3   OH215308   4.061   0.496   1.641  0.3787 -0.0979  0.1243
 5101TIP3    H115309   4.102   0.562   1.697  0.3083  0.5768 -0.6135
 5101TIP3    H215310   3.986   0.540   1.601  0.5273 -0.5208 -0.6410
 5102TIP3   OH215311   0.459   5.412   4.789 -0.2794 -0.1651  0.5932
 5102TIP3    H115312   0.441   5.479   4.855 -0.5475 -0.2137  0.5690
 5102TIP3    H215313   0.381   5.412   4.733 -0.1048 -0.2085  0.3474
 5103TIP3   OH215314   3.408   4.017   4.520  0.3702 -0.4491 -0.0261
 5103TIP3    H115315   3.420   4.002   4.614 -0.7273  1.0154  0.3797
 5103TIP3    H215316   3.407   3.930   4.482  2.6995 -1.0367  1.0462
 5104TIP3   OH215317   1.783   3.898   0.386 -0.1255  0.0624  0.4003
 5104TIP3    H115318   1.853   3.833   0.392 -0.1511 -0.3402 -2.5358
 5104TIP3    H215319   1.823   3.978   0.420  0.8807 -0.7502  1.2161
 5105TIP3   OH215320   5.627   5.509   3.060 -0.3652 -0.7100 -0.6591
 5105TIP3    H115321   5.658   5.476   3.145  0.6520  0.2086 -0.6577
 5105TIP3    H215322   5.606   5.601   3.076  1.3482 -0.0747 -1.7379
 5106TIP3   OH215323   1.665   4.798   4.691  0.0910 -0.1959 -0.1834
 5106TIP3    H115324   1.655   4.888   4.722 -0.5292 -0.3606  0.1148
 5106TIP3    H215325   1.598   4.789   4.624  0.7100 -0.1832 -0.8205
 5107TIP3   OH215326   1.833   4.081   4.909 -0.5414 -0.0951  0.0030
 5107TIP3    H115327   1.765   4.122   4.963  1.5086  3.2649  0.2846
 5107TIP3    H215328   1.825   4.123   4.824 -0.2956 -1.4118 -0.6911
 5108TIP3   OH215329   0.695   3.655   1.313 -0.1934  1.0247  0.2118
 5108TIP3    H115330   0.607   3.680   1.340 -0.1321  0.2944  1.1318
 5108TIP3    H215331   0.744   3.649   1.394  0.9119  2.1410 -0.3417
 5109TIP3   OH215332   1.012   4.967   4.385 -0.1600 -0.4242  0.4451
 5109TIP3    H115333   0.991   5.011   4.303  0.1059  1.1459  1.1959
 5109TIP3    H215334   1.001   4.874   4.365  0.7224 -0.1385 -1.6077
 5110TIP3   OH215335   2.509   4.970   0.914  0.2456  0.1124 -0.6977
 5110TIP3    H115336   2.455   4.892   0.904 -0.0415  0.5061 -2.5814
 5110TIP3    H215337   2.575   4.963   0.845  1.3168  0.6911  0.2217
 5111TIP3   OH215338   2.487   0.384   0.100  0.0234 -0.3905 -0.0980
 5111TIP3    H115339   2.420   0.329   0.142 -0.6866 -1.8830 -2.9291
 5111TIP3    H215340   2.446   0.470   0.091 -0.6214 -0.6479  0.3098
 5112TIP3   OH215341   2.410   2.433   1.574 -0.0002  0.1068 -0.0323
 5112TIP3    H115342   2.389   2.351   1.531  1.7844  1.0818 -3.0712
 5112TIP3    H215343   2.407   2.413   1.668 -2.3192 -2.6329 -0.5740
 5113TIP3   OH215344   5.171   3.683   3.893  0.4378 -1.0067 -1.1135
 5113TIP3    H115345   5.116   3.686   3.815  0.8394 -2.7930 -1.5081
 5113TIP3    H215346   5.228   3.607   3.880  1.9391 -0.1384 -0.0094
 5114TIP3   OH215347   0.600   5.014   2.479  0.1743  0.2523 -0.1578
 5114TIP3    H115348   0.690   5.041   2.494 -0.1635  1.4780 -0.2390
 5114TIP3    H215349   0.561   5.086   2.430 -1.1858  0.3220  0.9597
 5115TIP3   OH215350   6.319   1.795   0.238  0.5092  0.1027 -0.7660
 5115TIP3    H115351   6.382   1.866   0.240 -0.3541  0.8847 -0.4105
 5115TIP3    H215352   6.243   1.829   0.286  0.6052 -1.5637  0.6945
 5116TIP3   OH215353   0.184   2.070   3.996  0.5355 -0.2661 -0.2395
 5116TIP3    H115354   0.096   2.105   3.993  0.7990  0.2965 -2.2166
 5116TIP3    H215355   0.202   2.059   4.090 -1.9376 -1.2715  0.1870
 5117TIP3   OH215356   3.083   3.061   1.600 -0.1363  0.5833  0.3386
 5117TIP3    H115357   3.118   3.133   1.547  0.6142 -0.8873 -1.2623
 5117TIP3    H215358   3.010   3.026   1.549 -0.4153  0.1237  1.0329
 5118TIP3   OH215359   1.585   4.013   3.832  0.0195 -0.3351 -0.1362
 5118TIP3    H115360   1.673   4.005   3.867 -0.5149 -0.4850  1.2521
 5118TIP3    H215361   1.597   4.038   3.740  1.4818  1.0815  0.4060
 5119TIP3   OH215362   3.399   3.570   3.188  0.2165 -0.1475  0.1387
 5119TIP3    H115363   3.394   3.474   3.183 -0.0893 -0.0858 -3.0080
 5119TIP3    H215364   3.491   3.588   3.209  0.3658 -1.1237  0.3671
 5120TIP3   OH215365   1.828   3.238   1.063 -0.3040 -0.3066  0.2529
 5120TIP3    H115366   1.760   3.268   1.123  0.3181  2.8759 -0.4413
 5120TIP3    H215367   1.781   3.219   0.981 -0.6265 -0.2263  0.4175
 5121TIP3   OH215368   0.578   1.907   4.862  0.0091 -0.0536  0.0079
 5121TIP3    H115369   0.549   1.822   4.829 -0.0442  0.0603 -0.2507
 5121TIP3    H215370   0.673   1.901   4.864  0.0184 -0.0260 -0.2785
 5122TIP3   OH215371   0.706   2.438   0.322 -0.3182 -0.2532  0.4304
 5122TIP3    H115372   0.669   2.480   0.245 -0.0158  1.4421  1.1775
 5122TIP3    H215373   0.766   2.372   0.287 -0.4954  0.2035 -0.7673
 5123TIP3   OH215374   4.608   1.295   3.026  0.0030  0.3704  0.6483
 5123TIP3    H115375   4.537   1.233   3.016  0.1555  0.1209  1.0965
 5123TIP3    H215376   4.585   1.368   2.969 -1.1200  0.7574  1.5768
 5124TIP3   OH215377   5.634   3.913   3.627  0.0181 -0.2659 -0.3833
 5124TIP3    H115378   5.544   3.923   3.658  0.2512 -0.1213  0.2718
 5124TIP3    H215379   5.688   3.943   3.700  0.6521 -2.4222  0.1171
 5125TIP3   OH215380   0.874   5.741   2.878  0.4848 -0.2598 -0.2420
 5125TIP3    H115381   0.837   5.783   2.957  0.1264 -0.2970 -0.3874
 5125TIP3    H215382   0.886   5.650   2.903 -0.4199 -0.4581 -0.4899
 5126TIP3   OH215383   4.247   4.986   3.570  0.1202  0.1711  0.0252
 5126TIP3    H115384   4.225   4.913   3.629  0.2177 -1.9835 -2.4321
 5126TIP3    H215385   4.341   4.979   3.558  0.2041  1.0414  0.1492
 5127TIP3   OH215386   5.484   5.147   4.598 -0.0694  0.3052 -0.5442
 5127TIP3    H115387   5.437   5.167   4.517 -1.3351 -1.6590 -0.3722
 5127TIP3    H215388   5.435   5.194   4.666 -0.3431  0.1875 -0.6576
 5128TIP3   OH215389   3.265   2.841   1.493  0.2554 -0.5104 -0.2188
 5128TIP3    H115390   3.281   2.824   1.585 -0.3746 -0.8111 -0.1614
 5128TIP3    H215391   3.252   2.936   1.488 -1.3282 -0.6785  0.2677
 5129TIP3   OH215392   3.627   0.419   4.068 -0.1668 -0.1812 -0.2500
 5129TIP3    H115393   3.536   0.448   4.078 -0.0983  1.9646 -3.9079
 5129TIP3    H215394   3.676   0.500   4.054  1.7980 -1.4747 -1.2478
 5130TIP3   OH215395   3.801   4.953   3.342  0.2322 -0.0380 -0.6857
 5130TIP3    H115396   3.893   4.974   3.361  0.3899 -0.8532 -0.5236
 5130TIP3    H215397   3.787   4.867   3.383 -0.5277 -0.0373 -0.9380
 5131TIP3   OH215398   2.802   5.598   0.609 -0.1216 -0.1523  0.1126
 5131TIP3    H115399   2.734   5.540   0.643 -0.3625 -0.7667 -1.3412
 5131TIP3    H215400   2.808   5.668   0.674 -0.9488 -0.9620  1.1072
 5132TIP3   OH215401   6.157   4.376   2.571  0.0670  0.0312 -0.1590
 5132TIP3    H115402   6.143   4.311   2.640  2.2359  1.2942  1.5765
 5132TIP3    H215403   6.209   4.329   2.505  2.2637  0.1394  1.4263
 5133TIP3   OH215404   3.494   0.754   1.434  0.1873  0.2166 -0.1131
 5133TIP3    H115405   3.583   0.721   1.424  0.9599  1.7699  1.1271
 5133TIP3    H215406   3.478   0.805   1.355  0.5694  0.3216 -0.1224
 5134TIP3   OH215407   5.167   1.537   0.230  0.5460 -0.1253  0.0270
 5134TIP3    H115408   5.147   1.618   0.183 -0.6511 -1.0997 -1.2077
 5134TIP3    H215409   5.140   1.555   0.320  1.6821  1.3281  0.1239
 5135TIP3   OH215410   0.096   3.930   0.811 -0.0468  0.6612  0.3588
 5135TIP3    H115411   0.158   3.981   0.863  0.9780  0.1122 -0.2790
 5135TIP3    H215412   0.081   3.851   0.863 -0.3817  0.8938  0.6154
 5136TIP3   OH215413   4.455   0.991   0.146 -0.2692 -0.4791 -0.2943
 5136TIP3    H115414   4.386   0.929   0.121  0.4137 -1.2560 -0.3151
 5136TIP3    H215415   4.535   0.954   0.108  0.2990 -0.0569  0.4573
 5137TIP3   OH215416   1.961   3.049   0.282  0.1276  0.9533 -0.0433
 5137TIP3    H115417   1.911   2.968   0.277  1.5617  0.0778 -1.0353
 5137TIP3    H215418   2.015   3.039   0.361 -0.7820  1.6432  0.6967
 5138TIP3   OH215419   0.250   0.361   0.404  0.0633 -0.0932 -0.4466
 5138TIP3    H115420   0.266   0.440   0.352  0.9150 -0.0832 -0.1901
 5138TIP3    H215421   0.165   0.376   0.445  1.2069  1.7629  1.4476
 5139TIP3   OH215422   1.681   2.448   1.718 -0.0320  0.2004  0.8437
 5139TIP3    H115423   1.766   2.407   1.737 -0.4437 -1.1253 -0.0495
 5139TIP3    H215424   1.652   2.481   1.803  2.6511  3.3608  0.7357
 5140TIP3   OH215425   1.402   3.388   0.034 -0.2007  0.0600  0.3178
 5140TIP3    H115426   1.403   3.354   0.123  4.5203  2.5020  1.5350
 5140TIP3    H215427   1.356   3.472   0.041  1.2993  0.8726  0.8651
 5141TIP3   OH215428   3.572   5.793   5.007  0.0173  0.5716 -0.3412
 5141TIP3    H115429   3.537   5.716   5.052  0.4209 -0.5584 -1.8955
 5141TIP3    H215430   3.507   5.814   4.941  0.4586  0.8487 -0.6892
 5142TIP3   OH215431   3.318   5.526   3.608  0.9445 -0.0843 -0.1008
 5142TIP3    H115432   3.326   5.465   3.534 -0.0620  0.4410 -0.6509
 5142TIP3    H215433   3.339   5.472   3.685  0.3619 -1.0664 -0.6023
 5143TIP3   OH215434   5.695   2.629   3.320  0.0897 -0.1932 -0.0808
 5143TIP3    H115435   5.674   2.599   3.408 -0.4108 -1.5033 -0.6236
 5143TIP3    H215436   5.784   2.665   3.327  0.2626 -0.7802  0.8443
 5144TIP3   OH215437   1.403   0.874   3.159  0.5336 -0.1203 -0.5116
 5144TIP3    H115438   1.392   0.962   3.194 -3.0699 -1.5102  2.5615
 5144TIP3    H215439   1.492   0.849   3.185 -0.0366  0.9926  3.0261
 5145TIP3   OH215440   2.465   1.413   3.108 -0.2365 -0.1104  0.2959
 5145TIP3    H115441   2.482   1.323   3.079 -1.6094 -0.7623  1.3764
 5145TIP3    H215442   2.487   1.413   3.201  1.3236  1.1538 -0.0390
 5146TIP3   OH215443   0.078   4.393   1.128  0.1615  0.3865 -0.0950
 5146TIP3    H115444   0.083   4.339   1.206 -1.9462 -0.1524 -0.2642
 5146TIP3    H215445   0.149   4.361   1.071  0.6673 -0.3176  0.9118
 5147TIP3   OH215446   2.040   2.382   1.313 -0.2273  0.3124 -0.0504
 5147TIP3    H115447   2.045   2.472   1.280 -0.4224  0.3899  0.1255
 5147TIP3    H215448   2.031   2.328   1.235  0.3600  0.4072 -0.1853
 5148TIP3   OH215449   0.768   2.832   3.638  0.4058  0.6034  0.2458
 5148TIP3    H115450   0.777   2.899   3.706 -1.0563  1.8502 -0.7387
 5148TIP3    H215451   0.758   2.881   3.557  3.4190 -0.8233 -1.1740
 5149TIP3   OH215452   3.261   5.868   0.830 -0.8627 -0.0665 -0.6693
 5149TIP3    H115453   3.218   5.793   0.871  0.0345  0.4845  1.4421
 5149TIP3    H215454   3.285   5.838   0.742  0.2200 -2.5693  0.3959
 5150TIP3   OH215455   0.812   5.888   4.904  0.0926  0.4854 -0.0906
 5150TIP3    H115456   0.750   5.945   4.951  0.0984  1.2589 -0.9944
 5150TIP3    H215457   0.865   5.949   4.852  1.7929 -0.1371  0.8472
 5151TIP3   OH215458   0.206   4.060   4.355  0.5161  0.0303  0.3596
 5151TIP3    H115459   0.169   4.146   4.370  0.2799  0.0035 -0.0434
 5151TIP3    H215460   0.132   4.000   4.362  0.7388 -0.1802  0.9828
 5152TIP3   OH215461   5.557   1.175   2.181 -0.3507  0.3537  0.1269
 5152TIP3    H115462   5.575   1.082   2.173 -0.4504  0.1751  1.7174
 5152TIP3    H215463   5.488   1.181   2.246 -1.5182  1.4543 -1.1378
 5153TIP3   OH215464   1.977   2.646   3.753  0.4183 -0.1157  0.0432
 5153TIP3    H115465   2.007   2.641   3.662 -0.6875  0.2461 -0.3518
 5153TIP3    H215466   1.956   2.556   3.776  0.4063 -0.1685 -0.1654
 5154TIP3   OH215467   3.702   1.259   0.399 -0.0677 -0.2346 -0.1543
 5154TIP3    H115468   3.698   1.317   0.476  1.9770 -1.2870  0.8139
 5154TIP3    H215469   3.710   1.171   0.436  0.5294 -0.7937 -1.5715
 5155TIP3   OH215470   4.038   1.054   4.456  0.0813  0.3436  0.1420
 5155TIP3    H115471   4.011   1.145   4.469  1.4204  0.6252  1.2331
 5155TIP3    H215472   4.077   1.053   4.368  2.1444  1.4201  0.9697
 5156TIP3   OH215473   2.424   1.452   1.390 -0.2431  0.8297 -0.1517
 5156TIP3    H115474   2.503   1.462   1.338 -0.7556  1.2387 -0.8768
 5156TIP3    H215475   2.364   1.518   1.356 -0.3283  1.6601  1.5035
 5157TIP3   OH215476   3.591   2.983   0.905 -0.3461 -0.3341 -0.1873
 5157TIP3    H115477   3.498   2.997   0.922 -0.0656  0.7235  0.5859
 5157TIP3    H215478   3.595   2.955   0.814 -1.2698  1.5059 -0.8401
 5158TIP3   OH215479   0.701   3.370   0.906  0.2512  0.2371  0.3526
 5158TIP3    H115480   0.685   3.443   0.966 -0.3054  0.4367 -0.0412
 5158TIP3    H215481   0.792   3.382   0.878  0.2995  0.5277  0.6337
 5159TIP3   OH215482   4.614   4.657   3.235  0.4744 -0.1632 -0.1037
 5159TIP3    H115483   4.705   4.688   3.238 -0.0846  1.7168 -0.8078
 5159TIP3    H215484   4.617   4.579   3.180  1.2516  1.7423 -2.9648
 5160TIP3   OH215485   4.968   0.956   3.607  0.6971 -0.4729  0.4325
 5160TIP3    H115486   4.949   0.926   3.518  0.0577  2.3030 -0.4660
 5160TIP3    H215487   4.883   0.978   3.644  0.9855 -1.3336  1.6687
 5161TIP3   OH215488   0.932   4.183   2.594  0.7486  0.3619 -0.0349
 5161TIP3    H115489   0.979   4.226   2.665 -0.7407  1.8874  0.1025
 5161TIP3    H215490   0.877   4.117   2.637 -1.7742  2.6947  0.6430
 5162TIP3   OH215491   2.450   4.519   0.226  0.7476  0.1466 -0.0784
 5162TIP3    H115492   2.532   4.568   0.231  0.5794  0.3963  0.1974
 5162TIP3    H215493   2.396   4.553   0.298  0.8708 -0.8713  0.5162
 5163TIP3   OH215494   2.866   1.190   4.577 -0.6415  0.6015 -0.4778
 5163TIP3    H115495   2.818   1.108   4.588  0.2638  0.2838  1.6698
 5163TIP3    H215496   2.852   1.237   4.659  0.6549  1.5929 -0.7903
 5164TIP3   OH215497   3.798   0.192   4.479 -0.4000 -0.0378 -0.5615
 5164TIP3    H115498   3.794   0.285   4.500  1.0684  0.6202 -2.8635
 5164TIP3    H215499   3.786   0.188   4.384  0.7243 -2.1016 -0.6788
 5165TIP3   OH215500   1.267   3.011   4.340 -0.5337 -0.1595 -0.4788
 5165TIP3    H115501   1.287   3.001   4.247 -1.5290 -0.4084 -0.6785
 5165TIP3    H215502   1.193   3.071   4.343 -0.8700 -0.5907  0.1176
 5166TIP3   OH215503   3.849   1.246   0.816 -0.3351 -0.2237 -0.5713
 5166TIP3    H115504   3.848   1.155   0.845  3.1987 -0.4170 -0.6346
 5166TIP3    H215505   3.879   1.295   0.892 -0.4222  0.6414 -1.0792
 5167TIP3   OH215506   0.483   2.247   1.546  0.6810  0.7058  0.0645
 5167TIP3    H115507   0.398   2.215   1.577 -0.0297  0.7038 -1.7485
 5167TIP3    H215508   0.510   2.310   1.612 -0.7782  0.7797  0.6448
 5168TIP3   OH215509   4.555   1.115   1.887 -0.0283  0.1363 -0.3812
 5168TIP3    H115510   4.624   1.050   1.872 -1.0331 -1.5955  1.9565
 5168TIP3    H215511   4.473   1.066   1.877 -0.8503  1.3646  0.1492
 5169TIP3   OH215512   5.228   1.868   3.354 -0.1472 -0.5585 -0.0722
 5169TIP3    H115513   5.306   1.896   3.401 -0.8306  2.4114 -0.5173
 5169TIP3    H215514   5.156   1.881   3.415 -0.6732  0.2625 -0.8353
 5170TIP3   OH215515   4.030   5.390   3.027 -0.1587  0.1381 -0.3238
 5170TIP3    H115516   4.095   5.382   3.096  2.0292 -0.4066 -2.3135
 5170TIP3    H215517   3.991   5.303   3.021 -1.2665  0.5120  0.9914
 5171TIP3   OH215518   2.094   3.808   3.717  0.1605 -0.0191  0.2672
 5171TIP3    H115519   2.012   3.762   3.733  0.2185 -0.5909 -0.9657
 5171TIP3    H215520   2.129   3.770   3.636  0.1305  2.2531 -0.9250
 5172TIP3   OH215521   1.249   1.995   1.688 -0.0209 -0.0849 -0.0874
 5172TIP3    H115522   1.163   1.962   1.661  0.3797 -1.2142 -0.0382
 5172TIP3    H215523   1.240   2.090   1.684 -1.4656 -0.1554  0.5134
 5173TIP3   OH215524   4.860   3.067   1.624 -0.7441 -0.3851 -0.4269
 5173TIP3    H115525   4.897   3.077   1.712 -0.0298 -1.9471 -0.5109
 5173TIP3    H215526   4.905   3.133   1.571 -1.2371  0.6209  0.3816
 5174TIP3   OH215527   2.968   0.977   1.680 -0.1293  0.2655  0.0333
 5174TIP3    H115528   2.929   1.026   1.753 -0.5459  0.4336 -0.2910
 5174TIP3    H215529   3.061   0.999   1.683 -0.0520 -0.1229  0.8109
 5175TIP3   OH215530   3.656   3.272   3.411  0.0085  0.1281 -0.0229
 5175TIP3    H115531   3.628   3.353   3.455  0.7532  0.5808 -0.3811
 5175TIP3    H215532   3.671   3.210   3.483 -0.0476  0.4661  0.2831
 5176TIP3   OH215533   0.709   4.231   3.506 -0.0262  0.0851 -0.1264
 5176TIP3    H115534   0.767   4.295   3.546  0.8089 -1.1277  0.6981
 5176TIP3    H215535   0.632   4.281   3.480 -0.0164  1.1949  1.7530
 5177TIP3   OH215536   2.400   5.993   1.435 -0.3397 -0.7435  0.5610
 5177TIP3    H115537   2.390   5.967   1.343  2.4868 -2.1697  0.5295
 5177TIP3    H215538   2.323   5.957   1.479 -1.2878 -0.8316 -1.0977
 5178TIP3   OH215539   4.920   1.593   3.220  0.0965 -0.1562  0.0437
 5178TIP3    H115540   4.981   1.539   3.270  0.6346 -0.5216 -0.9743
 5178TIP3    H215541   4.976   1.645   3.162 -0.5688 -1.6788 -2.0963
 5179TIP3   OH215542   2.723   1.366  -0.023  0.0850  0.3502  0.5970
 5179TIP3    H115543   2.799   1.422  -0.038  1.2478 -1.2210  0.3889
 5179TIP3    H215544   2.713   1.366   0.073  0.2021  0.7125  0.6133
 5180TIP3   OH215545   1.343   4.885   2.542  1.2260 -0.3653  0.0180
 5180TIP3    H115546   1.358   4.791   2.537 -2.4409 -1.1058 -0.3434
 5180TIP3    H215547   1.343   4.904   2.636 -2.0306 -1.7137  0.4259
 5181TIP3   OH215548   5.775   4.088   1.288  0.1742  0.4278  0.0661
 5181TIP3    H115549   5.865   4.113   1.266  0.9575  0.1376  2.5923
 5181TIP3    H215550   5.774   4.086   1.384 -2.4787  0.1811  0.1005
 5182TIP3   OH215551   1.302   0.046   4.522 -0.2975 -0.1667  0.2193
 5182TIP3    H115552   1.385   0.035   4.568 -0.4921  0.3097  0.6990
 5182TIP3    H215553   1.268  -0.042   4.511  0.6799 -0.4503 -0.7589
 5183TIP3   OH215554   1.314   2.528   2.653  0.8353  0.4162  0.5337
 5183TIP3    H115555   1.285   2.504   2.742  0.8911 -1.7286  0.0307
 5183TIP3    H215556   1.409   2.531   2.660  0.8124  0.8314  0.6779
 5184TIP3   OH215557   4.103   2.483   0.409  0.5867  0.4295 -0.0874
 5184TIP3    H115558   4.057   2.539   0.346 -1.5750 -1.2147 -0.0742
 5184TIP3    H215559   4.054   2.495   0.491  0.5837 -0.8425  0.1090
 5185TIP3   OH215560  -0.003   3.892   0.553  0.1735  0.1285 -0.4331
 5185TIP3    H115561   0.042   3.895   0.637  0.7333  0.5089 -0.7363
 5185TIP3    H215562  -0.023   3.984   0.533 -0.5313 -0.0170 -0.4132
 5186TIP3   OH215563   3.405   0.859   1.212 -0.0084  0.1412  0.8188
 5186TIP3    H115564   3.377   0.948   1.231 -0.2013  0.3248 -0.2710
 5186TIP3    H215565   3.405   0.853   1.116 -0.0767 -1.0455  0.8714
 5187TIP3   OH215566   4.502   1.657   0.791  0.2308  0.0660 -0.3768
 5187TIP3    H115567   4.490   1.643   0.885  0.7097 -1.8665 -0.5431
 5187TIP3    H215568   4.417   1.690   0.761 -0.6435 -1.3087  0.4263
 5188TIP3   OH215569   1.751   1.552   2.481 -0.2127 -0.5587  0.1859
 5188TIP3    H115570   1.722   1.638   2.453  2.6631  0.8127  1.0280
 5188TIP3    H215571   1.703   1.535   2.563 -0.1358  0.6857  0.5024
 5189TIP3   OH215572   2.963   3.694   0.424 -0.0924 -0.5663  0.4082
 5189TIP3    H115573   2.868   3.691   0.415 -0.0896 -0.5933  0.3878
 5189TIP3    H215574   2.987   3.612   0.466 -0.2562  0.2330  2.1203
 5190TIP3   OH215575   4.073   6.003   4.824  0.0384  0.6378 -0.0788
 5190TIP3    H115576   4.146   6.027   4.881 -0.6146  1.0233  0.6061
 5190TIP3    H215577   4.102   5.921   4.782  0.5216  0.3391  0.8100
 5191TIP3   OH215578   1.610   5.042   5.025  0.0980 -0.7152 -0.0774
 5191TIP3    H115579   1.645   5.029   4.937 -1.4441 -0.7951 -0.7028
 5191TIP3    H215580   1.680   5.089   5.071  0.9574 -0.7194 -1.3149
 5192TIP3   OH215581   1.003   5.282   0.873 -0.6675  0.1292  0.3193
 5192TIP3    H115582   0.969   5.368   0.850  2.5549  1.3417 -0.4924
 5192TIP3    H215583   1.049   5.253   0.794 -0.8958 -1.9365  0.8965
 5193TIP3   OH215584   2.759   4.596   0.355 -0.2099  0.2763  0.1779
 5193TIP3    H115585   2.818   4.575   0.427  1.2497  0.2048 -1.0053
 5193TIP3    H215586   2.734   4.511   0.320  2.4888  0.2605 -2.0425
 5194TIP3   OH215587   6.202   0.209   3.529 -1.0393 -0.2929 -0.0303
 5194TIP3    H115588   6.218   0.230   3.437  0.0558  0.1451  0.2474
 5194TIP3    H215589   6.289   0.201   3.567 -1.4804  0.2833  1.1406
 5195TIP3   OH215590   2.997   2.655   0.968 -0.1721 -0.0109 -0.3307
 5195TIP3    H115591   2.967   2.737   0.928  1.4342  0.3067 -0.9659
 5195TIP3    H215592   2.934   2.590   0.939 -0.5637  0.7217 -1.1887
 5196TIP3   OH215593   0.477   4.284   0.772 -0.2292 -0.4002  0.2773
 5196TIP3    H115594   0.507   4.286   0.863  1.4391  0.1643 -0.2430
 5196TIP3    H215595   0.555   4.305   0.721 -1.0771 -0.9662 -1.3085
 5197TIP3   OH215596   5.177   3.451   0.394  0.3113 -0.1557 -0.0189
 5197TIP3    H115597   5.237   3.476   0.464 -1.6983 -0.8987  2.1178
 5197TIP3    H215598   5.201   3.360   0.374 -0.8433 -0.9392  1.8201
 5198TIP3   OH215599   6.263   3.539   0.711 -0.1840 -0.2722  0.6878
 5198TIP3    H115600   6.357   3.554   0.703  0.2148 -2.8685 -0.6826
 5198TIP3    H215601   6.225   3.627   0.709  2.1228  0.8121  0.1271
 5199TIP3   OH215602   0.996   1.282   4.133 -0.0730  0.3561  0.1826
 5199TIP3    H115603   0.985   1.247   4.222 -0.9657  0.3774  0.0946
 5199TIP3    H215604   0.923   1.245   4.084  0.9453 -0.4084 -0.8019
 5200TIP3   OH215605   2.017   5.825   2.911  0.0292  0.2097  0.4435
 5200TIP3    H115606   2.011   5.734   2.884 -1.7923 -0.1023  1.7587
 5200TIP3    H215607   1.941   5.867   2.871 -0.0678  0.7714  1.1936
 5201TIP3   OH215608   5.313   5.212   0.116  0.7450 -0.3546  0.4356
 5201TIP3    H115609   5.300   5.304   0.095 -0.0179 -0.0591  2.0411
 5201TIP3    H215610   5.228   5.171   0.098  1.2728 -0.8992 -0.9230
 5202TIP3   OH215611   4.223   0.025   3.580 -0.4451 -0.3034 -0.3588
 5202TIP3    H115612   4.214  -0.011   3.492  0.0559 -1.4916  0.0526
 5202TIP3    H215613   4.316   0.047   3.588 -0.5856  0.2675 -0.3072
 5203TIP3   OH215614   2.433   2.148   4.920  0.0835 -0.0624  0.0055
 5203TIP3    H115615   2.398   2.156   5.009 -0.4020 -0.2482 -0.1633
 5203TIP3    H215616   2.519   2.189   4.924 -0.1486  0.3918  0.4372
 5204TIP3   OH215617   2.620   0.350   3.227 -0.0422 -0.5386 -0.1623
 5204TIP3    H115618   2.584   0.430   3.265  0.5885 -0.0826 -0.5173
 5204TIP3    H215619   2.559   0.282   3.254 -1.1443  0.2116 -0.7272
 5205TIP3   OH215620   3.100   1.310   2.023  0.2193  0.4735 -0.2877
 5205TIP3    H115621   3.097   1.239   2.088 -0.1841  1.7255  1.1353
 5205TIP3    H215622   3.012   1.348   2.025  0.3985  0.9585 -1.0908
 5206TIP3   OH215623   1.466   5.504   2.052 -0.5569 -0.8839 -0.2209
 5206TIP3    H115624   1.454   5.451   2.131 -0.0476  0.8282  1.0748
 5206TIP3    H215625   1.444   5.445   1.980 -0.9279 -2.5473  1.1796
 5207TIP3   OH215626   1.884   0.448   2.168  1.0050 -0.0240  0.2402
 5207TIP3    H115627   1.809   0.487   2.123  1.6477  0.1920 -0.6799
 5207TIP3    H215628   1.960   0.476   2.117  1.6829 -0.5764  0.9146
 5208TIP3   OH215629   3.869   0.955   0.505  0.4480 -0.1913 -0.0837
 5208TIP3    H115630   3.805   0.919   0.444 -0.1097 -1.2970  1.1215
 5208TIP3    H215631   3.950   0.908   0.486  0.0721 -1.1071  0.5525
 5209TIP3   OH215632   3.419   4.017   0.455 -0.4715 -0.2446 -0.0154
 5209TIP3    H115633   3.476   3.944   0.432  0.0795 -0.3345  1.5349
 5209TIP3    H215634   3.331   3.980   0.456 -0.3338 -0.5843 -0.4724
 5210TIP3   OH215635   2.633   2.745   2.684  0.2325  0.0350 -0.6872
 5210TIP3    H115636   2.693   2.682   2.644  0.2916 -0.3556  0.0180
 5210TIP3    H215637   2.616   2.711   2.771 -0.0691  0.7749 -0.4491
 5211TIP3   OH215638   2.021   5.033   4.041  0.4789  0.5014 -0.2026
 5211TIP3    H115639   1.987   5.112   3.999 -1.8958  0.2995  1.1695
 5211TIP3    H215640   1.961   4.964   4.015  1.8043 -0.6304 -0.3563
 5212TIP3   OH215641   2.965   5.544   1.832  0.4330  0.4239 -0.2443
 5212TIP3    H115642   3.020   5.466   1.824 -0.4479 -0.3952  1.0781
 5212TIP3    H215643   3.026   5.617   1.839  1.3151 -0.3139 -0.0760
 5213TIP3   OH215644   2.350   0.044   2.686  0.3112  0.2712 -0.3361
 5213TIP3    H115645   2.340   0.002   2.601 -0.1840  0.5610 -0.4242
 5213TIP3    H215646   2.434   0.012   2.719 -0.6767 -1.9287  0.2379
 5214TIP3   OH215647   2.170   0.890   1.494 -0.4100  0.1085  0.4879
 5214TIP3    H115648   2.255   0.869   1.457 -0.0749  1.6182  0.3562
 5214TIP3    H215649   2.107   0.847   1.436  0.2024  0.3327 -0.3519
 5215TIP3   OH215650   2.672   5.342   2.711  0.2150 -0.6504  0.6390
 5215TIP3    H115651   2.587   5.301   2.693  0.9459 -1.6784 -0.6850
 5215TIP3    H215652   2.656   5.436   2.701 -0.8990 -0.7880  1.0153
 5216TIP3   OH215653   5.659   1.831   0.472  0.1613  0.2822 -0.4523
 5216TIP3    H115654   5.578   1.880   0.458 -0.1337  0.0591  0.4364
 5216TIP3    H215655   5.684   1.849   0.562  1.6300  1.1117 -0.9883
 5217TIP3   OH215656   2.414   3.821   0.518 -0.3740 -0.3924  0.2343
 5217TIP3    H115657   2.405   3.735   0.478 -0.0885 -0.3407  0.0524
 5217TIP3    H215658   2.400   3.883   0.446 -0.2368 -0.2936  0.2900
 5218TIP3   OH215659   0.094   2.926   3.425  0.0773  0.3931 -0.5164
 5218TIP3    H115660   0.129   2.912   3.337 -0.2970  0.6743 -0.7117
 5218TIP3    H215661   0.064   2.839   3.453  0.4263  0.2556 -0.5655
 5219TIP3   OH215662   0.428   3.322   4.616  0.0522 -0.2648  0.3162
 5219TIP3    H115663   0.415   3.417   4.609 -0.4412 -0.3641 -0.1752
 5219TIP3    H215664   0.494   3.312   4.684 -0.1814  0.4146  0.6541
 5220TIP3   OH215665   2.361   0.952   4.926 -0.5584  0.1139  0.5192
 5220TIP3    H115666   2.274   0.975   4.957 -0.6046  0.4400  0.1509
 5220TIP3    H215667   2.379   0.866   4.965 -1.1402 -0.0630  0.4044
 5221TIP3   OH215668   3.167   2.078   5.013 -0.0621  0.3563  0.3260
 5221TIP3    H115669   3.082   2.102   4.975  0.4760  1.1529 -0.4112
 5221TIP3    H215670   3.164   2.114   5.102 -0.8649 -0.4708  0.6491
 5222TIP3   OH215671   1.803   2.819   0.349 -0.9894  0.2727  0.4991
 5222TIP3    H115672   1.729   2.879   0.345 -0.8970  0.3532 -0.0705
 5222TIP3    H215673   1.775   2.743   0.297 -0.3483  0.6665 -0.4408
 5223TIP3   OH215674   4.052   5.896   2.393  0.2295  0.0416  0.2157
 5223TIP3    H115675   4.048   5.956   2.319  0.5304  0.5894  0.6375
 5223TIP3    H215676   4.146   5.883   2.408  0.1674 -0.8314 -0.1082
 5224TIP3   OH215677   0.802   4.949   1.095 -0.4662  0.1847 -0.0397
 5224TIP3    H115678   0.819   4.988   1.009 -0.0492  1.2909  0.5284
 5224TIP3    H215679   0.877   4.976   1.149 -1.2612  0.4352  0.9723
 5225TIP3   OH215680   0.895   1.202   0.951  0.7354 -0.5982 -0.2700
 5225TIP3    H115681   0.950   1.277   0.975 -2.5640  2.3810 -1.1131
 5225TIP3    H215682   0.917   1.185   0.860 -0.4949  1.4472 -1.0138
 5226TIP3   OH215683   0.117   4.342   1.551 -0.0077  0.4841 -0.3739
 5226TIP3    H115684   0.211   4.363   1.555 -0.0419  0.5777  0.0713
 5226TIP3    H215685   0.105   4.298   1.467  0.5974 -0.3248 -0.0449
 5227TIP3   OH215686   2.597   3.176   1.727 -0.3976  0.1958  0.1514
 5227TIP3    H115687   2.569   3.185   1.818  2.4161  0.0533  1.1235
 5227TIP3    H215688   2.518   3.146   1.680 -1.6567 -0.7701  2.7038
 5228TIP3   OH215689   6.012   1.377   2.282  0.4115  0.2844  0.2768
 5228TIP3    H115690   5.918   1.375   2.297  0.3622  1.3352  0.1864
 5228TIP3    H215691   6.050   1.393   2.369  0.4632  0.5164  0.2133
 5229TIP3   OH215692   4.548   4.031   2.487  0.0558  0.1822  0.6621
 5229TIP3    H115693   4.548   4.019   2.392  0.1156 -0.8279  0.7795
 5229TIP3    H215694   4.456   4.025   2.513  0.0455  0.3973  0.6811
 5230TIP3   OH215695   4.055   3.229   4.015  0.3457 -0.4796  0.2609
 5230TIP3    H115696   4.120   3.177   4.063  0.1907 -1.0974 -0.1792
 5230TIP3    H215697   4.030   3.173   3.941 -0.7156 -0.2674  0.4454
 5231TIP3   OH215698   2.387   3.312   3.075 -0.0455 -0.0799 -0.4825
 5231TIP3    H115699   2.463   3.360   3.041  0.2151 -0.1973 -0.0706
 5231TIP3    H215700   2.384   3.232   3.023  0.4092 -0.3020 -0.1706
 5232TIP3   OH215701   4.610   5.876   0.053  0.0185  0.0946  0.3517
 5232TIP3    H115702   4.667   5.923   0.113 -0.2179  4.8674 -2.6040
 5232TIP3    H215703   4.668   5.846  -0.017 -0.4626  0.3693 -0.1733
 5233TIP3   OH215704   1.334   2.810   0.831 -0.1189 -0.3759  0.0528
 5233TIP3    H115705   1.385   2.729   0.822 -0.4595 -0.2950 -4.6806
 5233TIP3    H215706   1.394   2.870   0.876  2.5843 -1.4863 -1.7675
 5234TIP3   OH215707   0.182   3.613   0.757  0.2010  0.0381  0.8107
 5234TIP3    H115708   0.227   3.530   0.771  0.1717 -0.2930 -0.8337
 5234TIP3    H215709   0.252   3.674   0.731  0.0318  0.1477  0.6070
 5235TIP3   OH215710   4.787   4.021   4.625 -0.3644 -0.0017 -0.1493
 5235TIP3    H115711   4.719   4.009   4.691 -0.5819 -1.4070 -0.5955
 5235TIP3    H215712   4.832   3.937   4.622  1.5986  0.9767  0.3362
 5236TIP3   OH215713   3.985   2.238   0.256 -0.0490 -0.0021  0.0057
 5236TIP3    H115714   4.064   2.193   0.228 -0.2115 -0.2352 -0.0746
 5236TIP3    H215715   4.017   2.307   0.315  0.2401  0.1196 -0.2922
 5237TIP3   OH215716   4.637   4.088   3.703 -0.3438  0.5475  0.0410
 5237TIP3    H115717   4.707   4.023   3.706 -2.2924 -1.9036 -2.6492
 5237TIP3    H215718   4.667   4.152   3.638  0.1284  0.4682  0.1751
 5238TIP3   OH215719   5.671   1.209   0.983 -0.6615  0.7246 -0.1688
 5238TIP3    H115720   5.748   1.229   1.035 -1.2679 -0.7981  1.4180
 5238TIP3    H215721   5.602   1.264   1.019 -0.6883  0.9159 -0.5113
 5239TIP3   OH215722   3.666   1.062   2.369  0.1330 -0.2812  0.1160
 5239TIP3    H115723   3.701   0.985   2.326 -0.1194  0.0150 -0.6316
 5239TIP3    H215724   3.671   1.131   2.303 -0.8956  0.0118  0.3262
 5240TIP3   OH215725   5.682   0.473   2.689  0.3879 -0.3300  0.1365
 5240TIP3    H115726   5.700   0.420   2.612 -0.9587 -0.0280 -0.4040
 5240TIP3    H215727   5.767   0.512   2.711  1.0768 -1.4979 -0.3514
 5241TIP3   OH215728   1.356   4.551   4.278  0.0842  0.0747 -0.2374
 5241TIP3    H115729   1.411   4.611   4.328  1.2688  0.1069 -1.4918
 5241TIP3    H215730   1.397   4.548   4.191  0.2282 -2.7085 -0.1807
 5242TIP3   OH215731   5.964   3.241   2.818  0.0883  0.1178  0.0400
 5242TIP3    H115732   6.056   3.229   2.794 -0.0938  0.0327 -0.6332
 5242TIP3    H215733   5.919   3.257   2.735 -0.6128 -0.5088  0.2907
 5243TIP3   OH215734   3.501   3.269   2.382 -0.0300  0.0972 -0.2583
 5243TIP3    H115735   3.489   3.259   2.477 -0.6206 -1.3236 -0.4512
 5243TIP3    H215736   3.591   3.302   2.373 -0.3064  1.2460  0.8199
 5244TIP3   OH215737   5.162   1.140   3.649  0.4481  0.4993 -0.0025
 5244TIP3    H115738   5.102   1.070   3.621  0.8599  0.0167  0.2984
 5244TIP3    H215739   5.205   1.169   3.568  0.8545 -0.1533 -0.0318
 5245TIP3   OH215740   5.526   5.330   2.485 -0.2369 -0.0755 -0.3821
 5245TIP3    H115741   5.495   5.318   2.575  1.1131 -1.1633 -0.0369
 5245TIP3    H215742   5.616   5.361   2.494 -0.4773  1.0226 -1.3790
 5246TIP3   OH215743   5.068   3.666   3.643 -0.0615  0.2054  0.3530
 5246TIP3    H115744   5.151   3.622   3.625 -0.7407 -0.6032 -0.9452
 5246TIP3    H215745   5.074   3.750   3.597  0.4622  0.6372  1.1927
 5247TIP3   OH215746   3.905   5.681   2.473  0.1568 -0.2131  0.4007
 5247TIP3    H115747   3.956   5.746   2.425 -0.4207  1.7495  2.2740
 5247TIP3    H215748   3.905   5.603   2.417 -0.1153  1.7449 -2.4909
 5248TIP3   OH215749   6.152   4.497   0.752 -0.2922 -0.3344 -0.3792
 5248TIP3    H115750   6.194   4.411   0.747 -0.4946 -0.5655  1.2796
 5248TIP3    H215751   6.198   4.542   0.822 -0.9344  0.4922 -0.4701
 5249TIP3   OH215752   5.883   5.052   2.997 -0.2121  0.2487  0.6353
 5249TIP3    H115753   5.831   5.098   3.063 -0.2341  1.1387  0.0128
 5249TIP3    H215754   5.972   5.051   3.033  0.0987  2.0816  0.0537
 5250TIP3   OH215755   0.432   3.701   1.481  0.0724  0.0625 -0.3179
 5250TIP3    H115756   0.453   3.616   1.520  0.9111  0.2149 -0.4168
 5250TIP3    H215757   0.343   3.720   1.510 -0.1523 -0.8888 -0.3588
 5251TIP3   OH215758   2.069   3.127   5.129  0.3493  0.0343  0.3125
 5251TIP3    H115759   2.033   3.119   5.040 -0.5370 -0.3557  0.6922
 5251TIP3    H215760   2.099   3.039   5.151  1.0875  0.2494  0.1966
 5252TIP3   OH215761   2.568   4.601   3.665 -0.2187 -0.4987  0.3084
 5252TIP3    H115762   2.492   4.653   3.690  1.2535  1.2988  1.2235
 5252TIP3    H215763   2.551   4.577   3.573 -0.8765  1.7977 -0.2352
 5253TIP3   OH215764   1.906   0.812   3.154 -0.5601 -0.6084 -0.3867
 5253TIP3    H115765   1.855   0.880   3.199  1.8069  1.5891 -0.7941
 5253TIP3    H215766   1.901   0.736   3.211 -0.2189  1.1075  2.0669
 5254TIP3   OH215767   0.568   3.308   2.918 -0.1702  0.4696  0.2240
 5254TIP3    H115768   0.487   3.350   2.886 -0.4259  0.0773  0.3501
 5254TIP3    H215769   0.630   3.319   2.846 -0.6393 -0.1003 -0.2734
 5255TIP3   OH215770   0.088   0.130   0.737  0.2902  0.2034 -0.1585
 5255TIP3    H115771   0.077   0.067   0.808 -1.2435  1.0840  0.4218
 5255TIP3    H215772   0.115   0.076   0.662  4.7995 -0.4449  1.6359
 5256TIP3   OH215773   3.444   0.339   1.011 -0.7262  0.2157  0.2306
 5256TIP3    H115774   3.421   0.283   1.085 -0.8988  0.3974  0.3163
 5256TIP3    H215775   3.371   0.332   0.951 -1.2247  1.1363  0.7040
 5257TIP3   OH215776   0.564   3.237   0.178 -0.7121 -0.5858  0.2551
 5257TIP3    H115777   0.648   3.191   0.179 -0.3193  0.1293  1.7844
 5257TIP3    H215778   0.512   3.194   0.245 -0.6584  0.5877  1.0712
 5258TIP3   OH215779   4.849   2.780   3.881  0.3011 -0.0548  0.2789
 5258TIP3    H115780   4.787   2.737   3.822 -0.0601  0.4296  0.2995
 5258TIP3    H215781   4.923   2.803   3.825 -0.9337  2.3310 -0.5055
 5259TIP3   OH215782   4.688   1.707   1.391  0.2069  0.2083  0.0938
 5259TIP3    H115783   4.631   1.748   1.456  1.8345  0.2165  1.5766
 5259TIP3    H215784   4.628   1.678   1.322 -1.5382  0.5363  1.3993
 5260TIP3   OH215785   2.914   1.681   1.549  0.3253 -0.3055 -0.3041
 5260TIP3    H115786   2.991   1.630   1.522 -0.3010 -0.4690 -1.9286
 5260TIP3    H215787   2.843   1.616   1.554 -0.7358  0.4354 -3.4735
 5261TIP3   OH215788   6.322   5.877   2.247 -0.4660  0.8254 -0.2799
 5261TIP3    H115789   6.226   5.875   2.252 -0.4103 -0.0681  0.8375
 5261TIP3    H215790   6.350   5.889   2.338  0.5015  0.2621 -0.4993
 5262TIP3   OH215791   0.030   2.566   0.654  0.3067 -0.1242  0.3371
 5262TIP3    H115792  -0.035   2.495   0.649 -1.4782  1.4533 -0.0106
 5262TIP3    H215793   0.114   2.521   0.661 -0.7312 -2.2727 -0.1440
 5263TIP3   OH215794   1.472   1.868   4.846 -0.0576 -0.0278 -0.7516
 5263TIP3    H115795   1.482   1.823   4.930  0.6895  2.0922  0.3945
 5263TIP3    H215796   1.560   1.899   4.825 -0.2146 -0.6345 -2.4147
 5264TIP3   OH215797   2.487   0.526   3.426 -0.0993 -0.8462 -0.7925
 5264TIP3    H115798   2.392   0.522   3.415 -0.3463 -1.3602  1.1659
 5264TIP3    H215799   2.512   0.611   3.390 -1.6560  0.3968  0.8661
 5265TIP3   OH215800   3.486   1.193   3.680  0.8512 -0.0376  0.3186
 5265TIP3    H115801   3.523   1.267   3.631  2.9169  0.4237  2.3968
 5265TIP3    H215802   3.509   1.116   3.628  0.2292  0.6116 -0.9745
 5266TIP3   OH215803   0.516   1.805   2.090  0.7566  0.3418  0.3001
 5266TIP3    H115804   0.436   1.856   2.076  0.2223 -0.6079 -0.1421
 5266TIP3    H215805   0.550   1.838   2.174  0.3603  1.3350  0.0842
 5267TIP3   OH215806   1.228   0.307   0.337  0.6817 -0.0582 -0.0772
 5267TIP3    H115807   1.257   0.227   0.291  2.2406  0.3012  0.2308
 5267TIP3    H215808   1.304   0.333   0.389 -0.2519  0.9183  0.8264
 5268TIP3   OH215809   5.349   1.325   1.905 -0.5299  0.0666 -0.1836
 5268TIP3    H115810   5.322   1.252   1.961 -0.9450 -0.4365 -1.0153
 5268TIP3    H215811   5.267   1.356   1.866 -0.2692  0.5416 -0.3582
 5269TIP3   OH215812   5.987   4.704   2.056 -0.3952 -0.4817  0.9279
 5269TIP3    H115813   6.004   4.794   2.086  2.6680  0.2118 -2.1750
 5269TIP3    H215814   6.058   4.653   2.093  0.9980 -0.4244 -1.4557
 5270TIP3   OH215815   5.521   4.258   3.509 -0.6882  0.3147 -0.3712
 5270TIP3    H115816   5.481   4.188   3.560 -0.8958  0.2148 -0.6658
 5270TIP3    H215817   5.449   4.319   3.491 -0.3692  0.9448  0.4480
 5271TIP3   OH215818   4.378   5.569   0.418 -0.3972 -0.4476 -0.0292
 5271TIP3    H115819   4.408   5.590   0.330  1.6369 -1.8334  0.2582
 5271TIP3    H215820   4.364   5.654   0.460  0.3099  0.2373 -1.1461
 5272TIP3   OH215821   0.784   1.984   4.569  0.4707  0.3398  0.4635
 5272TIP3    H115822   0.877   2.002   4.557  0.6871 -1.3256 -0.8508
 5272TIP3    H215823   0.781   1.905   4.623 -0.0994 -0.2885 -0.4347
 5273TIP3   OH215824   2.970   5.690   3.700  0.0750 -0.2138 -0.3485
 5273TIP3    H115825   2.960   5.608   3.652  0.8627  0.2513 -1.3738
 5273TIP3    H215826   2.960   5.666   3.792 -2.9102 -0.9246 -0.7417
 5274TIP3   OH215827   1.248   2.069   4.106 -0.6207 -0.4858 -0.3591
 5274TIP3    H115828   1.177   2.078   4.169  0.3881  2.4097  0.5490
 5274TIP3    H215829   1.317   2.024   4.154  0.1621  1.7494  0.7834
 5275TIP3   OH215830   0.379   2.405   0.453  0.4035 -0.7813 -0.0219
 5275TIP3    H115831   0.454   2.361   0.494 -0.7235 -3.4781 -0.6263
 5275TIP3    H215832   0.404   2.497   0.449  2.6698 -1.2153  1.9757
 5276TIP3   OH215833   4.906   2.074   0.815  0.0936  0.1890 -0.1500
 5276TIP3    H115834   4.832   2.017   0.833 -0.1149 -0.0320 -1.6170
 5276TIP3    H215835   4.983   2.020   0.833 -0.0582 -1.2826 -3.2843
 5277TIP3   OH215836   4.705   1.701   4.843 -0.1692  0.2021 -0.4413
 5277TIP3    H115837   4.659   1.713   4.760  3.1806  0.4440 -2.4128
 5277TIP3    H215838   4.798   1.705   4.821  0.9121  0.0949  3.3207
 5278TIP3   OH215839   2.004   0.114   3.573  0.0807  0.2786  0.4170
 5278TIP3    H115840   2.088   0.080   3.542  0.7193  1.2229  1.0463
 5278TIP3    H215841   1.978   0.056   3.644 -0.4458 -0.7718 -0.6140
 5279TIP3   OH215842   1.075   0.160   3.343 -0.4082  0.0785 -0.1333
 5279TIP3    H115843   1.048   0.114   3.263  2.6211 -0.7606 -0.7866
 5279TIP3    H215844   1.047   0.250   3.329 -1.5851 -0.4262 -1.2989
 5280TIP3   OH215845   3.144   3.195   5.084  0.2717 -0.1179 -0.3460
 5280TIP3    H115846   3.185   3.223   5.167  1.8531 -0.1643 -1.0762
 5280TIP3    H215847   3.066   3.146   5.111 -0.8909  2.3277  1.0507
 5281TIP3   OH215848   3.752   1.055   1.953  0.2587  0.0694 -0.0787
 5281TIP3    H115849   3.818   1.057   1.884  0.9506  0.1320  0.5778
 5281TIP3    H215850   3.675   1.015   1.911  0.2450  1.2269 -1.2327
 5282TIP3   OH215851   5.288   4.222   4.562 -0.4812  0.4443 -0.4075
 5282TIP3    H115852   5.375   4.253   4.535 -0.6778  0.0252 -1.6038
 5282TIP3    H215853   5.243   4.205   4.479 -1.8764  1.1195  0.1788
 5283TIP3   OH215854   0.947   0.872   4.945 -0.5080  0.1443  0.1571
 5283TIP3    H115855   0.900   0.829   4.874 -1.3935  0.6566  0.4172
 5283TIP3    H215856   0.892   0.946   4.969 -0.2968 -0.1070  1.4803
 5284TIP3   OH215857   1.019   4.336   3.396  0.4098 -0.2408 -0.1515
 5284TIP3    H115858   1.094   4.276   3.393  1.9452  1.5872 -0.4924
 5284TIP3    H215859   0.973   4.313   3.476  1.7838 -0.9020  0.4895
 5285TIP3   OH215860   4.745   3.864   0.863 -0.3884  0.2230  0.2613
 5285TIP3    H115861   4.688   3.939   0.877 -0.9522 -0.1268 -0.1289
 5285TIP3    H215862   4.695   3.805   0.806  0.3791 -0.0682 -0.1361
 5286TIP3   OH215863   3.007   1.656   1.852 -0.5092  0.8878  0.4349
 5286TIP3    H115864   2.935   1.647   1.914 -0.5259 -0.5864  0.2254
 5286TIP3    H215865   2.964   1.669   1.767 -0.5177  0.5220  0.3840
 5287TIP3   OH215866   2.245   0.535   0.386 -0.0539  0.4241 -0.1642
 5287TIP3    H115867   2.167   0.520   0.440  0.4023 -0.7862  0.1877
 5287TIP3    H215868   2.316   0.547   0.450  0.2299  0.4721 -0.4884
 5288TIP3   OH215869   3.557   2.597   1.749 -0.6037  0.0425 -0.0521
 5288TIP3    H115870   3.584   2.510   1.720  1.1748  0.6899 -0.4677
 5288TIP3    H215871   3.638   2.638   1.780 -1.4542  1.4607  0.3722
 5289TIP3   OH215872   1.274   0.469   2.161  0.1002 -0.8543 -0.5969
 5289TIP3    H115873   1.361   0.429   2.153  1.1823  1.2169 -0.0093
 5289TIP3    H215874   1.287   0.542   2.222 -2.1008 -0.5702 -0.3908
 5290TIP3   OH215875   2.554   2.351   2.754 -0.5338 -0.4482 -0.3621
 5290TIP3    H115876   2.646   2.327   2.743 -1.2686 -2.9449 -1.9961
 5290TIP3    H215877   2.527   2.305   2.833 -0.4152  0.2358  0.0833
 5291TIP3   OH215878   1.558   4.920   1.857 -0.4924  0.4138 -0.0696
 5291TIP3    H115879   1.584   4.981   1.788 -0.3353  1.3138  0.7797
 5291TIP3    H215880   1.467   4.942   1.876 -0.2257  0.8450  0.7188
 5292TIP3   OH215881   1.948   0.276   4.952 -0.4324 -0.0066 -0.1574
 5292TIP3    H115882   1.881   0.232   5.003 -0.2718  0.1721  0.2150
 5292TIP3    H215883   1.928   0.254   4.861  0.2180 -1.6551  0.0592
 5293TIP3   OH215884   0.245   5.545   1.083  0.3497 -0.1500  0.1488
 5293TIP3    H115885   0.326   5.515   1.125 -0.2226 -1.4953  0.3093
 5293TIP3    H215886   0.253   5.516   0.993 -0.2183 -0.8230  0.3102
 5294TIP3   OH215887   4.308   3.398   5.143 -0.3983  0.0053  0.3711
 5294TIP3    H115888   4.355   3.480   5.152  0.3282 -0.1293 -1.5869
 5294TIP3    H215889   4.373   3.337   5.107 -1.0156 -1.3368  1.4468
 5295TIP3   OH215890   5.159   5.470   4.699 -0.7950 -0.5595  0.1344
 5295TIP3    H115891   5.159   5.559   4.665  0.5979 -0.4315  0.3984
 5295TIP3    H215892   5.101   5.474   4.775 -1.8292 -0.2262 -0.6387
 5296TIP3   OH215893   3.014   2.827   1.941 -0.1935  0.4108  0.2520
 5296TIP3    H115894   3.039   2.743   1.980  0.3313  0.3854 -0.1260
 5296TIP3    H215895   2.936   2.854   1.990 -0.9007 -0.7177 -0.1942
 5297TIP3   OH215896   2.647   5.960   0.591 -0.5102  0.0001  0.7453
 5297TIP3    H115897   2.636   5.891   0.526 -1.8169  1.3467 -0.5126
 5297TIP3    H215898   2.721   6.012   0.559 -0.8088  0.3473  0.6131
 5298TIP3   OH215899   6.297   0.360   4.084  0.4484 -0.3258  0.3729
 5298TIP3    H115900   6.211   0.375   4.125  0.1560  0.8792 -0.6188
 5298TIP3    H215901   6.277   0.334   3.994  1.1017  1.2298 -0.2624
 5299TIP3   OH215902   1.206   3.907   3.884  0.1778 -0.1145  0.0937
 5299TIP3    H115903   1.230   3.916   3.792  0.0510 -2.2012 -0.1947
 5299TIP3    H215904   1.250   3.827   3.913 -2.4328 -1.4039  0.8717
 5300TIP3   OH215905   4.836   5.979   1.598 -0.3829 -0.5476  0.1453
 5300TIP3    H115906   4.808   5.887   1.599 -0.7038 -0.4746 -0.7873
 5300TIP3    H215907   4.775   6.021   1.537  1.9293 -0.4437 -2.2589
 5301TIP3   OH215908   4.186   2.306   3.523  0.1021 -0.5556  0.4528
 5301TIP3    H115909   4.207   2.390   3.482 -0.2725  0.8132  2.8797
 5301TIP3    H215910   4.254   2.293   3.588 -0.3733 -1.6636  0.7533
 5302TIP3   OH215911   1.849   1.114   2.614  0.0364 -0.0745  0.3358
 5302TIP3    H115912   1.901   1.160   2.548  0.3943 -1.1214 -0.1309
 5302TIP3    H215913   1.910   1.099   2.686  0.0268 -0.1752  0.3224
 5303TIP3   OH215914   5.182   5.486   0.075 -0.5631 -0.8250  0.0807
 5303TIP3    H115915   5.223   5.511  -0.008 -0.5460 -2.1813 -0.3353
 5303TIP3    H215916   5.107   5.546   0.083 -1.3412 -1.4917 -1.5686
 5304TIP3   OH215917   4.019   5.110   3.696 -0.6285  0.8838  0.2478
 5304TIP3    H115918   4.042   5.085   3.607  0.9504  1.7895  0.3550
 5304TIP3    H215919   4.055   5.040   3.751 -1.9184  0.1404  0.1780
 5305TIP3   OH215920   4.075   0.868   3.086  0.2321 -0.4745 -1.2750
 5305TIP3    H115921   3.988   0.906   3.075  0.0517  1.3327  3.8736
 5305TIP3    H215922   4.135   0.938   3.061  0.1493 -0.5577 -1.7156
 5306TIP3   OH215923   0.558   1.889   0.666  0.0381 -0.4501  0.0837
 5306TIP3    H115924   0.508   1.967   0.687  0.0034 -0.9494  1.9905
 5306TIP3    H215925   0.645   1.905   0.702  0.1951 -1.0768  0.0056
 5307TIP3   OH215926   1.716   1.069   1.054  0.7777 -0.7040 -0.8684
 5307TIP3    H115927   1.652   1.140   1.064  1.1606 -0.3788 -0.7111
 5307TIP3    H215928   1.687   1.022   0.976  0.8066 -0.0690 -1.2721
 5308TIP3   OH215929   2.288   2.589   0.165 -0.0963  0.1017  0.2048
 5308TIP3    H115930   2.233   2.653   0.120 -4.6290 -2.2462  1.8058
 5308TIP3    H215931   2.251   2.504   0.140  2.3104 -1.6481  2.1585
 5309TIP3   OH215932   1.690   5.410   3.089 -0.1698  0.6536 -0.1354
 5309TIP3    H115933   1.662   5.332   3.137  2.5590  1.7630  3.7246
 5309TIP3    H215934   1.771   5.383   3.045  0.0602  0.9891  0.0857
 5310TIP3   OH215935   1.511   3.079   1.703 -0.1080  0.7527  0.1575
 5310TIP3    H115936   1.557   3.074   1.620  0.4850  0.2995  0.5038
 5310TIP3    H215937   1.434   3.023   1.693  0.2785  0.2248  0.1110
 5311TIP3   OH215938   4.354   2.190   4.521  0.0246  0.7082 -0.6579
 5311TIP3    H115939   4.430   2.140   4.551 -1.1803 -0.4949  0.5523
 5311TIP3    H215940   4.368   2.201   4.427  1.5547  0.2818 -0.4965
 5312TIP3   OH215941   5.315   5.345   0.495 -0.4345 -0.1533  0.2681
 5312TIP3    H115942   5.363   5.424   0.519  0.8079 -1.2585  1.6082
 5312TIP3    H215943   5.292   5.305   0.578  1.0453 -2.4044 -0.3217
 5313TIP3   OH215944   0.316   2.336   0.205 -0.2712  0.3342  0.1292
 5313TIP3    H115945   0.276   2.410   0.160 -0.6916 -0.2985 -0.5824
 5313TIP3    H215946   0.330   2.366   0.294 -0.5266  1.2277 -0.1205
 5314TIP3   OH215947   5.745   4.087   2.268  0.0202 -0.3813  0.1846
 5314TIP3    H115948   5.837   4.069   2.250  0.1611  0.2525  0.2466
 5314TIP3    H215949   5.741   4.100   2.363 -0.0998 -0.2003  0.1552
 5315TIP3   OH215950   4.538   3.166   2.637  0.4858  0.3392 -0.0762
 5315TIP3    H115951   4.496   3.086   2.607 -1.3461  1.3625 -0.4373
 5315TIP3    H215952   4.609   3.137   2.694  1.3687 -1.5793 -1.9936
 5316TIP3   OH215953   1.068   3.900   3.155  0.2376  0.3666 -0.2771
 5316TIP3    H115954   1.088   3.806   3.160  0.1045  0.3277 -0.4410
 5316TIP3    H215955   1.034   3.912   3.066 -0.0848  0.5025 -0.1349
 5317TIP3   OH215956   0.147   5.260   0.442  0.0034  0.0706 -0.4816
 5317TIP3    H115957   0.064   5.264   0.393 -0.6596 -0.5494  0.5528
 5317TIP3    H215958   0.161   5.167   0.457  0.5423  0.2182 -0.0479
 5318TIP3   OH215959   6.069   3.898   0.390 -0.2312  0.5181 -0.2035
 5318TIP3    H115960   6.132   3.826   0.400 -2.7665 -1.7174  1.0275
 5318TIP3    H215961   6.123   3.976   0.379  2.7326 -1.6236 -2.5663
 5319TIP3   OH215962   6.021   0.922   1.545  0.2154 -0.4764 -0.2326
 5319TIP3    H115963   6.033   1.015   1.523  0.6462 -0.0207  1.7564
 5319TIP3    H215964   6.109   0.889   1.562  0.0407 -1.1973 -0.6723
 5320TIP3   OH215965   6.200   3.858   5.025 -0.0787  0.3886  0.2067
 5320TIP3    H115966   6.148   3.938   5.015 -0.0734  0.4403  0.5757
 5320TIP3    H215967   6.144   3.800   5.078 -0.7050 -0.4252 -1.3019
 5321TIP3   OH215968   6.253   5.924   4.813  0.1103 -0.1705 -0.3238
 5321TIP3    H115969   6.169   5.946   4.773  0.4389  1.5561 -0.1208
 5321TIP3    H215970   6.272   5.997   4.872  0.2397 -2.0460  2.1183
 5322TIP3   OH215971   1.245   0.999   2.586  0.2141 -0.0849 -0.0507
 5322TIP3    H115972   1.202   0.932   2.639 -0.5400  1.0916  0.8667
 5322TIP3    H215973   1.335   0.968   2.577 -0.0924 -1.1697  0.4249
 5323TIP3   OH215974   5.326   0.733   0.539 -0.2288 -0.1167 -0.6721
 5323TIP3    H115975   5.404   0.786   0.557 -0.7376 -0.1990  2.3359
 5323TIP3    H215976   5.253   0.789   0.562 -0.9320 -0.9734 -0.7655
 5324TIP3   OH215977   0.088   3.157   3.185 -0.0367 -0.4004  0.3761
 5324TIP3    H115978   0.127   3.074   3.158 -1.5152 -1.1801  0.5387
 5324TIP3    H215979   0.034   3.135   3.260 -1.9771  0.3171 -0.7345
 5325TIP3   OH215980   2.756   1.647   2.241 -0.5529  0.0168  0.2733
 5325TIP3    H115981   2.748   1.729   2.290 -2.8974 -0.0473  0.1315
 5325TIP3    H215982   2.689   1.590   2.280  0.9834 -1.8335  0.3337
 5326TIP3   OH215983   3.770   1.188   4.836  0.0019  0.2382  0.2357
 5326TIP3    H115984   3.732   1.244   4.903 -1.6697 -1.0182  0.3926
 5326TIP3    H215985   3.853   1.230   4.813  0.5090  0.8242  2.9001
 5327TIP3   OH215986   3.109   5.583   3.287 -0.5573  0.4900 -0.0219
 5327TIP3    H115987   3.203   5.568   3.294 -0.6069  0.0561 -0.2640
 5327TIP3    H215988   3.101   5.676   3.265 -0.1527  0.3026 -0.9862
 5328TIP3   OH215989   2.882   2.312   2.277 -0.3146 -0.2352 -0.2384
 5328TIP3    H115990   2.803   2.365   2.268  1.0820  2.2521  1.0631
 5328TIP3    H215991   2.906   2.289   2.188 -1.6991  0.2410 -0.7502
 5329TIP3   OH215992   2.451   5.894   0.751  0.4504  0.0714  0.3310
 5329TIP3    H115993   2.477   5.849   0.832 -0.0722 -0.8389  0.0112
 5329TIP3    H215994   2.528   5.889   0.695  0.3553 -0.5602  0.2481
 5330TIP3   OH215995   0.043   3.107   3.641 -0.1092  0.8842  0.2597
 5330TIP3    H115996  -0.024   3.151   3.590  0.7050  0.4092 -1.2684
 5330TIP3    H215997   0.089   3.051   3.578 -0.2603 -1.1743  1.8488
 5331TIP3   OH215998   4.635   2.764   4.284  0.2430  0.5686 -0.3731
 5331TIP3    H115999   4.544   2.787   4.269  0.7782  0.8447 -4.0349
 5331TIP3    H216000   4.638   2.668   4.276  0.2269  0.5079  0.2725
 5332TIP3   OH216001   1.857   0.832   4.961  0.4519 -0.0782 -0.2627
 5332TIP3    H116002   1.784   0.816   4.901  1.5984  0.7034 -1.9440
 5332TIP3    H216003   1.932   0.847   4.904  1.9220 -0.7317  1.4098
 5333TIP3   OH216004   4.257   3.682   1.444 -0.0664  0.1202 -0.0025
 5333TIP3    H116005   4.278   3.775   1.456 -0.7305  0.3939 -0.8472
 5333TIP3    H216006   4.268   3.644   1.531 -0.0047  1.0373  0.4095
 5334TIP3   OH216007   0.495   0.133   1.391  0.2990 -0.4339  0.2589
 5334TIP3    H116008   0.444   0.181   1.457  1.0333  0.6751  0.0541
 5334TIP3    H216009   0.442   0.056   1.372 -1.8037  1.1184 -0.6252
 5335TIP3   OH216010   5.339   0.244   0.213 -0.8976  0.1837 -0.2011
 5335TIP3    H116011   5.309   0.334   0.222  0.5945  0.6787 -0.0341
 5335TIP3    H216012   5.345   0.211   0.303  1.1751  0.8202 -0.0739
 5336TIP3   OH216013   1.100   0.865   2.966 -0.3514 -0.1356  0.2472
 5336TIP3    H116014   1.074   0.862   3.058 -0.5376  0.6965  0.2347
 5336TIP3    H216015   1.046   0.935   2.929  2.2566  2.0553  0.3188
 5337TIP3   OH216016   1.827   5.973   2.791  0.7683 -0.1476  0.2325
 5337TIP3    H116017   1.752   5.999   2.844  0.7264  2.2184 -0.8616
 5337TIP3    H216018   1.790   5.950   2.706  1.1190 -0.6304  0.2114
 5338TIP3   OH216019   2.502   4.355   2.566  0.1377 -0.1099  0.7657
 5338TIP3    H116020   2.596   4.370   2.571 -0.0198  1.2852  0.0484
 5338TIP3    H216021   2.492   4.289   2.497  0.7964 -3.3236  3.4703
 5339TIP3   OH216022   0.021   3.420   0.312 -0.1276 -0.3845 -0.0231
 5339TIP3    H116023  -0.030   3.501   0.314 -0.2954 -0.4845 -0.2050
 5339TIP3    H216024   0.088   3.432   0.380 -0.3727 -0.2388  0.1952
 5340TIP3   OH216025   2.060   5.700   3.150  0.2819  0.2657 -0.5429
 5340TIP3    H116026   2.052   5.743   3.065  1.3778 -0.5309 -1.0650
 5340TIP3    H216027   2.117   5.625   3.134  0.1096 -0.1788  0.7975
 5341TIP3   OH216028   1.576   0.488   0.762 -0.3807 -0.0309 -0.1325
 5341TIP3    H116029   1.511   0.509   0.829 -0.2533 -0.8718  0.2638
 5341TIP3    H216030   1.656   0.471   0.811 -0.2332 -0.4493 -0.5143
 5342TIP3   OH216031   2.132   2.889   1.124 -0.0297  0.0560  0.1868
 5342TIP3    H116032   2.180   2.937   1.057  0.1533 -1.4915 -0.8659
 5342TIP3    H216033   2.161   2.925   1.207  0.1871  1.6266 -0.5444
 5343TIP3   OH216034   2.996   4.272   4.525 -0.4838  0.5545 -0.3632
 5343TIP3    H116035   3.073   4.224   4.557  0.2238  1.8711 -0.0351
 5343TIP3    H216036   2.925   4.208   4.529  0.6713 -0.8534 -1.1543
 5344TIP3   OH216037   0.758   1.955   0.402  0.1751  0.2543 -0.3416
 5344TIP3    H116038   0.736   1.999   0.485 -1.3993 -0.7498 -0.1718
 5344TIP3    H216039   0.780   1.865   0.428 -0.6168 -0.1519 -1.0118
 5345TIP3   OH216040   2.203   4.744   4.680 -0.4447  0.3598  0.4839
 5345TIP3    H116041   2.282   4.693   4.662  0.4691  1.2715  1.7503
 5345TIP3    H216042   2.150   4.689   4.737  0.7387  0.9526  2.2122
 5346TIP3   OH216043   3.705   3.469   3.705  0.5641  0.2772 -0.6264
 5346TIP3    H116044   3.633   3.457   3.643 -0.7587 -0.9140  1.0176
 5346TIP3    H216045   3.772   3.406   3.677  0.2413  0.1786 -1.1807
 5347TIP3   OH216046   4.416   4.025   2.793 -0.1598 -0.4163  0.2647
 5347TIP3    H116047   4.459   4.109   2.773 -0.0715 -0.2857  0.9579
 5347TIP3    H216048   4.361   4.044   2.869 -1.3367 -0.6252 -0.5032
 5348TIP3   OH216049   2.456   4.596   1.186  0.0975 -0.1952 -0.3614
 5348TIP3    H116050   2.405   4.534   1.238  0.7961 -0.5508 -0.0773
 5348TIP3    H216051   2.418   4.591   1.098  0.9593 -2.0576 -0.6888
 5349TIP3   OH216052   4.015   2.916   0.103 -0.2136  0.0260 -0.3563
 5349TIP3    H116053   4.052   2.972   0.171 -0.5296 -0.9051  0.6186
 5349TIP3    H216054   4.087   2.858   0.078 -0.5499 -0.7539  0.4243
 5350TIP3   OH216055   4.426   2.773   1.245  0.2176 -0.7320  0.2751
 5350TIP3    H116056   4.382   2.731   1.319 -2.8594  0.0394 -0.9323
 5350TIP3    H216057   4.396   2.724   1.168  0.7273  0.4569 -0.7200
 5351TIP3   OH216058   5.068   0.151   1.610 -0.3092  0.0983  0.1616
 5351TIP3    H116059   5.022   0.231   1.583 -0.5175 -0.4573 -1.2270
 5351TIP3    H216060   5.005   0.105   1.664  0.1623  1.3066  1.8306
 5352TIP3   OH216061   5.619   5.667   1.954  1.0177  0.0976 -0.0167
 5352TIP3    H116062   5.572   5.618   1.887  1.3247 -0.4945  0.1881
 5352TIP3    H216063   5.568   5.653   2.034  0.4282  1.1325 -0.1930
 5353TIP3   OH216064   0.344   0.786   0.854  0.1732  0.3438 -0.3646
 5353TIP3    H116065   0.318   0.702   0.893  0.7418 -0.7054 -2.0951
 5353TIP3    H216066   0.414   0.818   0.910 -0.8001  0.2317  0.9581
 5354TIP3   OH216067   3.849   5.494   0.706  0.2340  0.5218 -0.0742
 5354TIP3    H116068   3.783   5.438   0.665  1.5867 -1.8485  0.7839
 5354TIP3    H216069   3.841   5.578   0.661 -2.3703 -0.1155 -0.9599
 5355TIP3   OH216070   3.217   3.144   4.168  0.1803  0.0739  0.0248
 5355TIP3    H116071   3.195   3.197   4.092 -0.1919 -1.0097 -0.6458
 5355TIP3    H216072   3.132   3.114   4.201  0.4332 -1.2270 -0.4438
 5356TIP3   OH216073   4.469   4.394   1.659 -0.0260  0.1312  0.0506
 5356TIP3    H116074   4.483   4.405   1.565  0.1678 -0.4263  0.0102
 5356TIP3    H216075   4.374   4.389   1.668 -0.0818  0.8784 -0.0283
 5357TIP3   OH216076   5.721   1.968   1.260 -0.2484  0.0925 -0.4343
 5357TIP3    H116077   5.668   2.004   1.331  2.9706  1.8670  1.2845
 5357TIP3    H216078   5.774   1.900   1.301  0.2790 -0.2230 -1.5876
 5358TIP3   OH216079   5.953   5.736   0.065 -0.2710  0.0273  0.4559
 5358TIP3    H116080   6.032   5.732   0.119  0.3016 -1.3058 -0.4209
 5358TIP3    H216081   5.883   5.759   0.126  0.7931  1.2876  1.2399
 5359TIP3   OH216082   3.273   1.168   0.403  0.3599  0.1283 -0.3930
 5359TIP3    H116083   3.341   1.175   0.336  1.6495 -1.7309  0.6216
 5359TIP3    H216084   3.242   1.078   0.397 -0.4609  0.3192  0.6263
 5360TIP3   OH216085   1.850   2.477   2.759 -0.7669 -0.5683  0.1924
 5360TIP3    H116086   1.845   2.383   2.745 -1.3315 -0.6016  0.6101
 5360TIP3    H216087   1.879   2.487   2.850  2.2174 -0.3452 -0.6903
 5361TIP3   OH216088   4.649   2.526   1.147  0.1085 -0.0505  0.0292
 5361TIP3    H116089   4.681   2.524   1.057  0.6593  1.0838  0.1789
 5361TIP3    H216090   4.554   2.529   1.139 -0.0238 -2.9695 -0.4274
 5362TIP3   OH216091   1.516   3.230   2.194 -0.1973  0.2582 -0.1785
 5362TIP3    H116092   1.438   3.272   2.157  1.2681  2.4604 -0.9887
 5362TIP3    H216093   1.571   3.303   2.222  0.9772 -1.2738  1.7131
 5363TIP3   OH216094   6.349   3.960   2.636  0.1635  0.1873  0.2823
 5363TIP3    H116095   6.311   4.035   2.681 -0.0592 -0.8427  1.8808
 5363TIP3    H216096   6.274   3.916   2.596  0.0219 -0.3211  1.1000
 5364TIP3   OH216097   2.929   2.601   4.258 -0.1760 -1.0355 -0.1885
 5364TIP3    H116098   2.928   2.594   4.353  2.0783 -2.6025 -0.2052
 5364TIP3    H216099   2.852   2.552   4.229 -0.5362 -1.0740  0.7988
 5365TIP3   OH216100   2.177   4.684   2.333  0.0225 -0.1837 -0.1242
 5365TIP3    H116101   2.148   4.655   2.246 -1.1085 -0.4905  0.3351
 5365TIP3    H216102   2.272   4.676   2.330 -0.0307 -0.6412 -1.1829
 5366TIP3   OH216103   5.935   0.892   4.885  0.2304  0.1789 -0.7838
 5366TIP3    H116104   5.917   0.928   4.798  0.7168  0.9545 -0.5762
 5366TIP3    H216105   6.026   0.864   4.882  0.0708 -0.3581 -0.7074
 5367TIP3   OH216106   6.156   1.777   1.488 -0.0833 -0.0139 -0.6580
 5367TIP3    H116107   6.087   1.721   1.526 -1.1783  1.3324 -0.5654
 5367TIP3    H216108   6.171   1.844   1.555 -1.2846  1.7903 -2.1089
 5368TIP3   OH216109   4.776   0.796   3.382  0.4991  0.5209 -0.2049
 5368TIP3    H116110   4.743   0.850   3.309  0.9241 -0.5273 -1.2004
 5368TIP3    H216111   4.719   0.819   3.455  1.1240  2.8635 -0.3688
 5369TIP3   OH216112   0.973   2.293   5.024 -0.2297  0.0223 -0.2748
 5369TIP3    H116113   1.002   2.257   5.108 -0.7688  0.4440  0.1066
 5369TIP3    H216114   0.899   2.350   5.047  0.5975  1.3789 -0.8340
 5370TIP3   OH216115   3.525   5.781   1.443  0.7754  0.0123 -0.2609
 5370TIP3    H116116   3.439   5.818   1.421  0.3533 -0.1867  0.9675
 5370TIP3    H216117   3.583   5.813   1.373 -0.4675 -0.6475 -1.6583
 5371TIP3   OH216118   2.369   1.191   1.352 -0.2220  0.1121  0.2981
 5371TIP3    H116119   2.462   1.169   1.353 -0.1687  0.3472  1.0612
 5371TIP3    H216120   2.365   1.282   1.380 -0.6386  0.2985 -0.3397
 5372TIP3   OH216121   0.651   0.137   1.824  0.1420  0.4378 -0.7289
 5372TIP3    H116122   0.592   0.128   1.900  0.6793  1.8306 -0.1071
 5372TIP3    H216123   0.612   0.081   1.757 -0.9555  0.0064  0.2240
 5373TIP3   OH216124   4.095   0.342   4.610 -0.0963 -0.3153 -0.4739
 5373TIP3    H116125   4.095   0.318   4.703  1.2293  0.1744 -0.3231
 5373TIP3    H216126   4.056   0.430   4.609  1.5940  0.4926 -0.0988
 5374TIP3   OH216127   2.046   1.120   4.645 -0.0638 -0.2632  0.3051
 5374TIP3    H116128   2.021   1.211   4.656 -2.1977 -0.8752  1.0758
 5374TIP3    H216129   2.068   1.112   4.552 -1.0027  0.7930 -0.0214
 5375TIP3   OH216130   4.290   1.399   1.286 -0.1592 -0.2725  0.3649
 5375TIP3    H116131   4.317   1.489   1.305  2.1021 -1.0444  1.1392
 5375TIP3    H216132   4.253   1.403   1.198  1.0122  1.1972 -0.1041
 5376TIP3   OH216133   1.171   4.466   1.280 -0.2271 -0.0929 -0.5427
 5376TIP3    H116134   1.250   4.427   1.244  0.7773  0.1255  1.3089
 5376TIP3    H216135   1.177   4.559   1.259  0.2371 -0.0036 -0.0174
 5377TIP3   OH216136   2.977   3.414   0.831 -0.1512  0.3518 -0.4036
 5377TIP3    H116137   3.004   3.395   0.921  1.3494  2.0902 -0.4230
 5377TIP3    H216138   2.905   3.478   0.840 -0.4651  0.0057 -0.4361
 5378TIP3   OH216139   0.051   1.420   0.607 -0.6307  0.2825 -0.0133
 5378TIP3    H116140   0.104   1.490   0.571 -0.4610 -0.1267 -0.5830
 5378TIP3    H216141   0.029   1.366   0.531 -1.5498  0.2432  0.2706
 5379TIP3   OH216142   3.448   3.119   3.307  1.3389 -0.0566  0.8520
 5379TIP3    H116143   3.394   3.147   3.234  1.0392 -1.3117  0.5715
 5379TIP3    H216144   3.505   3.194   3.325  2.7925 -0.3489 -1.9435
 5380TIP3   OH216145   4.313   0.076   0.857 -0.7037  0.2128 -0.5146
 5380TIP3    H116146   4.335   0.020   0.783  0.4549  0.2736 -0.2341
 5380TIP3    H216147   4.253   0.023   0.911 -1.8997  0.3311 -1.6786
 5381TIP3   OH216148   5.712   0.948   3.339  0.2519  0.2182  0.2674
 5381TIP3    H116149   5.795   0.907   3.314  0.1870 -0.8205  1.6351
 5381TIP3    H216150   5.645   0.899   3.292  0.2873 -0.2451  0.6916
 5382TIP3   OH216151   4.712   2.312   1.934  0.0150  0.4325  0.2733
 5382TIP3    H116152   4.695   2.230   1.980 -1.1740  0.7080  0.3400
 5382TIP3    H216153   4.795   2.297   1.888  1.9117  0.5191  3.3553
 5383TIP3   OH216154   3.025   1.957   2.477  0.2599  0.2575  0.0833
 5383TIP3    H116155   3.053   2.049   2.470  1.6591 -0.0311  1.3716
 5383TIP3    H216156   2.985   1.951   2.564  1.8127 -0.7273  0.7670
 5384TIP3   OH216157   0.351   5.475   4.488  0.8997 -0.3366 -0.3554
 5384TIP3    H116158   0.359   5.566   4.458  0.5189 -0.1889 -0.0241
 5384TIP3    H216159   0.290   5.480   4.562  1.7833 -0.6934  0.4188
 5385TIP3   OH216160   3.950   4.705   1.597  0.1170 -0.6969 -0.4559
 5385TIP3    H116161   3.927   4.776   1.538 -1.7068  0.0517  1.0683
 5385TIP3    H216162   4.026   4.737   1.645  0.1215 -0.3239 -0.7085
 5386TIP3   OH216163   3.010   4.769   0.579  0.1209  0.9993  0.5052
 5386TIP3    H116164   2.958   4.820   0.517  1.2417 -0.7412 -2.0688
 5386TIP3    H216165   2.957   4.691   0.597  0.5182  0.6832  0.3300
 5387TIP3   OH216166   5.256   2.824   0.039 -0.4974  0.0298 -0.1057
 5387TIP3    H116167   5.244   2.918   0.028 -0.0956  0.1616  0.4974
 5387TIP3    H216168   5.343   2.806   0.003  0.0490  0.1549  1.0885
 5388TIP3   OH216169   3.827   0.724   1.957 -0.3949  0.8321 -0.2979
 5388TIP3    H116170   3.796   0.755   1.872 -0.2715 -1.4148 -1.2078
 5388TIP3    H216171   3.757   0.668   1.990  0.6383 -0.4107 -0.1468
 5389TIP3   OH216172   1.254   5.799   4.799  0.3654 -0.0196  0.0541
 5389TIP3    H116173   1.331   5.756   4.837  0.9168  0.0949 -0.8897
 5389TIP3    H216174   1.188   5.730   4.795  0.6929 -0.3444  0.1187
 5390TIP3   OH216175   3.031   4.265   1.678  0.6690 -0.5173  0.1860
 5390TIP3    H116176   2.994   4.315   1.606  2.0259 -1.5952 -1.3181
 5390TIP3    H216177   3.011   4.318   1.756  0.8519  1.6763 -1.1541
 5391TIP3   OH216178   1.731   5.140   4.436 -0.0612 -0.1701 -0.1137
 5391TIP3    H116179   1.670   5.103   4.372  1.4237 -0.3468 -1.5200
 5391TIP3    H216180   1.678   5.199   4.489 -1.5765 -0.8559 -0.7945
 5392TIP3   OH216181   1.752   1.054   1.653  0.0011  0.5664 -0.2931
 5392TIP3    H116182   1.765   1.016   1.567 -0.9813  0.4622 -0.4009
 5392TIP3    H216183   1.835   1.100   1.672 -0.2232  1.6740 -1.8262
 5393TIP3   OH216184   4.810   1.158   2.887 -0.1113  0.9217  0.2985
 5393TIP3    H116185   4.795   1.170   2.793 -0.6402 -1.5394 -0.0164
 5393TIP3    H216186   4.743   1.211   2.929 -0.2838  1.5577 -0.7352
 5394TIP3   OH216187   1.532   2.640   1.125  0.9630 -0.0771 -0.2724
 5394TIP3    H116188   1.601   2.670   1.185  1.6369 -2.7864  0.4310
 5394TIP3    H216189   1.459   2.617   1.181  1.5706 -2.5690 -0.3680
 5395TIP3   OH216190   6.015   2.286   3.677 -0.1592  0.1183  0.5964
 5395TIP3    H116191   5.977   2.365   3.638 -0.6818 -0.0666  0.7256
 5395TIP3    H216192   5.942   2.225   3.683  0.6251 -1.0958 -1.2957
 5396TIP3   OH216193   3.559   3.942   1.806  0.1972  0.6187  0.0153
 5396TIP3    H116194   3.597   3.890   1.735  0.2518 -0.5551  0.8666
 5396TIP3    H216195   3.498   4.002   1.763 -1.0239 -1.1966 -0.8812
 5397TIP3   OH216196   2.775   4.562   2.339  0.6039 -0.3041 -0.1914
 5397TIP3    H116197   2.688   4.535   2.311  0.1195  0.3040  0.6965
 5397TIP3    H216198   2.792   4.642   2.289  0.6411 -0.3972 -0.3300
 5398TIP3   OH216199   5.006   2.264   3.201 -0.5901 -0.0383  0.1517
 5398TIP3    H116200   4.950   2.257   3.123 -1.2276  1.1538  0.4710
 5398TIP3    H216201   4.944   2.269   3.274 -0.0388  0.2416  0.6106
 5399TIP3   OH216202   0.647   5.616   0.030 -0.3135 -0.4542 -0.0899
 5399TIP3    H116203   0.625   5.527   0.058 -1.8276 -0.4019 -1.0368
 5399TIP3    H216204   0.736   5.630   0.064 -1.5428 -0.7309  3.8471
 5400TIP3   OH216205   2.643   4.650   0.607 -0.0388  0.7807  0.1776
 5400TIP3    H116206   2.567   4.704   0.629 -0.9688 -0.3098 -0.2469
 5400TIP3    H216207   2.652   4.659   0.512 -1.1085 -0.9009 -0.1251
 5401TIP3   OH216208   1.723   3.669   4.993  0.3994 -0.7163 -0.0037
 5401TIP3    H116209   1.655   3.727   4.961 -0.8305 -1.9515  0.3089
 5401TIP3    H216210   1.784   3.727   5.039  0.0340  0.5107 -1.0242
 5402TIP3   OH216211   2.702   2.511   2.213 -1.1080  0.2191  0.6371
 5402TIP3    H116212   2.669   2.598   2.236  0.8513  0.7002  1.8455
 5402TIP3    H216213   2.769   2.528   2.147 -1.3910 -0.4755  0.1640
 5403TIP3   OH216214   4.545   3.433   4.305 -0.3773 -0.6985  0.1426
 5403TIP3    H116215   4.600   3.369   4.259 -0.8118 -2.7945  2.3765
 5403TIP3    H216216   4.459   3.393   4.308 -0.6369 -0.0772  1.7073
 5404TIP3   OH216217   5.456   4.593   4.887 -0.1175  0.0517 -0.0845
 5404TIP3    H116218   5.394   4.551   4.827 -0.6033  0.1517  0.3508
 5404TIP3    H216219   5.535   4.605   4.834 -0.1015 -1.0519 -0.3378
 5405TIP3   OH216220   2.165   0.916   4.021 -0.0218  0.8454  0.1282
 5405TIP3    H116221   2.225   0.955   3.959 -0.6725  1.6674 -0.0049
 5405TIP3    H216222   2.220   0.863   4.079  0.6302  0.3649 -0.9057
 5406TIP3   OH216223   2.876   4.620   0.119 -0.6175 -0.1297 -0.5786
 5406TIP3    H116224   2.877   4.713   0.100  0.1688 -0.0796 -0.3101
 5406TIP3    H216225   2.835   4.613   0.205 -0.3038  0.0091 -0.4149
 5407TIP3   OH216226   4.212   2.626   3.021  0.0767  0.1726 -0.1992
 5407TIP3    H116227   4.286   2.677   3.053 -0.8154  0.8027  0.9335
 5407TIP3    H216228   4.173   2.681   2.954  0.4610 -0.0371 -0.5992
 5408TIP3   OH216229   0.945   1.723   4.236  0.4079 -0.4455  0.1151
 5408TIP3    H116230   0.895   1.645   4.263  1.7591 -0.7014  2.0695
 5408TIP3    H216231   1.015   1.730   4.300  1.5546  1.2243 -1.2355
 5409TIP3   OH216232   4.483   0.136   1.971 -0.1113 -0.0005  0.2705
 5409TIP3    H116233   4.543   0.069   2.002  0.4187  0.3960  0.1222
 5409TIP3    H216234   4.458   0.107   1.883  0.3924  0.1668  0.0662
 5410TIP3   OH216235   0.220   2.329   1.670 -0.5849  0.4816  0.0344
 5410TIP3    H116236   0.227   2.418   1.636  2.5672  0.6698  0.8228
 5410TIP3    H216237   0.246   2.337   1.762 -0.4280 -1.2123  0.1662
 5411TIP3   OH216238   3.595   2.905   1.242 -0.5117 -0.1364 -0.3365
 5411TIP3    H116239   3.594   2.826   1.298 -1.0389  0.8971  1.1927
 5411TIP3    H216240   3.684   2.938   1.249 -0.3498 -0.4779 -0.7959
 5412TIP3   OH216241   0.704   2.450   4.305  0.2041 -0.2275  0.1895
 5412TIP3    H116242   0.642   2.409   4.244 -0.9915  0.2258  1.0685
 5412TIP3    H216243   0.713   2.387   4.376  0.2391  0.0081  0.3922
 5413TIP3   OH216244   0.663   2.249   4.893  0.0814 -0.3187  0.4524
 5413TIP3    H116245   0.720   2.172   4.894  0.4586 -0.0884 -0.8435
 5413TIP3    H216246   0.671   2.286   4.981 -0.1949 -1.8060  1.1299
 5414TIP3   OH216247   4.491   1.798   3.923  0.6256  0.0696  0.3795
 5414TIP3    H116248   4.509   1.705   3.911 -0.7602 -0.1935  0.2264
 5414TIP3    H216249   4.539   1.822   4.002  0.0921 -1.0439  1.0555
 5415TIP3   OH216250   3.594   2.912   3.834 -0.5308  0.1157  0.4098
 5415TIP3    H116251   3.571   2.952   3.917 -0.5285 -1.0119  0.9755
 5415TIP3    H216252   3.517   2.924   3.779 -1.2735 -0.8174  1.2240
 5416TIP3   OH216253   6.375   1.550   1.991  0.4517 -0.1743 -0.6583
 5416TIP3    H116254   6.326   1.593   1.920  1.7399 -1.8019 -2.6460
 5416TIP3    H216255   6.314   1.484   2.025  1.2632 -2.6953 -3.6127
 5417TIP3   OH216256   2.599   4.292   0.047 -0.0335  0.1463 -0.1882
 5417TIP3    H116257   2.610   4.348   0.124  2.0884  3.3968 -2.6200
 5417TIP3    H216258   2.680   4.241   0.043 -0.1658 -0.0588 -0.2584
 5418TIP3   OH216259   3.757   0.978   3.269 -0.1493  0.0384 -0.2895
 5418TIP3    H116260   3.795   1.014   3.189 -1.0903 -0.3818 -0.9510
 5418TIP3    H216261   3.702   0.905   3.239 -0.2054 -0.3846  0.7812
 5419TIP3   OH216262   0.905   4.089   3.013 -0.6943 -0.1867 -0.4272
 5419TIP3    H116263   0.880   4.100   3.105 -0.2007  0.7342 -0.3964
 5419TIP3    H216264   0.824   4.061   2.970 -0.7004 -1.6398  0.4433
 5420TIP3   OH216265   2.226   4.332   3.281 -0.3416  0.5165 -0.5241
 5420TIP3    H116266   2.247   4.385   3.358  0.0727  1.1830 -1.0859
 5420TIP3    H216267   2.145   4.288   3.304  0.9553 -1.1195  1.2055
 5421TIP3   OH216268   5.516   2.235   5.108 -0.7758  0.2665 -0.2594
 5421TIP3    H116269   5.502   2.273   5.022 -1.3951 -1.5963 -1.0307
 5421TIP3    H216270   5.583   2.291   5.149 -0.6404  1.3104 -1.8365
 5422TIP3   OH216271   5.093   5.105   0.024  0.2519  0.1627 -0.6379
 5422TIP3    H116272   5.019   5.127   0.081 -0.5148 -0.1035 -1.4921
 5422TIP3    H216273   5.052   5.068  -0.054  1.3540 -1.2442 -0.5932
 5423TIP3   OH216274   0.912   4.271   2.315  0.5140  0.0863  0.0260
 5423TIP3    H116275   0.908   4.262   2.410  0.5974  0.0533  0.0268
 5423TIP3    H216276   0.896   4.364   2.298 -1.0037 -0.1603 -0.0229
 5424TIP3   OH216277   6.148   3.671   4.297 -0.0902 -0.2959 -0.2160
 5424TIP3    H116278   6.141   3.578   4.317 -0.0635 -0.3027 -0.2377
 5424TIP3    H216279   6.177   3.673   4.206  3.1437 -0.2856  0.7117
 5425TIP3   OH216280   3.575   5.834   2.952 -0.0397 -0.5584 -0.4058
 5425TIP3    H116281   3.514   5.767   2.984 -0.5267 -0.9477 -2.0624
 5425TIP3    H216282   3.662   5.800   2.973 -0.3293 -0.1620  1.6654
 5426TIP3   OH216283   1.857   4.904   1.337 -0.0260 -0.4910 -0.1886
 5426TIP3    H116284   1.911   4.931   1.262  0.2857 -1.6416 -0.3971
 5426TIP3    H216285   1.895   4.952   1.411  0.0694  0.1687 -0.6526
 5427TIP3   OH216286   0.400   2.378   1.286 -0.8192 -0.1282  0.0091
 5427TIP3    H116287   0.400   2.298   1.338 -1.0000  0.3367  0.7407
 5427TIP3    H216288   0.311   2.413   1.296 -0.4972  0.6117  0.4205
 5428TIP3   OH216289   2.199   3.739   1.825  0.1887  0.4129  0.2678
 5428TIP3    H116290   2.104   3.754   1.830  0.1870  0.8074 -0.7392
 5428TIP3    H216291   2.224   3.776   1.740  0.9901 -1.1124 -0.1794
 5429TIP3   OH216292   3.325   1.983   0.334  0.0709  0.2507 -0.3282
 5429TIP3    H116293   3.353   1.894   0.313 -0.7205 -0.2503  0.6817
 5429TIP3    H216294   3.404   2.036   0.322 -0.0045 -0.1111 -3.4025
 5430TIP3   OH216295   3.165   3.119   4.686 -0.0183 -0.0268 -0.4089
 5430TIP3    H116296   3.215   3.151   4.612  0.1277  2.0985  0.5526
 5430TIP3    H216297   3.228   3.113   4.758 -0.2292 -1.7199 -0.3227
 5431TIP3   OH216298   0.066   1.086   2.792  0.1171 -0.0453 -0.4567
 5431TIP3    H116299   0.021   1.002   2.784 -0.0922 -0.0082  0.2227
 5431TIP3    H216300   0.105   1.101   2.707  1.5395 -1.6196 -0.1256
 5432TIP3   OH216301   1.201   1.798   4.998  0.0405  0.3616  0.3963
 5432TIP3    H116302   1.207   1.843   4.913  1.8455 -0.2393  0.1732
 5432TIP3    H216303   1.140   1.851   5.048 -2.3512 -0.1117 -1.7774
 5433TIP3   OH216304   3.955   2.420   0.929  0.4583  0.4151  0.5597
 5433TIP3    H116305   3.877   2.397   0.880  2.0401 -2.2668 -0.9706
 5433TIP3    H216306   3.978   2.508   0.901 -2.3024  1.5595  1.5885
 5434TIP3   OH216307   2.241   0.482   0.919  0.1076  0.2969 -0.0541
 5434TIP3    H116308   2.333   0.466   0.899  0.4270  0.5779  1.1169
 5434TIP3    H216309   2.243   0.552   0.984 -0.9486  0.5045 -0.2373
 5435TIP3   OH216310   3.285   0.658   3.680  0.5548  0.5634 -0.2424
 5435TIP3    H116311   3.227   0.582   3.677  1.0518 -0.0769  2.9906
 5435TIP3    H216312   3.227   0.733   3.675 -0.0168  0.0482 -2.6199
 5436TIP3   OH216313   0.589   3.498   3.632 -0.3081 -0.3161  0.1477
 5436TIP3    H116314   0.569   3.440   3.558 -1.8900  0.6487 -0.2253
 5436TIP3    H216315   0.505   3.535   3.657  0.7100  2.5428 -0.2507
 5437TIP3   OH216316   6.103   0.187   2.847 -0.0163 -0.1797  0.5621
 5437TIP3    H116317   6.144   0.135   2.916 -3.5173 -1.8953  1.5841
 5437TIP3    H216318   6.106   0.132   2.769  1.2505  0.5167  0.0859
 5438TIP3   OH216319   4.131   3.441   3.281  0.6730 -0.0271  0.2784
 5438TIP3    H116320   4.221   3.464   3.257  1.5389 -1.5242  1.9028
 5438TIP3    H216321   4.105   3.506   3.346  0.5396  0.4162 -0.2050
 5439TIP3   OH216322   1.683   0.426   4.999  0.3396 -0.8546 -0.0550
 5439TIP3    H116323   1.688   0.331   4.992  0.4684 -0.7319 -2.0277
 5439TIP3    H216324   1.642   0.455   4.918  0.7865  0.8116  0.2693
 5440TIP3   OH216325   1.994   5.882   4.034  0.1950  0.0249 -0.3412
 5440TIP3    H116326   1.942   5.910   4.109 -1.0212 -1.5740 -0.5207
 5440TIP3    H216327   1.989   5.956   3.973  0.5391  1.0253  0.8095
 5441TIP3   OH216328   0.678   2.671   4.914  0.4853  0.5229  0.1503
 5441TIP3    H116329   0.631   2.651   4.833  1.3498  0.5025 -0.3531
 5441TIP3    H216330   0.648   2.759   4.938  0.2638  0.5482 -0.2139
 5442TIP3   OH216331   4.411   3.531   3.230 -0.0270  0.0198  0.0307
 5442TIP3    H116332   4.436   3.615   3.194  0.2568  0.0200  0.2311
 5442TIP3    H216333   4.492   3.481   3.235 -0.4659 -0.9725 -1.9110
 5443TIP3   OH216334   3.878   5.037   0.688 -0.5993 -0.7060 -0.4057
 5443TIP3    H116335   3.839   4.952   0.668 -1.6162 -0.3787  0.0867
 5443TIP3    H216336   3.861   5.090   0.609  0.8359 -1.2114 -1.0729
 5444TIP3   OH216337   4.261   5.890   3.574 -0.5186  0.1218 -0.0673
 5444TIP3    H116338   4.191   5.859   3.516 -2.0291  2.8784  0.0917
 5444TIP3    H216339   4.219   5.897   3.659 -0.0152  1.6131  0.0824
 5445TIP3   OH216340   0.515   4.968   3.506 -0.1632  1.1436 -0.1376
 5445TIP3    H116341   0.515   4.975   3.411 -0.4858  1.2145 -0.1346
 5445TIP3    H216342   0.607   4.955   3.530 -0.0669  1.2531 -0.4486
 5446TIP3   OH216343   1.275   4.008   1.136 -0.4898 -0.1047  0.3274
 5446TIP3    H116344   1.279   4.057   1.054  1.2796  0.7745  0.8967
 5446TIP3    H216345   1.184   4.018   1.165 -0.9644  0.1407 -1.1539
 5447TIP3   OH216346   6.178   2.322   0.729 -0.3441  0.7704  0.1243
 5447TIP3    H116347   6.221   2.237   0.739  1.3135  1.3273 -1.5459
 5447TIP3    H216348   6.188   2.365   0.814  0.7094  0.1030  0.3495
 5448TIP3   OH216349   4.569   0.390   4.062  0.7951  0.4761  0.1129
 5448TIP3    H116350   4.604   0.449   4.129 -0.4544  0.8691  0.4396
 5448TIP3    H216351   4.628   0.401   3.987  0.8544  1.7695  0.3306
 5449TIP3   OH216352   2.982   4.563   3.342 -0.3202 -0.2776 -0.3592
 5449TIP3    H116353   2.956   4.507   3.269  1.3868 -1.1141 -0.3876
 5449TIP3    H216354   2.952   4.515   3.420 -0.4947 -0.3203 -0.4524
 5450TIP3   OH216355   1.306   5.584   0.467  0.6728 -0.1350  0.3629
 5450TIP3    H116356   1.255   5.663   0.487 -0.6116 -1.0056  0.6500
 5450TIP3    H216357   1.387   5.596   0.516 -0.5272 -0.0971  2.4975
 5451TIP3   OH216358   2.160   4.634   2.031 -0.4207  0.3341  0.0702
 5451TIP3    H116359   2.099   4.606   1.962  0.8703  0.6791 -1.2763
 5451TIP3    H216360   2.227   4.684   1.984  0.6795  0.3132  1.5587
 5452TIP3   OH216361   0.461   2.191   2.534 -0.2196  0.3413 -0.1688
 5452TIP3    H116362   0.514   2.114   2.557  0.7325  1.0397  0.0540
 5452TIP3    H216363   0.406   2.161   2.462  0.2190 -0.5176 -0.1718
 5453TIP3   OH216364   5.232   1.458   2.707 -0.0699  0.1022 -0.0322
 5453TIP3    H116365   5.282   1.382   2.734 -0.1377  0.0717  0.0064
 5453TIP3    H216366   5.142   1.440   2.735 -0.5972 -0.8967 -2.1136
 5454TIP3   OH216367   3.276   4.981   3.226 -0.4860  0.1093 -0.6853
 5454TIP3    H116368   3.235   5.034   3.294 -0.2827  0.0471 -0.5149
 5454TIP3    H216369   3.279   5.039   3.149  1.0558  0.8623 -0.1063
 5455TIP3   OH216370   4.501   5.551   3.091 -0.1558 -0.0475 -0.0684
 5455TIP3    H116371   4.498   5.611   3.165 -3.8563  0.3286 -0.3692
 5455TIP3    H216372   4.535   5.605   3.019  1.1690  0.2437  0.7276
 5456TIP3   OH216373   4.765   0.902   0.369  0.0346 -0.9301 -0.3379
 5456TIP3    H116374   4.822   0.828   0.347 -1.9103 -2.1920 -1.4933
 5456TIP3    H216375   4.778   0.915   0.463  0.7222 -2.4912 -0.1781
 5457TIP3   OH216376   0.919   2.877   2.269 -0.0013 -0.2453 -0.0990
 5457TIP3    H116377   0.947   2.949   2.213  1.1916 -2.4144 -2.4567
 5457TIP3    H216378   1.000   2.840   2.305 -0.5764 -0.6043  0.8902
 5458TIP3   OH216379   4.685   5.743   4.144 -0.4645  0.3633 -0.3406
 5458TIP3    H116380   4.722   5.696   4.218  0.7585 -0.1821 -1.2692
 5458TIP3    H216381   4.756   5.798   4.112 -0.0700 -1.3413 -2.6903
 5459TIP3   OH216382   2.887   0.032   0.141 -0.6048  0.2665 -0.1926
 5459TIP3    H116383   2.806  -0.014   0.117 -0.1152  0.2994 -2.0406
 5459TIP3    H216384   2.913  -0.007   0.224 -0.7263 -2.1553 -1.2117
 5460TIP3   OH216385   4.980   3.252   4.126 -0.7090 -0.0785 -0.2023
 5460TIP3    H116386   5.056   3.195   4.114 -0.4449  0.2166  0.0504
 5460TIP3    H216387   4.979   3.309   4.048  0.1692  0.8758  0.4599
 5461TIP3   OH216388   3.868   2.953   1.297  0.5028  0.1044  0.3800
 5461TIP3    H116389   3.872   2.930   1.390  0.1821 -0.8904  0.1559
 5461TIP3    H216390   3.958   2.972   1.272  0.7201 -0.5603  0.6595
 5462TIP3   OH216391   0.968   3.276   2.552  0.0312 -0.1095  0.0045
 5462TIP3    H116392   1.025   3.243   2.621  0.0002  1.0770  0.6225
 5462TIP3    H216393   0.908   3.204   2.534 -1.2419  0.1535  2.6193
 5463TIP3   OH216394   3.011   3.662   2.672 -0.5546  0.1268 -0.1102
 5463TIP3    H116395   3.024   3.599   2.743 -1.3225  0.9978  0.8324
 5463TIP3    H216396   3.045   3.617   2.594 -0.1201 -1.0311  0.7119
 5464TIP3   OH216397   5.994   2.374   5.083 -0.5050  0.5747 -0.2670
 5464TIP3    H116398   5.976   2.315   5.156 -1.9164 -0.5321 -1.4339
 5464TIP3    H216399   5.962   2.459   5.112  0.2202  0.4826  0.8920
 5465TIP3   OH216400   0.956   2.922   1.730 -0.4663 -0.3952  0.3697
 5465TIP3    H116401   0.952   2.994   1.667  1.2769 -0.9657 -0.4237
 5465TIP3    H216402   0.889   2.861   1.700 -1.1734  0.3461  0.3854
 5466TIP3   OH216403   3.937   2.575   2.101 -0.2878  0.0542  0.2704
 5466TIP3    H116404   3.950   2.670   2.093  0.2663 -0.1493 -2.6277
 5466TIP3    H216405   3.847   2.566   2.132 -0.5111  1.5307  0.1584
 5467TIP3   OH216406   6.316   3.703   0.373 -0.1956 -0.4945  0.1054
 5467TIP3    H116407   6.362   3.737   0.297  0.0892  0.2528  0.6001
 5467TIP3    H216408   6.337   3.764   0.444 -0.0781 -1.4305  0.9023
 5468TIP3   OH216409   5.885   0.289   0.458  0.0564 -0.5802 -0.2909
 5468TIP3    H116410   5.978   0.270   0.444  0.1390 -0.6147  0.2707
 5468TIP3    H216411   5.877   0.382   0.437  0.0074 -0.8072 -1.3255
 5469TIP3   OH216412   5.906   5.356   4.175  0.1039  0.3305 -0.1648
 5469TIP3    H116413   5.960   5.374   4.252 -0.9363  0.1958  0.6268
 5469TIP3    H216414   5.834   5.302   4.208 -2.2980  3.0726 -0.4570
 5470TIP3   OH216415   5.281   5.561   0.931  0.3714 -0.1437  0.0543
 5470TIP3    H116416   5.307   5.507   1.006 -0.0284 -1.3013 -0.6152
 5470TIP3    H216417   5.204   5.607   0.961  0.2614 -0.5371  0.3937
 5471TIP3   OH216418   1.004   4.963   4.064  0.1168  0.3990 -0.2607
 5471TIP3    H116419   1.033   5.054   4.063  0.1594  0.3826 -0.9708
 5471TIP3    H216420   1.080   4.914   4.095  0.1965  0.5708 -0.1835
 5472TIP3   OH216421   5.965   4.024   5.063  0.8400 -0.2123 -0.0130
 5472TIP3    H116422   5.972   4.050   4.971  0.3427 -1.2546 -0.3632
 5472TIP3    H216423   6.004   4.097   5.111 -0.2331  1.0440 -0.9490
 5473TIP3   OH216424   2.335   5.057   4.640  0.0060 -0.1808 -0.2498
 5473TIP3    H116425   2.286   5.139   4.647 -1.2528 -0.8252 -1.0399
 5473TIP3    H216426   2.312   5.008   4.719  0.6597  0.1751  0.1620
 5474TIP3   OH216427   4.950   2.846   3.636  0.4147  0.0320  0.4181
 5474TIP3    H116428   4.899   2.875   3.560  3.3003 -1.2666 -2.2920
 5474TIP3    H216429   4.970   2.754   3.617  1.7427 -0.1651  2.4767
 5475TIP3   OH216430   0.835   2.397   0.652  0.1176  0.0614  0.0803
 5475TIP3    H116431   0.903   2.434   0.708 -0.6672  0.0583  1.0721
 5475TIP3    H216432   0.807   2.470   0.596  2.2982 -0.4121 -1.8083
 5476TIP3   OH216433   2.997   5.614   0.403 -0.1917 -0.1048  0.1890
 5476TIP3    H116434   3.010   5.694   0.352  0.5618  0.0302  0.5733
 5476TIP3    H216435   2.939   5.640   0.474 -0.7256 -0.1355 -0.2351
 5477TIP3   OH216436   1.355   2.028   0.242  0.7813 -0.0697 -0.1176
 5477TIP3    H116437   1.417   1.955   0.244  3.3527  1.9609 -0.1358
 5477TIP3    H216438   1.356   2.059   0.151  0.1308  0.3155 -0.0025
 5478TIP3   OH216439   6.147   2.722   1.870  0.2082  0.6694 -0.1193
 5478TIP3    H116440   6.085   2.733   1.798  0.5532 -0.0406 -0.5216
 5478TIP3    H216441   6.091   2.712   1.947 -0.1602  1.8904 -0.1968
 5479TIP3   OH216442   1.454   1.528   1.834  0.3765  0.0774 -0.5328
 5479TIP3    H116443   1.534   1.544   1.784  1.3758 -0.7715  0.7512
 5479TIP3    H216444   1.454   1.595   1.902  1.0547 -1.1251  0.6893
 5480TIP3   OH216445   0.206   1.684   0.773 -0.0626 -0.3633  0.2202
 5480TIP3    H116446   0.296   1.664   0.801  0.3466  1.9915  0.7626
 5480TIP3    H216447   0.202   1.652   0.683  2.4135  2.2292 -0.9606
 5481TIP3   OH216448   3.329   5.582   0.138  0.2880  0.1587  0.5238
 5481TIP3    H116449   3.289   5.614   0.057  0.2499  0.0358  0.4943
 5481TIP3    H216450   3.265   5.519   0.172  0.0194  0.6649  0.9671
 5482TIP3   OH216451   1.069   1.996   4.616 -0.1141  0.2029 -0.0706
 5482TIP3    H116452   1.130   1.941   4.568  1.1656  1.8846 -0.4919
 5482TIP3    H216453   1.123   2.069   4.648 -1.3625  0.2866  2.0310
 5483TIP3   OH216454   3.948   1.301   3.123 -0.3175 -0.0739 -0.1371
 5483TIP3    H116455   3.999   1.370   3.081 -0.8809  0.9563  0.8509
 5483TIP3    H216456   3.861   1.338   3.135  0.0871  0.1513  2.9624
 5484TIP3   OH216457   5.560   1.779   2.817  0.2684 -0.2982 -0.0142
 5484TIP3    H116458   5.505   1.775   2.739 -0.7229  0.1465  0.6324
 5484TIP3    H216459   5.572   1.688   2.843 -1.0575 -0.3648  0.4193
 5485TIP3   OH216460   1.409   1.509   0.451  0.4968 -0.4492  0.3289
 5485TIP3    H116461   1.374   1.448   0.386  2.5810 -0.0400 -1.2973
 5485TIP3    H216462   1.345   1.580   0.455  0.5730 -0.1790 -1.8204
 5486TIP3   OH216463   1.899   0.137   0.532  0.1942 -0.1029 -0.3789
 5486TIP3    H116464   1.869   0.059   0.487  1.9728 -1.1001  0.0814
 5486TIP3    H216465   1.823   0.166   0.583 -0.5644 -1.3617 -0.7617
 5487TIP3   OH216466   1.458   2.916   1.265 -0.1180  0.6191  0.3268
 5487TIP3    H116467   1.399   2.885   1.196 -0.1269 -0.8657  0.9676
 5487TIP3    H216468   1.543   2.879   1.242  0.4971  2.3502 -0.3265
 5488TIP3   OH216469   0.137   2.493   1.309 -0.0894 -0.1186 -1.0759
 5488TIP3    H116470   0.052   2.510   1.350  0.3015  1.8163 -1.0097
 5488TIP3    H216471   0.144   2.557   1.239  0.6379 -1.3294 -2.1735
 5489TIP3   OH216472   2.040   3.696   0.371 -0.2070  0.5807  0.1138
 5489TIP3    H116473   2.055   3.720   0.279 -0.4615 -1.4793 -0.5332
 5489TIP3    H216474   2.097   3.753   0.421  1.7949  0.1410 -1.5165
 5490TIP3   OH216475   0.172   5.511   0.605 -0.6135 -0.0689  0.2288
 5490TIP3    H116476   0.182   5.418   0.585 -1.2566 -0.6499  2.4460
 5490TIP3    H216477   0.079   5.530   0.588 -0.8184 -0.2003  1.1806
 5491TIP3   OH216478   3.222   2.973   1.803  0.4251 -0.5022  0.7908
 5491TIP3    H116479   3.173   3.004   1.727  1.1119  0.1606  0.5975
 5491TIP3    H216480   3.159   2.974   1.875  0.1687  0.3988  0.5640
 5492TIP3   OH216481   5.488   0.333   2.465 -0.0267  0.3774 -0.5750
 5492TIP3    H116482   5.440   0.391   2.524 -0.0814  0.1137 -0.3584
 5492TIP3    H216483   5.511   0.257   2.519  0.4572  0.4072 -0.7287
 5493TIP3   OH216484   0.483   2.241   3.180  0.0540 -0.4986  0.2288
 5493TIP3    H116485   0.442   2.316   3.223 -0.1868 -0.3437 -0.2721
 5493TIP3    H216486   0.569   2.234   3.222  0.8317  1.1821 -0.9501
 5494TIP3   OH216487   6.237   1.910   1.217  0.2116 -0.5317 -0.4393
 5494TIP3    H116488   6.312   1.889   1.273 -0.0174  1.5156  0.7275
 5494TIP3    H216489   6.161   1.885   1.269  0.0122  0.8581 -0.0289
 5495TIP3   OH216490   1.370   4.777   3.068 -0.2595  0.1929 -0.0997
 5495TIP3    H116491   1.423   4.769   3.148 -1.1803 -2.6500  0.3471
 5495TIP3    H216492   1.400   4.706   3.012 -0.7286  1.1758 -1.6516
 5496TIP3   OH216493   2.595   2.179   0.864 -0.0336 -0.2634 -0.1863
 5496TIP3    H116494   2.568   2.087   0.868  3.2670 -1.2893  2.0941
 5496TIP3    H216495   2.588   2.211   0.954  1.5814  0.8239 -0.4048
 5497TIP3   OH216496   3.305   0.347   4.474 -0.4052  0.3263 -0.1094
 5497TIP3    H116497   3.228   0.290   4.474 -1.4066  1.6373  0.2033
 5497TIP3    H216498   3.270   0.435   4.488  1.2744  0.8059  1.4356
 5498TIP3   OH216499   5.743   2.285   4.079 -0.2481 -0.0799 -0.4399
 5498TIP3    H116500   5.830   2.250   4.060  0.3889  0.0268  2.0672
 5498TIP3    H216501   5.703   2.296   3.992  1.4395 -2.0638 -1.5695
 5499TIP3   OH216502   1.185   3.664   1.035  0.0100 -0.9097  0.5165
 5499TIP3    H116503   1.258   3.704   0.989  0.0046 -0.7543  0.6403
 5499TIP3    H216504   1.108   3.688   0.984 -0.0879 -0.0250  1.0664
 5500TIP3   OH216505   2.181   3.377   2.022 -0.2132 -0.3453  0.1632
 5500TIP3    H116506   2.119   3.421   2.081 -0.3293  0.5706 -0.6033
 5500TIP3    H216507   2.232   3.320   2.078 -0.9031 -0.1398  1.0134
 5501TIP3   OH216508   1.939   0.608   4.446  0.0032 -0.3497 -0.1462
 5501TIP3    H116509   1.868   0.624   4.508 -0.3820  0.3343 -0.7508
 5501TIP3    H216510   1.921   0.667   4.373  1.9553  0.8799  0.2846
 5502TIP3   OH216511   3.927   4.454   4.273 -0.2597  0.1459 -0.4446
 5502TIP3    H116512   3.851   4.396   4.271 -0.3405  0.2688 -1.3741
 5502TIP3    H216513   4.000   4.398   4.300 -0.5714 -0.0966 -0.0955
 5503TIP3   OH216514   5.750   3.154   1.506  0.3935  0.4270  0.1571
 5503TIP3    H116515   5.685   3.106   1.557  2.4913 -0.8425  1.7689
 5503TIP3    H216516   5.776   3.093   1.436  1.4883 -0.0028  0.9112
 5504TIP3   OH216517   3.318   5.887   2.738 -0.0959  0.0684 -0.5334
 5504TIP3    H116518   3.237   5.852   2.776 -0.8330  3.5908  1.5984
 5504TIP3    H216519   3.387   5.855   2.796 -0.5501  0.7932  0.4340
 5505TIP3   OH216520   1.365   5.208   3.943  0.4213 -0.0569  0.0911
 5505TIP3    H116521   1.446   5.246   3.976 -0.5348  2.0271  0.2033
 5505TIP3    H216522   1.296   5.251   3.994 -0.7781 -1.6853 -0.0784
 5506TIP3   OH216523   2.577   2.617   3.649 -0.7229  0.3493 -0.1130
 5506TIP3    H116524   2.653   2.622   3.707 -1.0142  0.0086  0.3062
 5506TIP3    H216525   2.610   2.574   3.570 -0.8012 -1.1722  0.6408
 5507TIP3   OH216526   6.239   5.235   3.446  0.0514  0.4202  0.3799
 5507TIP3    H116527   6.314   5.191   3.407 -0.9766 -0.7275 -0.4226
 5507TIP3    H216528   6.240   5.209   3.538 -0.0365 -0.6086  0.1054
 5508TIP3   OH216529   4.294   5.863   3.974 -0.6503 -0.2214  0.3175
 5508TIP3    H116530   4.215   5.842   3.923 -2.1765 -1.0754  2.8640
 5508TIP3    H216531   4.326   5.944   3.935 -2.2930 -0.2920 -1.3328
 5509TIP3   OH216532   1.030   0.535   4.131  0.5157 -0.0144  0.7627
 5509TIP3    H116533   0.979   0.607   4.094  0.7689  0.2356  0.8917
 5509TIP3    H216534   1.028   0.551   4.226  0.9859  0.1041  0.7551
 5510TIP3   OH216535   0.195   1.197   4.698 -0.0810 -0.2749  0.2887
 5510TIP3    H116536   0.127   1.135   4.726 -0.9718 -0.6673 -2.4294
 5510TIP3    H216537   0.208   1.254   4.773 -2.4014 -1.0904  1.3981
 5511TIP3   OH216538   4.918   3.669   1.334  0.1622 -0.7659  0.4046
 5511TIP3    H116539   4.866   3.742   1.368  1.3596  1.1386 -1.6636
 5511TIP3    H216540   4.854   3.612   1.292 -0.5798  0.2050  0.1774
 5512TIP3   OH216541   3.712   5.985   2.603  0.3108  0.0415 -0.7155
 5512TIP3    H116542   3.802   5.962   2.625  0.1332 -1.1614 -1.1696
 5512TIP3    H216543   3.675   5.905   2.566 -0.7654  0.6939 -1.1032
 5513TIP3   OH216544   1.563   3.792   0.882  0.3537  0.5974  0.1515
 5513TIP3    H116545   1.490   3.824   0.829 -0.4273  0.8993  1.3901
 5513TIP3    H216546   1.527   3.717   0.930  0.2415  1.9450  2.2762
 5514TIP3   OH216547   4.307   0.245   1.478 -0.5212  0.0399 -0.2986
 5514TIP3    H116548   4.383   0.216   1.527 -0.5119  1.2167  0.4248
 5514TIP3    H216549   4.307   0.340   1.488 -2.6098 -0.0002  0.5196
 5515TIP3   OH216550   5.421   0.448   1.761 -0.3675  0.3515 -0.0526
 5515TIP3    H116551   5.504   0.457   1.808 -0.0811  0.6675 -0.6001
 5515TIP3    H216552   5.357   0.428   1.828  0.1309  0.2508  0.3989
 5516TIP3   OH216553   3.851   2.740   0.668 -0.1492  0.2269  0.3101
 5516TIP3    H116554   3.766   2.783   0.662  0.2338  1.1322  1.2189
 5516TIP3    H216555   3.898   2.772   0.591 -0.3445  0.3664  0.2454
 5517TIP3   OH216556   0.462   3.402   0.608  0.3234  0.0285 -0.6654
 5517TIP3    H116557   0.504   3.318   0.593  0.0173  0.0616 -1.8935
 5517TIP3    H216558   0.431   3.399   0.698 -1.0754 -1.8179 -1.1466
 5518TIP3   OH216559   4.203   4.504   0.869  0.8517 -0.0798 -0.1443
 5518TIP3    H116560   4.236   4.501   0.779 -1.9279 -0.6941 -1.2470
 5518TIP3    H216561   4.224   4.417   0.904 -0.9316 -1.0986 -1.4126
 5519TIP3   OH216562   2.111   5.663   3.651  0.3676 -0.0926 -0.6098
 5519TIP3    H116563   2.073   5.743   3.613 -1.4032 -0.7286 -0.2336
 5519TIP3    H216564   2.101   5.674   3.746  1.3398 -0.1867 -0.4862
 5520TIP3   OH216565   3.467   2.288   4.720 -0.2098 -0.6456 -0.0282
 5520TIP3    H116566   3.461   2.325   4.808  0.7002 -0.1879 -0.1443
 5520TIP3    H216567   3.541   2.227   4.724  1.1220  0.8158 -0.9348
 5521TIP3   OH216568   5.978   0.275   1.926  0.3035 -0.0023  0.7944
 5521TIP3    H116569   5.998   0.365   1.949  2.8865 -0.7058  1.5888
 5521TIP3    H216570   5.951   0.234   2.009 -2.0403  0.2350  0.2375
 5522TIP3   OH216571   3.400   3.052   3.635 -0.0692  0.3694  0.5358
 5522TIP3    H116572   3.373   3.000   3.560 -0.2066  1.3504 -0.1161
 5522TIP3    H216573   3.319   3.068   3.683  0.1953 -1.3147  1.6097
 5523TIP3   OH216574   3.890   0.334   0.415  0.0841  0.2724  0.8403
 5523TIP3    H116575   3.801   0.313   0.386 -0.8708 -0.0248  3.6130
 5523TIP3    H216576   3.929   0.249   0.438  0.7726  0.4768  0.4520
 5524TIP3   OH216577   0.399   3.444   0.240  0.7761  0.3334 -0.4479
 5524TIP3    H116578   0.448   3.368   0.209  1.6785  0.3617  0.8354
 5524TIP3    H216579   0.336   3.408   0.302  0.9745  0.5873 -0.0940
 5525TIP3   OH216580   6.093   2.708   3.579  0.0582 -0.2356 -0.3320
 5525TIP3    H116581   6.129   2.786   3.621 -1.9312  0.3620  0.3458
 5525TIP3    H216582   6.170   2.653   3.562  1.2106  0.6212  1.7648
 5526TIP3   OH216583   5.733   3.276   1.180  0.5664 -0.6369  0.2871
 5526TIP3    H116584   5.808   3.279   1.240  0.7980  0.2950 -0.0427
 5526TIP3    H216585   5.770   3.248   1.097  0.3583 -1.2443  0.3930
 5527TIP3   OH216586   4.910   0.376   4.070 -0.4401 -0.5418  0.2009
 5527TIP3    H116587   4.996   0.363   4.110  0.1550 -0.4837 -1.0032
 5527TIP3    H216588   4.860   0.298   4.096 -0.5428  0.1362  2.1475
 5528TIP3   OH216589   1.813   3.244   0.160  0.4080  0.6316  0.2662
 5528TIP3    H116590   1.830   3.327   0.204  2.1154  1.0481 -1.0634
 5528TIP3    H216591   1.871   3.181   0.204  1.1069  0.7495 -0.4753
 5529TIP3   OH216592   3.500   0.455   3.706  0.7066 -0.4740 -0.2707
 5529TIP3    H116593   3.506   0.416   3.618 -2.0049 -2.0700  0.1579
 5529TIP3    H216594   3.465   0.542   3.691  0.6459 -0.5836 -0.8013
 5530TIP3   OH216595   1.226   5.812   1.455  0.2744  0.1086  0.1585
 5530TIP3    H116596   1.220   5.736   1.513 -0.4080 -0.4315 -0.5927
 5530TIP3    H216597   1.312   5.804   1.415 -0.3523 -1.1371 -1.0337
 5531TIP3   OH216598   2.916   1.515   4.815  0.4792 -0.8834  0.3085
 5531TIP3    H116599   2.903   1.423   4.838  0.0673 -1.0773 -0.6731
 5531TIP3    H216600   2.877   1.563   4.888  1.1746 -1.4674  1.0925
 5532TIP3   OH216601   6.198   0.514   3.402 -0.2640  0.5674  0.6433
 5532TIP3    H116602   6.166   0.429   3.434  0.2090 -0.0102 -0.3665
 5532TIP3    H216603   6.242   0.553   3.478  1.3177 -1.0149  0.6071
 5533TIP3   OH216604   4.121   3.458   2.465  0.4389 -0.3234  0.3637
 5533TIP3    H116605   4.124   3.551   2.443 -1.3358 -0.6230 -1.3803
 5533TIP3    H216606   4.049   3.423   2.413 -0.3615 -2.2712  2.6244
 5534TIP3   OH216607   2.188   1.838   0.823 -0.3819 -0.3962 -0.0546
 5534TIP3    H116608   2.187   1.757   0.874 -0.2962  0.2095  0.9239
 5534TIP3    H216609   2.098   1.869   0.823 -0.5922 -0.9350 -1.1893
 5535TIP3   OH216610   6.242   0.430   4.973  0.9744 -0.4870  0.3177
 5535TIP3    H116611   6.152   0.398   4.965  0.8811  0.0933 -1.3960
 5535TIP3    H216612   6.235   0.512   5.022  0.4823 -0.1003 -0.3981
 5536TIP3   OH216613   5.263   6.002   4.365  0.0881  0.0482 -0.2677
 5536TIP3    H116614   5.192   5.939   4.350 -1.0490  1.5805 -1.7630
 5536TIP3    H216615   5.312   6.002   4.283 -0.0203  1.1847 -0.3468
 5537TIP3   OH216616   0.550   4.059   4.277 -0.3238  0.0482  0.6730
 5537TIP3    H116617   0.495   4.095   4.207 -0.4307  0.8793  1.1686
 5537TIP3    H216618   0.638   4.057   4.241 -0.5718 -0.7247  0.0804
 5538TIP3   OH216619   5.335   4.390   3.182 -0.2179  0.1299 -0.1817
 5538TIP3    H116620   5.316   4.484   3.189  0.0306  0.2826 -1.2782
 5538TIP3    H216621   5.417   4.386   3.132  0.2973 -0.6479  0.7101
 5539TIP3   OH216622   2.087   2.571   3.508  0.2092  0.1894  0.0241
 5539TIP3    H116623   2.171   2.528   3.526  0.1170  0.8342  2.2037
 5539TIP3    H216624   2.095   2.599   3.417  1.9776 -0.6065 -0.1143
 5540TIP3   OH216625   1.947   5.191   0.359  0.1595 -0.5735 -0.1415
 5540TIP3    H116626   1.872   5.131   0.363  0.6304 -1.1388  0.3599
 5540TIP3    H216627   1.925   5.261   0.421 -0.9538  0.4692 -1.6268
 5541TIP3   OH216628   5.378   1.189   2.430  0.2059  0.6640  0.1424
 5541TIP3    H116629   5.297   1.145   2.402  0.7300 -0.0672 -0.2706
 5541TIP3    H216630   5.381   1.174   2.525  0.2529 -0.0097  0.0443
 5542TIP3   OH216631   3.864   2.907   4.184  0.0728  0.7096  0.1479
 5542TIP3    H116632   3.844   2.820   4.152  0.4456  0.2347  1.1307
 5542TIP3    H216633   3.882   2.959   4.106 -1.7036  0.3345 -0.5473
 5543TIP3   OH216634   2.500   5.840   2.026 -0.2189  0.1604 -0.3972
 5543TIP3    H116635   2.439   5.769   2.044  0.7232 -0.7428 -0.6724
 5543TIP3    H216636   2.565   5.835   2.096 -0.3496  1.0010 -0.2024
 5544TIP3   OH216637   5.455   2.247   1.160  0.1650  1.1615  0.1681
 5544TIP3    H116638   5.395   2.231   1.232  2.8382  1.6664  2.6914
 5544TIP3    H216639   5.437   2.337   1.133 -1.1676  0.8102 -0.1937
 5545TIP3   OH216640   4.877   1.576   1.504 -0.6000  0.2972 -0.1938
 5545TIP3    H116641   4.817   1.636   1.460 -2.1274 -0.8381  0.2601
 5545TIP3    H216642   4.831   1.551   1.585  1.2297  0.7160  1.0358
 5546TIP3   OH216643   2.862   0.287   3.634 -0.0702  0.2352 -0.0490
 5546TIP3    H116644   2.934   0.344   3.661 -0.5041  0.1192  1.3921
 5546TIP3    H216645   2.905   0.207   3.603  0.4199  0.0143  1.1570
 5547TIP3   OH216646   4.189   2.201   3.889  0.1065  0.0950 -0.2069
 5547TIP3    H116647   4.206   2.108   3.874  1.0182  0.4369 -1.4156
 5547TIP3    H216648   4.098   2.213   3.864 -0.7953 -0.9227  2.2749
 5548TIP3   OH216649   3.873   2.028   0.728  1.0613 -0.1291 -0.1282
 5548TIP3    H116650   3.936   2.099   0.722 -0.9020  1.8258  1.2179
 5548TIP3    H216651   3.788   2.070   0.716 -0.3294 -1.8820  2.6299
 5549TIP3   OH216652   4.700   2.934   2.462 -0.9025  0.0185  0.2482
 5549TIP3    H116653   4.753   2.938   2.541 -1.1252  0.7276  0.3701
 5549TIP3    H216654   4.617   2.896   2.490  0.1277 -2.9037 -0.2967
 5550TIP3   OH216655   1.105   3.670   2.904  0.3230 -0.3072  0.1398
 5550TIP3    H116656   1.058   3.684   2.821 -1.2022 -0.0418  1.0126
 5550TIP3    H216657   1.190   3.636   2.877  0.4578  1.2406 -1.6210
 5551TIP3   OH216658   1.426   4.725   0.749 -0.2578 -0.2629  0.3039
 5551TIP3    H116659   1.386   4.810   0.727  1.9239  0.7717  0.0683
 5551TIP3    H216660   1.438   4.727   0.843  1.6006  0.5999  0.0918
 5552TIP3   OH216661   1.834   5.138   3.665 -0.0842  0.1617  0.6638
 5552TIP3    H116662   1.930   5.136   3.657 -0.0940 -0.3593  0.6619
 5552TIP3    H216663   1.804   5.172   3.581  0.1042  0.4596  0.7144
 5553TIP3   OH216664   0.195   1.006   3.054  0.0937  0.0811 -0.2221
 5553TIP3    H116665   0.136   1.034   3.123  0.3600  0.4109 -0.1251
 5553TIP3    H216666   0.155   1.038   2.973  0.3188  0.6086 -0.1252
 5554TIP3   OH216667   0.489   1.005   3.358 -0.5327  0.3543  0.5635
 5554TIP3    H116668   0.552   0.945   3.398 -1.5582 -0.5205  0.9334
 5554TIP3    H216669   0.526   1.026   3.272  0.2986 -0.0625  0.8130
 5555TIP3   OH216670   1.189   5.025   4.569 -0.0903 -0.7054 -0.0912
 5555TIP3    H116671   1.121   5.027   4.501 -0.7078 -1.7446  0.4635
 5555TIP3    H216672   1.151   5.074   4.642  0.5690  0.4052 -0.4805
 5556TIP3   OH216673   3.840   2.650   3.125  0.4372 -0.1896  0.1571
 5556TIP3    H116674   3.897   2.583   3.087  2.1105  0.4931  1.3534
 5556TIP3    H216675   3.753   2.609   3.126  0.5447 -0.7631 -2.9573
 5557TIP3   OH216676   2.003   3.064   2.001 -0.4212  0.0357  0.2879
 5557TIP3    H116677   1.930   3.010   1.971 -1.1063  1.3465 -0.5016
 5557TIP3    H216678   1.968   3.153   2.003  0.2814  0.3375  2.8118
 5558TIP3   OH216679   2.811   0.294   4.141 -0.0488  0.2091 -0.2586
 5558TIP3    H116680   2.825   0.200   4.129 -0.0075  0.0910  0.6463
 5558TIP3    H216681   2.721   0.302   4.173  0.9058  0.1613  2.7425
 5559TIP3   OH216682   0.153   5.801   0.450 -0.4463  0.1290  0.2102
 5559TIP3    H116683   0.084   5.816   0.516  0.6721  1.2147  1.1836
 5559TIP3    H216684   0.224   5.859   0.476  0.7800 -0.8124 -0.9017
 5560TIP3   OH216685   2.248  -0.014   4.331  0.0285 -0.4136 -0.4403
 5560TIP3    H116686   2.241   0.070   4.284 -0.6886  0.9349  1.9003
 5560TIP3    H216687   2.248   0.011   4.423 -2.2385 -3.0918  0.4243
 5561TIP3   OH216688   1.435   4.442   1.591 -0.6664  0.2456  0.0614
 5561TIP3    H116689   1.393   4.467   1.673 -3.4400 -0.3395 -1.0872
 5561TIP3    H216690   1.455   4.525   1.548 -0.9133  0.5369  0.4972
 5562TIP3   OH216691   5.153   5.631   1.437 -0.2488  0.4146 -0.1733
 5562TIP3    H116692   5.119   5.544   1.458  0.3635  0.1132 -0.4005
 5562TIP3    H216693   5.103   5.691   1.493 -0.6299 -0.0876  0.0294
 5563TIP3   OH216694   2.230   1.308   4.839 -0.4471  0.1572  0.5130
 5563TIP3    H116695   2.303   1.247   4.829  0.6268  1.1547  1.8155
 5563TIP3    H216696   2.217   1.344   4.752 -1.7515 -2.5551 -0.5115
 5564TIP3   OH216697   2.458   3.087   2.896  0.7951  0.4643  0.0372
 5564TIP3    H116698   2.423   3.006   2.932  0.4592  0.2887 -0.6616
 5564TIP3    H216699   2.546   3.063   2.865  1.4855  0.8566  1.6081
 5565TIP3   OH216700   5.922   3.759   0.140  0.5939 -0.2244  0.0100
 5565TIP3    H116701   5.946   3.848   0.166 -0.3150 -0.1351  0.5966
 5565TIP3    H216702   5.863   3.772   0.066  0.7366 -0.3590 -0.1276
 5566TIP3   OH216703   4.003   3.604   2.169  0.2374 -0.5981 -0.0050
 5566TIP3    H116704   4.077   3.644   2.123  0.0011  0.2201  0.2996
 5566TIP3    H216705   3.927   3.653   2.139  0.0361 -0.2937  0.9599
 5567TIP3   OH216706   4.949   3.370   5.093  0.8512  0.1659  0.3753
 5567TIP3    H116707   4.937   3.460   5.123  0.3760  0.7309 -1.3956
 5567TIP3    H216708   5.005   3.378   5.015 -0.4146 -0.8945 -0.6895
 5568TIP3   OH216709   4.110   5.049   0.274  0.6337 -0.1683  0.5400
 5568TIP3    H116710   4.171   5.119   0.250  0.8932 -0.7565 -0.5500
 5568TIP3    H216711   4.156   5.000   0.342  1.7629 -1.0965 -0.8359
 5569TIP3   OH216712   1.277   4.306   3.593 -0.2889 -0.3393 -0.1627
 5569TIP3    H116713   1.312   4.229   3.638  1.4729 -0.5023 -1.6851
 5569TIP3    H216714   1.293   4.379   3.653  0.7700 -0.7400  0.0581
 5570TIP3   OH216715   4.823   3.194   4.687  0.4487  0.5390  0.4854
 5570TIP3    H116716   4.734   3.223   4.707 -0.1563  0.1386 -1.3503
 5570TIP3    H216717   4.867   3.272   4.653 -0.2986  0.0508 -1.7785
 5571TIP3   OH216718   0.755   2.679   2.381  0.2796  0.4428  0.4417
 5571TIP3    H116719   0.807   2.742   2.330  1.7638  0.1073  1.4668
 5571TIP3    H216720   0.736   2.725   2.463  1.5664 -0.4894  1.2891
 5572TIP3   OH216721   5.821   3.566   3.205 -0.2325 -0.6652  0.9279
 5572TIP3    H116722   5.857   3.654   3.216 -1.0831 -0.0015 -1.1449
 5572TIP3    H216723   5.728   3.581   3.185 -0.0836 -1.9020 -0.9484
 5573TIP3   OH216724   0.352   2.031   0.533 -0.2120 -0.0544  0.2667
 5573TIP3    H116725   0.330   2.123   0.548  0.8486 -0.0948  2.4022
 5573TIP3    H216726   0.398   2.031   0.448 -1.4289  1.1386 -0.4272
 5574TIP3   OH216727   0.335   4.575   3.094  0.1693 -0.0331  0.2971
 5574TIP3    H116728   0.309   4.487   3.122  0.4380 -1.0797 -2.4374
 5574TIP3    H216729   0.420   4.589   3.135 -0.6850 -0.2443  2.2325
 5575TIP3   OH216730   5.533   2.082   2.573 -0.1374  0.0181  0.1663
 5575TIP3    H116731   5.488   2.163   2.550  0.1558  0.0943 -0.1550
 5575TIP3    H216732   5.478   2.012   2.535 -0.0128  0.1075 -0.1837
 5576TIP3   OH216733   4.279   5.960   0.142  0.1567 -0.2132 -0.0883
 5576TIP3    H116734   4.219   5.887   0.129 -0.2486 -0.0002  0.5627
 5576TIP3    H216735   4.333   5.961   0.063 -0.9832 -0.1413 -0.8910
 5577TIP3   OH216736   5.190   2.924   0.987 -0.0932  0.9679 -0.6079
 5577TIP3    H116737   5.132   2.967   0.924 -0.3936  0.2439 -0.8410
 5577TIP3    H216738   5.252   2.875   0.933  0.0766  0.8920 -0.3464
 5578TIP3   OH216739   0.606   4.974   2.754  0.0869 -0.5611  0.0426
 5578TIP3    H116740   0.591   4.973   2.660  0.0493 -1.3434  0.0454
 5578TIP3    H216741   0.679   4.913   2.768 -0.2612 -0.8726  0.5620
 5579TIP3   OH216742   4.353   0.861   3.767  0.0169 -0.4728  0.3943
 5579TIP3    H116743   4.430   0.806   3.779 -1.0308 -2.0161  0.2209
 5579TIP3    H216744   4.389   0.947   3.745  1.6848 -1.1826  0.1859
 5580TIP3   OH216745   0.646   3.604   1.043 -0.1577 -0.1351  0.0911
 5580TIP3    H116746   0.651   3.603   1.139  0.6496  0.0575  0.0555
 5580TIP3    H216747   0.552   3.609   1.024 -0.2483  1.9819  0.8803
 5581TIP3   OH216748   3.344   3.077   0.942  0.0102  0.1571 -0.0683
 5581TIP3    H116749   3.267   3.059   0.889 -0.4679  0.3176  0.5580
 5581TIP3    H216750   3.314   3.139   1.008  0.2573 -1.0053  1.1806
 5582TIP3   OH216751   3.675   2.146   4.648  0.0920  0.3307  0.4883
 5582TIP3    H116752   3.766   2.145   4.676  0.2735  1.7678  0.0374
 5582TIP3    H216753   3.678   2.180   4.558 -0.8032 -0.5740  0.0996
 5583TIP3   OH216754   3.555   3.935   2.489  0.8693 -0.3819  0.1510
 5583TIP3    H116755   3.503   3.958   2.567 -0.6098 -1.2128 -0.5513
 5583TIP3    H216756   3.509   3.979   2.417  0.2957 -2.2696 -0.6759
 5584TIP3   OH216757   0.632   5.655   2.200  0.2578  0.1760  0.0809
 5584TIP3    H116758   0.698   5.640   2.132  0.6282 -0.9023  0.6584
 5584TIP3    H216759   0.553   5.677   2.152  0.9330  1.1483 -0.6397
 5585TIP3   OH216760   3.317   5.279   3.798 -0.4301 -0.1486  0.7658
 5585TIP3    H116761   3.385   5.213   3.815  0.4529 -0.2011 -2.3433
 5585TIP3    H216762   3.357   5.361   3.824  0.3341 -0.3431  0.2610
 5586TIP3   OH216763   3.699   0.264   3.828 -0.0518  0.9787 -0.1438
 5586TIP3    H116764   3.666   0.278   3.917  2.6610 -0.8265  1.3229
 5586TIP3    H216765   3.659   0.182   3.801  0.4165  0.6398  0.1632
 5587TIP3   OH216766   2.121   1.164   4.360 -0.4192 -0.9122  0.3188
 5587TIP3    H116767   2.121   1.069   4.355 -1.0007 -0.9677  1.1265
 5587TIP3    H216768   2.210   1.190   4.336  0.0963 -1.7385  1.2884
 5588TIP3   OH216769   0.488   2.904   2.728 -0.3314 -0.3820 -0.5813
 5588TIP3    H116770   0.412   2.847   2.715 -1.3113  1.1599 -1.9906
 5588TIP3    H216771   0.453   2.993   2.722  1.4745  0.3836 -0.5128
 5589TIP3   OH216772   2.292   2.354   3.336 -0.5298 -0.2963  0.4570
 5589TIP3    H116773   2.349   2.431   3.338 -1.1077  0.1307  2.2270
 5589TIP3    H216774   2.323   2.298   3.407 -1.1126 -0.9559  0.2081
 5590TIP3   OH216775   2.323   5.220   5.138  0.4622  0.0273  0.6032
 5590TIP3    H116776   2.366   5.269   5.067  2.0752 -0.9760  0.8371
 5590TIP3    H216777   2.370   5.246   5.217 -0.9049  0.6425  1.2637
 5591TIP3   OH216778   0.599   4.314   0.117  0.0799 -0.4652  0.0662
 5591TIP3    H116779   0.581   4.336   0.209  1.5864 -1.7985  0.7104
 5591TIP3    H216780   0.641   4.393   0.082 -1.9687  0.6731  0.0112
 5592TIP3   OH216781   0.740   3.880   3.176 -0.1304  0.5359 -0.0338
 5592TIP3    H116782   0.827   3.914   3.198  0.0811  0.3106 -0.4966
 5592TIP3    H216783   0.694   3.875   3.259  0.6680 -0.3563  0.3732
 5593TIP3   OH216784   0.660   1.490   1.647  0.3938 -0.6619  0.5464
 5593TIP3    H116785   0.644   1.406   1.690 -1.6416 -0.5115  0.1709
 5593TIP3    H216786   0.603   1.552   1.692  1.7205  0.5157  0.6869
 5594TIP3   OH216787   5.134   2.301   2.416  0.3907 -0.2136  0.3685
 5594TIP3    H116788   5.077   2.347   2.354  1.9732 -0.2220 -1.1678
 5594TIP3    H216789   5.100   2.211   2.417  0.6041 -0.3297 -0.8739
 5595TIP3   OH216790   1.389   5.918   2.980  0.4689 -0.2513  0.3346
 5595TIP3    H116791   1.454   5.862   3.022  0.8798 -0.0724 -0.0568
 5595TIP3    H216792   1.315   5.919   3.042  1.1744  0.2462  1.1879
 5596TIP3   OH216793   5.687   2.686   3.956 -0.4381 -0.9351  0.5228
 5596TIP3    H116794   5.628   2.637   3.900 -1.1706 -0.7414  1.1059
 5596TIP3    H216795   5.663   2.778   3.942  0.9751 -0.6985 -0.6277
 5597TIP3   OH216796   2.564   2.344   0.443 -0.2960 -0.3869 -0.1178
 5597TIP3    H116797   2.569   2.266   0.498 -0.5069 -0.1188  0.2846
 5597TIP3    H216798   2.523   2.313   0.362  0.0672 -0.7930 -0.1482
 5598TIP3   OH216799   2.106   0.437   4.619  0.0544 -0.5085 -0.5001
 5598TIP3    H116800   2.082   0.526   4.593  2.5434  0.0920 -0.9367
 5598TIP3    H216801   2.066   0.427   4.706  0.4648  1.3785 -0.0413
 5599TIP3   OH216802   2.045   2.667   4.577  0.5889 -0.7079 -0.2131
 5599TIP3    H116803   2.117   2.699   4.522  1.8166  1.3478  2.3574
 5599TIP3    H216804   1.969   2.717   4.549  0.2142 -2.4075 -2.4966
 5600TIP3   OH216805   3.525   2.581   0.593  0.2394  0.2055  0.1402
 5600TIP3    H116806   3.443   2.583   0.644 -0.2503  1.8493 -0.6567
 5600TIP3    H216807   3.571   2.660   0.619  1.3126 -0.3929  0.1075
 5601TIP3   OH216808   1.287   3.066   1.868 -0.5836  0.2847  0.2519
 5601TIP3    H116809   1.281   2.984   1.819 -0.5654  0.0779  0.5891
 5601TIP3    H216810   1.381   3.086   1.869 -0.5693  0.2169  0.3146
 5602TIP3   OH216811   1.752   3.160   0.821 -0.3156  0.3924  0.5123
 5602TIP3    H116812   1.685   3.206   0.770 -1.3149 -2.6057 -1.1374
 5602TIP3    H216813   1.811   3.124   0.755  1.1651  0.3869  1.7969
 5603TIP3   OH216814   0.850   4.699   4.857  0.7146  0.3428  0.3691
 5603TIP3    H116815   0.900   4.779   4.839 -1.5434  1.9581  0.7880
 5603TIP3    H216816   0.906   4.628   4.826  2.4294  2.1370 -0.8988
 5604TIP3   OH216817   3.493   3.292   5.097  0.4919 -0.5136  0.8788
 5604TIP3    H116818   3.518   3.378   5.132 -1.4116 -0.0940  1.3210
 5604TIP3    H216819   3.566   3.268   5.039  1.0513  1.4132  0.7067
 5605TIP3   OH216820   1.783   1.631   4.564 -0.0825  0.3691 -0.1372
 5605TIP3    H116821   1.824   1.711   4.531 -0.5503  0.4474 -0.5420
 5605TIP3    H216822   1.787   1.639   4.659  1.0315  0.2737 -0.1551
 5606TIP3   OH216823   4.830   3.530   3.690  0.0160  0.5413 -0.1985
 5606TIP3    H116824   4.832   3.557   3.782 -0.0583  0.6249 -0.2222
 5606TIP3    H216825   4.920   3.544   3.659  0.4365 -0.8964  0.2699
 5607TIP3   OH216826   3.230   2.214   4.576  0.0881 -0.3414  0.3929
 5607TIP3    H116827   3.319   2.217   4.611 -0.1732  0.6227  1.0001
 5607TIP3    H216828   3.191   2.137   4.618  0.1872  0.0625  1.2611
 5608TIP3   OH216829   2.264   2.299   5.132 -0.1372  0.2337 -0.0079
 5608TIP3    H116830   2.209   2.224   5.153  1.2324 -1.4846 -2.1924
 5608TIP3    H216831   2.205   2.361   5.089 -1.1376  0.2142  1.2518
 5609TIP3   OH216832   4.943   5.765   2.433 -0.1673  0.0453  0.1579
 5609TIP3    H116833   4.961   5.858   2.423 -0.0263 -0.0875 -0.9443
 5609TIP3    H216834   4.851   5.760   2.458 -0.3170  0.4614 -0.3003
 5610TIP3   OH216835   5.527   0.513   3.620 -0.1146 -0.5008  0.2153
 5610TIP3    H116836   5.563   0.601   3.607 -0.3170 -0.4834 -0.2490
 5610TIP3    H216837   5.576   0.458   3.559 -0.4875 -0.5777 -0.0182
 5611TIP3   OH216838   2.527   1.059   1.613  0.1506 -0.7002  0.3328
 5611TIP3    H116839   2.603   1.074   1.557  0.6308 -0.6536  0.9725
 5611TIP3    H216840   2.463   1.124   1.585  0.0534 -1.2302 -0.7156
 5612TIP3   OH216841   3.610   2.100   1.407 -0.1439  0.5510  0.0554
 5612TIP3    H116842   3.545   2.087   1.476  0.6624  1.6762  1.0703
 5612TIP3    H216843   3.693   2.071   1.446  0.1659  0.2253 -0.8138
 5613TIP3   OH216844   3.482   1.429   4.986  0.6579  0.1831  0.1672
 5613TIP3    H116845   3.428   1.368   5.037 -0.9826  0.2208 -1.4442
 5613TIP3    H216846   3.459   1.412   4.895 -0.0462  3.3467 -0.3532
 5614TIP3   OH216847   5.236   3.515   2.545 -0.5270  0.1879 -0.2242
 5614TIP3    H116848   5.200   3.439   2.499  0.9002 -0.7326  0.1138
 5614TIP3    H216849   5.308   3.544   2.489 -0.9893  1.2451 -0.2927
 5615TIP3   OH216850   4.223   0.582   2.486  0.2474  0.0449 -0.1551
 5615TIP3    H116851   4.199   0.649   2.550  0.9785 -1.6580  1.9764
 5615TIP3    H216852   4.140   0.554   2.449 -0.5451 -1.0999  2.3242
 5616TIP3   OH216853   5.544   1.751   1.725  0.5323 -0.6618 -0.1031
 5616TIP3    H116854   5.547   1.841   1.756 -0.4900 -1.1043  1.3775
 5616TIP3    H216855   5.628   1.714   1.750  0.9224 -0.1627 -0.6421
 5617TIP3   OH216856   2.257   2.342   0.984  0.2323  0.1377 -0.4639
 5617TIP3    H116857   2.219   2.298   1.059  0.8511  0.4796  0.0580
 5617TIP3    H216858   2.351   2.329   0.993  0.2736 -0.4351 -1.5669
 5618TIP3   OH216859   4.885   5.908   3.853  0.3433  0.2062  0.5594
 5618TIP3    H116860   4.871   5.860   3.771  0.3373  0.6487  0.3014
 5618TIP3    H216861   4.932   5.846   3.909  0.0075 -0.2300  0.3589
 5619TIP3   OH216862   0.628   3.009   3.927 -0.3347 -0.1078  0.3512
 5619TIP3    H116863   0.632   3.094   3.883 -1.4595 -0.6940 -0.9390
 5619TIP3    H216864   0.540   2.976   3.908  0.0663 -1.5367  0.8733
 5620TIP3   OH216865   2.014   1.170   0.291 -0.2445 -0.0542  0.3085
 5620TIP3    H116866   1.996   1.165   0.197 -0.4249  0.0443  0.3374
 5620TIP3    H216867   2.056   1.255   0.303  0.8557 -0.5587  0.1417
 5621TIP3   OH216868   1.491   4.394   4.586 -0.1455  0.1432 -0.1021
 5621TIP3    H116869   1.558   4.451   4.549 -1.7314  1.2642 -1.4237
 5621TIP3    H216870   1.510   4.308   4.549  0.8393  0.3267 -0.0518
 5622TIP3   OH216871   5.880   3.462   0.942  0.2701  0.0732 -0.1650
 5622TIP3    H116872   5.862   3.370   0.922  0.2115  0.1108 -0.2886
 5622TIP3    H216873   5.912   3.461   1.032 -3.1840  0.2974  1.2234
 5623TIP3   OH216874   1.166   1.618   2.240  0.6458  0.1731  0.0206
 5623TIP3    H116875   1.199   1.610   2.150 -0.5692  1.5893 -0.5814
 5623TIP3    H216876   1.209   1.697   2.274  0.6935 -0.0613  0.5096
 5624TIP3   OH216877   4.811   3.718   5.005 -0.6069 -0.0351  0.1985
 5624TIP3    H116878   4.784   3.783   5.070 -0.4165  0.4429 -0.1938
 5624TIP3    H216879   4.906   3.731   4.998 -0.6787  0.1582 -0.4367
 5625TIP3   OH216880   0.890   0.817   3.521  0.1882 -0.4139  0.2234
 5625TIP3    H116881   0.852   0.896   3.482  3.8230  1.1496 -0.5842
 5625TIP3    H216882   0.935   0.848   3.600  0.0724 -2.0517  0.9715
 5626TIP3   OH216883   4.158   1.182   1.819  0.1748 -0.1479  0.1905
 5626TIP3    H116884   4.196   1.145   1.899  2.7237 -1.6241 -1.5645
 5626TIP3    H216885   4.231   1.229   1.778 -1.0786  0.5940 -1.3010
 5627TIP3   OH216886   5.928   1.120   4.432  0.3122  0.0203  0.0387
 5627TIP3    H116887   6.017   1.139   4.462  0.0430  0.7380  0.4089
 5627TIP3    H216888   5.935   1.119   4.336  0.3968  1.8226 -0.0088
 5628TIP3   OH216889   0.850   3.619   1.561  0.1383 -0.2527 -0.3309
 5628TIP3    H116890   0.792   3.670   1.618 -0.1383 -0.0683 -0.7689
 5628TIP3    H216891   0.935   3.663   1.568  0.2496 -0.5674  0.3705
 5629TIP3   OH216892   5.929   4.203   1.012 -0.5232  0.7104 -0.0647
 5629TIP3    H116893   5.909   4.284   1.059 -1.7978  0.6390 -0.4358
 5629TIP3    H216894   6.024   4.195   1.016 -0.4175  2.0123  0.3298
 5630TIP3   OH216895   3.244   1.662   4.139  0.2054  0.5016 -0.2059
 5630TIP3    H116896   3.255   1.610   4.219 -0.1388  0.8074  0.0391
 5630TIP3    H216897   3.174   1.617   4.092  0.8113 -0.0308 -0.6289
 5631TIP3   OH216898   6.202   2.023   3.635  0.0392 -0.6741 -1.3422
 5631TIP3    H116899   6.232   1.976   3.713  0.1761  1.0024 -0.3448
 5631TIP3    H216900   6.132   2.080   3.666  0.1107  0.0515 -2.4335
 5632TIP3   OH216901   2.111   3.253   1.033 -0.5690 -0.2339  0.7331
 5632TIP3    H116902   2.121   3.328   0.974  0.7098 -0.5835  0.4578
 5632TIP3    H216903   2.017   3.243   1.045 -0.7496  2.7618  2.5400
 5633TIP3   OH216904   5.665   2.111   0.312  1.0932 -0.2072  0.7829
 5633TIP3    H116905   5.629   2.083   0.228  0.3225 -1.2029  1.4186
 5633TIP3    H216906   5.746   2.062   0.322  0.2659 -1.4983  1.4239
 5634TIP3   OH216907   4.791   4.488   0.531 -0.2189 -0.3148 -0.7140
 5634TIP3    H116908   4.856   4.517   0.594 -1.3750  0.5926  0.1065
 5634TIP3    H216909   4.823   4.403   0.501  0.9079 -0.2711  0.2884
 5635TIP3   OH216910   0.267   2.617   1.520 -0.3277 -0.4317  0.3312
 5635TIP3    H116911   0.223   2.616   1.605  1.3779  1.0454  1.3196
 5635TIP3    H216912   0.198   2.602   1.456 -1.8545 -0.4365  1.9239
 5636TIP3   OH216913   2.680   2.061   3.389  0.3786  0.4931 -0.4668
 5636TIP3    H116914   2.686   2.039   3.296 -1.0644 -0.0178 -0.4628
 5636TIP3    H216915   2.587   2.074   3.405  0.4590 -0.5578  1.1419
 5637TIP3   OH216916   2.591   2.498   0.668 -0.0633 -0.1481 -0.5044
 5637TIP3    H116917   2.630   2.572   0.622  1.2973 -0.1483  0.5964
 5637TIP3    H216918   2.580   2.431   0.601 -2.9359  1.5507 -1.9295
 5638TIP3   OH216919   1.088   5.914   0.659  0.3293  0.0319 -0.0294
 5638TIP3    H116920   1.056   5.844   0.716 -0.0288  0.3670  0.1907
 5638TIP3    H216921   1.126   5.978   0.720 -0.7963  0.7790 -0.0885
 5639TIP3   OH216922   6.048   5.459   3.662 -0.3045 -0.1349 -0.3012
 5639TIP3    H116923   6.142   5.444   3.677 -0.1580  0.3680 -0.6951
 5639TIP3    H216924   6.009   5.448   3.749  0.0256 -1.0053 -0.2550
 5640TIP3   OH216925   5.803   5.478   1.395  0.0676  0.1036 -0.0321
 5640TIP3    H116926   5.753   5.519   1.465  0.9609  0.6607  0.2923
 5640TIP3    H216927   5.799   5.385   1.415 -0.2520  0.1974  0.3737
 5641TIP3   OH216928   4.396   2.744   3.857  0.2324  0.4676  0.3445
 5641TIP3    H116929   4.306   2.740   3.824 -0.2643  0.6613  1.6041
 5641TIP3    H216930   4.407   2.835   3.884 -0.1870 -0.0963  2.7135
 5642TIP3   OH216931   4.903   5.480   4.476 -0.4058 -0.1691 -0.1425
 5642TIP3    H116932   4.995   5.508   4.474 -0.2139 -0.7879 -2.3453
 5642TIP3    H216933   4.903   5.403   4.534  0.3329  0.2237  0.3937
 5643TIP3   OH216934   2.582   0.591   1.633  0.0272 -0.7318  0.1404
 5643TIP3    H116935   2.516   0.537   1.590 -0.5858 -0.0079  0.1475
 5643TIP3    H216936   2.626   0.531   1.693 -1.9068 -0.8591  1.5419
 5644TIP3   OH216937   5.269   3.293   1.265 -0.3306  0.0285  0.0893
 5644TIP3    H116938   5.182   3.330   1.247 -0.4136 -0.0795  0.2632
 5644TIP3    H216939   5.321   3.369   1.293  0.1132  0.3944 -1.6498
 5645TIP3   OH216940   1.660   5.127   1.692  0.6077  0.0633 -0.0093
 5645TIP3    H116941   1.747   5.165   1.696  0.7354 -0.2149 -0.1097
 5645TIP3    H216942   1.636   5.131   1.599  0.3149  0.5793  0.0861
 5646TIP3   OH216943   5.404   1.831   0.676 -0.1092  0.0353 -0.3358
 5646TIP3    H116944   5.484   1.851   0.725  0.4490 -0.1064 -1.1733
 5646TIP3    H216945   5.409   1.886   0.598 -0.9428  0.1816 -0.2958
 5647TIP3   OH216946   3.447   3.028   4.050  0.1940  0.1703 -0.5243
 5647TIP3    H116947   3.377   3.065   4.105 -1.0311  0.1108 -1.9575
 5647TIP3    H216948   3.486   3.104   4.007  0.7917  0.1712  0.0083
 5648TIP3   OH216949   2.058   4.383   4.549 -0.5384 -0.1185 -0.3059
 5648TIP3    H116950   1.966   4.376   4.525 -0.3593  1.4152 -1.6091
 5648TIP3    H216951   2.099   4.425   4.473  1.0841 -0.0028  0.5908
 5649TIP3   OH216952   2.886   1.409   3.888 -0.1381  0.5026 -0.4344
 5649TIP3    H116953   2.830   1.455   3.825 -1.5686 -0.1693  0.3146
 5649TIP3    H216954   2.860   1.318   3.882  2.3113 -0.2110 -1.5174
 5650TIP3   OH216955   1.178   2.533   2.061  0.0648  0.5333  0.1849
 5650TIP3    H116956   1.170   2.600   1.994 -0.4760 -1.3659 -1.7622
 5650TIP3    H216957   1.141   2.574   2.140 -1.2719  2.1468 -1.1927
 5651TIP3   OH216958   2.729   1.888   3.630  0.0633 -0.0150 -0.0269
 5651TIP3    H116959   2.717   1.796   3.605  1.6697 -0.2135 -0.1647
 5651TIP3    H216960   2.710   1.937   3.550  0.9265 -0.3583 -0.4505
 5652TIP3   OH216961   0.744   4.492   2.249  0.6995 -0.1043  0.1117
 5652TIP3    H116962   0.691   4.567   2.274 -0.1844 -1.0326  1.0985
 5652TIP3    H216963   0.787   4.519   2.168 -0.3994  1.0807 -0.1020
 5653TIP3   OH216964   1.521   0.573   3.759  0.1460  0.2977  0.0652
 5653TIP3    H116965   1.528   0.543   3.668  0.1819 -0.8357  0.4186
 5653TIP3    H216966   1.549   0.497   3.811  0.1346  0.9349  1.0176
 5654TIP3   OH216967   6.147   4.698   3.445 -0.2756 -0.0860  0.2383
 5654TIP3    H116968   6.108   4.722   3.361 -0.8265 -0.7356  0.3059
 5654TIP3    H216969   6.176   4.782   3.482 -0.0003  0.2039 -0.5993
 5655TIP3   OH216970   2.030   1.244   2.457 -0.0075  0.0061 -0.0840
 5655TIP3    H116971   2.122   1.255   2.478  0.2074 -1.4403 -0.1259
 5655TIP3    H216972   2.015   1.300   2.381 -0.0721  2.9829  1.9641
 5656TIP3   OH216973   3.257   1.312   0.819 -0.7802 -0.3262 -0.2799
 5656TIP3    H116974   3.284   1.328   0.728  0.7980  0.1912  0.2630
 5656TIP3    H216975   3.162   1.324   0.817 -0.5966  1.3547 -1.5323
 5657TIP3   OH216976   0.962   3.661   2.205  0.3587 -0.3539  0.1555
 5657TIP3    H116977   1.012   3.620   2.275  2.0055  0.6429 -0.3854
 5657TIP3    H216978   0.895   3.713   2.250  1.9628  1.0133  1.0539
 5658TIP3   OH216979   1.175   4.827   2.127  0.0547 -0.6819  0.4837
 5658TIP3    H116980   1.258   4.862   2.159  0.0004 -2.2129  2.4770
 5658TIP3    H216981   1.195   4.793   2.040  0.2299  3.5256 -1.3833
 5659TIP3   OH216982   3.317   0.340   0.514  0.1806 -0.3432 -0.5259
 5659TIP3    H116983   3.247   0.276   0.505 -1.7142  1.1990  1.8931
 5659TIP3    H216984   3.294   0.410   0.453 -1.3769  0.8760  1.3503
 5660TIP3   OH216985   5.756   4.106   4.141 -0.3302  0.1494  0.1567
 5660TIP3    H116986   5.685   4.054   4.179 -0.5899  0.3224 -0.0839
 5660TIP3    H216987   5.737   4.196   4.168 -1.2479  0.4780 -1.4261
 5661TIP3   OH216988   6.075   5.858   3.344  0.2012  0.3743  0.0180
 5661TIP3    H116989   6.136   5.916   3.298 -0.2410  1.1741  0.4116
 5661TIP3    H216990   6.123   5.776   3.354  1.5976  1.2796  1.1699
 5662TIP3   OH216991   0.475   4.199   1.355  0.1359  0.4852 -0.3264
 5662TIP3    H116992   0.433   4.172   1.437 -1.2281 -0.9736 -1.4277
 5662TIP3    H216993   0.481   4.294   1.362  0.7307  0.3603  1.7482
 5663TIP3   OH216994   5.924   1.620   1.284  0.3916  0.3319  0.1864
 5663TIP3    H116995   5.833   1.607   1.311 -0.0855 -1.4404 -1.9852
 5663TIP3    H216996   5.975   1.605   1.363 -1.0995 -0.8328  0.9719
 5664TIP3   OH216997   5.845   3.044   1.915 -0.1777 -0.4638  0.6960
 5664TIP3    H116998   5.810   3.131   1.893 -0.2518 -0.8819 -1.0248
 5664TIP3    H216999   5.915   3.062   1.977  0.5500  0.9788 -0.4521
 5665TIP3   OH217000   0.647   0.349   2.424 -0.1838 -0.0507  0.5799
 5665TIP3    H117001   0.589   0.425   2.431 -2.1677 -1.5792  1.8018
 5665TIP3    H217002   0.599   0.287   2.368  1.9881  0.0153 -1.5457
 5666TIP3   OH217003   5.257   0.838   4.419  0.2821 -0.2024  0.0608
 5666TIP3    H117004   5.253   0.852   4.514  0.2072 -0.2182  0.0599
 5666TIP3    H217005   5.187   0.774   4.402  1.0371 -1.0826  0.1633
 5667TIP3   OH217006   5.843   1.066   1.845 -0.0731  0.4481  0.1906
 5667TIP3    H117007   5.793   1.071   1.763 -0.1466 -1.3709  0.0622
 5667TIP3    H217008   5.922   1.017   1.821  1.2142  2.2235  0.6650
 5668TIP3   OH217009   4.084   1.133   0.021  0.3157  0.5884 -0.5656
 5668TIP3    H117010   4.070   1.225   0.045 -2.0432 -0.0665  0.9933
 5668TIP3    H217011   4.107   1.091   0.104 -3.1682 -0.9092 -0.1685
 5669TIP3   OH217012   4.856   2.741   4.945  0.5414  1.0593  0.2135
 5669TIP3    H117013   4.838   2.723   5.037 -0.2064  0.1731 -0.0831
 5669TIP3    H217014   4.918   2.673   4.919 -0.3107  0.4372 -0.2667
 5670TIP3   OH217015   1.577   1.051   3.692  0.0912 -0.5325  0.4429
 5670TIP3    H117016   1.510   1.109   3.729  1.2672  2.6998 -2.0111
 5670TIP3    H217017   1.658   1.078   3.735  0.3679 -2.1512  1.0160
 5671TIP3   OH217018   2.871   0.118   2.953 -0.1170  0.1267  0.2328
 5671TIP3    H117019   2.882   0.094   3.045  0.5750 -0.7340 -0.0618
 5671TIP3    H217020   2.789   0.077   2.926 -0.3440  0.4198  0.4782
 5672TIP3   OH217021   0.665   2.472   4.691 -0.8868  0.1431  0.1433
 5672TIP3    H117022   0.582   2.520   4.686 -1.1842  0.1958  3.3811
 5672TIP3    H217023   0.646   2.399   4.750  0.7685 -1.3187 -1.0587
 5673TIP3   OH217024   5.153   1.162   4.189 -0.4276 -0.4056 -0.3775
 5673TIP3    H117025   5.206   1.234   4.156 -1.8458  0.4605 -0.8429
 5673TIP3    H217026   5.171   1.090   4.128  1.1461 -0.5570  0.2091
 5674TIP3   OH217027   5.748   5.643   2.592  0.1810  0.0068 -0.5169
 5674TIP3    H117028   5.681   5.672   2.653  0.4698  0.5544 -0.4564
 5674TIP3    H217029   5.715   5.668   2.505  0.4343  0.5387 -0.4641
 5675TIP3   OH217030   3.855   3.358   4.630  0.3691 -0.0727 -0.3549
 5675TIP3    H117031   3.917   3.428   4.652  1.5279 -0.9632 -0.7147
 5675TIP3    H217032   3.884   3.326   4.545  0.8523 -2.0515  0.5024
 5676TIP3   OH217033   0.745   5.078   4.908 -0.1000 -0.3987 -0.4519
 5676TIP3    H117034   0.752   5.140   4.835  0.3577  0.6448  0.4648
 5676TIP3    H217035   0.653   5.052   4.907 -0.2352  0.0626 -1.0405
 5677TIP3   OH217036   0.119   5.237   2.236  0.4338  0.0277  0.6317
 5677TIP3    H117037   0.125   5.303   2.167  1.2383  0.0581  0.7181
 5677TIP3    H217038   0.163   5.277   2.312  2.7477 -1.3167  0.1056
 5678TIP3   OH217039   2.119   2.495   1.827 -0.7435  0.3411  0.2734
 5678TIP3    H117040   2.071   2.438   1.768  1.9494 -1.7432 -0.0479
 5678TIP3    H217041   2.065   2.497   1.907 -3.0054  0.9263 -1.1760
 5679TIP3   OH217042   3.440   0.468   0.735 -0.2913 -0.3021  0.2765
 5679TIP3    H117043   3.394   0.418   0.668  0.4473 -0.9514  0.2367
 5679TIP3    H217044   3.461   0.405   0.803 -0.9352  0.3304  1.0877
 5680TIP3   OH217045   0.367   4.120   3.068  0.1616  0.9027 -0.0395
 5680TIP3    H117046   0.324   4.122   2.982 -0.7193 -2.8597  0.1515
 5680TIP3    H217047   0.308   4.167   3.126 -0.5033  1.2540 -0.9709
 5681TIP3   OH217048   2.869   2.477   1.975 -0.1014  0.1796  0.0380
 5681TIP3    H117049   2.831   2.516   1.897 -1.5289  1.0262  1.1112
 5681TIP3    H217050   2.956   2.517   1.982  1.1357 -1.8024 -2.4597
 5682TIP3   OH217051   5.604   3.983   4.562  0.2188  0.2513  0.0047
 5682TIP3    H117052   5.638   3.920   4.626  0.5337  0.6774  0.2602
 5682TIP3    H217053   5.681   4.030   4.531  0.2831 -0.9727 -1.8279
 5683TIP3   OH217054   1.269   3.373   0.937  0.0291 -0.0067 -0.6417
 5683TIP3    H117055   1.232   3.431   1.004  0.0343  0.5393 -1.1072
 5683TIP3    H217056   1.224   3.397   0.856  0.4162 -0.2834 -0.9426
 5684TIP3   OH217057   2.641   5.262   0.941  0.5081  0.1690  0.1560
 5684TIP3    H117058   2.561   5.218   0.969  1.0804 -0.9867  0.0160
 5684TIP3    H217059   2.705   5.242   1.010  0.5075  1.6886  0.6463
 5685TIP3   OH217060   3.717   2.416   2.715  0.0947 -0.0128  0.4080
 5685TIP3    H117061   3.711   2.325   2.686 -0.1355  0.3000 -0.5598
 5685TIP3    H217062   3.811   2.437   2.709 -0.0739  0.4166 -1.3603
 5686TIP3   OH217063   3.646   1.142   1.389 -0.2093 -0.3409 -0.1376
 5686TIP3    H117064   3.726   1.187   1.417 -0.0293 -0.5888 -0.2367
 5686TIP3    H217065   3.612   1.195   1.317 -0.2784 -0.0911  0.0790
 5687TIP3   OH217066   3.583   1.168   2.831  0.0211 -0.1528  0.3622
 5687TIP3    H117067   3.562   1.182   2.923 -1.1979  0.1288  0.0597
 5687TIP3    H217068   3.498   1.155   2.789  0.6196 -1.3011 -0.5646
 5688TIP3   OH217069   1.155   3.022   2.504 -0.2675 -0.2171 -0.3563
 5688TIP3    H117070   1.113   2.993   2.585  0.4591 -0.9866 -0.2276
 5688TIP3    H217071   1.229   2.961   2.493  0.4295  0.6911 -0.8919
 5689TIP3   OH217072   1.491   2.871   4.057 -0.0716  0.1314  0.4026
 5689TIP3    H117073   1.413   2.921   4.033 -1.0304 -1.5449 -0.1077
 5689TIP3    H217074   1.531   2.847   3.974 -0.0771 -0.6193  0.6046
 5690TIP3   OH217075   4.086   1.124   0.613 -0.8736 -0.0706 -0.0473
 5690TIP3    H117076   4.035   1.144   0.534  1.3570  0.8010 -1.3700
 5690TIP3    H217077   4.159   1.071   0.581 -0.9321 -1.3089  1.7763
 5691TIP3   OH217078   1.579   0.718   2.246  0.2727  0.1639 -0.3208
 5691TIP3    H117079   1.584   0.635   2.198  1.7511 -0.0167  0.1073
 5691TIP3    H217080   1.669   0.735   2.274 -0.8187 -1.4288  5.2867
 5692TIP3   OH217081   5.146   4.787   2.586  0.2611 -0.2337  0.3556
 5692TIP3    H117082   5.095   4.852   2.635 -0.0569  1.6416 -2.2552
 5692TIP3    H217083   5.236   4.800   2.616 -0.0252  0.2611  1.0369
 5693TIP3   OH217084   0.250   4.920   3.269 -0.6721  0.0671 -0.0700
 5693TIP3    H117085   0.299   4.895   3.192 -0.0018  0.3445  0.2542
 5693TIP3    H217086   0.164   4.880   3.258  0.4436 -2.7169  0.6222
 5694TIP3   OH217087   2.687   1.341   0.663 -0.3247 -0.1782  0.0550
 5694TIP3    H117088   2.731   1.257   0.656  0.5842  0.2915  0.0134
 5694TIP3    H217089   2.636   1.348   0.582 -0.9670 -0.9857  0.3723
 5695TIP3   OH217090   1.315   0.675   3.558 -0.1834 -0.4459  0.0039
 5695TIP3    H117091   1.343   0.584   3.550  0.2579 -0.3472  0.3713
 5695TIP3    H217092   1.345   0.701   3.645  1.2640  0.5874 -0.7750
 5696TIP3   OH217093   0.074   1.963   1.908 -0.2747  0.3811 -0.1325
 5696TIP3    H117094   0.039   1.911   1.836  0.4997 -0.1709 -0.1114
 5696TIP3    H217095   0.068   2.054   1.877  1.6478  0.0558 -1.6279
 5697TIP3   OH217096   3.887   2.306   4.479  0.1901  0.0761  0.8549
 5697TIP3    H117097   3.881   2.399   4.455 -0.6953 -0.0640  0.4696
 5697TIP3    H217098   3.970   2.298   4.526  0.1489  1.1203  1.1318
 5698TIP3   OH217099   1.857   2.396   4.928  0.3976  0.2209  0.7912
 5698TIP3    H117100   1.766   2.395   4.961  0.5758 -0.5660  1.2924
 5698TIP3    H217101   1.849   2.424   4.837 -0.6311 -2.1525  0.0627
 5699TIP3   OH217102   2.168   1.992   3.339  0.3285  0.1064  0.4856
 5699TIP3    H117103   2.106   2.031   3.400 -0.1313  1.1805 -0.6086
 5699TIP3    H217104   2.122   1.992   3.255  1.0075 -1.1555  0.0972
 5700TIP3   OH217105   3.637   4.180   0.910 -0.2899  0.2558 -0.1520
 5700TIP3    H117106   3.702   4.118   0.942 -0.3855  1.0904  1.8929
 5700TIP3    H217107   3.565   4.126   0.879 -0.1218 -0.6755  0.9995
 5701TIP3   OH217108   4.880   0.114   1.790  0.0315 -0.0860 -0.1625
 5701TIP3    H117109   4.820   0.040   1.793 -1.5814  0.9442 -2.8454
 5701TIP3    H217110   4.841   0.179   1.849  0.1098 -0.4698  0.3149
 5702TIP3   OH217111   3.919   1.018   3.915  0.4691  0.6798  0.5837
 5702TIP3    H117112   3.836   0.973   3.901  0.1968  1.5215 -0.6025
 5702TIP3    H217113   3.985   0.948   3.914  0.0135  0.2422 -0.8410
 5703TIP3   OH217114   2.395   2.938   2.281  0.1845  0.1313  0.5718
 5703TIP3    H117115   2.316   2.951   2.332 -0.4229  0.0767 -0.3235
 5703TIP3    H217116   2.391   2.846   2.254  0.4306  0.1905  0.3275
 5704TIP3   OH217117   3.083   4.613   1.961 -0.6731 -0.0065  0.1919
 5704TIP3    H117118   3.176   4.621   1.941 -0.7883 -1.1702 -0.8973
 5704TIP3    H217119   3.068   4.679   2.029  0.9396  0.1858  0.4073
 5705TIP3   OH217120   4.223   1.959   1.940 -0.3189  0.2463 -0.4289
 5705TIP3    H117121   4.155   1.983   2.003 -0.5722  1.9509 -1.2946
 5705TIP3    H217122   4.305   1.968   1.988 -0.6146 -0.7689  0.3053
 5706TIP3   OH217123   4.809   0.260   4.422 -0.6903  0.4773 -0.7226
 5706TIP3    H117124   4.729   0.207   4.415 -0.3495 -0.1536  0.0452
 5706TIP3    H217125   4.841   0.267   4.332  0.3201 -2.2982 -0.6870
 5707TIP3   OH217126   5.794   3.508   4.434  0.3023 -0.4603 -0.0362
 5707TIP3    H117127   5.730   3.533   4.368 -0.2363 -0.2387  0.5666
 5707TIP3    H217128   5.772   3.418   4.456 -0.0835 -0.2398  0.4927
 5708TIP3   OH217129   5.034   1.312   0.202  0.0966  0.1589  0.3113
 5708TIP3    H117130   5.116   1.362   0.212  0.1371 -0.0416  1.0164
 5708TIP3    H217131   4.971   1.376   0.169  0.6435  0.2139 -0.6579
 5709TIP3   OH217132   4.646   3.261   2.953 -0.6224  0.1432 -0.1894
 5709TIP3    H117133   4.692   3.206   2.890 -1.9553 -0.5307 -0.6262
 5709TIP3    H217134   4.602   3.199   3.011 -0.9203  0.7587  0.2534
 5710TIP3   OH217135   2.486   0.348   2.512  0.5657 -0.5037 -0.5445
 5710TIP3    H117136   2.449   0.420   2.563  0.4788 -0.7727 -0.2211
 5710TIP3    H217137   2.578   0.343   2.540  0.0736 -1.8528  1.0085
 5711TIP3   OH217138   3.990   5.150   2.209 -0.0946 -0.0652 -0.0717
 5711TIP3    H117139   3.941   5.102   2.276 -1.2785 -3.1898 -2.8701
 5711TIP3    H217140   4.082   5.140   2.234 -0.3671 -3.0306  0.1261
 5712TIP3   OH217141   1.075   2.219   3.861  0.2545  0.3042  0.1663
 5712TIP3    H117142   1.031   2.174   3.789 -2.0878 -0.2262  1.8025
 5712TIP3    H217143   1.097   2.149   3.923  1.8542  0.7963  0.2104
 5713TIP3   OH217144   1.380   1.682   3.415 -0.5436 -0.6331  0.0982
 5713TIP3    H117145   1.308   1.722   3.463  1.6338  2.4475  1.1353
 5713TIP3    H217146   1.378   1.724   3.329 -0.6904 -1.4525 -0.3076
 5714TIP3   OH217147   5.809   2.595   4.618  0.0513  0.7074  0.4680
 5714TIP3    H117148   5.753   2.524   4.587 -1.5362  0.9563  2.5486
 5714TIP3    H217149   5.852   2.559   4.695  2.4677  0.6998 -0.7916
 5715TIP3   OH217150   2.477   4.657   2.305 -0.7177 -0.2417  0.2942
 5715TIP3    H117151   2.513   4.738   2.268 -2.2898  0.1536 -0.4740
 5715TIP3    H217152   2.475   4.596   2.231 -0.4199 -0.6735  0.6421
 5716TIP3   OH217153   4.584   3.780   3.868  0.5470  0.0418 -0.0322
 5716TIP3    H117154   4.554   3.725   3.940 -0.6516  0.9150  0.1652
 5716TIP3    H217155   4.511   3.780   3.806  0.9425  0.5569 -0.5075
 5717TIP3   OH217156   4.207   1.111   0.258  0.1986  0.2634  0.0766
 5717TIP3    H117157   4.181   1.197   0.291 -0.1616  0.2812 -0.2551
 5717TIP3    H217158   4.303   1.112   0.262  0.1652 -0.3199  2.6489
 5718TIP3   OH217159   0.965   0.745   3.779 -0.1062 -0.3175  0.0003
 5718TIP3    H117160   0.896   0.713   3.721 -0.4063  0.5873 -0.1623
 5718TIP3    H217161   0.931   0.728   3.867 -0.0621 -0.8408 -0.0788
 5719TIP3   OH217162   3.999   1.041   2.150 -0.1423  0.3288 -0.4547
 5719TIP3    H117163   4.058   0.990   2.205 -0.0927 -0.7709 -1.4826
 5719TIP3    H217164   3.912   1.002   2.165 -0.2332  0.4501 -0.6560
 5720TIP3   OH217165   0.037   4.362   0.186  0.2164 -0.2382  0.5151
 5720TIP3    H117166   0.123   4.327   0.162 -0.2435 -0.1384 -1.4952
 5720TIP3    H217167  -0.026   4.305   0.141 -0.6698  0.9612  0.1661
 5721TIP3   OH217168   0.692   2.121   3.750 -0.1339  0.8382 -0.0581
 5721TIP3    H117169   0.602   2.094   3.769 -0.2328  1.6030  0.5971
 5721TIP3    H217170   0.730   2.139   3.835  0.7784  0.1075 -0.3090
 5722TIP3   OH217171   6.219   5.430   0.273 -0.4923 -0.4515  0.6998
 5722TIP3    H117172   6.268   5.512   0.270  0.6558 -1.0306  2.2579
 5722TIP3    H217173   6.249   5.381   0.196  0.7553 -0.4333  1.1514
 5723TIP3   OH217174   1.783   4.757   2.881  0.0115  0.5177 -0.1039
 5723TIP3    H117175   1.737   4.675   2.864 -2.9344  2.1964 -0.9208
 5723TIP3    H217176   1.860   4.753   2.825  1.6073 -2.8391  2.0110
 5724TIP3   OH217177   5.544   2.522   3.093 -0.1582 -0.5339  0.4930
 5724TIP3    H117178   5.592   2.544   3.173  0.8347 -0.0902 -0.2098
 5724TIP3    H217179   5.452   2.525   3.119  0.1702 -1.2058  1.8193
 5725TIP3   OH217180   0.610   2.021   4.211 -0.3421  0.1201  0.1346
 5725TIP3    H117181   0.593   2.014   4.305  0.2644  0.6887  0.2916
 5725TIP3    H217182   0.602   2.114   4.192 -1.2058 -0.0742 -0.5362
 5726TIP3   OH217183   3.780   4.096   0.119  0.3334  0.1080 -0.0359
 5726TIP3    H117184   3.814   4.122   0.205 -1.5002  1.2106  0.4165
 5726TIP3    H217185   3.687   4.118   0.123  0.2553  0.4390 -2.4020
 5727TIP3   OH217186   3.344   4.523   0.323  0.4038 -0.5675 -0.1655
 5727TIP3    H117187   3.258   4.485   0.306  0.1817 -0.8085  1.3329
 5727TIP3    H217188   3.387   4.461   0.381  0.4321  0.8993  1.4872
 5728TIP3   OH217189   6.176   2.915   0.990  0.5827 -0.0640 -0.4883
 5728TIP3    H117190   6.246   2.973   1.019 -0.9437  2.0635 -0.8023
 5728TIP3    H217191   6.206   2.880   0.906  1.2272  0.9151 -0.6811
 5729TIP3   OH217192   4.996   3.714   2.465  0.5326  0.2070 -0.1423
 5729TIP3    H117193   5.081   3.733   2.505 -0.8565  0.8776  2.7204
 5729TIP3    H217194   4.941   3.789   2.487 -0.6924  0.1122 -2.5219
 5730TIP3   OH217195   0.556   2.288   0.090 -0.5269 -0.3029 -0.7844
 5730TIP3    H117196   0.479   2.287   0.147 -1.0778  2.1188 -1.3561
 5730TIP3    H217197   0.530   2.344   0.016  1.2994 -0.6223 -1.7247
 5731TIP3   OH217198   4.412   0.695   4.066 -0.0106 -0.8542  0.2277
 5731TIP3    H117199   4.377   0.618   4.111 -0.9449 -1.9364 -2.2303
 5731TIP3    H217200   4.336   0.750   4.050  0.3645 -0.3416  0.1857
 5732TIP3   OH217201   1.669   0.069   0.193 -0.0322  0.2527  0.3599
 5732TIP3    H117202   1.654  -0.003   0.131 -0.4806  0.1706  0.5575
 5732TIP3    H217203   1.694   0.025   0.274  3.0104  0.4148 -0.3662
 5733TIP3   OH217204   2.074   1.398   3.624  0.0764  0.1464  0.3477
 5733TIP3    H117205   2.072   1.363   3.713  2.6296 -1.1191  0.0028
 5733TIP3    H217206   2.149   1.458   3.623  0.0903  0.1300 -0.9377
 5734TIP3   OH217207   4.502   5.964   4.194  0.0258 -0.1302 -0.2504
 5734TIP3    H117208   4.543   5.878   4.184  0.7391  0.3713 -2.1337
 5734TIP3    H217209   4.500   5.999   4.105 -3.4249  0.4084 -0.0897
 5735TIP3   OH217210   1.189   2.172   0.749 -0.5619 -0.0752  0.0390
 5735TIP3    H117211   1.228   2.257   0.730 -1.3365  0.4898  0.9232
 5735TIP3    H217212   1.180   2.130   0.663 -0.9317  1.0651 -0.4955
 5736TIP3   OH217213   4.157   2.834   1.533  0.1546 -0.4882 -0.3640
 5736TIP3    H117214   4.139   2.759   1.477 -4.0191 -0.9209  1.2261
 5736TIP3    H217215   4.074   2.882   1.538  2.4365  4.1815 -0.9966
 5737TIP3   OH217216   0.811   1.913   2.920  0.4862  0.0671  0.3309
 5737TIP3    H117217   0.730   1.865   2.901  0.1792 -0.1621  2.0504
 5737TIP3    H217218   0.784   2.004   2.924  0.6582  0.1796 -0.7928
 5738TIP3   OH217219   4.550   4.347   1.981  0.4223  0.5538 -0.1162
 5738TIP3    H117220   4.504   4.278   2.029 -0.3409  0.5888 -0.7883
 5738TIP3    H217221   4.493   4.368   1.907  0.3734  2.2834  0.3593
 5739TIP3   OH217222   1.080   5.684   1.877  0.3694 -0.4923  0.8405
 5739TIP3    H117223   1.132   5.605   1.894 -0.7141 -1.1873  1.1023
 5739TIP3    H217224   1.025   5.692   1.955  0.3725  0.4547  0.7498
 5740TIP3   OH217225   5.151   5.222   2.984 -0.6610 -0.1378  0.4099
 5740TIP3    H117226   5.168   5.246   3.075  1.7503  0.6414 -0.1611
 5740TIP3    H217227   5.231   5.177   2.956 -1.2314 -0.1041 -1.3868
 5741TIP3   OH217228   5.192   3.750   0.155 -0.5678  0.5846 -0.1223
 5741TIP3    H117229   5.115   3.701   0.129 -0.0997 -0.3234  0.1424
 5741TIP3    H217230   5.195   3.825   0.096  1.0372 -1.8798 -3.4751
 5742TIP3   OH217231   4.428   4.940   2.037 -0.3050 -0.4250  0.7254
 5742TIP3    H117232   4.508   4.979   2.073  0.1541 -1.7136  1.1441
 5742TIP3    H217233   4.439   4.947   1.942 -0.3368  0.6381  0.7845
 5743TIP3   OH217234   5.961   4.962   2.144 -0.1757 -0.3944  0.1358
 5743TIP3    H117235   5.869   4.969   2.168 -0.3394  0.1580 -0.6007
 5743TIP3    H217236   6.009   4.989   2.222 -0.6559  0.0733  0.2737
 5744TIP3   OH217237   4.313   5.012   2.677  0.0561 -0.0517 -0.2145
 5744TIP3    H117238   4.379   5.060   2.727 -0.5565  0.8910 -0.2696
 5744TIP3    H217239   4.362   4.946   2.629  0.7099 -0.7361  1.3328
 5745TIP3   OH217240   2.401   3.172   4.593  0.4188 -0.3091 -0.2564
 5745TIP3    H117241   2.397   3.235   4.664 -1.4419  1.3950 -1.7549
 5745TIP3    H217242   2.493   3.170   4.567  1.1246 -0.9016  2.0433
 5746TIP3   OH217243   4.762   1.888   2.830  0.1181  0.4740  0.3469
 5746TIP3    H117244   4.722   1.857   2.911  0.4378 -2.8569 -0.6169
 5746TIP3    H217245   4.724   1.833   2.762  3.0718  0.1220 -1.1659
 5747TIP3   OH217246   5.980   0.939   5.154  0.4081 -0.1003  0.1262
 5747TIP3    H117247   5.936   0.920   5.071  0.0832 -2.2185  0.7186
 5747TIP3    H217248   6.012   0.854   5.183  1.2482  0.7506  1.7668
 5748TIP3   OH217249   4.401   2.234   4.246  0.4745 -0.5648  0.3986
 5748TIP3    H117250   4.461   2.179   4.197  1.0241 -0.2382  0.6929
 5748TIP3    H217251   4.341   2.269   4.181  0.0789 -1.5513  0.2153
 5749TIP3   OH217252   0.136   5.349   5.111  0.4140  0.4845 -0.1570
 5749TIP3    H117253   0.099   5.263   5.090 -0.3382  1.2568 -2.1926
 5749TIP3    H217254   0.218   5.329   5.156 -0.4506 -1.2725  0.7580
 5750TIP3   OH217255   2.832   5.940   3.608 -0.0261  0.1541  0.0122
 5750TIP3    H117256   2.893   5.871   3.634 -1.9884 -1.5658  0.3026
 5750TIP3    H217257   2.819   5.992   3.687 -0.2234 -0.5141  0.4302
 5751TIP3   OH217258   0.601   3.910   2.242 -0.2916  0.3829 -0.2908
 5751TIP3    H117259   0.695   3.923   2.252  0.0575 -1.1598 -1.1234
 5751TIP3    H217260   0.567   3.996   2.217  0.8300  1.0359  0.3493
 5752TIP3   OH217261   5.925   4.435   1.453 -0.0905 -0.2816 -0.3167
 5752TIP3    H117262   6.007   4.386   1.447 -0.2752 -0.5413 -0.7436
 5752TIP3    H217263   5.923   4.467   1.543  0.7574  0.2257 -0.4634
 5753TIP3   OH217264   3.080   4.621   3.833 -0.3231  0.4510  0.2578
 5753TIP3    H117265   3.002   4.642   3.780 -0.6196  1.6543  1.1159
 5753TIP3    H217266   3.045   4.587   3.915 -0.0103  1.6565  0.9267
 5754TIP3   OH217267   2.733   3.509   4.644  0.5415  0.1153 -0.6234
 5754TIP3    H117268   2.807   3.546   4.597  0.4996 -0.1087 -0.8661
 5754TIP3    H217269   2.730   3.417   4.616  1.2785 -0.3565  0.7339
 5755TIP3   OH217270   3.563   2.709   4.791  0.2231 -0.1990 -0.0495
 5755TIP3    H117271   3.608   2.640   4.741  1.5770 -0.1814  1.0871
 5755TIP3    H217272   3.530   2.768   4.724  2.2289 -0.0250 -0.9718
 5756TIP3   OH217273   5.628   4.462   3.109 -0.1234  0.0804 -0.2073
 5756TIP3    H117274   5.723   4.470   3.118 -0.1370 -0.0419  0.0878
 5756TIP3    H217275   5.600   4.546   3.072  0.2365 -0.3501 -1.4868
 5757TIP3   OH217276   5.221   3.445   2.205 -0.2750  0.7283  0.3412
 5757TIP3    H117277   5.298   3.404   2.167  0.4431  0.9229  1.5377
 5757TIP3    H217278   5.249   3.534   2.227 -1.3972  1.4262 -0.9306
 5758TIP3   OH217279   3.735   2.452   0.436 -0.7441  0.1759  0.2739
 5758TIP3    H117280   3.674   2.520   0.465 -0.3602  0.6972 -0.1106
 5758TIP3    H217281   3.713   2.438   0.344  1.7517  2.7051 -0.8513
 5759TIP3   OH217282   5.398   5.333   1.494  0.3722 -0.1265 -0.1289
 5759TIP3    H117283   5.341   5.374   1.429  1.4047  1.1330 -0.2742
 5759TIP3    H217284   5.395   5.392   1.570  0.2939 -0.8451  0.4410
 5760TIP3   OH217285   2.575   4.600   3.328 -0.1214  0.0552  0.1320
 5760TIP3    H117286   2.555   4.513   3.362 -0.6018 -0.4869 -1.4358
 5760TIP3    H217287   2.602   4.584   3.237 -0.4448  1.5500 -0.2486
 5761TIP3   OH217288   2.989   4.623   1.021  0.0247 -0.1461 -0.4900
 5761TIP3    H117289   2.900   4.640   0.991 -0.5929 -0.3381  1.1174
 5761TIP3    H217290   3.044   4.684   0.971 -0.9553 -0.2311 -1.7077
 5762TIP3   OH217291   4.762   0.417   1.709 -0.8592 -0.0331  0.2567
 5762TIP3    H117292   4.748   0.363   1.787  1.0552 -0.7743  0.1388
 5762TIP3    H217293   4.855   0.439   1.711 -0.3732 -1.3691 -2.6006
 5763TIP3   OH217294   0.239   5.143   1.356  0.0696 -0.0501 -0.5992
 5763TIP3    H117295   0.319   5.183   1.322  0.1656  0.9215  0.6601
 5763TIP3    H217296   0.174   5.214   1.352 -0.9190 -0.9990 -2.1652
 5764TIP3   OH217297   1.075   4.628   3.594  0.2929  0.0803 -0.2855
 5764TIP3    H117298   1.107   4.642   3.683  1.6177 -0.5180 -0.6569
 5764TIP3    H217299   1.093   4.711   3.549 -1.0597  0.6546  0.1705
 5765TIP3   OH217300   4.879   1.584   3.623 -0.2819  0.0424 -0.0797
 5765TIP3    H117301   4.851   1.500   3.587 -1.8773 -0.0895  1.3140
 5765TIP3    H217302   4.932   1.562   3.699 -1.1621  0.2581  0.6170
 5766TIP3   OH217303   2.523   2.556   3.197  0.1116  0.0683  0.0263
 5766TIP3    H117304   2.602   2.610   3.191  0.6035 -0.6319  0.1129
 5766TIP3    H217305   2.552   2.468   3.175 -0.0992 -0.6799  2.4644
 5767TIP3   OH217306   0.716   5.590   1.713  0.3020  0.0023  0.1682
 5767TIP3    H117307   0.622   5.568   1.714  0.2984  0.0250  0.3179
 5767TIP3    H217308   0.736   5.614   1.803  0.5167 -0.2678  0.1908
 5768TIP3   OH217309   2.566   3.580   3.304  0.0895 -0.7981  0.1841
 5768TIP3    H117310   2.653   3.601   3.271 -0.0211 -0.1558  0.2934
 5768TIP3    H217311   2.560   3.625   3.388 -0.6720 -0.0952 -0.2280
 5769TIP3   OH217312   5.570   0.445   3.341  0.3154  0.5448  0.2949
 5769TIP3    H117313   5.614   0.524   3.310 -1.6336  1.6485  0.1763
 5769TIP3    H217314   5.520   0.413   3.266 -0.2081  0.1397  0.8061
 5770TIP3   OH217315   0.261   0.626   1.713 -0.2205 -0.4593 -0.2016
 5770TIP3    H117316   0.312   0.564   1.661 -0.3829  0.0179 -0.9540
 5770TIP3    H217317   0.325   0.667   1.771 -0.0493 -1.0695  0.0476
 5771TIP3   OH217318   0.804   2.132   2.119 -0.6175 -0.7052 -0.5920
 5771TIP3    H117319   0.822   2.099   2.207 -0.3368  1.6823  0.3346
 5771TIP3    H217320   0.790   2.226   2.132  0.1202 -0.1641 -3.1969
 5772TIP3   OH217321   1.170   1.413   4.461  0.1550  0.0428  0.1107
 5772TIP3    H117322   1.195   1.329   4.500 -1.0605 -0.4792 -0.2048
 5772TIP3    H217323   1.228   1.422   4.385  1.1644  0.1203  0.8662
 5773TIP3   OH217324   5.855   1.442   0.900  0.2429 -0.1924  0.0291
 5773TIP3    H117325   5.773   1.411   0.936  0.9103 -0.7673  1.0965
 5773TIP3    H217326   5.873   1.384   0.825 -0.5325  0.2312 -0.4997
 5774TIP3   OH217327   1.516   2.962   2.254 -0.1388 -0.2170  0.4502
 5774TIP3    H117328   1.441   2.918   2.214  1.8352 -1.5248 -2.0973
 5774TIP3    H217329   1.522   3.046   2.210 -0.4157  0.1591  1.1034
 5775TIP3   OH217330   4.217   4.473   4.190  0.1186  0.8927  0.2946
 5775TIP3    H117331   4.182   4.400   4.242 -0.4454  1.8452  1.2864
 5775TIP3    H217332   4.146   4.497   4.132  0.0384  1.1503  0.5006
 5776TIP3   OH217333   0.706   1.822   2.329 -0.6919 -0.1007  0.7349
 5776TIP3    H117334   0.776   1.801   2.266 -0.9016  3.7356 -1.0864
 5776TIP3    H217335   0.750   1.872   2.397 -1.4171  1.5699  0.0350
 5777TIP3   OH217336   0.725   0.607   4.591  0.4190  0.0997  0.0402
 5777TIP3    H117337   0.794   0.542   4.604 -0.4738 -0.9394 -0.2117
 5777TIP3    H217338   0.760   0.666   4.524  0.7272 -0.9230 -0.7272
 5778TIP3   OH217339   2.079   0.111   0.736 -0.2191  0.1768  0.0825
 5778TIP3    H117340   2.020   0.127   0.662  1.1367  0.1969 -1.0419
 5778TIP3    H217341   2.096   0.017   0.732  2.1412  0.5781 -1.5137
 5779TIP3   OH217342   4.369   5.108   1.390  0.2570  0.0111 -0.0476
 5779TIP3    H117343   4.297   5.077   1.445 -0.8039  3.1233  0.4769
 5779TIP3    H217344   4.384   5.036   1.328  0.5570 -3.0693  3.2944
 5780TIP3   OH217345   4.914   3.034   4.387 -0.0099  0.1858 -0.1634
 5780TIP3    H117346   4.893   2.974   4.316 -0.0951 -1.4929  1.2192
 5780TIP3    H217347   4.999   3.071   4.362 -1.1563  1.5798 -2.3108
 5781TIP3   OH217348   0.927   1.787   1.711 -0.4210  0.2849 -0.0640
 5781TIP3    H117349   0.983   1.774   1.634  0.9410 -1.8456  1.1854
 5781TIP3    H217350   0.978   1.845   1.768 -0.1723 -0.3627  0.3864
 5782TIP3   OH217351   5.633   4.034   2.562 -0.0346 -0.2361  0.1617
 5782TIP3    H117352   5.712   3.982   2.577 -0.9963 -1.0431  3.2581
 5782TIP3    H217353   5.565   3.969   2.542 -0.0736  0.4321 -2.2312
 5783TIP3   OH217354   2.319   4.869   3.457 -0.3595  0.4116  0.2142
 5783TIP3    H117355   2.252   4.822   3.407 -0.5790  0.8079  0.1328
 5783TIP3    H217356   2.281   4.879   3.544  0.9000 -2.2615  1.1931
 5784TIP3   OH217357   2.649   2.289   4.993  0.2497 -0.0003  0.2717
 5784TIP3    H117358   2.717   2.336   4.945  0.7940 -1.0377 -0.0172
 5784TIP3    H217359   2.695   2.219   5.039 -0.4911 -0.0775  0.9263
 5785TIP3   OH217360   6.060   4.247   0.073 -0.6898 -0.2321  0.2217
 5785TIP3    H117361   6.146   4.205   0.077 -0.3909  0.2503 -0.9307
 5785TIP3    H217362   6.051   4.274  -0.018 -2.0843 -0.3127  0.3259
 5786TIP3   OH217363   0.219   0.724   4.990 -0.4532 -0.5540  0.0861
 5786TIP3    H117364   0.255   0.749   4.905 -1.8565 -0.4826 -0.5120
 5786TIP3    H217365   0.209   0.629   4.985 -1.9752 -0.3801 -0.4259
 5787TIP3   OH217366   4.357   1.421   2.488  0.2706 -0.3285 -0.0903
 5787TIP3    H117367   4.326   1.330   2.487  0.6102 -0.4477  0.1049
 5787TIP3    H217368   4.409   1.429   2.408 -0.8572  0.0850 -0.8010
 5788TIP3   OH217369   1.032   0.990   0.271 -0.2422 -0.5134  0.2718
 5788TIP3    H117370   1.003   0.903   0.299 -1.5301  0.4409  2.0962
 5788TIP3    H217371   0.970   1.016   0.203 -0.2316 -0.7718  0.1637
 5789TIP3   OH217372   6.175   1.035   2.236 -0.1017 -0.3420 -0.0747
 5789TIP3    H117373   6.199   1.024   2.144 -0.6462 -0.4487 -0.2087
 5789TIP3    H217374   6.258   1.028   2.283 -0.0059 -2.0016 -0.4162
 5790TIP3   OH217375   4.523   1.009   3.997  0.5505  0.0624  0.1737
 5790TIP3    H117376   4.435   1.043   3.978  1.6371  2.1754 -1.7309
 5790TIP3    H217377   4.548   0.963   3.917  2.0090  1.5479 -0.2839
 5791TIP3   OH217378   5.860   3.606   0.529 -0.0037 -0.5317  0.0142
 5791TIP3    H117379   5.919   3.681   0.514 -0.3709 -0.3595 -0.6005
 5791TIP3    H217380   5.913   3.545   0.580  0.1197  0.3792  1.0226
 5792TIP3   OH217381   5.028   5.178   5.063  0.6070 -0.0128 -0.2212
 5792TIP3    H117382   5.010   5.238   4.990  0.4078 -2.9093 -2.7390
 5792TIP3    H217383   5.123   5.169   5.063  0.5218 -1.2541 -1.2995
 5793TIP3   OH217384   5.745   5.686   4.924 -0.8746 -0.2980  0.8291
 5793TIP3    H117385   5.763   5.610   4.979 -1.5210 -0.3775  0.9383
 5793TIP3    H217386   5.697   5.746   4.980  0.4895  0.6243  1.0333
 5794TIP3   OH217387   3.604   5.318   1.184  0.8359  0.1985 -0.1407
 5794TIP3    H117388   3.575   5.409   1.183 -1.4367 -0.4733 -0.5048
 5794TIP3    H217389   3.670   5.312   1.115 -0.2680  1.1905 -1.3077
 5795TIP3   OH217390   1.484   0.107   1.409 -0.2319  0.2942  0.0366
 5795TIP3    H117391   1.470   0.013   1.422  0.0068  0.1782 -0.5407
 5795TIP3    H217392   1.537   0.113   1.330  0.0163  0.9034  0.2433
 5796TIP3   OH217393   0.261   2.798   0.687  0.0699  0.7974 -0.0595
 5796TIP3    H117394   0.355   2.781   0.691  0.0864  0.4679 -1.4482
 5796TIP3    H217395   0.253   2.882   0.643 -0.3100  0.0524 -1.4845
 5797TIP3   OH217396   5.986   5.464   3.934  0.1470  0.1310 -0.0446
 5797TIP3    H117397   5.965   5.461   4.028  1.8162  1.2628  0.4281
 5797TIP3    H217398   5.953   5.549   3.905  0.6323  0.2817 -0.1762
 5798TIP3   OH217399   3.825   3.119   0.536  0.0140 -0.1521 -0.3722
 5798TIP3    H117400   3.751   3.066   0.565  0.4335  0.3801  1.9600
 5798TIP3    H217401   3.898   3.092   0.593  1.7302 -0.8408 -2.7560
 5799TIP3   OH217402   2.466   1.885   1.133  0.1357  0.5884  0.3947
 5799TIP3    H117403   2.406   1.813   1.117 -0.5396  0.9658  1.1596
 5799TIP3    H217404   2.533   1.849   1.191 -0.1858  0.5739  0.7545
 5800TIP3   OH217405   1.967   2.025   3.984 -0.1597 -0.3147 -0.2786
 5800TIP3    H117406   1.941   2.058   4.070 -0.1342 -0.7214 -0.1166
 5800TIP3    H217407   2.007   1.940   4.001 -0.6039 -0.6248 -0.7388
 5801TIP3   OH217408   5.809   5.355   2.867  0.1299  0.1397  0.6330
 5801TIP3    H117409   5.816   5.298   2.944  0.4012 -0.0730  0.4507
 5801TIP3    H217410   5.733   5.410   2.886 -1.2120 -1.4293  0.0395
 5802TIP3   OH217411   5.064   0.227   0.185  0.1017 -0.0179  0.0307
 5802TIP3    H117412   5.151   0.206   0.152  0.1146 -1.9013  1.1460
 5802TIP3    H217413   5.042   0.310   0.142  1.0615 -1.1188 -2.7924
 5803TIP3   OH217414   3.388   5.092   5.187 -0.0167 -0.0883  0.0700
 5803TIP3    H117415   3.357   5.085   5.097  2.2405 -0.1332 -0.7686
 5803TIP3    H217416   3.372   5.184   5.211  0.1433  0.1470 -0.6927
 5804TIP3   OH217417   6.261   0.492   1.585  0.0211 -0.6196 -0.0704
 5804TIP3    H117418   6.324   0.423   1.563  0.0544 -0.6520  0.1207
 5804TIP3    H217419   6.293   0.528   1.667  1.1885  1.0510 -1.1970
 5805TIP3   OH217420   6.273   5.953   1.594 -0.2481  0.3800 -0.4767
 5805TIP3    H117421   6.230   5.885   1.542  0.3758  0.1469 -0.6968
 5805TIP3    H217422   6.206   6.020   1.606 -0.9186 -0.3303 -0.1438
 5806TIP3   OH217423   5.607   0.225   3.684  0.4855 -0.6199  0.7703
 5806TIP3    H117424   5.697   0.246   3.659  0.6220 -0.0544  1.6940
 5806TIP3    H217425   5.611   0.134   3.712  0.3287 -1.2710 -1.2140
 5807TIP3   OH217426   0.813   2.979   4.846  0.0851 -0.6905 -0.0875
 5807TIP3    H117427   0.803   3.040   4.920  1.0666 -1.3571  0.6341
 5807TIP3    H217428   0.726   2.941   4.834 -0.0778 -0.6303  0.7933
 5808TIP3   OH217429   5.418   2.324   2.448 -0.1516 -0.2579 -0.1130
 5808TIP3    H117430   5.322   2.328   2.450 -0.2961 -0.7147 -2.6979
 5808TIP3    H217431   5.445   2.403   2.402  0.8417  0.3346  1.3843
 5809TIP3   OH217432   5.527   0.127   2.628 -0.3545 -0.2185  0.0362
 5809TIP3    H117433   5.589   0.073   2.580  0.0580  0.9243 -0.7367
 5809TIP3    H217434   5.478   0.064   2.682  1.0039 -1.2050  0.1709
 5810TIP3   OH217435   6.126   5.568   5.137 -0.7289 -0.0766  0.2362
 5810TIP3    H117436   6.206   5.549   5.088  0.9908  0.7905  2.5172
 5810TIP3    H217437   6.074   5.623   5.078  1.5168  1.4850 -0.4238
 5811TIP3   OH217438   0.511   2.761   3.810 -0.4671 -0.7077  0.3593
 5811TIP3    H117439   0.547   2.762   3.721  0.2924  0.4849  0.6505
 5811TIP3    H217440   0.424   2.724   3.800 -1.3598  1.5930 -1.3056
 5812TIP3   OH217441   4.045   5.543   1.132 -0.1421 -0.5495  0.1373
 5812TIP3    H117442   4.060   5.461   1.178  3.0671  0.4623  1.1366
 5812TIP3    H217443   4.050   5.520   1.040 -1.2606 -1.7334  0.3381
 5813TIP3   OH217444   5.508   4.891   1.195  0.7439 -0.5110 -0.2821
 5813TIP3    H117445   5.459   4.843   1.129  0.3078 -0.2738 -0.1375
 5813TIP3    H217446   5.446   4.902   1.267  0.7233  0.5572 -0.4469
 5814TIP3   OH217447   4.590   3.047   4.480  0.1831 -0.0919 -0.5744
 5814TIP3    H117448   4.564   3.138   4.495  0.0290 -0.2724  0.3331
 5814TIP3    H217449   4.507   3.000   4.470  0.2210 -0.2998  0.0339
 5815TIP3   OH217450   4.513   1.224   1.540 -0.1735 -0.2006  0.4906
 5815TIP3    H117451   4.461   1.300   1.569 -1.6688 -1.3471  0.9589
 5815TIP3    H217452   4.517   1.168   1.618  0.5104 -0.8162  0.0166
 5816TIP3   OH217453   5.939   3.719   4.675 -0.2335  0.3598 -0.1778
 5816TIP3    H117454   5.907   3.686   4.591 -1.2918  2.9959 -0.9311
 5816TIP3    H217455   6.034   3.729   4.662 -0.3168  0.2739 -0.9077
 5817TIP3   OH217456   6.047   5.786   1.915  0.2238 -0.0486 -0.2466
 5817TIP3    H117457   6.052   5.860   1.854 -0.8397  0.3920  0.1735
 5817TIP3    H217458   6.138   5.765   1.935  0.5643  0.5086 -1.1322
 5818TIP3   OH217459   4.067   5.972   3.038  0.4745 -0.5858 -0.2409
 5818TIP3    H117460   3.973   5.986   3.054  0.5485 -1.3574  0.9605
 5818TIP3    H217461   4.078   5.877   3.040  1.6221 -0.4627  1.8755
 5819TIP3   OH217462   1.845   2.375   0.638  0.5274  0.1463  0.4682
 5819TIP3    H117463   1.761   2.415   0.616  0.1184 -0.8501  0.1449
 5819TIP3    H217464   1.824   2.312   0.707  1.2648  0.9339  1.4412
 5820TIP3   OH217465   3.761   4.382   1.067 -0.1861 -0.5094 -0.3087
 5820TIP3    H117466   3.699   4.351   1.001  0.1500  0.1608 -0.9486
 5820TIP3    H217467   3.790   4.467   1.035  1.3395 -0.9585 -0.1941
 5821TIP3   OH217468   1.693   2.218   0.154 -0.0826  0.0279  0.0591
 5821TIP3    H117469   1.717   2.127   0.172  0.7054  0.1263 -0.4286
 5821TIP3    H217470   1.648   2.214   0.069 -0.8569 -0.0201  0.4693
 5822TIP3   OH217471   2.109   5.633   3.960 -0.4306  0.0797 -0.3353
 5822TIP3    H117472   2.204   5.632   3.953 -0.4272  0.8075 -0.3814
 5822TIP3    H217473   2.087   5.721   3.988 -1.0039 -0.4927  1.0923
 5823TIP3   OH217474   1.919   2.522   2.043 -0.1233 -0.3519  0.1818
 5823TIP3    H117475   1.836   2.553   2.006  0.4034 -0.2996 -0.9766
 5823TIP3    H217476   1.923   2.563   2.130 -0.7925  0.5179 -0.1903
 5824TIP3   OH217477   2.776   4.318   2.518 -0.0878 -0.1934 -0.3603
 5824TIP3    H117478   2.855   4.372   2.510  0.1345 -0.5347 -0.4997
 5824TIP3    H217479   2.806   4.229   2.500 -0.4999 -0.3300 -0.3815
 5825TIP3   OH217480   3.308   2.327   3.688 -0.0558  0.4719  0.4210
 5825TIP3    H117481   3.241   2.332   3.620  1.0172  1.5818 -0.6111
 5825TIP3    H217482   3.275   2.382   3.759 -1.4729 -1.1875  1.1132
 5826TIP3   OH217483   2.796   0.616   4.031  0.3587  0.2290  0.3102
 5826TIP3    H117484   2.791   0.527   4.065  1.4557  0.5417  1.3603
 5826TIP3    H217485   2.837   0.606   3.945  1.5348 -0.2035  0.8940
 5827TIP3   OH217486   2.179   0.721   4.653  0.1822  0.1252 -0.8134
 5827TIP3    H117487   2.204   0.706   4.745  1.4016 -0.9832 -1.2939
 5827TIP3    H217488   2.096   0.768   4.658 -0.2151 -0.6714  0.8671
 5828TIP3   OH217489   6.240   1.948   4.531 -0.2936 -0.6979 -0.1289
 5828TIP3    H117490   6.321   1.915   4.491 -0.6215  0.0198 -1.3992
 5828TIP3    H217491   6.271   2.012   4.595  0.1513 -0.5885 -0.4452
 5829TIP3   OH217492   3.427   3.422   0.158 -0.2301 -0.0806  0.1979
 5829TIP3    H117493   3.420   3.502   0.106  0.8205 -0.4284 -0.5218
 5829TIP3    H217494   3.504   3.377   0.122 -0.9773 -1.5623  0.3945
 5830TIP3   OH217495   6.174   3.466   3.243  0.7592  0.0796  0.1979
 5830TIP3    H117496   6.211   3.483   3.330  1.5332 -1.1108  0.1275
 5830TIP3    H217497   6.146   3.552   3.212  1.4984  0.7013  1.1630
 5831TIP3   OH217498   2.999   3.285   4.506  0.1836  0.1701  0.1023
 5831TIP3    H117499   2.931   3.284   4.574  1.1949  2.5736  1.2697
 5831TIP3    H217500   3.064   3.222   4.537  0.3507  0.8048  1.0746
 5832TIP3   OH217501   4.990   5.368   1.463 -0.2427 -0.5435  0.3169
 5832TIP3    H117502   5.041   5.332   1.536 -2.0739  0.2421  2.0927
 5832TIP3    H217503   4.903   5.383   1.500 -0.6043  2.1771 -1.3649
 5833TIP3   OH217504   3.238   5.758   3.703  0.2596 -0.3529  0.3077
 5833TIP3    H117505   3.157   5.751   3.652  0.8595  0.2475 -0.7721
 5833TIP3    H217506   3.291   5.685   3.672  1.0144  0.5876 -0.6911
 5834TIP3   OH217507   1.068   0.417   5.055  0.1193  0.1311 -0.2720
 5834TIP3    H117508   1.074   0.436   5.149 -1.3028  0.4360 -0.2255
 5834TIP3    H217509   0.991   0.465   5.026 -0.5626 -1.4780 -1.2244
 5835TIP3   OH217510   0.194   0.883   2.016 -1.2642  0.3524  0.2585
 5835TIP3    H117511   0.157   0.815   1.960 -0.7751  0.1233  0.2095
 5835TIP3    H217512   0.246   0.938   1.956 -0.3668 -0.1587  0.5539
 5836TIP3   OH217513   5.933   1.088   3.488  0.4460 -0.5200 -0.2699
 5836TIP3    H117514   5.890   1.168   3.517  0.8257 -0.7431  0.9796
 5836TIP3    H217515   5.861   1.035   3.452  0.1881  0.3409 -1.0759
 5837TIP3   OH217516   6.112   1.073   2.531 -0.3348  0.1684 -0.1851
 5837TIP3    H117517   6.060   1.066   2.451 -1.3532  1.5774  0.2979
 5837TIP3    H217518   6.203   1.074   2.500 -0.6899  0.3050 -1.2933
 5838TIP3   OH217519   5.761   1.299   4.518  0.0593 -0.0440 -0.1311
 5838TIP3    H117520   5.821   1.229   4.494  0.0177  0.0063 -0.3845
 5838TIP3    H217521   5.749   1.350   4.437 -0.9159 -0.4869 -0.2854
 5839TIP3   OH217522   5.030   0.624   1.958 -0.4049  0.4893  0.0506
 5839TIP3    H117523   5.075   0.707   1.939  0.6026 -0.4247 -1.8990
 5839TIP3    H217524   4.979   0.606   1.879 -1.2078 -0.3999  0.7454
 5840TIP3   OH217525   3.385   0.256   3.873  0.2878  0.0158 -0.1110
 5840TIP3    H117526   3.450   0.320   3.846  1.2194  0.2769  2.5144
 5840TIP3    H217527   3.355   0.286   3.959 -1.9299 -1.1424 -0.3871
 5841TIP3   OH217528   4.841   0.135   0.802 -0.6160  0.0258  0.1700
 5841TIP3    H117529   4.809   0.222   0.779  1.2080  0.6523 -0.2291
 5841TIP3    H217530   4.791   0.075   0.747 -0.3500  1.0359 -1.2298
 5842TIP3   OH217531   5.654   0.926   1.993  0.1597 -0.7347  0.3857
 5842TIP3    H117532   5.738   0.965   1.971 -0.3522  2.1732  2.8257
 5842TIP3    H217533   5.626   0.882   1.913  1.8177  2.2910 -2.1159
 5843TIP3   OH217534   1.763   3.052   3.602  0.5109  0.0100  0.0244
 5843TIP3    H117535   1.731   2.981   3.548  0.2143  0.4798 -0.4263
 5843TIP3    H217536   1.755   3.130   3.547  2.4140  0.1692 -0.1144
 5844TIP3   OH217537   4.890   1.130   4.204  0.1146  0.2540 -0.4961
 5844TIP3    H117538   4.873   1.081   4.123  0.1714  1.4505 -1.2539
 5844TIP3    H217539   4.976   1.170   4.191 -0.3657  1.3897 -0.3400
 5845TIP3   OH217540   1.910   4.430   1.055 -0.9211 -0.7311  0.0165
 5845TIP3    H117541   1.971   4.367   1.093 -1.0870 -1.3051 -0.6490
 5845TIP3    H217542   1.943   4.516   1.083  0.4426 -1.0051 -0.6764
 5846TIP3   OH217543   4.723   5.219   4.279  0.2100  0.5296  0.4943
 5846TIP3    H117544   4.815   5.214   4.305  0.4168 -1.2550 -0.4012
 5846TIP3    H217545   4.719   5.175   4.194 -1.2763  1.7078 -0.0965
 5847TIP3   OH217546   3.350   5.439   1.846 -0.8920  0.4717  0.5994
 5847TIP3    H117547   3.404   5.494   1.902 -0.4214  2.4044 -1.5711
 5847TIP3    H217548   3.362   5.476   1.758 -1.8366 -2.1627 -0.7425
 5848TIP3   OH217549   2.523   0.332   0.463  0.3888 -0.2968  0.4659
 5848TIP3    H117550   2.585   0.260   0.454  0.3174 -0.3907  0.7065
 5848TIP3    H217551   2.453   0.311   0.400  0.7026 -0.0789  0.0409
 5849TIP3   OH217552   5.156   2.416   0.200 -0.3404 -0.1554 -0.3529
 5849TIP3    H117553   5.107   2.481   0.250  0.7762  0.5260 -0.1128
 5849TIP3    H217554   5.233   2.463   0.167 -0.2153 -0.9991 -1.3548
 5850TIP3   OH217555   5.553   4.138   0.841 -0.0947 -0.0974 -0.0863
 5850TIP3    H117556   5.470   4.128   0.887 -0.1618  0.9175  0.0358
 5850TIP3    H217557   5.608   4.068   0.875 -0.8900 -0.7795 -0.1676
 5851TIP3   OH217558   6.141   3.359   3.914  0.5471 -0.1901  0.4773
 5851TIP3    H117559   6.095   3.275   3.914 -1.1622  0.6320 -1.9977
 5851TIP3    H217560   6.227   3.338   3.877 -0.0771 -0.7868 -0.7049
 5852TIP3   OH217561   5.881   2.163   0.682  0.2940 -0.4792 -0.3830
 5852TIP3    H117562   5.894   2.190   0.591 -0.6148 -1.9890 -1.0032
 5852TIP3    H217563   5.904   2.071   0.683  1.6332 -0.1701  1.2635
 5853TIP3   OH217564   1.787   1.605   3.991 -0.2669  0.2801 -0.4954
 5853TIP3    H117565   1.708   1.632   4.039 -0.1946 -1.8936  1.0169
 5853TIP3    H217566   1.843   1.565   4.057  1.8046  1.0367 -1.6894
 5854TIP3   OH217567   0.809   3.041   2.501  0.5331 -0.3981  0.3625
 5854TIP3    H117568   0.768   2.976   2.557  0.5044  0.9456  1.9662
 5854TIP3    H217569   0.773   3.024   2.414 -1.6668 -0.7229  1.2874
 5855TIP3   OH217570   2.988   4.538   2.524  0.8169  0.1481 -0.5350
 5855TIP3    H117571   2.920   4.545   2.457 -0.1686 -1.1706  0.2686
 5855TIP3    H217572   2.990   4.624   2.566 -0.9034 -0.0130 -0.0782
 5856TIP3   OH217573   5.538   3.167   2.652  0.3034  0.1036  0.4984
 5856TIP3    H117574   5.607   3.111   2.688  1.1285  0.6472 -0.1891
 5856TIP3    H217575   5.517   3.228   2.722  2.8509  2.0302 -0.2547
 5857TIP3   OH217576   1.429   5.490   3.870  0.0893  0.2803  0.3052
 5857TIP3    H117577   1.506   5.548   3.872 -0.1166  0.5529  0.5209
 5857TIP3    H217578   1.460   5.410   3.828  0.0859  0.9621 -1.0614
 5858TIP3   OH217579   5.268   2.372   4.627  0.3900 -0.6924  0.5788
 5858TIP3    H117580   5.339   2.415   4.675  0.2324 -0.6768  0.8001
 5858TIP3    H217581   5.278   2.403   4.537 -0.5848  0.9651  0.9988
 5859TIP3   OH217582   3.603   5.758   3.905 -0.7813 -0.0866  0.4025
 5859TIP3    H117583   3.611   5.730   3.996  1.5349  1.0473  0.6123
 5859TIP3    H217584   3.645   5.844   3.903 -1.7287  0.3836 -1.5472
 5860TIP3   OH217585   4.111   2.951   2.916  0.1838  0.1075 -0.4239
 5860TIP3    H117586   4.016   2.948   2.908  0.0911  0.4013  0.5174
 5860TIP3    H217587   4.143   2.893   2.847 -0.6773 -0.0968 -0.6558
 5861TIP3   OH217588   6.258   5.020   0.727 -0.2834 -0.1831 -0.0819
 5861TIP3    H117589   6.345   5.060   0.722  0.2973 -1.2261  0.9486
 5861TIP3    H217590   6.275   4.926   0.719 -1.3968 -0.3524 -0.5413
 5862TIP3   OH217591   0.168   3.731   1.557  0.4795 -0.4152 -0.6312
 5862TIP3    H117592   0.122   3.754   1.475  0.6880  3.2229  0.0891
 5862TIP3    H217593   0.097   3.721   1.621  0.4099  1.7890 -0.2685
 5863TIP3   OH217594   1.255   3.160   0.613  0.4262  0.1643 -0.7068
 5863TIP3    H117595   1.260   3.233   0.551 -0.5518  0.5458 -0.3547
 5863TIP3    H217596   1.317   3.183   0.682  0.3275  0.5269 -0.7358
 5864TIP3   OH217597   6.110   4.899   2.643 -0.0995  0.3398  0.1253
 5864TIP3    H117598   6.073   4.887   2.730  0.9363  0.5193  0.6133
 5864TIP3    H217599   6.132   4.810   2.614 -2.2165  0.0731 -0.7964
 5865TIP3   OH217600   3.070   2.734   3.742 -0.0045  0.4115 -0.0117
 5865TIP3    H117601   3.121   2.663   3.782  0.0753  1.1283  1.2098
 5865TIP3    H217602   3.095   2.733   3.650  1.5849  0.2181  0.4017
 5866TIP3   OH217603   3.685   0.760   5.047  0.0309  0.2073 -0.6272
 5866TIP3    H117604   3.719   0.837   5.001 -0.3380  0.6435 -0.1897
 5866TIP3    H217605   3.615   0.727   4.991  0.2439  0.1476 -0.8557
 5867TIP3   OH217606   5.246   4.966   1.253 -0.1083  0.5597  0.5241
 5867TIP3    H117607   5.234   4.879   1.216 -0.3105  0.2005  1.3968
 5867TIP3    H217608   5.161   4.989   1.290  0.5120  0.0951  2.3914
 5868TIP3   OH217609   4.459   2.899   2.808 -0.3908  0.1666  0.7264
 5868TIP3    H117610   4.546   2.938   2.803 -0.9387  1.7733  2.5622
 5868TIP3    H217611   4.404   2.959   2.757 -0.6606 -0.0718  0.7412
 5869TIP3   OH217612   5.726   4.418   1.986  0.0653  0.4316  0.1168
 5869TIP3    H117613   5.714   4.484   2.053  1.3651 -0.2040  1.0111
 5869TIP3    H217614   5.780   4.351   2.027  0.3755 -0.2784 -1.3644
 5870TIP3   OH217615   3.642   4.078   4.898 -0.3627 -0.3070 -0.7743
 5870TIP3    H117616   3.710   4.129   4.854  1.5718  0.1277  2.3800
 5870TIP3    H217617   3.622   4.128   4.978  0.2579 -3.4603  1.5604
 5871TIP3   OH217618   3.600   4.755   4.032  0.4055 -0.3447  0.2528
 5871TIP3    H117619   3.614   4.721   3.944  1.8472 -1.1420  0.7669
 5871TIP3    H217620   3.528   4.818   4.022 -0.7890 -1.8553 -1.1352
 5872TIP3   OH217621   5.279   4.052   4.227 -0.3519 -0.0790  0.1864
 5872TIP3    H117622   5.195   4.034   4.269 -1.9415  1.0625 -2.2925
 5872TIP3    H217623   5.291   4.147   4.237 -0.1084  0.0007 -0.7776
 5873TIP3   OH217624   4.824   5.874   3.554 -0.4510  0.1974 -0.1359
 5873TIP3    H117625   4.812   5.945   3.491  1.3090  0.1916 -0.5336
 5873TIP3    H217626   4.789   5.796   3.510 -0.3003  0.4101 -0.6421
 5874TIP3   OH217627   0.623   4.757   1.141 -0.0790  0.4754  0.2685
 5874TIP3    H117628   0.537   4.797   1.152 -0.4421 -0.5476  1.4407
 5874TIP3    H217629   0.682   4.831   1.125 -0.7586  1.4974  2.1117
 5875TIP3   OH217630   2.516   1.158   2.964  0.3843 -0.6926 -0.3074
 5875TIP3    H117631   2.573   1.180   2.890 -0.9033  1.4225 -0.7689
 5875TIP3    H217632   2.451   1.098   2.927 -0.6759  0.9029 -1.1526
 5876TIP3   OH217633   5.909   1.850   2.321 -0.1676  0.1719 -0.2622
 5876TIP3    H117634   5.863   1.922   2.365  0.9643  0.0074  1.2822
 5876TIP3    H217635   5.906   1.778   2.384  4.6215  1.0163  1.4003
 5877TIP3   OH217636   2.284   1.781   3.249  0.2484  0.2477  0.0985
 5877TIP3    H117637   2.232   1.854   3.281  0.7935  0.9589 -0.5996
 5877TIP3    H217638   2.341   1.758   3.322 -1.2751 -0.8122  1.0263
 5878TIP3   OH217639   0.787   3.154   2.800 -0.0934 -1.1871  0.0488
 5878TIP3    H117640   0.852   3.222   2.819 -0.9378 -0.3750  0.0540
 5878TIP3    H217641   0.837   3.086   2.753  0.4404  0.1795 -1.4596
 5879TIP3   OH217642   0.635   3.927   0.930  0.5389  0.0016 -0.0964
 5879TIP3    H117643   0.719   3.945   0.888 -0.5019 -1.4123 -3.0607
 5879TIP3    H217644   0.623   3.833   0.920 -1.9040  0.3330 -0.8152
 5880TIP3   OH217645   5.322   5.258   5.051 -0.3193  0.1081 -0.0674
 5880TIP3    H117646   5.393   5.318   5.075 -0.9710  0.1574  1.9026
 5880TIP3    H217647   5.351   5.172   5.082 -0.2888 -0.2243 -1.0044
 5881TIP3   OH217648   0.201   4.695   0.118 -0.3042 -0.1867  0.5638
 5881TIP3    H117649   0.133   4.660   0.176 -0.4296 -1.0516 -0.0815
 5881TIP3    H217650   0.283   4.666   0.157 -0.3987 -0.9987  0.1747
 5882TIP3   OH217651   1.722   2.530   0.273  0.1856  0.4346 -0.2367
 5882TIP3    H117652   1.784   2.550   0.203  2.3538 -0.7484  1.2261
 5882TIP3    H217653   1.721   2.435   0.278 -0.1288  0.4840  1.1238
 5883TIP3   OH217654   1.009   1.705   3.483 -0.1195 -0.5761  0.2350
 5883TIP3    H117655   1.022   1.615   3.514  0.3239 -0.8360 -0.6895
 5883TIP3    H217656   0.966   1.696   3.399 -1.5903  0.1419  0.8728
 5884TIP3   OH217657   2.556   5.216   4.472 -0.4314  0.1051 -0.1547
 5884TIP3    H117658   2.623   5.151   4.494 -0.2406  0.7306  1.1600
 5884TIP3    H217659   2.548   5.271   4.550 -1.7474  0.6779 -0.6568
 5885TIP3   OH217660   4.144   5.629   4.065  0.3291 -0.3034  0.0747
 5885TIP3    H117661   4.161   5.558   4.128  2.5050  0.0377 -0.0563
 5885TIP3    H217662   4.074   5.595   4.010  0.5651 -1.9251  0.7038
 5886TIP3   OH217663   4.037   3.495   0.186  0.0944  0.0079 -0.3124
 5886TIP3    H117664   3.944   3.501   0.208 -0.2508 -4.0068  0.0157
 5886TIP3    H217665   4.042   3.526   0.095 -1.7091 -0.4126 -0.5974
 5887TIP3   OH217666   1.314   2.472   4.079  0.1236 -0.6481  0.2293
 5887TIP3    H117667   1.360   2.542   4.125  2.0258 -1.5407 -0.1925
 5887TIP3    H217668   1.238   2.453   4.133  1.5890 -0.7989  2.3619
 5888TIP3   OH217669   0.968   0.857   4.645  0.2120 -0.2066  0.5602
 5888TIP3    H117670   1.004   0.770   4.663  0.0578 -0.5383 -0.6492
 5888TIP3    H217671   0.940   0.853   4.553  2.7371  1.9337 -0.4574
 5889TIP3   OH217672   1.909   3.224   3.004  0.3872 -0.2893  0.4454
 5889TIP3    H117673   2.000   3.196   2.996  0.7868  1.1156 -0.2524
 5889TIP3    H217674   1.862   3.146   3.032  1.5240 -1.5038 -0.8930
 5890TIP3   OH217675   1.748   5.566   4.076 -0.3387 -0.2716 -0.0169
 5890TIP3    H117676   1.685   5.635   4.058 -1.8578 -1.2091  1.4113
 5890TIP3    H217677   1.817   5.578   4.010 -0.9515  2.0563 -0.3169
 5891TIP3   OH217678   0.029   4.864   2.010  0.2339 -0.6505 -0.2171
 5891TIP3    H117679  -0.020   4.784   2.030  0.9486 -1.1942 -0.6472
 5891TIP3    H217680   0.045   4.904   2.096 -1.7014 -0.0011 -0.1028
 5892TIP3   OH217681   0.539   5.253   1.442  0.0351 -0.0933  0.6507
 5892TIP3    H117682   0.480   5.181   1.468 -0.4054 -0.0723 -0.2586
 5892TIP3    H217683   0.573   5.227   1.357  1.7133 -0.3039  1.3427
 5893TIP3   OH217684   2.873   2.353   2.947  0.1686 -0.5753  0.2806
 5893TIP3    H117685   2.886   2.448   2.955 -0.4618 -0.4930  0.3185
 5893TIP3    H217686   2.887   2.334   2.854  3.3521 -0.9161  0.7080
 5894TIP3   OH217687   3.151   3.280   1.805 -0.2923  0.1664 -0.1748
 5894TIP3    H117688   3.059   3.264   1.826 -0.1422  0.8653  1.1109
 5894TIP3    H217689   3.188   3.193   1.792 -1.2433 -0.1035 -1.2675
 5895TIP3   OH217690   5.784   5.163   0.377  0.5170 -0.2371  0.3138
 5895TIP3    H117691   5.720   5.232   0.355  0.7228 -0.0504  0.2963
 5895TIP3    H217692   5.868   5.209   0.378  0.5509 -0.3021  1.1799
 5896TIP3   OH217693   3.536   3.469   2.010 -0.1215 -0.2890  0.2509
 5896TIP3    H117694   3.594   3.522   1.956 -1.9879  0.0508 -1.5368
 5896TIP3    H217695   3.468   3.529   2.039 -0.1957 -0.9042  1.4224
 5897TIP3   OH217696   1.236   4.757   4.512 -0.3377  0.2332 -0.7968
 5897TIP3    H117697   1.301   4.752   4.442  2.1299  0.7494  1.3224
 5897TIP3    H217698   1.225   4.850   4.528  2.3116  0.2010  2.1236
 5898TIP3   OH217699   3.536   3.268   4.006 -0.3354 -0.4859 -0.3943
 5898TIP3    H117700   3.631   3.260   4.013 -0.4208 -0.7391  0.5476
 5898TIP3    H217701   3.518   3.361   4.020 -0.1510 -0.2201 -1.7227
 5899TIP3   OH217702   3.216   1.920   4.282  0.8150  0.2119  0.1756
 5899TIP3    H117703   3.142   1.891   4.335  0.8249 -1.0227 -0.4556
 5899TIP3    H217704   3.221   1.856   4.211  2.8394 -0.0900  0.5264
 5900TIP3   OH217705   3.152   4.729   2.906  0.1934  0.1481  0.2956
 5900TIP3    H117706   3.245   4.740   2.926 -0.0659 -0.0248  1.7235
 5900TIP3    H217707   3.109   4.734   2.992 -1.1162  0.2867 -0.3557
 5901TIP3   OH217708   3.515   3.818   2.055  0.0894  0.3518 -0.2670
 5901TIP3    H117709   3.559   3.893   2.095 -0.2272  0.7582 -0.6811
 5901TIP3    H217710   3.504   3.842   1.963 -0.6021  0.0679 -0.2663
 5902TIP3   OH217711   0.830   0.111   5.121  0.5032 -0.1152  0.2378
 5902TIP3    H117712   0.868   0.138   5.204 -0.2146 -1.3631  1.0058
 5902TIP3    H217713   0.846   0.016   5.117  1.6496  0.1094 -1.6564
 5903TIP3   OH217714   0.882   0.181   2.842  0.8500  0.0361 -0.2190
 5903TIP3    H117715   0.825   0.149   2.772  1.0108 -1.5570  0.3319
 5903TIP3    H217716   0.822   0.210   2.911  0.6700 -0.7730 -0.0163
 5904TIP3   OH217717   2.267   1.256   1.856 -0.3655  0.6126  0.0024
 5904TIP3    H117718   2.222   1.190   1.803  0.7577  1.2799 -1.9062
 5904TIP3    H217719   2.260   1.336   1.805  1.3917  1.1352  0.4903
 5905TIP3   OH217720   1.009   5.616   3.635  0.8812  0.4204  0.2267
 5905TIP3    H117721   1.105   5.623   3.644  0.9649 -1.3383  1.1454
 5905TIP3    H217722   0.987   5.536   3.682 -0.7817 -0.5072 -1.9892
 5906TIP3   OH217723   1.404   4.258   3.294 -0.7426 -0.1425  0.1900
 5906TIP3    H117724   1.391   4.325   3.362  1.4431 -0.3824  0.9199
 5906TIP3    H217725   1.355   4.290   3.219 -1.1032  1.4453  1.0654
 5907TIP3   OH217726   1.357   0.300   4.984  0.1398 -0.1107  0.8408
 5907TIP3    H117727   1.348   0.395   4.975 -0.1017 -0.2342 -0.4771
 5907TIP3    H217728   1.272   0.266   4.956  1.3482 -0.8546 -2.4039
 5908TIP3   OH217729   2.581   0.616   0.322  0.6528  0.1237 -0.3344
 5908TIP3    H117730   2.648   0.565   0.369  0.9156  0.3446 -0.4651
 5908TIP3    H217731   2.505   0.614   0.380  0.1231 -1.7530 -1.0305
 5909TIP3   OH217732   2.696   2.990   3.718  0.7384  0.3497  0.3031
 5909TIP3    H117733   2.643   2.930   3.664  0.2591  1.5257 -0.5639
 5909TIP3    H217734   2.752   3.035   3.655  1.2341  0.6851  0.9780
 5910TIP3   OH217735   1.965   4.530   4.021  0.0381 -0.7172 -0.3040
 5910TIP3    H117736   1.881   4.571   4.040  0.6611  0.0452  0.9625
 5910TIP3    H217737   2.030   4.593   4.053  1.1086 -1.1423 -1.5423
 5911TIP3   OH217738   0.084   0.126   3.838 -0.4944 -0.9943 -0.0960
 5911TIP3    H117739   0.009   0.185   3.849  0.0600 -0.4914  1.1572
 5911TIP3    H217740   0.134   0.164   3.766  0.3814  0.6775  1.3356
 5912TIP3   OH217741   2.800   5.500   3.286  0.1488  0.3056 -0.4304
 5912TIP3    H117742   2.752   5.417   3.294 -0.5547  0.6707 -0.7033
 5912TIP3    H217743   2.858   5.488   3.211  1.1941 -0.4755  0.4789
 5913TIP3   OH217744   4.983   4.242   2.229 -0.3069  0.3255  0.0258
 5913TIP3    H117745   5.024   4.321   2.267 -1.1462  0.5459  0.4862
 5913TIP3    H217746   4.904   4.274   2.187  0.8629  0.1793 -2.4684
 5914TIP3   OH217747   4.829   4.164   4.407 -0.1349 -0.0825  0.1383
 5914TIP3    H117748   4.765   4.234   4.393  0.1772  0.0475 -0.7166
 5914TIP3    H217749   4.788   4.106   4.472 -1.6072 -0.5977 -1.1908
 5915TIP3   OH217750   3.173   4.296   3.680 -0.6580 -0.5094 -0.5581
 5915TIP3    H117751   3.104   4.263   3.737  0.2321 -1.0926  0.2142
 5915TIP3    H217752   3.153   4.389   3.669 -2.0032 -0.8328 -1.0115
 5916TIP3   OH217753   4.829   2.320   0.974  0.3561 -0.1183  0.2271
 5916TIP3    H117754   4.861   2.239   0.934  2.2384  0.2652  0.8240
 5916TIP3    H217755   4.909   2.369   0.994 -0.6918  1.3058  1.0906
 5917TIP3   OH217756   4.536   4.958   3.497  0.2334  0.2388  0.0178
 5917TIP3    H117757   4.603   5.000   3.443  0.2163  0.5766  0.2624
 5917TIP3    H217758   4.558   4.865   3.494 -0.1500  0.1691 -1.1189
 5918TIP3   OH217759   2.118   0.910   0.191 -0.4825 -0.5145 -0.1619
 5918TIP3    H117760   2.069   0.899   0.110 -1.3589 -1.4538  0.4691
 5918TIP3    H217761   2.109   1.004   0.211  2.3477  0.4583 -2.6897
 5919TIP3   OH217762   5.566   4.949   3.319 -0.0006  0.1855 -0.4486
 5919TIP3    H117763   5.575   4.956   3.414 -0.7928 -3.0373 -0.0396
 5919TIP3    H217764   5.643   4.901   3.291 -0.1709  0.4112 -1.3243
 5920TIP3   OH217765   3.831   3.978   1.013 -0.1569  0.5753  0.3091
 5920TIP3    H117766   3.903   4.039   1.028 -0.7306  1.0045  1.4369
 5920TIP3    H217767   3.868   3.910   0.957  0.9147  1.1785  0.2712
 5921TIP3   OH217768   6.059   0.497   4.215  0.2442  0.3000  0.2888
 5921TIP3    H117769   6.067   0.468   4.306  0.8591  0.0886  0.1726
 5921TIP3    H217770   5.965   0.504   4.200  0.0965 -0.9326  0.5387
 5922TIP3   OH217771   1.907   4.707   2.442 -0.1524  0.3084 -0.1275
 5922TIP3    H117772   1.882   4.799   2.445  2.0671  0.9719  0.3910
 5922TIP3    H217773   1.995   4.707   2.404  0.7440 -1.3498  1.7138
 5923TIP3   OH217774   2.705   4.713   1.009  0.5363 -0.5177 -0.2223
 5923TIP3    H117775   2.683   4.625   1.038  1.4258 -0.7504 -0.2274
 5923TIP3    H217776   2.663   4.721   0.923  0.3841 -0.9057 -0.1865
 5924TIP3   OH217777   2.656   0.531   3.641 -0.2319 -0.0898 -0.5239
 5924TIP3    H117778   2.724   0.472   3.609  0.7840  0.9384 -0.2975
 5924TIP3    H217779   2.592   0.533   3.570 -0.1599 -1.2291 -0.6527
 5925TIP3   OH217780   0.480   1.397   3.805  0.0140 -0.0020  0.2184
 5925TIP3    H117781   0.568   1.428   3.782  0.3730 -0.7541  0.5573
 5925TIP3    H217782   0.425   1.426   3.732  0.7867 -0.6607 -0.6617
 5926TIP3   OH217783   4.425   0.881   2.657 -0.3482 -0.0276 -0.0545
 5926TIP3    H117784   4.511   0.855   2.623 -1.3501 -1.5831 -1.5704
 5926TIP3    H217785   4.397   0.953   2.601 -0.9671 -1.0020 -1.0243
 5927TIP3   OH217786   2.719   4.938   2.506  0.2888 -0.4058  0.0955
 5927TIP3    H117787   2.726   5.026   2.469  1.9914  1.1721  3.6942
 5927TIP3    H217788   2.626   4.929   2.529  0.2906  1.0056  0.7581
 5928TIP3   OH217789   1.699   0.013   1.744  0.0954 -0.6222 -0.3499
 5928TIP3    H117790   1.751   0.090   1.724 -2.0082  1.6647  2.2485
 5928TIP3    H217791   1.614   0.029   1.702 -0.0400 -2.1318 -0.7428
 5929TIP3   OH217792   2.421   1.605   1.647 -0.5642  0.2147 -0.0617
 5929TIP3    H117793   2.425   1.569   1.558  0.7065  0.6755 -0.2096
 5929TIP3    H217794   2.344   1.563   1.686 -0.7435 -0.5208 -1.1468
 5930TIP3   OH217795   1.587   0.417   1.056  0.0459 -0.4983 -0.0092
 5930TIP3    H117796   1.672   0.427   1.012 -1.1567 -0.7005 -2.5755
 5930TIP3    H217797   1.598   0.462   1.140  2.2766  0.6440 -0.8300
 5931TIP3   OH217798   3.296   5.948   1.434 -0.0455  0.0068 -0.0664
 5931TIP3    H117799   3.221   5.998   1.401  0.0668  0.6799  0.6975
 5931TIP3    H217800   3.358   6.014   1.465  0.8725 -0.5452 -0.6791
 5932TIP3   OH217801   4.903   4.085   2.999  0.2007 -0.5762 -0.3715
 5932TIP3    H117802   4.910   3.999   2.957 -0.1968 -1.1497  0.6862
 5932TIP3    H217803   4.982   4.132   2.972  0.0207 -0.9558 -1.6419
 5933TIP3   OH217804   1.567   5.043   0.964  0.6185 -0.6087  0.5184
 5933TIP3    H117805   1.508   5.065   0.892  0.3099 -0.5664  0.7796
 5933TIP3    H217806   1.651   5.028   0.922  0.2608 -1.3653  0.0599
 5934TIP3   OH217807   3.029   5.303   1.330 -0.1426  0.9278  0.3132
 5934TIP3    H117808   3.040   5.371   1.397  0.7506  1.7177 -0.6158
 5934TIP3    H217809   3.104   5.245   1.342 -0.6592  0.3482  0.8045
 5935TIP3   OH217810   1.485   4.866   3.988 -0.1586  0.1327 -0.2090
 5935TIP3    H117811   1.523   4.881   3.902 -0.1428  1.1083 -0.0492
 5935TIP3    H217812   1.402   4.821   3.970  0.2759 -0.4955 -0.6627
 5936TIP3   OH217813   1.792   5.701   0.778  0.4552 -0.5287  0.2665
 5936TIP3    H117814   1.763   5.708   0.869  4.0750 -0.4939  1.6232
 5936TIP3    H217815   1.806   5.791   0.750  0.0300 -0.5632 -0.0524
 5937TIP3   OH217816   1.463   1.382   1.051 -0.1693 -0.4228 -0.0570
 5937TIP3    H117817   1.379   1.346   1.022 -0.1657 -0.9764  0.5818
 5937TIP3    H217818   1.439   1.449   1.115 -0.1585  0.3654 -0.8636
 5938TIP3   OH217819   5.892   1.923   3.402  0.1149 -0.0259  0.0442
 5938TIP3    H117820   5.916   1.857   3.467 -2.1723 -1.3761 -0.3411
 5938TIP3    H217821   5.945   1.902   3.325 -0.4302 -1.3543 -0.0006
 5939TIP3   OH217822   0.121   5.639   1.524  0.6863 -0.0228 -0.5299
 5939TIP3    H117823   0.130   5.551   1.563 -0.3470 -0.1207 -0.4765
 5939TIP3    H217824   0.084   5.622   1.437 -1.8335  0.4400  0.3512
 5940TIP3   OH217825   0.249   4.921   3.685 -0.2991 -0.3382  0.3286
 5940TIP3    H117826   0.329   4.953   3.643 -1.1473  0.2829 -0.8671
 5940TIP3    H217827   0.276   4.899   3.774  1.3523 -0.7998 -0.2442
 5941TIP3   OH217828   4.889   4.510   3.117  0.4870 -0.2748  0.3436
 5941TIP3    H117829   4.870   4.513   3.023 -2.0867  1.0087  0.8087
 5941TIP3    H217830   4.880   4.601   3.146  2.1808 -0.5055  1.6948
 5942TIP3   OH217831   2.686   3.245   4.568  0.2146 -0.0026 -0.1916
 5942TIP3    H117832   2.704   3.214   4.479 -1.1047 -1.8869  0.1512
 5942TIP3    H217833   2.698   3.169   4.624 -0.7302  0.6896  1.0102
 5943TIP3   OH217834   1.807   4.171   0.532  0.7342 -0.3152  0.1961
 5943TIP3    H117835   1.804   4.232   0.606 -0.7320 -1.9976  1.6161
 5943TIP3    H217836   1.895   4.181   0.497  1.2714  1.0084  1.7561
 5944TIP3   OH217837   1.478   0.949   1.960 -0.2253  0.0089 -0.3317
 5944TIP3    H117838   1.459   1.000   1.881 -1.0849 -1.3372 -1.0243
 5944TIP3    H217839   1.403   0.966   2.017  1.0608  2.1279  0.8607
 5945TIP3   OH217840   0.927   3.718   0.946  0.1178  0.2207  0.4301
 5945TIP3    H117841   0.925   3.772   1.025 -1.7907  1.7444 -0.5770
 5945TIP3    H217842   0.839   3.682   0.939  1.2275 -2.9341  0.8930
 5946TIP3   OH217843   4.010   0.280   2.450  0.3439  0.6947  0.1179
 5946TIP3    H117844   4.010   0.272   2.546  1.8657 -0.8379  0.0400
 5946TIP3    H217845   3.922   0.254   2.424 -0.0277  0.9365  1.0884
 5947TIP3   OH217846   2.161   3.252   1.770  0.3449 -0.1899  0.3678
 5947TIP3    H117847   2.097   3.322   1.776 -0.4496 -0.7790 -0.9726
 5947TIP3    H217848   2.198   3.246   1.859 -2.2098 -0.5731  1.4921
 5948TIP3   OH217849   5.682   1.990   4.962  0.6957 -0.1836  0.3817
 5948TIP3    H117850   5.716   1.969   4.875 -1.9182 -1.3858 -0.4746
 5948TIP3    H217851   5.683   2.086   4.966  0.6993 -0.0984 -1.0652
 5949TIP3   OH217852   4.083   4.154   0.199  0.8026 -0.2127  0.8635
 5949TIP3    H117853   4.157   4.094   0.195  0.4709 -0.7385  2.0806
 5949TIP3    H217854   4.110   4.221   0.263  1.0357  0.7580 -0.2243
 5950TIP3   OH217855   4.460   2.685   0.620 -0.5625 -0.1663  0.1042
 5950TIP3    H117856   4.491   2.597   0.597  0.8227  0.5792 -1.0633
 5950TIP3    H217857   4.506   2.704   0.702  0.2048 -0.0343 -0.3399
 5951TIP3   OH217858   4.423   0.801   0.441 -0.6395 -0.2888 -0.4528
 5951TIP3    H117859   4.369   0.732   0.480 -0.7031  0.9992  1.9120
 5951TIP3    H217860   4.513   0.777   0.464 -0.4321 -0.7715 -1.6718
 5952TIP3   OH217861   1.503   5.442   3.575 -0.5049 -0.1417  0.3312
 5952TIP3    H117862   1.576   5.392   3.612  0.7016  0.1459 -1.5228
 5952TIP3    H217863   1.544   5.517   3.532 -1.9714  0.4879 -0.0485
 5953TIP3   OH217864   4.640   3.351   3.597  0.3126  0.1038  0.5712
 5953TIP3    H117865   4.707   3.413   3.626  0.0181 -0.1398  1.8535
 5953TIP3    H217866   4.658   3.338   3.504  0.8511  1.5135  0.4501
 5954TIP3   OH217867   0.772   5.391   0.324 -0.0361 -0.0721 -0.6309
 5954TIP3    H117868   0.698   5.388   0.263  1.1941 -1.3629 -2.1366
 5954TIP3    H217869   0.786   5.299   0.348 -0.9013  0.4286  2.2028
 5955TIP3   OH217870   0.514   4.248   4.722 -0.4624 -0.7175 -0.1685
 5955TIP3    H117871   0.481   4.182   4.661 -0.6912 -2.4837  1.7624
 5955TIP3    H217872   0.591   4.206   4.763 -0.7350  0.1003  1.2474
 5956TIP3   OH217873   5.676   5.785   3.705  0.0722  0.0145  0.5133
 5956TIP3    H117874   5.738   5.765   3.775 -0.9458  0.1819  1.4769
 5956TIP3    H217875   5.607   5.835   3.747 -0.6295  0.0075 -0.5868
 5957TIP3   OH217876   2.460   4.877   2.614 -0.1079  0.8040 -0.1667
 5957TIP3    H117877   2.453   4.899   2.707 -3.6795  1.3960 -0.4630
 5957TIP3    H217878   2.437   4.784   2.610 -3.0470  1.4715 -0.6603
 5958TIP3   OH217879   5.216   2.535   3.643 -0.0732 -0.2457 -0.4672
 5958TIP3    H117880   5.262   2.578   3.571  1.4268 -0.6670  0.1922
 5958TIP3    H217881   5.124   2.556   3.629  0.2570  0.2394 -2.1130
 5959TIP3   OH217882   5.637   2.216   3.263  0.6569 -0.3343  0.0636
 5959TIP3    H117883   5.560   2.229   3.318  1.9200 -1.0025  2.0752
 5959TIP3    H217884   5.703   2.275   3.299  1.0338  0.4995 -1.8481
 5960TIP3   OH217885   3.551   0.610   0.309  0.4147  0.3531 -0.0142
 5960TIP3    H117886   3.528   0.678   0.373 -0.8445 -0.8491  0.8697
 5960TIP3    H217887   3.490   0.625   0.236  0.1235  0.1843  0.1894
 5961TIP3   OH217888   2.101   1.403   0.150  0.5016 -0.0674 -0.0004
 5961TIP3    H117889   2.064   1.487   0.178 -1.0172 -0.9843  0.9184
 5961TIP3    H217890   2.195   1.418   0.144  0.0718  2.3559 -2.2372
 5962TIP3   OH217891   3.290   3.768   3.027  0.0641 -0.3494  0.0266
 5962TIP3    H117892   3.357   3.829   3.058  2.3740 -2.0309 -1.3769
 5962TIP3    H217893   3.299   3.692   3.084  0.4184 -1.1902 -1.1178
 5963TIP3   OH217894   1.707   5.231   0.168  0.0796  0.4626  0.5755
 5963TIP3    H117895   1.655   5.300   0.208  0.8857  0.7630  1.1278
 5963TIP3    H217896   1.786   5.225   0.222 -0.0192 -0.9733  0.6083
 5964TIP3   OH217897   5.500   2.644   1.427 -0.1723  0.4180 -0.2885
 5964TIP3    H117898   5.480   2.704   1.499 -1.0948  1.0873 -1.0905
 5964TIP3    H217899   5.433   2.577   1.433  0.1855  0.0730 -0.0904
 5965TIP3   OH217900   6.083   5.167   2.613  0.5420 -0.5023  0.1227
 5965TIP3    H117901   6.098   5.078   2.646  1.3229 -0.9692 -1.3754
 5965TIP3    H217902   5.990   5.168   2.590 -0.0086 -0.1799  2.1713
 5966TIP3   OH217903   4.191   0.462   1.091  0.1136  0.6546  0.2049
 5966TIP3    H117904   4.200   0.371   1.120  2.0432  0.3207 -1.2066
 5966TIP3    H217905   4.199   0.513   1.171 -1.6421 -0.4112  1.1077
 5967TIP3   OH217906   2.732   4.956   2.919  0.3671 -0.7689  0.1803
 5967TIP3    H117907   2.642   4.973   2.948 -0.0290 -1.4943 -0.5809
 5967TIP3    H217908   2.773   4.913   2.994  0.2973  0.1948  0.7876
 5968TIP3   OH217909   1.664   5.512   1.057 -0.4488  0.1732 -0.1639
 5968TIP3    H117910   1.578   5.485   1.088 -0.0290  1.1145  1.9909
 5968TIP3    H217911   1.707   5.431   1.029 -0.7241 -0.8574  2.2077
 5969TIP3   OH217912   2.438   3.123   4.058  0.3832 -0.2288 -0.5226
 5969TIP3    H117913   2.377   3.068   4.009 -1.3111  1.5478 -0.5250
 5969TIP3    H217914   2.385   3.164   4.126  0.5397  4.3614 -2.8165
 5970TIP3   OH217915   5.287   2.190   1.741  0.2523  0.0907  0.3082
 5970TIP3    H117916   5.354   2.223   1.803 -0.4818  0.4973  0.9052
 5970TIP3    H217917   5.208   2.239   1.764 -0.5973 -1.2990  0.4735
 5971TIP3   OH217918   5.858   3.040   0.379  0.1738  0.3182  0.1442
 5971TIP3    H117919   5.899   3.120   0.344 -0.2234 -0.5322 -2.4932
 5971TIP3    H217920   5.807   3.071   0.453  1.3138  2.2484  0.2121
 5972TIP3   OH217921  -0.002   5.465   4.380  0.0105 -0.1760  0.2662
 5972TIP3    H117922   0.043   5.549   4.392  1.4095 -1.0175  1.1003
 5972TIP3    H217923   0.025   5.435   4.293 -1.0814  0.5398 -0.3584
 5973TIP3   OH217924   4.013   1.305   1.185 -0.1543 -1.0791  0.2122
 5973TIP3    H117925   4.063   1.380   1.155 -0.8534 -0.4039  0.6826
 5973TIP3    H217926   4.063   1.229   1.156  0.5939 -0.4340 -0.2206
 5974TIP3   OH217927   1.100   5.488   2.096 -0.4978  0.0725  0.3549
 5974TIP3    H117928   1.146   5.415   2.138  1.2717  0.9209 -0.0133
 5974TIP3    H217929   1.138   5.567   2.135  1.2256  0.9127 -2.6388
 5975TIP3   OH217930   1.877   4.712   2.136 -0.0711  0.4851  0.3706
 5975TIP3    H117931   1.864   4.693   2.043  1.8544  1.1683 -0.0984
 5975TIP3    H217932   1.912   4.631   2.172  0.8116  0.7281  0.0907
 5976TIP3   OH217933   3.231   5.289   2.074  0.2118 -0.2332 -0.3810
 5976TIP3    H117934   3.324   5.269   2.064  1.2454  2.1582  2.6283
 5976TIP3    H217935   3.201   5.230   2.143 -0.0191  0.1210 -0.1749
 5977TIP3   OH217936   3.989   1.547   0.650 -0.0184  0.1888  0.1719
 5977TIP3    H117937   4.045   1.489   0.703 -0.5414 -0.3239  0.1838
 5977TIP3    H217938   3.903   1.504   0.651 -0.3806  0.8937  0.0485
 5978TIP3   OH217939   0.041   5.578   4.112  0.1746 -0.4653 -0.0039
 5978TIP3    H117940   0.089   5.495   4.104  1.5250  0.3609 -0.8263
 5978TIP3    H217941   0.108   5.645   4.107 -1.1200  0.8142 -2.7654
 5979TIP3   OH217942   3.377   0.087   1.360 -0.3580 -0.0394 -0.6395
 5979TIP3    H117943   3.361   0.157   1.423  1.2468  0.0731 -0.3144
 5979TIP3    H217944   3.351   0.007   1.406  1.7248 -0.0720  0.6101
 5980TIP3   OH217945   1.606   5.738   2.801  0.3920 -0.2121 -0.2526
 5980TIP3    H117946   1.577   5.782   2.881 -0.0600  0.1210 -0.5985
 5980TIP3    H217947   1.585   5.800   2.731  1.2929 -0.2660 -0.5774
 5981TIP3   OH217948   0.247   0.311   1.939 -0.4526 -0.3651 -0.0423
 5981TIP3    H117949   0.209   0.231   1.901  0.2591 -1.1278  0.8141
 5981TIP3    H217950   0.331   0.283   1.974  1.0923  1.3395 -2.1232
 5982TIP3   OH217951   3.381   5.608   4.166 -0.1923  0.1950 -0.7029
 5982TIP3    H117952   3.320   5.643   4.102  0.1892  0.4971 -0.9091
 5982TIP3    H217953   3.455   5.669   4.165 -0.2480  0.2983  0.1404
 5983TIP3   OH217954   0.266   2.766   2.099 -0.2297 -0.4491  0.2865
 5983TIP3    H117955   0.323   2.707   2.147 -0.5038 -1.6311 -0.7848
 5983TIP3    H217956   0.315   2.789   2.020  0.0733  1.1796  0.8970
 5984TIP3   OH217957   2.122   4.063   3.582 -0.1022  0.2892 -0.0556
 5984TIP3    H117958   2.212   4.092   3.595  0.1362 -0.2136 -0.5003
 5984TIP3    H217959   2.119   3.975   3.621  0.3824 -0.8597 -2.3800
 5985TIP3   OH217960   0.266   1.326   2.838  0.3188 -0.1495 -0.2056
 5985TIP3    H117961   0.280   1.420   2.844  0.8329 -0.2065 -0.5133
 5985TIP3    H217962   0.190   1.309   2.895  0.2490  0.4403 -0.1253
 5986TIP3   OH217963   5.797   1.433   2.698  0.0430 -0.7538  0.2992
 5986TIP3    H117964   5.765   1.402   2.613 -1.2268  0.1534  0.4214
 5986TIP3    H217965   5.721   1.473   2.740  0.9554 -0.0007  1.3138
 5987TIP3   OH217966   3.077   2.149   3.015 -0.1328  0.1019  1.1432
 5987TIP3    H117967   3.084   2.102   2.932 -0.3281  1.6183  0.2196
 5987TIP3    H217968   2.990   2.190   3.012 -0.5078 -0.5338  2.5101
 5988TIP3   OH217969   2.709   0.117   1.772 -0.3993 -0.2471 -0.2258
 5988TIP3    H117970   2.618   0.139   1.757 -0.8454 -0.8822  1.3656
 5988TIP3    H217971   2.740   0.183   1.833  0.0687 -0.3494 -0.3455
 5989TIP3   OH217972   4.302   1.222   3.488  0.1822 -0.0321  0.0194
 5989TIP3    H117973   4.230   1.217   3.550  0.2088 -3.5341 -0.0551
 5989TIP3    H217974   4.261   1.208   3.402  0.7676 -0.6470 -0.1700
 5990TIP3   OH217975   4.539   5.218   0.805 -0.2721 -0.3096 -0.1764
 5990TIP3    H117976   4.501   5.260   0.882 -1.3203 -1.0215 -0.2891
 5990TIP3    H217977   4.475   5.232   0.736  0.0592 -0.7965 -0.5885
 5991TIP3   OH217978   3.889   0.524   2.552  0.1985  0.7248  0.3611
 5991TIP3    H117979   3.798   0.539   2.576  0.1066  0.1714  0.3651
 5991TIP3    H217980   3.935   0.515   2.636  0.3886  1.7310  0.3756
 5992TIP3   OH217981   4.499   1.092   2.493 -0.1048  0.6021 -0.0009
 5992TIP3    H117982   4.431   1.088   2.426 -0.5627  0.7145  0.4509
 5992TIP3    H217983   4.559   1.021   2.471  0.1146  1.0561 -0.9215
 5993TIP3   OH217984   3.609   1.610   3.412 -0.1089 -0.1751  0.3795
 5993TIP3    H117985   3.609   1.570   3.499  2.0526 -0.3827  0.3388
 5993TIP3    H217986   3.690   1.662   3.410  0.0821 -0.4778 -1.6332
 5994TIP3   OH217987   3.718   3.911   4.198 -0.4244  0.2051 -0.1123
 5994TIP3    H117988   3.781   3.844   4.172  0.1643  1.1454 -1.1873
 5994TIP3    H217989   3.667   3.928   4.118 -1.9128 -0.3690  0.6668
 5995TIP3   OH217990   5.293   4.360   3.803 -0.0980 -0.0008  0.3341
 5995TIP3    H117991   5.357   4.420   3.841 -0.7119 -0.9280  2.9935
 5995TIP3    H217992   5.210   4.409   3.805 -0.3684 -0.4843  1.3852
 5996TIP3   OH217993   3.365   0.082   1.803  0.5222 -0.2944  0.3931
 5996TIP3    H117994   3.456   0.062   1.825  1.3258  0.6060 -1.8470
 5996TIP3    H217995   3.342   0.020   1.734 -0.1971  0.1615  0.2095
 5997TIP3   OH217996   0.482   2.769   1.913  0.5662 -0.3601  0.1251
 5997TIP3    H117997   0.500   2.805   1.826  1.2651 -1.0172 -0.0079
 5997TIP3    H217998   0.561   2.787   1.963 -0.2192  0.9422  0.9513
 5998TIP3   OH217999   5.183   4.954   2.355  0.0907  0.4341 -0.5245
 5998TIP3    H118000   5.097   4.981   2.323  0.0850  0.7346 -0.2635
 5998TIP3    H218001   5.163   4.886   2.421  0.0573  0.4604 -0.5074
 5999TIP3   OH218002   5.219   4.023   3.952 -0.0266  0.5236 -0.3934
 5999TIP3    H118003   5.233   4.093   4.015 -0.5387 -0.8142  1.2933
 5999TIP3    H218004   5.173   3.955   4.002  0.6593 -1.1043 -1.8802
 6000TIP3   OH218005   1.761   1.670   3.022 -0.4158 -0.3340  0.1469
 6000TIP3    H118006   1.746   1.657   3.116 -0.1934  0.2900  0.2744
 6000TIP3    H218007   1.844   1.719   3.018 -1.8437  2.2509 -0.2259
 6001TIP3   OH218008   4.673   1.692   2.495 -0.3603  0.2385 -0.2320
 6001TIP3    H118009   4.605   1.709   2.560 -0.7213  0.1964 -0.5947
 6001TIP3    H218010   4.755   1.714   2.539 -0.7738  3.0429 -0.6845
 6002TIP3   OH218011   0.760   5.514   2.751  0.7542  0.1327  0.1834
 6002TIP3    H118012   0.717   5.570   2.815 -0.4915 -0.7999  0.1924
 6002TIP3    H218013   0.719   5.429   2.761  2.4507 -0.7586  0.0116
 6003TIP3   OH218014   4.864   5.471   3.277  0.3766 -0.3947  0.0112
 6003TIP3    H118015   4.871   5.550   3.223  0.6455  0.5352  1.3598
 6003TIP3    H218016   4.924   5.486   3.349  0.0309 -1.6131  0.5749
 6004TIP3   OH218017   2.129   5.131   4.294 -0.2634  0.4339 -0.3596
 6004TIP3    H118018   2.111   5.219   4.261 -0.9546  0.1534 -0.7559
 6004TIP3    H218019   2.105   5.073   4.222  1.8733 -0.0064 -0.7760
 6005TIP3   OH218020   1.374   5.538   4.325  0.9090  0.2296  0.0980
 6005TIP3    H118021   1.395   5.631   4.328 -0.4263  0.5303  1.0555
 6005TIP3    H218022   1.313   5.525   4.398 -0.2453 -1.0357 -1.0258
 6006TIP3   OH218023   1.998   5.089   1.490  0.1143 -0.2866 -0.1772
 6006TIP3    H118024   2.053   5.124   1.421  0.1251 -0.1194 -0.0844
 6006TIP3    H218025   1.982   5.163   1.548 -0.7726 -0.1544 -0.5671
 6007TIP3   OH218026   2.683   2.668   0.492  0.3464 -0.2612 -0.7778
 6007TIP3    H118027   2.691   2.623   0.408  1.0379  0.9776 -1.3962
 6007TIP3    H218028   2.691   2.761   0.471 -0.4708  0.1392  0.5430
 6008TIP3   OH218029   5.393   1.100   1.615  0.1806 -0.5967  0.1761
 6008TIP3    H118030   5.455   1.115   1.687  1.0537 -0.4275 -0.5991
 6008TIP3    H218031   5.417   1.164   1.549 -1.6342  0.3166  0.3426
 6009TIP3   OH218032   5.535   4.250   1.828 -0.2315 -0.5088  0.7897
 6009TIP3    H118033   5.505   4.275   1.740 -1.7279 -0.8341  1.1723
 6009TIP3    H218034   5.608   4.309   1.846 -0.2506 -0.0762 -0.4636
 6010TIP3   OH218035   2.092   5.368   1.919  0.1341  0.1467  0.0495
 6010TIP3    H118036   2.096   5.461   1.944  1.0196  0.8392 -2.3977
 6010TIP3    H218037   2.068   5.323   2.000  1.6977  2.2756  1.8515
 6011TIP3   OH218038   5.212   1.691   2.378 -0.6670 -0.0216  0.0193
 6011TIP3    H118039   5.205   1.732   2.292  0.2888 -1.0091 -0.5615
 6011TIP3    H218040   5.136   1.634   2.383  0.3330 -1.5356 -1.0926
 6012TIP3   OH218041   3.330   5.857   2.439 -0.4274 -0.0610  0.1693
 6012TIP3    H118042   3.311   5.862   2.533  2.0231  0.3931  0.6982
 6012TIP3    H218043   3.328   5.948   2.410  0.2217 -0.0690  0.0934
 6013TIP3   OH218044   5.423   2.050   0.918  0.1307 -0.8289  0.0744
 6013TIP3    H118045   5.511   2.048   0.880  0.2019  1.0324  0.0754
 6013TIP3    H218046   5.434   2.010   1.004  0.5514 -2.4139 -0.6735
 6014TIP3   OH218047   5.391   0.407   4.206  0.3804 -0.0345 -0.0007
 6014TIP3    H118048   5.411   0.353   4.130  1.7101  1.0461 -0.4634
 6014TIP3    H218049   5.424   0.356   4.280 -0.3826 -0.8272 -0.1995
 6015TIP3   OH218050   3.764   3.398   0.567  0.0718 -0.1100  0.3691
 6015TIP3    H118051   3.776   3.305   0.549 -1.2141 -0.0212 -1.1287
 6015TIP3    H218052   3.669   3.411   0.564  0.1474  1.0584  1.7035
 6016TIP3   OH218053   4.407   1.479   2.190 -0.2566 -0.0118 -0.0782
 6016TIP3    H118054   4.381   1.427   2.113 -0.5230 -0.0807  0.0581
 6016TIP3    H218055   4.365   1.564   2.177 -0.9471 -0.2763  0.3766
 6017TIP3   OH218056   4.878   1.991   0.196  0.1048 -0.5915  0.0117
 6017TIP3    H118057   4.786   2.017   0.201 -0.0901 -0.9233 -1.3993
 6017TIP3    H218058   4.919   2.059   0.143  0.4397 -1.0333 -0.3009
 6018TIP3   OH218059   4.376   5.496   1.047  0.1345  0.1974  0.7833
 6018TIP3    H118060   4.312   5.476   0.980  1.0068  0.7270 -0.2306
 6018TIP3    H218061   4.342   5.453   1.126 -1.0165 -0.2369  0.0756
 6019TIP3   OH218062   2.692   1.571   4.532  0.0501 -0.1663 -0.3951
 6019TIP3    H118063   2.636   1.641   4.499  0.1959  0.3259  0.3634
 6019TIP3    H218064   2.671   1.565   4.625  1.2353  0.0122 -0.0952
 6020TIP3   OH218065   0.740   5.635   1.405 -0.1820  0.0892 -0.0194
 6020TIP3    H118066   0.704   5.645   1.317 -1.5388  0.6745  0.5764
 6020TIP3    H218067   0.765   5.542   1.410 -0.5866 -0.0703 -0.8289
 6021TIP3   OH218068   0.096   5.932   0.198 -0.6067 -0.1127 -0.2583
 6021TIP3    H118069   0.173   5.886   0.232 -1.9623 -2.0596  0.2924
 6021TIP3    H218070   0.078   6.000   0.263  0.7916  0.5796 -0.5449
 6022TIP3   OH218071   4.688   0.910   3.629 -0.1849 -0.0556  0.0719
 6022TIP3    H118072   4.626   0.976   3.660  0.9429  1.3474 -0.5191
 6022TIP3    H218073   4.674   0.835   3.686 -2.7616 -0.0081 -0.3623
 6023TIP3   OH218074   3.964   2.680   2.534 -0.0668 -0.0898 -0.0809
 6023TIP3    H118075   3.947   2.760   2.583 -1.0315  0.6295 -1.5139
 6023TIP3    H218076   4.059   2.682   2.518  0.0004  0.4897  0.3565
 6024TIP3   OH218077   3.077   3.705   1.271 -0.2788  0.7768  0.3883
 6024TIP3    H118078   3.031   3.761   1.209 -0.4537  0.4531  0.2203
 6024TIP3    H218079   3.013   3.688   1.340 -1.1439 -1.2802 -0.8024
 6025TIP3   OH218080   3.453   4.066   1.172 -0.0037 -0.1355  0.2502
 6025TIP3    H118081   3.452   3.971   1.159  1.6970 -0.1435 -0.0664
 6025TIP3    H218082   3.544   4.091   1.157  0.3815  1.0767  3.7782
 6026TIP3   OH218083   1.195   1.927   3.563 -0.4236  0.0575  0.1563
 6026TIP3    H118084   1.156   1.840   3.565  0.0998 -0.2723 -1.6878
 6026TIP3    H218085   1.206   1.951   3.655 -3.1837 -0.5981  0.7636
 6027TIP3   OH218086   6.316   4.759   0.743 -0.1443 -0.6865 -0.5032
 6027TIP3    H118087   6.321   4.707   0.823 -0.2453 -0.6182 -0.4526
 6027TIP3    H218088   6.336   4.697   0.673  0.9017 -0.5516 -0.3521
 6028TIP3   OH218089   2.870   2.181   4.034 -0.0098 -0.0995  0.3752
 6028TIP3    H118090   2.794   2.132   4.066  0.3082 -0.5329  0.4902
 6028TIP3    H218091   2.932   2.179   4.108  1.1700 -2.0374 -0.5646
 6029TIP3   OH218092   4.908   0.289   5.073  0.0904 -0.2084 -0.0799
 6029TIP3    H118093   4.893   0.268   5.165 -1.7381 -0.1160 -0.3345
 6029TIP3    H218094   4.938   0.206   5.034  0.0341 -0.4621  0.4142
 6030TIP3   OH218095   4.055   0.843   1.573  0.0338 -0.2839 -0.5527
 6030TIP3    H118096   3.984   0.823   1.634 -0.7249 -1.1119 -1.6437
 6030TIP3    H218097   4.018   0.823   1.487  1.6292 -0.8608 -1.1470
 6031TIP3   OH218098   1.427   2.423   2.381 -0.5677 -0.0849  0.4191
 6031TIP3    H118099   1.510   2.467   2.361 -0.8677 -0.6295 -2.5411
 6031TIP3    H218100   1.379   2.484   2.436  0.2742  1.9558 -1.0023
 6032TIP3   OH218101   4.653   1.813   0.147  0.2050  0.5256 -0.1380
 6032TIP3    H118102   4.716   1.804   0.218 -0.5197 -0.9398  0.3612
 6032TIP3    H218103   4.582   1.753   0.170 -0.2409  0.3166 -1.8961
 6033TIP3   OH218104   1.683   0.907   2.658  0.3795  0.1487 -0.4176
 6033TIP3    H118105   1.693   0.874   2.747 -2.1008 -0.3061 -0.2494
 6033TIP3    H218106   1.745   0.980   2.653  0.6332  0.1369  1.6454
 6034TIP3   OH218107   3.812   5.836   0.012  0.0407  0.2763  0.2666
 6034TIP3    H118108   3.809   5.753  -0.034  0.8347  0.6358 -0.4520
 6034TIP3    H218109   3.723   5.847   0.048  0.1457 -1.2252  1.0284
 6035TIP3   OH218110   5.234   2.569   1.866 -0.2509 -0.2254  0.7024
 6035TIP3    H118111   5.181   2.497   1.831  0.1378 -0.3993  0.4708
 6035TIP3    H218112   5.181   2.647   1.848  0.2796 -0.2147 -1.0270
 6036TIP3   OH218113   3.971   3.555   3.519  0.0202  0.0739 -0.3077
 6036TIP3    H118114   3.891   3.590   3.480  0.1602  0.5001 -0.2113
 6036TIP3    H218115   3.942   3.473   3.561 -0.7427  1.0609  1.2065
 6037TIP3   OH218116   0.293   0.505   3.054  0.1139 -0.6782 -0.1675
 6037TIP3    H118117   0.299   0.595   3.086 -2.1819 -1.0536  1.5951
 6037TIP3    H218118   0.379   0.488   3.015  1.0603  1.8334  0.5953
 6038TIP3   OH218119   3.137   0.777   0.624 -0.0304 -0.5322  0.4870
 6038TIP3    H118120   3.144   0.689   0.663  0.0511 -0.3511  0.8934
 6038TIP3    H218121   3.207   0.827   0.667  0.4760 -0.4952 -0.3651
 6039TIP3   OH218122   6.002   5.016   4.196 -0.0623  0.5410  0.0718
 6039TIP3    H118123   6.086   5.037   4.235 -0.0545  2.2599 -0.7570
 6039TIP3    H218124   5.945   4.996   4.270  0.2671  2.5123  0.9385
 6040TIP3   OH218125   0.070   5.006   0.443  0.3646  0.5228 -0.0530
 6040TIP3    H118126   0.000   5.007   0.377 -0.1569  0.7583  0.4932
 6040TIP3    H218127   0.068   4.916   0.478  1.7369 -0.1076 -1.4825
 6041TIP3   OH218128   5.599   3.672   3.805  0.1692  0.0336  0.8268
 6041TIP3    H118129   5.585   3.702   3.895 -1.2326  1.1940  0.2536
 6041TIP3    H218130   5.658   3.736   3.767  1.7093 -1.0923  1.2123
 6042TIP3   OH218131   4.585   4.604   1.175  0.4945  0.6987  0.2741
 6042TIP3    H118132   4.543   4.519   1.160 -0.2060  1.1588 -0.4926
 6042TIP3    H218133   4.678   4.584   1.182  0.3307 -0.1431  0.1329
 6043TIP3   OH218134   4.703   5.645   4.387  0.4897 -0.1413  0.3083
 6043TIP3    H118135   4.778   5.592   4.411  1.5615  0.9778 -0.4377
 6043TIP3    H218136   4.708   5.721   4.445  0.3395  0.2695 -0.2094
 6044TIP3   OH218137   0.932   0.231   2.468 -0.2047 -0.1154  0.0754
 6044TIP3    H118138   0.968   0.319   2.481 -1.3091 -0.0142  3.1555
 6044TIP3    H218139   0.837   0.245   2.463 -0.3003 -1.0270 -0.9566
 6045TIP3   OH218140   5.929   0.769   1.316 -0.2179  0.0787 -0.5214
 6045TIP3    H118141   5.850   0.763   1.263 -0.0638 -0.6324 -0.6702
 6045TIP3    H218142   5.995   0.804   1.257 -0.9257  2.7939  0.1533
 6046TIP3   OH218143   2.762   3.313   4.849 -0.5146 -0.2872 -0.7329
 6046TIP3    H118144   2.759   3.384   4.786 -0.3925  0.3706 -0.0096
 6046TIP3    H218145   2.801   3.351   4.928 -0.6571 -1.0873 -0.2555
 6047TIP3   OH218146   3.268   3.737   5.075 -0.3489 -0.3469  0.3236
 6047TIP3    H118147   3.357   3.702   5.073  0.8524  2.2544  2.5604
 6047TIP3    H218148   3.212   3.659   5.078  2.0364 -2.1316  2.5297
 6048TIP3   OH218149   5.199   1.130   4.443 -0.1714  0.1909 -0.0247
 6048TIP3    H118150   5.229   1.039   4.437 -2.9189 -0.8149  0.0183
 6048TIP3    H218151   5.176   1.154   4.353 -1.0237  0.2552  0.2081
 6049TIP3   OH218152   1.655   4.567   4.171 -0.0651 -0.0861 -0.2007
 6049TIP3    H118153   1.629   4.625   4.243  1.1774  0.6457 -0.3198
 6049TIP3    H218154   1.593   4.587   4.101  0.2173  0.9442 -0.1658
 6050TIP3   OH218155   5.732   2.710   1.588 -0.0619 -0.5685 -0.5782
 6050TIP3    H118156   5.675   2.666   1.525 -0.0990 -0.4158 -0.6495
 6050TIP3    H218157   5.720   2.660   1.670  1.1292 -1.7232 -1.0662
 6051TIP3   OH218158   1.820   4.044   3.685  0.2721  0.2034  0.6331
 6051TIP3    H118159   1.853   4.023   3.772  1.7635  1.9319  0.5517
 6051TIP3    H218160   1.895   4.082   3.639 -1.0367  1.3682 -0.6690
 6052TIP3   OH218161   6.140   1.300   2.988  0.0205  0.8714 -0.5545
 6052TIP3    H118162   6.229   1.336   2.989  1.5550 -2.3784 -2.3359
 6052TIP3    H218163   6.091   1.358   2.931  1.4754  1.8378 -0.8796
 6053TIP3   OH218164   1.331   3.437   2.188  0.3383  0.3413 -0.1756
 6053TIP3    H118165   1.250   3.388   2.204  0.1042  0.5710 -0.6345
 6053TIP3    H218166   1.338   3.495   2.264 -0.6968  1.3248 -0.7965
 6054TIP3   OH218167   5.437   0.335   1.084  0.4406 -0.5942  0.4096
 6054TIP3    H118168   5.502   0.385   1.036  0.5647 -0.8772  0.2795
 6054TIP3    H218169   5.417   0.388   1.161  0.3117 -0.1843  0.0964
 6055TIP3   OH218170   0.360   1.584   2.306  0.0190  0.5695  0.7370
 6055TIP3    H118171   0.421   1.656   2.322  1.0607  0.4149 -2.0160
 6055TIP3    H218172   0.290   1.623   2.255 -0.8624  0.1879  1.6366
 6056TIP3   OH218173   5.447   0.457   4.897  0.5917  0.6097  0.1202
 6056TIP3    H118174   5.435   0.372   4.937  2.7778 -0.0717 -0.4951
 6056TIP3    H218175   5.396   0.454   4.816  0.4838 -0.0325  0.2142
 6057TIP3   OH218176   0.622   4.227   1.009 -0.1855  0.9572 -0.1987
 6057TIP3    H118177   0.639   4.160   1.074  0.0871  1.8072  0.6304
 6057TIP3    H218178   0.688   4.212   0.941  0.5827  1.0437  0.5100
 6058TIP3   OH218179   3.762   0.235   4.209 -0.4101  0.4418 -0.7184
 6058TIP3    H118180   3.729   0.166   4.152  0.7920 -0.0817 -0.8088
 6058TIP3    H218181   3.719   0.314   4.179 -2.3987 -0.3543 -0.1384
 6059TIP3   OH218182   1.510   4.907   0.048  0.1445  0.2723  0.0027
 6059TIP3    H118183   1.605   4.919   0.052  0.5729 -2.4200 -0.2084
 6059TIP3    H218184   1.485   4.943  -0.037  1.4884 -1.4600 -1.2173
 6060TIP3   OH218185   5.420   5.372   2.990  0.5388  0.1378  0.9148
 6060TIP3    H118186   5.503   5.412   3.017  0.6937  0.5096 -0.0810
 6060TIP3    H218187   5.354   5.420   3.041  0.5743  2.7873 -1.3029
 6061TIP3   OH218188   0.918   1.499   2.309 -0.2562  0.3848  0.1243
 6061TIP3    H118189   0.990   1.551   2.272 -0.9718 -0.2909 -2.4297
 6061TIP3    H218190   0.841   1.524   2.257 -0.8666 -2.3398 -0.4116
 6062TIP3   OH218191   1.421   2.844   3.619  0.4608  0.1684 -0.2421
 6062TIP3    H118192   1.376   2.761   3.634  1.6547 -0.1546  2.0764
 6062TIP3    H218193   1.513   2.819   3.607  0.7321  1.1111 -0.2066
 6063TIP3   OH218194   4.974   4.716   4.271  0.3957 -0.4953  0.0563
 6063TIP3    H118195   4.913   4.674   4.331  0.0481  0.6417  0.5346
 6063TIP3    H218196   4.966   4.667   4.190  1.0546 -2.2163  0.9834
 6064TIP3   OH218197   0.009   5.923   2.853  0.1655 -0.4363  0.0090
 6064TIP3    H118198   0.082   5.948   2.796  1.4853  3.4407  2.9720
 6064TIP3    H218199  -0.069   5.943   2.802  1.2126  0.1824 -1.4301
 6065TIP3   OH218200   3.037   1.001   3.106  0.0061  0.3450  0.0201
 6065TIP3    H118201   2.988   1.079   3.130  0.7977  1.9554 -3.0601
 6065TIP3    H218202   3.112   1.034   3.056  0.1675 -2.3528 -1.7808
 6066TIP3   OH218203   1.844   3.201   2.608  0.0588 -0.6190  0.3892
 6066TIP3    H118204   1.794   3.174   2.685 -1.4273 -0.6605 -0.5456
 6066TIP3    H218205   1.930   3.159   2.619 -0.1971 -0.7922  1.8976
 6067TIP3   OH218206   2.837   1.287   2.489  0.1907 -0.3053  0.0039
 6067TIP3    H118207   2.756   1.258   2.532  0.2846 -0.8527 -0.1838
 6067TIP3    H218208   2.879   1.344   2.554 -1.2497  1.5443 -0.5926
 6068TIP3   OH218209   4.825   4.433   1.465  0.3063 -0.2508 -0.0065
 6068TIP3    H118210   4.772   4.365   1.423  1.7943 -0.9816 -0.8237
 6068TIP3    H218211   4.774   4.513   1.456 -1.9098 -1.3674  1.7688
 6069TIP3   OH218212   2.011   3.376   4.193 -0.3695 -0.4490 -0.4338
 6069TIP3    H118213   1.931   3.374   4.246  0.4879  0.8699  0.9726
 6069TIP3    H218214   2.008   3.294   4.143 -0.5900 -2.4517  2.6102
 6070TIP3   OH218215   1.068   3.377   2.846 -0.0410  0.0665  0.1370
 6070TIP3    H118216   1.092   3.461   2.886 -0.8594  1.3867 -1.9604
 6070TIP3    H218217   1.150   3.327   2.846  0.3975  0.7111  1.7177
 6071TIP3   OH218218   5.080   0.851   5.050 -0.0676  1.4151 -0.0825
 6071TIP3    H118219   5.043   0.820   5.132 -1.6458  2.8288 -0.2108
 6071TIP3    H218220   5.006   0.856   4.990  0.7505  2.0138 -1.0882
 6072TIP3   OH218221   0.543   4.298   2.323  0.0207 -0.0783  0.0386
 6072TIP3    H118222   0.620   4.353   2.306  0.0014  0.4561  1.5344
 6072TIP3    H218223   0.532   4.301   2.418 -2.0643  0.1625 -0.1646
 6073TIP3   OH218224   0.815   2.170   4.005 -0.0649  0.0595  0.2086
 6073TIP3    H118225   0.894   2.224   4.015 -0.8335  1.0775  0.8796
 6073TIP3    H218226   0.827   2.098   4.068  0.7559 -0.3377 -0.3747
 6074TIP3   OH218227   4.316   4.648   1.985  0.3537 -0.1333 -0.2456
 6074TIP3    H118228   4.394   4.643   2.039  0.8964 -4.2239 -1.0601
 6074TIP3    H218229   4.252   4.594   2.030 -0.1879 -1.1665 -2.1416
 6075TIP3   OH218230   3.493   4.543   2.498 -0.6913 -0.3204 -0.5845
 6075TIP3    H118231   3.432   4.489   2.449  0.0335 -1.9254  0.2234
 6075TIP3    H218232   3.469   4.530   2.590  0.7425 -0.8654 -0.2605
 6076TIP3   OH218233   6.342   4.622   4.811  0.7699  0.0346 -0.4635
 6076TIP3    H118234   6.383   4.658   4.889  0.8404 -2.0908  0.5470
 6076TIP3    H218235   6.248   4.630   4.828  0.7820  0.3320 -0.5356
 6077TIP3   OH218236   0.979   2.603   0.743  0.3245  0.2912  0.3014
 6077TIP3    H118237   1.061   2.557   0.760  0.1246  0.7529  2.8561
 6077TIP3    H218238   1.005   2.686   0.703  1.0544  0.2185  0.6260
 6078TIP3   OH218239   1.288   4.251   0.022 -0.1693 -0.6464  0.1763
 6078TIP3    H118240   1.304   4.296   0.105 -0.3609 -0.9771  0.3950
 6078TIP3    H218241   1.354   4.181   0.020  0.6042  0.0826 -0.4988
 6079TIP3   OH218242   5.637   5.694   4.312 -0.8500 -0.0409 -0.4935
 6079TIP3    H118243   5.719   5.725   4.351 -0.5721  2.0263 -2.5388
 6079TIP3    H218244   5.571   5.710   4.380  0.2768 -1.1811  0.9551
 6080TIP3   OH218245   4.450   1.781   0.388 -0.0189  0.3482  0.1829
 6080TIP3    H118246   4.383   1.805   0.452  1.4659 -1.8643  2.7741
 6080TIP3    H218247   4.533   1.793   0.433  1.0592 -2.5522 -0.7349
 6081TIP3   OH218248   1.965   3.007   4.901  0.0235 -0.0875 -0.1904
 6081TIP3    H118249   1.943   2.915   4.893 -0.5130 -0.0371  0.5300
 6081TIP3    H218250   1.939   3.046   4.818 -0.2100 -0.4932 -0.3076
 6082TIP3   OH218251   0.662   3.963   1.772  0.0795 -0.8068  0.4430
 6082TIP3    H118252   0.600   3.892   1.788 -0.8341  0.0645  0.9299
 6082TIP3    H218253   0.741   3.937   1.820 -0.2246 -1.5132  0.5760
 6083TIP3   OH218254   0.608   3.196   0.689  0.5628 -0.6882  0.2208
 6083TIP3    H118255   0.629   3.103   0.701  0.7497 -0.5937  0.6461
 6083TIP3    H218256   0.635   3.237   0.771 -0.4133 -0.4070  0.4075
 6084TIP3   OH218257   3.175   0.105   3.346  0.2156  0.8416  0.5560
 6084TIP3    H118258   3.199   0.090   3.438  2.3249 -0.3757 -0.1208
 6084TIP3    H218259   3.212   0.191   3.326  0.4825  0.7476  0.6334
 6085TIP3   OH218260   5.276   2.654   2.555 -0.3377  0.1000 -0.7799
 6085TIP3    H118261   5.358   2.677   2.600 -2.0225  0.8830  2.1815
 6085TIP3    H218262   5.245   2.577   2.603 -1.7058  0.2972 -1.3274
 6086TIP3   OH218263   5.054   0.606   0.893 -0.1952  0.3223 -0.2127
 6086TIP3    H118264   4.973   0.593   0.941  1.2784  0.2760  2.4302
 6086TIP3    H218265   5.101   0.523   0.901  1.3304  1.2411  0.8578
 6087TIP3   OH218266   1.951   3.492   5.067 -0.1059  0.0682  0.6290
 6087TIP3    H118267   1.940   3.455   5.154 -0.4502  1.8351  1.3765
 6087TIP3    H218268   1.873   3.545   5.053  1.3567  2.3484  0.5859
 6088TIP3   OH218269   4.512   1.393   3.538  0.6738  0.5818 -0.3927
 6088TIP3    H118270   4.594   1.371   3.495  1.1948  1.2025  0.2436
 6088TIP3    H218271   4.447   1.336   3.498  0.9861  1.5594 -2.4418
 6089TIP3   OH218272   5.433   4.826   0.174  0.0995 -0.1999  0.3993
 6089TIP3    H118273   5.418   4.894   0.240 -0.5831 -0.1620  0.2188
 6089TIP3    H218274   5.366   4.842   0.108  1.5111  0.5064 -0.9249
 6090TIP3   OH218275   0.772   5.669   0.369  0.1453 -0.4760 -0.1539
 6090TIP3    H118276   0.835   5.691   0.300  2.0745 -1.0587  1.3175
 6090TIP3    H218277   0.782   5.575   0.382  0.2113 -0.2968  1.2637
 6091TIP3   OH218278   5.129   5.506   4.964 -0.3245  0.2614 -0.3782
 6091TIP3    H118279   5.142   5.466   5.050  1.2498 -0.3581 -0.8714
 6091TIP3    H218280   5.081   5.587   4.983 -1.1741 -0.5003  0.9227
 6092TIP3   OH218281   0.303   1.422   0.403 -0.0159 -0.1483 -0.4593
 6092TIP3    H118282   0.281   1.499   0.456 -0.3884 -0.8815  0.4841
 6092TIP3    H218283   0.218   1.387   0.375  0.1709  0.1110 -1.3875
 6093TIP3   OH218284   4.952   3.988   4.189 -0.2477 -0.2633 -0.1887
 6093TIP3    H118285   4.923   4.057   4.248 -0.6903 -1.3090  0.8520
 6093TIP3    H218286   4.876   3.931   4.179 -0.2847  0.0473 -2.0520
 6094TIP3   OH218287   3.229   1.906   4.791  0.2480  0.0189 -0.1879
 6094TIP3    H118288   3.218   1.958   4.870 -0.7628 -0.7086  0.1760
 6094TIP3    H218289   3.243   1.817   4.824  1.9964  0.0282 -0.7897
 6095TIP3   OH218290   5.983   5.515   1.160  0.2030 -0.0537  0.2271
 6095TIP3    H118291   5.917   5.572   1.121  0.1737 -0.4287 -0.2848
 6095TIP3    H218292   5.950   5.497   1.248  0.1599  0.6205  0.3555
 6096TIP3   OH218293   4.106   4.162   2.584  0.3978  0.1082 -0.0749
 6096TIP3    H118294   4.029   4.160   2.527 -1.8721 -0.2307  2.7879
 6096TIP3    H218295   4.112   4.252   2.613  2.0988  0.4843 -1.4144
 6097TIP3   OH218296   1.453   4.102   1.317 -0.5516 -0.2455 -0.3091
 6097TIP3    H118297   1.365   4.074   1.293  0.0025 -1.4679 -0.9853
 6097TIP3    H218298   1.511   4.052   1.259  0.6316 -0.1666  0.7640
 6098TIP3   OH218299   5.554   3.574   1.553 -0.1739 -0.6796 -0.4144
 6098TIP3    H118300   5.535   3.514   1.481 -0.5512  1.0523 -1.8365
 6098TIP3    H218301   5.468   3.603   1.583 -0.0019 -1.0590  0.4531
 6099TIP3   OH218302   0.477   3.507   4.850  0.4728  0.6659  0.5196
 6099TIP3    H118303   0.436   3.499   4.936  0.7146 -0.2265  0.5582
 6099TIP3    H218304   0.403   3.523   4.790  0.2186  0.5261  0.7916
 6100TIP3   OH218305   4.276   3.931   1.583 -0.3970  0.5914  0.3146
 6100TIP3    H118306   4.344   3.883   1.631 -2.5485 -1.9168  1.0588
 6100TIP3    H218307   4.239   3.991   1.648  0.0606  0.8758  0.3220
 6101TIP3   OH218308   4.861   0.096   1.300 -0.0677 -0.7479  0.1701
 6101TIP3    H118309   4.830   0.067   1.215  0.2167 -2.7050  0.6784
 6101TIP3    H218310   4.831   0.028   1.361 -0.6590  0.8177  1.7122
 6102TIP3   OH218311   1.613   1.764   0.545 -0.7179 -0.1516 -0.7599
 6102TIP3    H118312   1.558   1.802   0.477 -1.5046 -0.3486 -0.2536
 6102TIP3    H218313   1.561   1.773   0.625  1.2837  2.6065  0.3780
 6103TIP3   OH218314   3.746   3.769   0.158  0.0194 -0.0798  0.2814
 6103TIP3    H118315   3.727   3.698   0.096 -1.0994  1.3379 -1.0872
 6103TIP3    H218316   3.834   3.798   0.136 -0.3896  0.4474 -0.7260
 6104TIP3   OH218317   2.757   0.921   4.904  0.0630  0.1814  0.3149
 6104TIP3    H118318   2.783   0.907   4.995 -0.2979 -2.6998  0.0694
 6104TIP3    H218319   2.839   0.929   4.856  0.3801 -1.4632  0.5242
 6105TIP3   OH218320   3.432   0.196   4.651  0.4121  0.1817 -0.3064
 6105TIP3    H118321   3.390   0.239   4.577  0.9652  0.8852 -0.2252
 6105TIP3    H218322   3.490   0.263   4.688  0.7530 -0.4137  0.2623
 6106TIP3   OH218323   4.830   0.854   4.891 -0.2072 -0.5609 -0.1086
 6106TIP3    H118324   4.794   0.776   4.933  1.5026 -0.3836  1.8228
 6106TIP3    H218325   4.842   0.828   4.800 -0.7653 -2.1470  0.2336
 6107TIP3   OH218326   2.894   5.809   1.419 -0.2734 -0.0705  0.0367
 6107TIP3    H118327   2.801   5.809   1.443 -0.2954 -0.6099 -0.0402
 6107TIP3    H218328   2.902   5.881   1.355 -0.9076 -0.8715 -0.9787
 6108TIP3   OH218329   2.919   4.227   3.758 -0.2032 -0.2192  0.1747
 6108TIP3    H118330   2.911   4.167   3.832 -0.4145  0.1847  0.4812
 6108TIP3    H218331   2.846   4.205   3.700 -1.0049  0.5381  0.8650
 6109TIP3   OH218332   5.253   0.343   3.899 -0.1064  0.3520 -0.0514
 6109TIP3    H118333   5.229   0.384   3.816 -0.9041  3.0302  1.4059
 6109TIP3    H218334   5.347   0.358   3.908 -0.1203  0.5361 -0.2189
 6110TIP3   OH218335   0.863   4.422   3.889 -0.6211 -0.5847 -0.3617
 6110TIP3    H118336   0.904   4.503   3.919 -1.7435  0.0848 -0.5728
 6110TIP3    H218337   0.872   4.362   3.962  1.4612 -0.7460 -0.7074
 6111TIP3   OH218338   0.602   3.653   2.710  0.0384 -0.1591  0.2557
 6111TIP3    H118339   0.549   3.588   2.664 -0.1569 -0.5155  0.9585
 6111TIP3    H218340   0.545   3.684   2.780  1.0368 -1.2288  1.6027
 6112TIP3   OH218341   5.013   3.935   0.897  0.1684 -0.4504 -0.4154
 6112TIP3    H118342   5.081   3.870   0.878  0.4210 -0.3339  0.0682
 6112TIP3    H218343   4.932   3.893   0.871  0.4463 -0.5033 -1.2202
 6113TIP3   OH218344   3.714   0.856   3.849 -0.2391 -0.3749  0.0305
 6113TIP3    H118345   3.710   0.886   3.758  1.9171 -1.5563 -0.5359
 6113TIP3    H218346   3.631   0.810   3.864 -2.3086  3.0462 -0.0243
 6114TIP3   OH218347   2.540   2.169   1.438  0.1306  0.2936  0.3190
 6114TIP3    H118348   2.495   2.166   1.522  1.3063  0.6690  0.9968
 6114TIP3    H218349   2.631   2.189   1.461  0.8449 -1.3305 -0.9083
 6115TIP3   OH218350   4.539   2.743   1.586  0.8228  0.3066 -0.2873
 6115TIP3    H118351   4.513   2.801   1.515 -0.5898  1.0981  0.8114
 6115TIP3    H218352   4.592   2.798   1.643  0.7136  0.1062  0.0102
 6116TIP3   OH218353   2.566   4.211   2.129 -0.5564 -0.0082  0.0588
 6116TIP3    H118354   2.623   4.137   2.145 -1.0266 -0.2307  0.7225
 6116TIP3    H218355   2.513   4.185   2.053 -0.4203 -0.1676  0.0194
 6117TIP3   OH218356   3.773   4.149   3.573  0.4278  0.1431 -0.1076
 6117TIP3    H118357   3.751   4.233   3.614  1.5937  0.8044 -0.8096
 6117TIP3    H218358   3.852   4.120   3.618  0.3904 -0.2697 -0.3030
 6118TIP3   OH218359   3.889   4.743   0.072  0.1787 -0.4567  0.6191
 6118TIP3    H118360   3.945   4.690   0.015  1.0838  3.6063 -2.7657
 6118TIP3    H218361   3.949   4.780   0.136  1.0017  1.5662 -1.1936
 6119TIP3   OH218362   0.553   3.631   2.374 -0.5803 -0.2261  0.4781
 6119TIP3    H118363   0.544   3.539   2.349  1.4457 -0.6531  1.1381
 6119TIP3    H218364   0.551   3.679   2.291 -0.6877 -0.9425  0.0538
 6120TIP3   OH218365   4.513   0.147   0.598  0.0992  0.1534 -0.4029
 6120TIP3    H118366   4.541   0.073   0.652 -1.5656 -0.9432 -0.9713
 6120TIP3    H218367   4.535   0.121   0.509 -4.9159 -2.1386 -1.3293
 6121TIP3   OH218368   4.148   1.620   2.304  0.5532  0.4107 -0.5890
 6121TIP3    H118369   4.159   1.526   2.291  0.6466  0.3902 -0.3560
 6121TIP3    H218370   4.063   1.640   2.265  0.1766  0.0982  0.0662
 6122TIP3   OH218371   0.281   4.451   4.230  0.5982  0.1123 -0.3414
 6122TIP3    H118372   0.277   4.413   4.318 -0.0743  0.7114 -0.0983
 6122TIP3    H218373   0.302   4.543   4.245 -0.1450  0.3601 -0.7565
 6123TIP3   OH218374   3.052   0.752   1.202  0.0452 -0.3101 -0.0303
 6123TIP3    H118375   3.013   0.836   1.176  0.6858 -0.0572 -0.1928
 6123TIP3    H218376   3.011   0.732   1.287  0.0491  0.2743  0.1162
 6124TIP3   OH218377   2.360   4.690   0.465 -0.4405 -0.4185 -0.5864
 6124TIP3    H118378   2.405   4.775   0.461  0.7455 -0.8851  1.5674
 6124TIP3    H218379   2.311   4.693   0.547 -1.4761 -1.3524 -1.1421
 6125TIP3   OH218380   3.255   5.608   2.367  0.0802 -0.0580 -0.3893
 6125TIP3    H118381   3.305   5.686   2.392 -0.5199 -0.1037  1.0227
 6125TIP3    H218382   3.300   5.535   2.410 -0.5012 -0.2411 -0.0780
 6126TIP3   OH218383   6.239   5.266   1.843  0.2484  0.1376  0.2034
 6126TIP3    H118384   6.236   5.357   1.817 -0.0967  0.0263 -0.1585
 6126TIP3    H218385   6.160   5.227   1.805  0.8170 -0.5011 -0.3583
 6127TIP3   OH218386   0.704   5.894   4.598  0.2292 -0.2235 -0.0034
 6127TIP3    H118387   0.677   5.895   4.690 -0.3418 -1.4135 -0.1449
 6127TIP3    H218388   0.666   5.814   4.562  1.0497 -0.1459 -1.1017
 6128TIP3   OH218389   5.266   1.182   3.411 -0.7673  0.1212  0.4888
 6128TIP3    H118390   5.307   1.267   3.395 -0.2435  0.1224  1.6881
 6128TIP3    H218391   5.257   1.143   3.324 -0.2177  1.0390  0.0020
 6129TIP3   OH218392   2.282   1.694   3.905 -0.4673 -0.2529  0.0167
 6129TIP3    H118393   2.230   1.691   3.825 -1.0263  0.0590  0.3594
 6129TIP3    H218394   2.228   1.745   3.966  0.0493 -0.3023  0.5181
 6130TIP3   OH218395   1.024   5.269   1.462  0.2603 -0.6144  0.4278
 6130TIP3    H118396   1.060   5.330   1.526 -2.7973 -0.3434  2.0844
 6130TIP3    H218397   0.933   5.296   1.452 -0.0487 -2.2822 -2.1371
 6131TIP3   OH218398   1.941   4.260   3.878 -0.1943 -0.4856  1.2218
 6131TIP3    H118399   1.901   4.340   3.912 -0.3198 -0.5877  1.3167
 6131TIP3    H218400   1.985   4.221   3.954  0.4831 -0.1350  1.0157
 6132TIP3   OH218401   4.162   3.489   3.963  0.2610  0.6350  0.3246
 6132TIP3    H118402   4.254   3.469   3.980  0.3662  1.3153  0.5761
 6132TIP3    H218403   4.116   3.408   3.985  0.9221 -0.1427 -1.0645
 6133TIP3   OH218404   4.699   3.223   1.957  0.1383  0.6923  0.1271
 6133TIP3    H118405   4.722   3.165   2.029 -2.0987  0.0989  0.4421
 6133TIP3    H218406   4.707   3.311   1.993  2.2363  0.6008  0.0463
 6134TIP3   OH218407   0.134   4.190   0.469 -0.0510  0.5012 -0.2118
 6134TIP3    H118408   0.193   4.120   0.443  0.8696  0.6183  1.3989
 6134TIP3    H218409   0.191   4.264   0.490 -0.7901  0.8449  0.7013
 6135TIP3   OH218410   0.233   4.341   3.224 -0.3818  0.7778  0.3698
 6135TIP3    H118411   0.275   4.310   3.305 -0.4727  1.3818  0.6533
 6135TIP3    H218412   0.147   4.373   3.252 -1.2773 -0.9289 -0.2867
 6136TIP3   OH218413   5.913   1.361   1.916 -0.0957 -0.0886 -0.2630
 6136TIP3    H118414   5.846   1.383   1.980 -0.3700  0.2729 -0.6674
 6136TIP3    H218415   5.891   1.272   1.888 -1.0465  0.4160 -1.1739
 6137TIP3   OH218416   1.001   0.965   3.234 -0.0449 -0.3328  0.0679
 6137TIP3    H118417   0.941   0.969   3.309 -1.4281  0.3224 -1.0376
 6137TIP3    H218418   1.063   0.896   3.258 -1.4908 -1.3567  1.0824
 6138TIP3   OH218419   5.106   2.735   1.654 -0.0923  0.0282  0.4503
 6138TIP3    H118420   5.140   2.776   1.574  0.2407 -0.8118  0.1495
 6138TIP3    H218421   5.100   2.807   1.717 -1.1306  0.8716 -0.5638
 6139TIP3   OH218422   1.822   3.825   1.258  0.3458 -0.5101  0.0133
 6139TIP3    H118423   1.806   3.739   1.220  1.4694  0.0468 -1.8333
 6139TIP3    H218424   1.767   3.885   1.207 -1.3465 -0.2090  2.0422
 6140TIP3   OH218425   5.586   3.450   2.488 -0.3734 -0.3199 -0.0928
 6140TIP3    H118426   5.632   3.475   2.569 -1.1001  0.0317  0.2258
 6140TIP3    H218427   5.623   3.365   2.465 -0.7286 -0.8234  1.0776
 6141TIP3   OH218428   3.884   4.523   1.919 -0.6950  0.7459  0.1260
 6141TIP3    H118429   3.832   4.559   1.991 -2.9367 -2.0350  0.0920
 6141TIP3    H218430   3.864   4.580   1.845  0.5591  2.8301  1.2923
 6142TIP3   OH218431   3.501   4.542   1.513 -0.6965 -0.4053  0.2336
 6142TIP3    H118432   3.478   4.460   1.557 -3.8194  0.2799  0.1057
 6142TIP3    H218433   3.577   4.520   1.460 -0.8343 -2.9496  0.9599
 6143TIP3   OH218434   0.375   2.254   1.914  0.4123  0.5127  0.0610
 6143TIP3    H118435   0.372   2.287   2.004  2.0519  0.4187  0.1797
 6143TIP3    H218436   0.442   2.308   1.871 -0.4191  0.6223 -1.1461
 6144TIP3   OH218437   5.310   4.667   3.229  0.0232  0.2036 -0.0448
 6144TIP3    H118438   5.394   4.654   3.273 -0.9309 -0.2415  1.7358
 6144TIP3    H218439   5.310   4.759   3.202  0.3409  0.6935  1.5691
 6145TIP3   OH218440   3.358   0.514   2.141  0.4792  0.3187 -0.1956
 6145TIP3    H118441   3.348   0.439   2.083  1.8075 -3.2684  3.6892
 6145TIP3    H218442   3.289   0.503   2.207  2.3330  0.8439  1.9670
 6146TIP3   OH218443   3.117   5.131   2.275  0.0203  0.2186  0.1985
 6146TIP3    H118444   3.045   5.191   2.292  0.3425  0.4269  0.8746
 6146TIP3    H218445   3.174   5.138   2.352  0.0424 -0.9880  0.3229
 6147TIP3   OH218446   0.803   3.345   4.354 -0.1932 -0.6928  0.3153
 6147TIP3    H118447   0.773   3.327   4.443 -1.0362 -0.7814  0.0233
 6147TIP3    H218448   0.732   3.396   4.315 -0.1675 -1.2845 -0.5370
 6148TIP3   OH218449   5.641   1.945   3.294  0.0299 -0.3001  0.2799
 6148TIP3    H118450   5.734   1.929   3.314  0.0715  0.3198  0.5925
 6148TIP3    H218451   5.631   2.040   3.300 -0.2799 -0.2090 -1.2708
 6149TIP3   OH218452   0.012   0.355   0.598 -0.2009 -0.3482 -0.2056
 6149TIP3    H118453   0.014   0.274   0.650  1.8167 -1.0062 -1.1981
 6149TIP3    H218454   0.023   0.425   0.662  2.0099 -1.1277  0.3629
 6150TIP3   OH218455   4.641   0.383   2.752 -0.5666  0.0709  0.5458
 6150TIP3    H118456   4.673   0.473   2.747 -1.5275  0.5029  1.7344
 6150TIP3    H218457   4.720   0.330   2.763  0.1077  0.6303 -1.2167
 6151TIP3   OH218458   4.846   4.542   0.247 -0.1837  0.2305 -0.5614
 6151TIP3    H118459   4.938   4.567   0.247  0.2705 -1.2922  0.1386
 6151TIP3    H218460   4.816   4.560   0.337 -0.0839 -0.8151 -0.3003
 6152TIP3   OH218461   5.803   2.947   1.323  0.0626  0.7394 -0.3299
 6152TIP3    H118462   5.729   2.915   1.272  1.3972 -0.4253 -1.6401
 6152TIP3    H218463   5.867   2.975   1.257  1.6363 -0.3150  0.6776
 6153TIP3   OH218464   0.053   3.865   4.521 -0.0634 -0.1774 -0.2698
 6153TIP3    H118465   0.058   3.857   4.616  0.3597 -1.8211 -0.4116
 6153TIP3    H218466   0.139   3.839   4.490 -0.4682 -0.5016 -1.1593
 6154TIP3   OH218467   0.950   5.874   4.443  0.5672  0.0405 -0.2938
 6154TIP3    H118468   0.869   5.896   4.490 -0.1640 -0.1843 -1.3994
 6154TIP3    H218469   0.959   5.780   4.456  2.1716  0.4476  2.0989
 6155TIP3   OH218470   0.703   4.745   2.544  0.4205  0.4988 -0.1721
 6155TIP3    H118471   0.616   4.707   2.546  0.2264  0.8026 -1.5003
 6155TIP3    H218472   0.708   4.788   2.458  2.1371 -0.1510 -0.4408
 6156TIP3   OH218473   1.885   1.454   4.398  0.2558  0.4351 -0.1633
 6156TIP3    H118474   1.873   1.536   4.445  1.3451  0.3738  0.2497
 6156TIP3    H218475   1.798   1.413   4.399  0.1044  0.7506  1.1958
 6157TIP3   OH218476   0.435   0.397   2.789 -0.2229 -0.6841  0.3289
 6157TIP3    H118477   0.359   0.348   2.818  1.7024 -3.5820  0.8905
 6157TIP3    H218478   0.489   0.334   2.742  1.0336  1.7091 -1.7010
 6158TIP3   OH218479   1.957   1.402   0.762 -0.3167  0.2119  0.4365
 6158TIP3    H118480   1.951   1.360   0.848 -1.8423 -0.2844  0.1165
 6158TIP3    H218481   1.891   1.357   0.709  1.8173 -0.7995 -1.5569
 6159TIP3   OH218482   4.372   3.651   0.096 -0.4082  0.0079 -0.5624
 6159TIP3    H118483   4.374   3.590   0.170 -0.8074  1.9152  1.1192
 6159TIP3    H218484   4.326   3.603   0.027  0.2170 -1.9425  0.2977
 6160TIP3   OH218485   1.993   4.222   3.385 -0.3402  0.8706  0.0253
 6160TIP3    H118486   2.047   4.176   3.449  1.2538  1.3417 -0.8968
 6160TIP3    H218487   1.903   4.197   3.405 -0.0679  2.1343  3.3413
 6161TIP3   OH218488   5.638   3.586   4.217 -0.3960 -0.3461  0.0113
 6161TIP3    H118489   5.620   3.524   4.146  0.8977  0.4796 -1.1150
 6161TIP3    H218490   5.555   3.631   4.232 -1.4516 -2.5334  1.1086
 6162TIP3   OH218491   4.347   0.916   1.941  0.2119  0.4733 -0.1139
 6162TIP3    H118492   4.273   0.879   1.990 -0.5304  0.9349 -0.8593
 6162TIP3    H218493   4.407   0.842   1.930  0.3422  0.3298  1.3617
 6163TIP3   OH218494   2.774   1.557   3.548 -0.0178 -0.2785  0.1114
 6163TIP3    H118495   2.707   1.560   3.616  1.1562 -0.1324  1.3074
 6163TIP3    H218496   2.801   1.465   3.545 -0.4300 -0.3820 -0.5344
 6164TIP3   OH218497   0.945   3.125   0.612  0.2252 -0.4450 -0.4941
 6164TIP3    H118498   1.040   3.134   0.619  0.2769  0.9967 -2.2741
 6164TIP3    H218499   0.933   3.035   0.579  0.9955 -0.5541 -0.5082
 6165TIP3   OH218500   2.248   3.451   1.306 -0.6125 -0.5670  0.8789
 6165TIP3    H118501   2.200   3.369   1.293 -1.3415 -0.0305 -0.0117
 6165TIP3    H218502   2.332   3.436   1.263 -1.1927 -0.4668 -0.3475
 6166TIP3   OH218503   3.700   4.527   1.338  0.2280  0.0300 -0.1852
 6166TIP3    H118504   3.791   4.501   1.354  1.1258  1.8188 -1.8857
 6166TIP3    H218505   3.704   4.623   1.331 -1.6058  0.0669 -1.3478
 6167TIP3   OH218506   4.004   2.831   3.309  0.0702 -0.5843 -0.0544
 6167TIP3    H118507   4.099   2.826   3.320 -0.1033 -0.0942  1.8623
 6167TIP3    H218508   3.988   2.920   3.280  0.0569 -0.0284  1.5764
 6168TIP3   OH218509   0.152   1.291   3.276  0.0081  0.3729 -0.3440
 6168TIP3    H118510   0.236   1.254   3.302 -0.5789  0.3850  1.6905
 6168TIP3    H218511   0.092   1.216   3.275 -0.1211  0.4745 -1.1284
 6169TIP3   OH218512   3.409   0.844   0.927  0.1084  0.5677 -0.2454
 6169TIP3    H118513   3.401   0.750   0.942 -1.0144  0.2448 -2.4250
 6169TIP3    H218514   3.364   0.859   0.843  0.8454  2.9391 -0.2968
 6170TIP3   OH218515   3.454   4.444   4.790  0.6792 -0.3817 -0.1908
 6170TIP3    H118516   3.462   4.533   4.824  0.4353  0.2949 -1.7857
 6170TIP3    H218517   3.412   4.395   4.860  0.3564  0.8754  0.5319
 6171TIP3   OH218518   0.304   2.276   4.571 -0.4037  0.0324 -0.3589
 6171TIP3    H118519   0.347   2.265   4.486  0.4049  0.0238  0.0326
 6171TIP3    H218520   0.349   2.213   4.628 -0.1979  0.7874  0.3310
 6172TIP3   OH218521   4.770   0.485   0.244 -0.5933 -0.0674  0.0306
 6172TIP3    H118522   4.778   0.491   0.149  0.4776 -0.9432  0.0435
 6172TIP3    H218523   4.762   0.392   0.262 -2.0546  0.1623  0.7369
 6173TIP3   OH218524   1.482   5.908   1.799 -0.3771 -0.0957 -0.2901
 6173TIP3    H118525   1.520   5.903   1.711 -0.7274 -0.3475 -0.4299
 6173TIP3    H218526   1.539   5.969   1.846  0.5521 -0.9209 -0.3106
 6174TIP3   OH218527   5.430   0.322   3.127  0.0212  0.4097 -0.0268
 6174TIP3    H118528   5.455   0.282   3.043 -0.2221 -0.1225  0.1491
 6174TIP3    H218529   5.342   0.288   3.144  0.0053  0.6440  0.3667
 6175TIP3   OH218530   5.716   3.014   2.828  0.2162  0.3871 -0.5199
 6175TIP3    H118531   5.759   2.979   2.750  0.2313  1.0114 -0.7924
 6175TIP3    H218532   5.784   3.065   2.872  0.5516 -0.8997  0.5270
 6176TIP3   OH218533   4.863   0.035   3.862 -0.0377 -0.7691  0.5077
 6176TIP3    H118534   4.781  -0.014   3.849 -0.3201 -0.1190 -0.2916
 6176TIP3    H218535   4.905  -0.007   3.937 -0.0573 -2.4981 -0.4038
 6177TIP3   OH218536   3.116   0.297   2.190 -0.0092  0.3831 -0.2773
 6177TIP3    H118537   3.153   0.238   2.125  2.5976 -0.8387  2.1539
 6177TIP3    H218538   3.061   0.241   2.245 -1.6479  1.2776 -0.9330
 6178TIP3   OH218539   2.653   2.730   4.734  0.1461  0.2577 -0.1669
 6178TIP3    H118540   2.586   2.672   4.699  0.4874 -0.2069 -0.0524
 6178TIP3    H218541   2.735   2.681   4.725  0.4182  0.6673  0.0467
 6179TIP3   OH218542   4.955   0.728   3.131  0.6259  0.3276 -0.3760
 6179TIP3    H118543   4.896   0.653   3.119  1.2889 -0.3608  0.5142
 6179TIP3    H218544   4.909   0.801   3.090 -0.2632 -0.4620 -0.8327
 6180TIP3   OH218545   0.836   4.131   3.295  0.1359 -0.3486  0.3313
 6180TIP3    H118546   0.883   4.211   3.318 -1.4010  1.0229 -0.9947
 6180TIP3    H218547   0.759   4.131   3.352 -0.7718  0.0758 -0.8603
 6181TIP3   OH218548   2.088   2.692   1.505  0.6158  0.6739 -0.1665
 6181TIP3    H118549   2.141   2.715   1.582  2.1930 -0.6474 -0.7975
 6181TIP3    H218550   2.150   2.689   1.433 -0.6371  0.7234 -1.2918
 6182TIP3   OH218551   2.961   4.726   1.650  0.5308  0.1396  0.7436
 6182TIP3    H118552   3.050   4.721   1.686 -0.1444 -1.7936  2.3315
 6182TIP3    H218553   2.936   4.818   1.662  1.3689  0.1562  2.8187
 6183TIP3   OH218554   1.274   5.275   4.220 -0.9842  0.5167  0.0935
 6183TIP3    H118555   1.328   5.340   4.266  1.3670 -0.7618 -0.7081
 6183TIP3    H218556   1.278   5.197   4.275 -4.0871  0.9978  1.2424
 6184TIP3   OH218557   1.384   1.047   3.942  0.7872  0.2830 -0.0851
 6184TIP3    H118558   1.325   0.980   3.909  1.5517  0.4258 -1.9144
 6184TIP3    H218559   1.330   1.101   3.999 -0.5713 -0.2332 -0.8350
 6185TIP3   OH218560   1.221   1.016   0.005  0.1151  0.3556 -0.0809
 6185TIP3    H118561   1.211   0.977   0.091  2.3450 -2.0336 -0.7698
 6185TIP3    H218562   1.224   0.941  -0.055 -0.4664  1.8892 -2.1465
 6186TIP3   OH218563   0.109   2.170   2.737  0.4229 -0.1339 -0.2497
 6186TIP3    H118564   0.030   2.215   2.767  0.5912  0.2465 -0.3693
 6186TIP3    H218565   0.078   2.107   2.672  0.0380 -1.0234  0.7494
 6187TIP3   OH218566   5.124   1.494   3.429  0.5489  0.1972 -0.2208
 6187TIP3    H118567   5.216   1.477   3.408  0.5576 -0.9883  0.6638
 6187TIP3    H218568   5.127   1.573   3.484  1.1140 -0.2045  0.3470
 6188TIP3   OH218569   2.956   3.262   2.850  0.1887 -0.4590 -0.3121
 6188TIP3    H118570   2.910   3.241   2.768 -0.2458  1.5831 -0.6284
 6188TIP3    H218571   2.934   3.353   2.867 -0.0389 -0.9438  2.3215
 6189TIP3   OH218572   0.161   2.987   4.638 -0.6133  0.1010  0.0193
 6189TIP3    H118573   0.152   2.893   4.652  0.0107 -0.3396 -2.1014
 6189TIP3    H218574   0.081   3.013   4.592  0.8923 -0.3139 -3.1134
 6190TIP3   OH218575   4.129   0.084   3.837 -0.1637 -0.5300  0.4863
 6190TIP3    H118576   4.151   0.063   3.746 -0.8377 -0.8183  0.3851
 6190TIP3    H218577   4.132   0.180   3.840 -2.3102 -0.3888 -0.4268
 6191TIP3   OH218578   4.226   3.811   4.601 -0.2334 -0.6107 -0.0057
 6191TIP3    H118579   4.248   3.725   4.636 -0.8888 -0.3444  1.0773
 6191TIP3    H218580   4.131   3.812   4.595 -0.1562 -0.7051 -1.9855
 6192TIP3   OH218581   3.051   3.672   4.834  0.1721 -0.1929 -0.2559
 6192TIP3    H118582   3.067   3.601   4.896 -2.2079 -0.2883  0.3608
 6192TIP3    H218583   3.039   3.628   4.749 -2.2329 -0.7287  0.2819
 6193TIP3   OH218584   5.443   0.350   2.837 -0.0327  0.1385  0.3039
 6193TIP3    H118585   5.490   0.296   2.774  1.2808 -0.1600  1.5016
 6193TIP3    H218586   5.472   0.439   2.818  0.1014  0.0894  0.2751
 6194TIP3   OH218587   4.877   4.907   2.447  0.3863 -0.4075 -0.5578
 6194TIP3    H118588   4.924   4.835   2.488  0.6313  0.4521  0.7501
 6194TIP3    H218589   4.827   4.867   2.375  0.6107 -1.8345  0.0604
 6195TIP3   OH218590   4.721   2.922   1.416 -0.0289 -0.2512  0.6048
 6195TIP3    H118591   4.783   2.889   1.351  0.9270  0.6026  1.0659
 6195TIP3    H218592   4.775   2.957   1.486 -1.0441 -0.1021  1.3377
 6196TIP3   OH218593   5.522   2.322   1.616 -0.1066 -0.4783 -0.6918
 6196TIP3    H118594   5.431   2.300   1.594 -0.4098 -0.6442  0.6633
 6196TIP3    H218595   5.518   2.354   1.706  1.3013 -1.3203 -0.3031
 6197TIP3   OH218596   0.791   3.490   2.019  0.1458  0.2026 -0.2280
 6197TIP3    H118597   0.853   3.523   2.084 -0.0277  1.8978 -0.8718
 6197TIP3    H218598   0.730   3.561   2.006 -1.0986 -0.9120 -0.6900
 6198TIP3   OH218599   5.617   0.666   2.154 -0.8416 -0.2097 -0.2853
 6198TIP3    H118600   5.553   0.736   2.169  1.8035  1.7661  2.9734
 6198TIP3    H218601   5.696   0.711   2.124  0.2481 -2.1131 -0.4159
 6199TIP3   OH218602   1.081   4.695   3.878 -0.2293  0.4674  0.5121
 6199TIP3    H118603   1.170   4.723   3.856  0.1886  0.0940  1.6679
 6199TIP3    H218604   1.084   4.675   3.971 -1.5922  0.6639  0.6225
 6200TIP3   OH218605   2.840   2.036   0.565 -0.2277  0.2048 -0.1268
 6200TIP3    H118606   2.747   2.021   0.550 -0.0781 -1.4844  0.4330
 6200TIP3    H218607   2.866   2.096   0.495 -1.7253  0.7087 -0.2855
 6201TIP3   OH218608   6.364   2.560   1.638  0.2205  0.0571  0.4770
 6201TIP3    H118609   6.281   2.534   1.598  0.7271  0.7889 -1.0992
 6201TIP3    H218610   6.351   2.544   1.732 -1.7894  0.3621  0.2942
 6202TIP3   OH218611   2.809   5.047   1.402  0.1741  0.2082  0.2772
 6202TIP3    H118612   2.724   5.016   1.371  0.6803 -0.3940 -0.5574
 6202TIP3    H218613   2.791   5.131   1.444 -0.6727  0.6023 -0.8475
 6203TIP3   OH218614   2.143   4.303   5.132 -0.0438  0.0361 -0.6050
 6203TIP3    H118615   2.181   4.390   5.146 -1.3520  0.7086 -1.0717
 6203TIP3    H218616   2.189   4.247   5.194  1.3263  0.9091 -0.7934
 6204TIP3   OH218617   0.535   3.039   2.333  0.0698  0.1141  0.5060
 6204TIP3    H118618   0.502   3.129   2.328 -3.0222 -0.9475 -0.2738
 6204TIP3    H218619   0.565   3.020   2.244  0.6862  0.3570  0.6609
 6205TIP3   OH218620   3.261   3.992   3.584  0.3889 -0.5575 -0.2324
 6205TIP3    H118621   3.256   3.912   3.531 -0.5456 -1.2600  0.8819
 6205TIP3    H218622   3.219   3.969   3.667 -0.4543  1.2664 -0.1046
 6206TIP3   OH218623   0.797   2.853  -0.031 -0.5633 -0.3418 -0.2433
 6206TIP3    H118624   0.883   2.852   0.011 -0.6499 -1.1196 -0.0719
 6206TIP3    H218625   0.735   2.832   0.039 -0.7999 -0.7326 -0.5661
 6207TIP3   OH218626   1.463   3.887   2.342  0.0716  0.0515  0.1305
 6207TIP3    H118627   1.463   3.928   2.256  0.9701 -1.7276 -0.7814
 6207TIP3    H218628   1.396   3.819   2.337  0.6464 -0.5679  0.5680
 6208TIP3   OH218629   1.134   5.074   2.927 -0.2799  0.2503 -0.1823
 6208TIP3    H118630   1.202   5.141   2.916  0.8606 -0.9106 -0.4732
 6208TIP3    H218631   1.053   5.123   2.939  0.4024  1.6785 -1.1773
 6209TIP3   OH218632   4.892   4.024   1.902 -0.2353 -0.1973  0.0433
 6209TIP3    H118633   4.940   3.979   1.833 -0.6539 -0.4596 -0.0861
 6209TIP3    H218634   4.882   4.114   1.871 -0.2418 -0.2635 -0.1454
 6210TIP3   OH218635   2.070   2.522   0.877  0.4565 -0.2085  0.1220
 6210TIP3    H118636   2.055   2.580   0.951 -1.9812 -0.2791 -0.2382
 6210TIP3    H218637   2.105   2.442   0.915 -0.5470 -0.1561  1.1758
 6211TIP3   OH218638   0.944   0.428   2.655  0.2807 -0.7552 -0.4574
 6211TIP3    H118639   0.854   0.398   2.647 -0.1801  0.6900 -0.9621
 6211TIP3    H218640   0.937   0.514   2.696  1.4591 -0.7809 -0.1661
 6212TIP3   OH218641   4.808   2.549   0.656 -0.2614 -0.5309 -0.3039
 6212TIP3    H118642   4.887   2.590   0.693 -1.2095  0.0946  1.1362
 6212TIP3    H218643   4.797   2.591   0.571 -0.2424  0.9879  0.4125
 6213TIP3   OH218644   3.594   3.182   0.265 -0.4604 -0.2567 -1.0186
 6213TIP3    H118645   3.572   3.102   0.218  1.8770 -0.0623 -2.6359
 6213TIP3    H218646   3.690   3.188   0.259 -0.3607  1.5387  0.9683
 6214TIP3   OH218647   0.537   0.417   0.155  0.3435 -0.0431  0.3664
 6214TIP3    H118648   0.526   0.510   0.176 -1.5353 -0.2670  0.4571
 6214TIP3    H218649   0.523   0.372   0.238  1.2316 -0.4354  0.3169
 6215TIP3   OH218650   5.148   4.654   4.762  0.0909  0.3012 -0.1449
 6215TIP3    H118651   5.094   4.705   4.702 -4.2387 -1.4098  1.8465
 6215TIP3    H218652   5.128   4.563   4.740  0.3403 -0.3864  2.1672
 6216TIP3   OH218653   5.587   0.130   0.289 -0.2363 -0.6719  0.8009
 6216TIP3    H118654   5.663   0.153   0.235 -0.8281 -2.3308 -0.8333
 6216TIP3    H218655   5.524   0.201   0.273  0.2430 -0.2707  0.6591
 6217TIP3   OH218656   3.830   3.275   1.469 -0.0321  0.2116 -0.1541
 6217TIP3    H118657   3.789   3.317   1.544 -0.6706 -0.1379 -0.3012
 6217TIP3    H218658   3.775   3.199   1.451  0.2211  0.1888 -0.8589
 6218TIP3   OH218659   2.815   0.752   2.364 -0.2582  0.4285 -0.3729
 6218TIP3    H118660   2.836   0.659   2.369 -0.9625  0.3033  0.6441
 6218TIP3    H218661   2.796   0.768   2.271  1.0992 -0.1487 -0.7675
 6219TIP3   OH218662   3.070   0.500   3.629  0.0519 -0.0039 -0.0273
 6219TIP3    H118663   3.029   0.537   3.552 -0.3986  0.5876  0.4925
 6219TIP3    H218664   3.112   0.420   3.597 -0.8325 -0.2063 -0.7170
 6220TIP3   OH218665   0.458   1.130   3.064 -0.1055  0.1132 -0.2145
 6220TIP3    H118666   0.450   1.207   3.007  1.9774  0.5699  0.0256
 6220TIP3    H218667   0.370   1.092   3.065 -0.2823  0.0383 -3.7684
 6221TIP3   OH218668   3.099   2.207   3.285  0.3324  0.3838  0.0916
 6221TIP3    H118669   3.091   2.177   3.195  2.6669 -0.3717  0.0524
 6221TIP3    H218670   3.101   2.126   3.337  0.0994  0.7653  0.7053
 6222TIP3   OH218671   4.362   0.052   1.707 -0.1282 -0.6797 -0.3288
 6222TIP3    H118672   4.316  -0.012   1.653  0.1452 -1.5197  0.4039
 6222TIP3    H218673   4.450   0.015   1.718 -0.5750 -1.2424  1.8203
 6223TIP3   OH218674   5.019   3.038   1.267  0.3079 -0.1382 -0.0707
 6223TIP3    H118675   5.020   3.116   1.212 -1.7039 -1.2131 -1.7862
 6223TIP3    H218676   5.051   2.968   1.209  1.8688 -0.6628  1.3651
 6224TIP3   OH218677   5.167   1.748   5.039 -0.0186 -0.3912 -0.0317
 6224TIP3    H118678   5.242   1.803   5.017 -0.9060  0.3308 -1.3944
 6224TIP3    H218679   5.186   1.715   5.126  1.8078 -0.1073 -0.2886
 6225TIP3   OH218680   1.506   3.113   5.076  0.1499 -0.3837  0.2987
 6225TIP3    H118681   1.536   3.138   5.164  0.5120  0.3014 -0.0086
 6225TIP3    H218682   1.584   3.122   5.021 -0.2903  0.0878 -0.2565
 6226TIP3   OH218683   1.610   0.573   3.024  0.2543 -0.2501  0.1307
 6226TIP3    H118684   1.557   0.565   3.103 -0.6088  0.1158 -0.4052
 6226TIP3    H218685   1.608   0.486   2.984 -0.1322 -0.1816 -0.0038
 6227TIP3   OH218686   4.693   2.439   1.391 -0.4195 -0.0281 -0.4262
 6227TIP3    H118687   4.727   2.506   1.450  1.6393 -0.1015 -1.4353
 6227TIP3    H218688   4.702   2.478   1.304 -1.5995 -0.6611 -0.8529
 6228TIP3   OH218689   6.077   0.050   1.206  0.0414 -0.4901  0.2358
 6228TIP3    H118690   6.143   0.119   1.211 -0.7689  0.3834 -0.5639
 6228TIP3    H218691   6.127  -0.031   1.199  1.1273  0.2876 -2.6292
 6229TIP3   OH218692   1.438   3.837   4.401  0.0026 -0.1043  0.2564
 6229TIP3    H118693   1.477   3.779   4.336  0.2221  0.9027 -0.5507
 6229TIP3    H218694   1.344   3.819   4.397 -0.0418  0.2962 -0.7120
 6230TIP3   OH218695   1.680   0.218   0.709 -0.1880 -0.6219  0.5917
 6230TIP3    H118696   1.597   0.201   0.753 -0.6798 -1.7661 -0.7115
 6230TIP3    H218697   1.684   0.314   0.702 -1.0976 -0.5262  1.2061
 6231TIP3   OH218698   6.327   0.236   3.258 -0.0152  0.2150  0.2115
 6231TIP3    H118699   6.303   0.291   3.183 -1.4018  2.3844  2.1014
 6231TIP3    H218700   6.377   0.164   3.220 -1.5281  0.6348 -2.9164
 6232TIP3   OH218701   3.556   2.519   1.034 -0.2101  0.4802 -0.2780
 6232TIP3    H118702   3.505   2.600   1.036 -1.4938 -0.2106 -2.0914
 6232TIP3    H218703   3.497   2.454   1.073 -0.7162 -0.2865 -2.2011
 6233TIP3   OH218704   3.268   4.490   2.982 -0.3903  0.1144  0.8200
 6233TIP3    H118705   3.197   4.542   2.944 -0.1987 -1.5974 -2.1826
 6233TIP3    H218706   3.223   4.418   3.026 -0.5669 -0.2782  0.0145
 6234TIP3   OH218707   0.188   0.639   2.469  0.0129  0.3365  0.2767
 6234TIP3    H118708   0.129   0.567   2.492  0.4019 -0.4719 -1.1102
 6234TIP3    H218709   0.156   0.671   2.385  0.5072  1.0641  0.3507
 6235TIP3   OH218710   2.689   3.702   0.240 -0.4590 -0.3629  0.4559
 6235TIP3    H118711   2.620   3.705   0.174  0.3326 -2.7010 -0.5918
 6235TIP3    H218712   2.670   3.623   0.291  1.4791 -1.1609  0.0329
 6236TIP3   OH218713   4.549   0.162   0.997 -0.1240  0.0380  0.4070
 6236TIP3    H118714   4.478   0.149   0.936 -0.2998 -2.4802  1.0303
 6236TIP3    H218715   4.598   0.237   0.963 -1.5399  0.1530 -1.4690
 6237TIP3   OH218716   4.910   1.360   2.645 -0.5990  0.2070  0.5537
 6237TIP3    H118717   4.880   1.417   2.715 -0.1677 -0.4490  1.2857
 6237TIP3    H218718   4.835   1.352   2.586 -0.7560  1.2766  0.5907
 6238TIP3   OH218719   4.893   4.840   3.483 -0.5093 -0.1833 -0.3291
 6238TIP3    H118720   4.864   4.883   3.564 -0.9714 -1.0308 -0.0350
 6238TIP3    H218721   4.981   4.807   3.504 -0.4773 -0.0823 -0.3009
 6239TIP3   OH218722   0.242   5.153   2.813  0.0136 -0.3396  0.5035
 6239TIP3    H118723   0.175   5.217   2.788  0.4248  0.6732  1.8891
 6239TIP3    H218724   0.232   5.083   2.749 -0.0168  1.3872 -1.5180
 6240TIP3   OH218725   2.653   0.087   0.372  0.3608 -0.0138 -0.2052
 6240TIP3    H118726   2.702   0.138   0.307  0.3314 -0.8567 -0.9056
 6240TIP3    H218727   2.588   0.039   0.320  0.6094 -1.0244  0.3953
 6241TIP3   OH218728   2.926   1.629   1.172  0.1471 -0.4064  0.3786
 6241TIP3    H118729   2.966   1.582   1.245 -1.1902 -0.6143  1.0274
 6241TIP3    H218730   2.949   1.578   1.094  1.5202 -0.2313  0.6574
 6242TIP3   OH218731   1.056   5.548   4.299  0.3026 -0.3414  0.0942
 6242TIP3    H118732   1.081   5.531   4.208 -2.2141  0.2433 -0.7857
 6242TIP3    H218733   1.035   5.462   4.335  2.0726 -0.6720  0.4232
 6243TIP3   OH218734   3.267   4.469   2.181 -0.3479  0.1290 -0.4004
 6243TIP3    H118735   3.261   4.412   2.257  1.3181  1.4606  0.8138
 6243TIP3    H218736   3.179   4.507   2.172  0.1378  2.6721  3.1936
 6244TIP3   OH218737   6.149   3.166   0.618 -0.4319 -0.5565 -0.0856
 6244TIP3    H118738   6.081   3.230   0.601  0.9678  0.6081 -1.6090
 6244TIP3    H218739   6.173   3.180   0.710 -0.8294  0.4188 -0.1178
 6245TIP3   OH218740   6.091   3.371   4.353 -0.1781  0.0343  0.2355
 6245TIP3    H118741   6.079   3.309   4.282  1.0393  0.3695 -0.3011
 6245TIP3    H218742   6.043   3.334   4.426 -1.4738 -0.3058 -0.7603
 6246TIP3   OH218743   5.929   4.050   0.179 -0.0931  0.3551  0.6310
 6246TIP3    H118744   5.986   4.105   0.125  0.7013 -0.3085  0.7672
 6246TIP3    H218745   5.918   4.100   0.260  0.1162  0.5863  0.5184
 6247TIP3   OH218746   5.761   3.591   1.725  0.1934  0.2375 -0.1914
 6247TIP3    H118747   5.685   3.601   1.667 -0.5813 -0.7530  0.6154
 6247TIP3    H218748   5.787   3.499   1.714 -0.2078 -0.0747  1.3121
 6248TIP3   OH218749   6.296   3.574   4.923  0.7912 -0.3080 -0.4980
 6248TIP3    H118750   6.366   3.575   4.988 -0.4318  0.5605  0.8516
 6248TIP3    H218751   6.301   3.659   4.880 -0.3625  0.4045  0.6895
 6249TIP3   OH218752   2.469   0.137   5.075 -0.1967  0.5413 -0.1259
 6249TIP3    H118753   2.479   0.191   5.153 -0.6605  1.4341 -0.6775
 6249TIP3    H218754   2.411   0.187   5.017  0.3269  0.0028 -1.1445
 6250TIP3   OH218755   3.934   3.478   5.008 -0.2462 -0.3415  0.3721
 6250TIP3    H118756   3.898   3.564   4.991  0.6687 -0.3232 -1.9551
 6250TIP3    H218757   3.999   3.491   5.076  3.3403  1.9233 -3.0685
 6251TIP3   OH218758   5.820   3.194   0.928 -0.4076  0.4602 -0.1332
 6251TIP3    H118759   5.830   3.104   0.959  2.1872  0.6123 -0.3076
 6251TIP3    H218760   5.772   3.186   0.846 -2.5150 -0.4599  1.0983
 6252TIP3   OH218761   5.325   0.530   4.627 -0.4721  0.4284 -0.1570
 6252TIP3    H118762   5.341   0.436   4.636 -0.8625  0.3351 -0.3908
 6252TIP3    H218763   5.305   0.542   4.534 -1.3797  0.5863  0.0495
 6253TIP3   OH218764   3.657   0.972   3.603  0.3533  0.6824 -0.3402
 6253TIP3    H118765   3.633   0.884   3.575  1.7349 -0.3246  1.4583
 6253TIP3    H218766   3.692   1.014   3.524 -1.2929  0.0439 -1.4756
 6254TIP3   OH218767   4.264   0.076   2.950 -0.2616 -0.2766 -0.6991
 6254TIP3    H118768   4.191   0.125   2.988  0.6383 -0.5331  1.5547
 6254TIP3    H218769   4.237  -0.015   2.955 -0.1792 -0.3030 -0.7308
 6255TIP3   OH218770   5.134   5.576   2.361  0.8652  0.0499 -0.0617
 6255TIP3    H118771   5.067   5.625   2.409  1.5378  1.5319 -0.5607
 6255TIP3    H218772   5.151   5.499   2.415 -0.2317  0.3581  0.7656
 6256TIP3   OH218773   3.246   0.718   3.356  0.3470  0.4599 -0.4080
 6256TIP3    H118774   3.232   0.737   3.449  0.6398  0.7417 -0.4164
 6256TIP3    H218775   3.160   0.694   3.323  0.3262 -0.0986  0.0362
 6257TIP3   OH218776   6.235   2.024   3.265  0.0771  0.2663  0.5017
 6257TIP3    H118777   6.228   1.989   3.176 -1.8020 -1.6185  1.3183
 6257TIP3    H218778   6.328   2.019   3.285  0.2824 -1.2348 -0.6402
 6258TIP3   OH218779   2.235   5.293   0.798  0.6205 -0.6558  0.9302
 6258TIP3    H118780   2.266   5.382   0.782  1.0710 -0.8745  0.5639
 6258TIP3    H218781   2.226   5.288   0.893 -0.6273  0.1720  0.8714
 6259TIP3   OH218782   1.884   4.950   0.912 -0.3810 -0.0843 -0.4550
 6259TIP3    H118783   1.914   5.023   0.857 -1.2930  1.4169  0.9397
 6259TIP3    H218784   1.920   4.970   0.998 -3.2071  0.4766  0.7125
 6260TIP3   OH218785   1.162   1.670   1.135  0.2900  0.1005  0.5615
 6260TIP3    H118786   1.185   1.761   1.120 -0.6269  0.1879 -0.4264
 6260TIP3    H218787   1.096   1.673   1.204 -0.6989  0.3145 -0.3703
 6261TIP3   OH218788   5.079   3.344   3.662 -0.4017  0.7576  0.3680
 6261TIP3    H118789   5.017   3.316   3.729 -0.8334  0.8507  0.0096
 6261TIP3    H218790   5.147   3.390   3.711  0.1715 -0.6380  0.9389
 6262TIP3   OH218791   5.463   2.697   1.731 -0.1430 -0.3204 -0.1478
 6262TIP3    H118792   5.451   2.775   1.784  0.4846 -0.8007  0.7299
 6262TIP3    H218793   5.388   2.642   1.752 -2.1916  1.1527 -2.9149
 6263TIP3   OH218794   2.228   4.680   0.692 -0.0501  0.3129 -0.0331
 6263TIP3    H118795   2.168   4.743   0.653  0.3060 -0.3612 -1.7428
 6263TIP3    H218796   2.205   4.596   0.652  1.9901  0.0267 -0.7390
 6264TIP3   OH218797   1.374   4.936   2.806  0.3284 -0.5807  0.5252
 6264TIP3    H118798   1.316   4.999   2.849  0.2208 -0.9997  0.9966
 6264TIP3    H218799   1.408   4.882   2.877 -0.0621 -1.4520  0.0547
 6265TIP3   OH218800   0.422   1.143   4.566 -0.1714  0.2471  0.5581
 6265TIP3    H118801   0.388   1.154   4.477  1.5995  0.9757 -0.0747
 6265TIP3    H218802   0.350   1.171   4.622 -1.2363  0.0208 -0.6448
 6266TIP3   OH218803   0.762   4.601   1.741  0.5849 -0.1862 -0.4273
 6266TIP3    H118804   0.771   4.506   1.748 -0.2782 -0.1811  1.1208
 6266TIP3    H218805   0.852   4.634   1.750  0.8105 -0.8092 -0.3460
 6267TIP3   OH218806   3.370   1.742   1.598 -0.4528  0.1702  0.2966
 6267TIP3    H118807   3.368   1.762   1.692 -0.1443  0.4635  0.2455
 6267TIP3    H218808   3.462   1.756   1.573 -0.1189 -1.7109  0.3381
 6268TIP3   OH218809   3.176   1.645   3.473 -0.3073 -0.0754 -0.3421
 6268TIP3    H118810   3.149   1.686   3.556  4.2256  2.9033 -0.0149
 6268TIP3    H218811   3.183   1.717   3.411  0.4158 -1.6173 -2.1570
 6269TIP3   OH218812   3.912   5.402   2.244 -0.0166 -0.0459 -0.1606
 6269TIP3    H118813   3.920   5.315   2.206  1.7411  0.6531 -1.5170
 6269TIP3    H218814   3.959   5.460   2.183 -3.1567  2.2764 -0.6564
 6270TIP3   OH218815   3.925   0.047   2.083  0.3277  0.0176  0.0740
 6270TIP3    H118816   4.000   0.050   2.024 -0.8386  1.5926 -1.4409
 6270TIP3    H218817   3.905  -0.046   2.093  2.3354 -0.4215  0.3759
 6271TIP3   OH218818   1.870   1.882   2.266  0.0919 -0.2079 -0.2791
 6271TIP3    H118819   1.894   1.859   2.176 -1.0222 -0.9254 -0.4128
 6271TIP3    H218820   1.786   1.926   2.257  0.2871  0.2989  0.3616
 6272TIP3   OH218821   4.017   2.819   0.449  0.1910  0.0803  0.0920
 6272TIP3    H118822   3.972   2.780   0.375  0.7738 -1.2944  0.4313
 6272TIP3    H218823   4.110   2.810   0.428  0.3496  0.3830  0.6371
 6273TIP3   OH218824   0.440   3.107   0.369  0.2174  0.0226 -1.0766
 6273TIP3    H118825   0.389   3.136   0.445  0.9871  0.0732 -0.5788
 6273TIP3    H218826   0.374   3.069   0.310 -0.2674 -0.9048  0.0176
 6274TIP3   OH218827   5.795   3.666   2.916 -0.2352 -0.6181  0.0959
 6274TIP3    H118828   5.845   3.591   2.947  0.2153 -0.7439 -0.8733
 6274TIP3    H218829   5.764   3.639   2.829  0.3042  0.4692 -0.4567
 6275TIP3   OH218830   3.211   4.834   2.432 -0.1829  0.1428  0.3277
 6275TIP3    H118831   3.142   4.813   2.495  0.3204  0.2982  0.9408
 6275TIP3    H218832   3.165   4.874   2.358 -0.8555 -0.6584  0.2987
 6276TIP3   OH218833   0.642   4.947   4.027  0.1016  0.0092 -0.0970
 6276TIP3    H118834   0.554   4.965   3.995  0.2716  0.0319 -0.5664
 6276TIP3    H218835   0.635   4.950   4.122 -0.1365  1.3010 -0.1369
 6277TIP3   OH218836   2.453   3.786   1.259 -0.4128 -0.4893 -0.0974
 6277TIP3    H118837   2.450   3.860   1.198 -1.3274  0.6610  1.2822
 6277TIP3    H218838   2.361   3.765   1.277 -0.1611 -1.5785  0.0074
 6278TIP3   OH218839   1.259   1.368   0.264  0.5552 -0.3595 -0.0835
 6278TIP3    H118840   1.195   1.389   0.196  0.7334  0.4845 -0.0032
 6278TIP3    H218841   1.239   1.278   0.289 -1.6216  0.3688  1.0338
 6279TIP3   OH218842   6.289   5.788   0.628  0.5113 -0.2522  0.1645
 6279TIP3    H118843   6.290   5.726   0.701 -0.4689  1.2041  1.4926
 6279TIP3    H218844   6.198   5.820   0.625  1.1211  1.5834 -0.0111
 6280TIP3   OH218845   3.974   3.195   4.430 -0.1248  0.1291  0.2835
 6280TIP3    H118846   3.953   3.104   4.454 -0.4057 -1.2123 -4.1840
 6280TIP3    H218847   3.897   3.226   4.383  0.5719  2.1815  0.3945
 6281TIP3   OH218848   3.766   0.870   1.389  0.5295 -0.4189 -0.3051
 6281TIP3    H118849   3.735   0.961   1.389  0.1336 -0.5523  0.3633
 6281TIP3    H218850   3.854   0.875   1.352  0.7903  0.3322  0.3912
 6282TIP3   OH218851   4.052   1.588   3.859 -0.6866 -0.4312 -0.1587
 6282TIP3    H118852   4.112   1.557   3.927 -0.6390  1.8056  0.9322
 6282TIP3    H218853   4.107   1.597   3.781  0.4919  1.5798  0.8255
 6283TIP3   OH218854   0.259   2.894   1.520 -0.1653  0.4214 -0.2178
 6283TIP3    H118855   0.260   2.805   1.484 -0.6383  0.0568  0.6538
 6283TIP3    H218856   0.181   2.897   1.575  0.8758  0.7467  1.3129
 6284TIP3   OH218857   4.302   2.976   2.239 -0.1514 -0.1623 -0.0088
 6284TIP3    H118858   4.376   2.988   2.178  1.6600 -2.0156  1.6786
 6284TIP3    H218859   4.285   3.064   2.273  1.4678  0.2875 -0.2614
 6285TIP3   OH218860   1.102   0.541   0.180 -0.1064 -0.0975 -0.0264
 6285TIP3    H118861   1.118   0.447   0.177  0.5699  0.0242 -0.3876
 6285TIP3    H218862   1.120   0.565   0.271 -0.4531 -0.3410  0.1093
 6286TIP3   OH218863   5.252   0.393   1.547 -0.1775  0.4182  0.4601
 6286TIP3    H118864   5.321   0.404   1.612  0.8456  2.1554 -0.8145
 6286TIP3    H218865   5.277   0.314   1.499  1.0283  1.0448 -0.0149
 6287TIP3   OH218866   0.119   0.854   0.070 -0.6236 -0.0375  0.4235
 6287TIP3    H118867   0.050   0.808   0.118 -1.0545 -1.1878 -1.2271
 6287TIP3    H218868   0.169   0.784   0.027  0.4821  0.8879  0.1542
 6288TIP3   OH218869   0.291   4.068   4.838  0.1965 -0.4617  0.4556
 6288TIP3    H118870   0.333   4.134   4.893 -1.1539  0.7522  0.1162
 6288TIP3    H218871   0.306   3.985   4.883 -2.0466  0.6090  3.5132
 6289TIP3   OH218872   5.394   1.274   2.809  0.1810  0.1190  0.1210
 6289TIP3    H118873   5.440   1.208   2.758  2.9751 -0.2586  2.8314
 6289TIP3    H218874   5.354   1.225   2.882  0.9697  1.1740  1.3089
 6290TIP3   OH218875   1.863   2.182   2.777 -0.2478 -1.0487  0.0229
 6290TIP3    H118876   1.917   2.107   2.753 -0.8276 -1.5903  0.3836
 6290TIP3    H218877   1.853   2.175   2.872 -0.9771 -0.9791 -0.0433
 6291TIP3   OH218878   1.664   3.161   4.838  0.3033  0.1680  0.4455
 6291TIP3    H118879   1.674   3.255   4.853  0.2624  0.5259 -1.4752
 6291TIP3    H218880   1.740   3.138   4.784 -1.3917 -0.1680 -1.9235
 6292TIP3   OH218881   3.979   1.755   1.709 -0.1216  0.3739 -0.1752
 6292TIP3    H118882   4.035   1.800   1.773 -1.1513  0.7545  0.4951
 6292TIP3    H218883   3.951   1.675   1.754 -0.4964  0.4294 -0.3041
 6293TIP3   OH218884   4.227   3.042   4.158 -0.3102  0.2596 -0.4354
 6293TIP3    H118885   4.164   3.023   4.228 -1.3810  0.0857 -1.4095
 6293TIP3    H218886   4.305   2.991   4.180 -1.1727 -0.9575 -0.1325
 6294TIP3   OH218887   1.948   4.490   3.055 -0.3440 -0.1712  0.3855
 6294TIP3    H118888   1.976   4.569   3.009  0.7156 -0.5561  0.3598
 6294TIP3    H218889   1.861   4.471   3.019 -0.9134  1.3510  0.8771
 6295TIP3   OH218890   6.042   2.719   4.895 -0.0982  0.4792 -0.0921
 6295TIP3    H118891   6.131   2.686   4.882  0.5800  2.0223  0.3735
 6295TIP3    H218892   6.010   2.738   4.807  0.5663  1.2188 -0.1805
 6296TIP3   OH218893   1.746   4.551   1.499 -0.5139  0.0090  0.0531
 6296TIP3    H118894   1.769   4.524   1.588 -0.3543  0.1251  0.0468
 6296TIP3    H218895   1.652   4.568   1.503 -1.2114 -3.1264 -0.5591
 6297TIP3   OH218896   5.025   2.419   2.887  0.1181  0.5514  0.2281
 6297TIP3    H118897   5.007   2.327   2.867 -0.3808  0.7775 -0.3992
 6297TIP3    H218898   4.947   2.466   2.857  0.8844  1.3161 -0.6187
 6298TIP3   OH218899   1.694   2.033   1.998 -0.0070  0.2046  0.2873
 6298TIP3    H118900   1.621   2.000   1.945  0.6914  1.2932 -1.4324
 6298TIP3    H218901   1.655   2.102   2.051 -0.4957 -0.1535  0.4055
 6299TIP3   OH218902   4.410   4.167   0.018 -0.0144 -0.1078  0.1539
 6299TIP3    H118903   4.408   4.114   0.098 -1.1242  1.7426  1.4393
 6299TIP3    H218904   4.322   4.159  -0.019  0.1896 -0.1644 -0.3227
 6300TIP3   OH218905   2.074   5.472   5.119  0.5030 -0.4733  0.1124
 6300TIP3    H118906   2.030   5.545   5.163 -0.7812 -0.4560 -1.1212
 6300TIP3    H218907   2.121   5.514   5.046  2.4128 -0.5230  1.2622
 6301TIP3   OH218908   2.735   0.841   2.716  0.0972  0.0957 -0.0475
 6301TIP3    H118909   2.788   0.829   2.795 -0.1755 -0.5135  0.0433
 6301TIP3    H218910   2.773   0.782   2.652 -0.0111  0.2021 -0.2104
 6302TIP3   OH218911   5.649   3.454   0.545  0.4618  0.5389 -0.2442
 6302TIP3    H118912   5.570   3.505   0.527 -0.0242 -1.0146 -3.3950
 6302TIP3    H218913   5.722   3.514   0.526 -0.0359  1.0037 -0.7265
 6303TIP3   OH218914   4.641   5.885   2.671 -0.2064 -0.0463  0.2866
 6303TIP3    H118915   4.548   5.892   2.692 -0.2506  2.0974 -0.4198
 6303TIP3    H218916   4.649   5.924   2.584  1.0741 -2.0629 -0.5901
 6304TIP3   OH218917   5.872   4.681   2.993 -0.4662  0.9695  0.0511
 6304TIP3    H118918   5.839   4.744   2.929 -0.6858  0.4416 -0.3646
 6304TIP3    H218919   5.872   4.598   2.946 -1.9672  0.2965  1.1564
 6305TIP3   OH218920   1.676   3.431   3.035  0.4653  0.2766  0.5063
 6305TIP3    H118921   1.670   3.499   2.968  0.9152 -1.4222 -1.3470
 6305TIP3    H218922   1.689   3.479   3.117 -2.4688  2.5323 -0.1898
 6306TIP3   OH218923   0.371   0.152   1.044 -0.0721 -0.2627 -0.5589
 6306TIP3    H118924   0.309   0.202   0.990 -1.1172 -0.6785  0.2202
 6306TIP3    H218925   0.419   0.099   0.980  0.1825  0.7900 -1.2727
 6307TIP3   OH218926   5.573   2.456   2.086  0.3674  0.4536 -0.2843
 6307TIP3    H118927   5.667   2.442   2.095  0.3055 -0.0304 -0.3926
 6307TIP3    H218928   5.546   2.488   2.173  0.5383  0.0864 -0.0942
 6308TIP3   OH218929   4.166   5.972   0.499  0.5058 -0.0750 -0.0117
 6308TIP3    H118930   4.157   5.885   0.459  0.1185 -0.2202  0.3764
 6308TIP3    H218931   4.243   6.010   0.456 -0.0077 -0.1434 -1.0378
 6309TIP3   OH218932   0.277   4.238   0.114 -0.5201 -0.4399  0.0200
 6309TIP3    H118933   0.363   4.244   0.071 -0.1519 -1.4252  0.5891
 6309TIP3    H218934   0.215   4.239   0.041 -0.2260  2.7914 -0.3214
 6310TIP3   OH218935   3.023   5.375   0.907  0.4340 -0.1935  0.1195
 6310TIP3    H118936   3.016   5.302   0.846  2.5200 -0.9084  0.6617
 6310TIP3    H218937   2.942   5.372   0.957  1.0666 -3.1500  1.1523
 6311TIP3   OH218938   4.692   0.988   5.190  0.1463  0.6312  0.2146
 6311TIP3    H118939   4.779   0.954   5.210  0.4417  1.1544 -0.1481
 6311TIP3    H218940   4.660   0.934   5.118 -0.4413 -0.5048  1.2946
 6312TIP3   OH218941   2.138   5.421   4.232 -0.0654 -0.0333  0.0254
 6312TIP3    H118942   2.211   5.432   4.172 -0.0689 -2.2802 -0.4505
 6312TIP3    H218943   2.136   5.503   4.282  1.9513  0.5845 -0.8135
 6313TIP3   OH218944   2.474   3.627   4.082 -0.3078  0.5928 -0.4460
 6313TIP3    H118945   2.400   3.682   4.058  0.1192  1.4048  0.0736
 6313TIP3    H218946   2.549   3.669   4.040  0.1569  0.9400  0.7102
 6314TIP3   OH218947   3.072   3.311   1.060  0.0903 -0.1106 -0.1232
 6314TIP3    H118948   3.029   3.235   1.098  0.3394 -0.7145 -1.0308
 6314TIP3    H218949   3.092   3.367   1.135 -1.6093 -0.1423  0.3865
 6315TIP3   OH218950   3.382   1.978   2.940 -0.5433  0.0928 -0.9873
 6315TIP3    H118951   3.400   1.965   3.033  1.8950 -0.3186 -1.4494
 6315TIP3    H218952   3.373   1.889   2.905 -3.5160  0.2482 -0.8788
 6316TIP3   OH218953   4.948   0.934   1.187  0.3475 -0.1647  0.1957
 6316TIP3    H118954   5.020   0.896   1.237 -0.4899 -1.1092  0.7153
 6316TIP3    H218955   4.898   0.985   1.251 -0.5753 -1.1614  0.3101
 6317TIP3   OH218956   3.476   5.247   2.841  0.7849 -0.0966 -0.2183
 6317TIP3    H118957   3.508   5.174   2.789  1.1748  0.6279 -1.0136
 6317TIP3    H218958   3.554   5.300   2.858  0.5805 -0.0732  0.7044
 6318TIP3   OH218959   5.034   5.738   2.766 -0.2229 -0.4922  0.0674
 6318TIP3    H118960   5.112   5.780   2.802 -0.5456  0.0504  0.1504
 6318TIP3    H218961   5.047   5.645   2.783  0.5816 -0.4477 -0.2618
 6319TIP3   OH218962   5.275   4.984   5.117 -0.3248  0.0801 -0.6406
 6319TIP3    H118963   5.256   4.944   5.032  1.9868 -0.9509 -0.7300
 6319TIP3    H218964   5.334   4.923   5.160  0.1377  1.5332  0.9026
 6320TIP3   OH218965   5.336   1.626   4.254 -0.0385  0.2761 -0.3847
 6320TIP3    H118966   5.294   1.675   4.325  0.1013  0.0870 -0.1715
 6320TIP3    H218967   5.286   1.650   4.176 -0.1831  0.4974 -0.2265
 6321TIP3   OH218968   5.015   1.128   0.402 -0.2228 -0.1740  0.5668
 6321TIP3    H118969   4.947   1.064   0.380  0.0596 -0.3655  0.2343
 6321TIP3    H218970   5.022   1.183   0.323  0.2605 -0.3827  0.4581
 6322TIP3   OH218971   2.588   2.799   4.994  0.0217  0.6004 -0.0355
 6322TIP3    H118972   2.618   2.750   4.917  1.3022 -0.1482  0.9083
 6322TIP3    H218973   2.604   2.891   4.971 -2.0188  0.6407 -1.6511
 6323TIP3   OH218974   1.921   3.717   2.829  0.1786 -0.1559 -0.5015
 6323TIP3    H118975   1.945   3.652   2.895  0.4242  1.1283  0.7212
 6323TIP3    H218976   1.981   3.700   2.756  1.4260 -0.2332  0.4935
 6324TIP3   OH218977   3.306   2.902   3.421  0.3769  0.2486 -0.5548
 6324TIP3    H118978   3.376   2.837   3.429  0.0229 -0.0802 -0.0974
 6324TIP3    H218979   3.343   2.969   3.363  1.6075  0.7789  0.7894
 6325TIP3   OH218980   0.609   3.035   2.067 -0.2492  1.0061 -0.4129
 6325TIP3    H118981   0.686   3.025   2.010  0.1864 -0.5771  0.4027
 6325TIP3    H218982   0.542   3.071   2.009  0.6365  0.9096 -1.5437
 6326TIP3   OH218983   3.284   4.836   4.113  0.3156 -0.2727 -0.1894
 6326TIP3    H118984   3.329   4.912   4.150  0.7795 -0.4953 -0.2875
 6326TIP3    H218985   3.305   4.764   4.172  0.0402 -0.3678 -0.2063
 6327TIP3   OH218986   3.502   3.865   3.403 -0.1811 -0.0843 -0.2862
 6327TIP3    H118987   3.505   3.957   3.428  0.2959  0.5907 -2.5840
 6327TIP3    H218988   3.483   3.866   3.309  0.2507 -2.3211 -0.4599
 6328TIP3   OH218989   2.545   4.388   3.825 -0.0094  0.2426 -0.4546
 6328TIP3    H118990   2.587   4.458   3.774 -0.4994 -0.3432 -1.7262
 6328TIP3    H218991   2.478   4.432   3.877 -1.1958  0.6119 -2.2075
 6329TIP3   OH218992   2.111   0.822   2.587  0.6801 -0.1038  0.3157
 6329TIP3    H118993   2.172   0.855   2.653 -0.2165 -0.0886  1.1788
 6329TIP3    H218994   2.045   0.773   2.638 -1.0818  1.4559 -0.3422
 6330TIP3   OH218995   5.597   0.612   0.312  0.1397 -0.5384 -0.2596
 6330TIP3    H118996   5.645   0.617   0.394 -0.9861 -1.8827  0.5315
 6330TIP3    H218997   5.628   0.531   0.271  0.3330 -0.1340 -0.9338
 6331TIP3   OH218998   3.344   1.542   1.363  0.1388  0.0588  0.2000
 6331TIP3    H118999   3.412   1.486   1.400  0.2663  0.2217  0.2132
 6331TIP3    H219000   3.339   1.617   1.422  0.4899  0.4205 -0.2172
 6332TIP3   OH219001   1.940   1.780   4.927 -0.2660 -0.0490  0.3916
 6332TIP3    H119002   2.030   1.762   4.898 -0.2375 -1.4151  1.2191
 6332TIP3    H219003   1.899   1.693   4.931 -1.3366  0.4684  0.9257
 6333TIP3   OH219004   3.483   4.225   5.091 -0.2373 -0.5036  0.3329
 6333TIP3    H119005   3.426   4.152   5.115 -2.9398  0.2872 -2.8605
 6333TIP3    H219006   3.426   4.302   5.091  1.8241  1.1357  0.7445
 6334TIP3   OH219007   6.048   5.649   2.496 -0.3957 -0.0498  0.2494
 6334TIP3    H119008   6.078   5.560   2.477 -3.0704 -0.8825 -0.5433
 6334TIP3    H219009   5.980   5.638   2.562 -0.0975  1.5298  0.8515
 6335TIP3   OH219010   4.471   4.976   4.235 -0.2516  0.1142 -0.5166
 6335TIP3    H119011   4.560   4.947   4.214 -0.2878  0.4527 -1.1287
 6335TIP3    H219012   4.414   4.915   4.189 -0.4152 -1.8448  2.0391
 6336TIP3   OH219013   0.523   0.954   0.984  0.2102  0.0140  0.3956
 6336TIP3    H119014   0.610   0.915   0.969  0.3023 -0.2583  1.5865
 6336TIP3    H219015   0.527   1.038   0.938  1.6145  0.6503  1.6125
 6337TIP3   OH219016   2.697   5.757   3.367 -0.2774 -0.1753 -0.6243
 6337TIP3    H119017   2.750   5.688   3.327 -0.4404  0.2168 -1.5556
 6337TIP3    H219018   2.759   5.811   3.415 -0.3453 -1.9310  1.6491
 6338TIP3   OH219019   5.857   5.720   1.687  0.2501 -0.0741 -0.1531
 6338TIP3    H119020   5.939   5.673   1.672  0.5250  1.2159 -3.4099
 6338TIP3    H219021   5.876   5.780   1.758  1.2745 -1.6082  0.9344
 6339TIP3   OH219022   0.714   1.094   3.163  0.2645  0.0955  0.0419
 6339TIP3    H119023   0.633   1.123   3.121 -0.2695 -1.0941  0.1947
 6339TIP3    H219024   0.774   1.076   3.091 -0.0824 -0.3530 -0.1338
 6340TIP3   OH219025   2.446   5.672   1.218 -0.9510 -0.9472 -0.8262
 6340TIP3    H119026   2.516   5.614   1.188 -0.4130 -0.2069 -1.0327
 6340TIP3    H219027   2.413   5.630   1.298  0.7306 -0.5740  0.1155
 6341TIP3   OH219028   5.052   5.127   1.062  0.2409  0.0362  0.1364
 6341TIP3    H119029   5.146   5.116   1.049  0.1250 -0.0600 -0.7064
 6341TIP3    H219030   5.042   5.217   1.093  0.6467 -0.1225  0.7454
 6342TIP3   OH219031   3.560   5.278   2.055 -0.2954  0.1421 -0.8757
 6342TIP3    H119032   3.625   5.310   1.993 -0.9730 -1.1111 -2.2772
 6342TIP3    H219033   3.609   5.218   2.112  0.2815  1.1539 -0.2554
 6343TIP3   OH219034   1.286   3.635   3.968 -0.3391  0.1273 -0.0523
 6343TIP3    H119035   1.375   3.601   3.967 -0.6606 -0.8409 -2.2921
 6343TIP3    H219036   1.259   3.632   4.060  2.2056  1.2770  0.8059
 6344TIP3   OH219037   2.761   1.585   0.750 -0.0549  0.2702 -0.4705
 6344TIP3    H119038   2.721   1.511   0.704  0.9493  0.9321 -2.5404
 6344TIP3    H219039   2.699   1.607   0.820 -2.0008 -0.3798 -1.9182
 6345TIP3   OH219040   1.850   0.604   5.142 -0.0878  0.3446  0.1228
 6345TIP3    H119041   1.802   0.543   5.085 -1.4583  1.0288  0.4883
 6345TIP3    H219042   1.873   0.677   5.085  0.2440  0.1589  0.0178
 6346TIP3   OH219043   6.113   4.577   3.784 -0.1669  0.4520 -0.0649
 6346TIP3    H119044   6.177   4.511   3.810 -1.0365 -0.0390  0.8887
 6346TIP3    H219045   6.160   4.660   3.791  0.7086  0.0021 -0.5352
 6347TIP3   OH219046   2.704   1.358   5.143  0.1686  0.4610 -0.2022
 6347TIP3    H119047   2.649   1.394   5.212  0.4881 -0.4549  0.5456
 6347TIP3    H219048   2.646   1.299   5.095 -0.1827  1.4517 -1.0352
 6348TIP3   OH219049   0.388   3.460   2.604  0.5672 -0.0935 -0.4232
 6348TIP3    H119050   0.454   3.391   2.596 -1.0391 -1.7778  0.1093
 6348TIP3    H219051   0.327   3.427   2.671 -0.0959  2.0055  0.0717
 6349TIP3   OH219052   2.883   4.760   4.297  0.5005  0.6670  0.6153
 6349TIP3    H119053   2.911   4.852   4.305 -2.1210  1.5609  0.3013
 6349TIP3    H219054   2.813   4.751   4.361  0.2667 -0.9477  0.1665
 6350TIP3   OH219055   3.468   0.003   2.307  0.1550 -0.6373  0.3808
 6350TIP3    H119056   3.502   0.062   2.240 -2.5296  1.0204  0.2974
 6350TIP3    H219057   3.475   0.052   2.389 -0.8999 -0.6994  0.5252
 6351TIP3   OH219058   5.450   1.526   0.183  0.6974  0.0056  0.4467
 6351TIP3    H119059   5.440   1.482   0.098  0.6392  2.2890 -0.8204
 6351TIP3    H219060   5.361   1.530   0.218  0.7642 -1.2364  0.8030
 6352TIP3   OH219061   2.315   2.929   0.103 -0.1902 -0.6159  0.5049
 6352TIP3    H119062   2.284   3.001   0.157  0.4284 -2.1446  3.0468
 6352TIP3    H219063   2.409   2.923   0.122  0.0085 -1.3660 -0.5865
 6353TIP3   OH219064   1.108   0.014   2.476  0.7409 -0.4441  0.0761
 6353TIP3    H119065   1.038   0.078   2.474 -0.5409 -1.7913  0.0570
 6353TIP3    H219066   1.149   0.020   2.389 -0.1831 -0.5026 -0.3790
 6354TIP3   OH219067   0.593   1.650   2.516 -0.6879  0.1066 -0.1834
 6354TIP3    H119068   0.664   1.684   2.461 -1.1582  0.6534 -0.4617
 6354TIP3    H219069   0.523   1.715   2.508 -1.0614 -0.2065  0.4332
 6355TIP3   OH219070   2.845   3.516   2.876 -0.0639 -0.0144 -0.3987
 6355TIP3    H119071   2.898   3.559   2.943 -0.7059 -0.1423  0.2044
 6355TIP3    H219072   2.826   3.586   2.813 -0.2822  0.3632  0.0712
 6356TIP3   OH219073   6.322   2.265   0.112 -0.1127 -0.8219 -0.8623
 6356TIP3    H119074   6.400   2.240   0.063  0.4754 -2.5883  0.8665
 6356TIP3    H219075   6.304   2.355   0.084  2.5733 -0.3157 -1.2437
 6357TIP3   OH219076   1.484   5.194   1.182  0.4326 -0.0666 -0.4412
 6357TIP3    H119077   1.393   5.166   1.185  0.9942 -1.9516  2.4730
 6357TIP3    H219078   1.525   5.137   1.117  0.0290 -0.9265  0.0487
 6358TIP3   OH219079   2.678   3.311   1.191  0.0305  0.1395  0.3010
 6358TIP3    H119080   2.675   3.242   1.257 -1.4700  1.8327  2.1609
 6358TIP3    H219081   2.764   3.351   1.202 -0.4478  0.8388  1.7943
 6359TIP3   OH219082   5.572   1.501   0.722 -0.4265 -0.3433 -0.5347
 6359TIP3    H119083   5.492   1.476   0.675 -0.0923 -0.5186 -1.0141
 6359TIP3    H219084   5.642   1.452   0.678  0.3629  1.9446 -1.9872
 6360TIP3   OH219085   3.200   5.134   2.533 -1.1031 -0.0937  0.3677
 6360TIP3    H119086   3.230   5.213   2.576  0.2965  0.5456 -1.6251
 6360TIP3    H219087   3.206   5.066   2.600  3.4164  0.3065  0.6901
 6361TIP3   OH219088   4.778   5.521   3.964  0.2373  0.2633  0.5067
 6361TIP3    H119089   4.724   5.445   3.989  0.7515  0.3589  1.9767
 6361TIP3    H219090   4.715   5.592   3.954 -0.1808 -0.1990 -0.2895
 6362TIP3   OH219091   5.353   3.332   1.765  0.0964  0.2330 -0.4983
 6362TIP3    H119092   5.282   3.364   1.709  0.5860  1.5180 -0.4197
 6362TIP3    H219093   5.369   3.404   1.826 -0.7972 -1.3179  1.6979
 6363TIP3   OH219094   3.555   1.128   0.711 -0.3001  0.0826 -0.0276
 6363TIP3    H119095   3.569   1.210   0.759  1.4905  0.2596 -0.7576
 6363TIP3    H219096   3.635   1.077   0.727  0.6158  0.3559 -3.0785
 6364TIP3   OH219097   4.887   3.784   0.529  0.2469  0.1201  1.2740
 6364TIP3    H119098   4.826   3.746   0.466 -0.5891  1.2913  1.3320
 6364TIP3    H219099   4.880   3.728   0.606  1.5578 -1.5414  0.2409
 6365TIP3   OH219100   6.272   1.618   3.228  0.1934  0.3203 -0.0826
 6365TIP3    H119101   6.247   1.683   3.293 -0.0045  0.2724 -0.1098
 6365TIP3    H219102   6.238   1.535   3.262  0.2267  0.2711 -0.1674
 6366TIP3   OH219103   4.113   1.077   1.066 -0.5603  0.3220 -0.4128
 6366TIP3    H119104   4.072   1.019   1.002  1.8667 -0.5000 -1.3538
 6366TIP3    H219105   4.189   1.114   1.020  1.3101 -0.3044  1.9499
 6367TIP3   OH219106   3.955   3.964   3.399  0.1499  0.0840  0.1092
 6367TIP3    H119107   3.948   3.913   3.480 -0.7592  0.0178  0.0002
 6367TIP3    H219108   3.950   4.055   3.428  2.9156  0.1979  0.4202
 6368TIP3   OH219109   4.672   0.286   2.453 -0.1148  0.3281 -0.2031
 6368TIP3    H119110   4.619   0.215   2.417  0.2673  0.6817 -1.5146
 6368TIP3    H219111   4.611   0.336   2.507 -0.0073 -1.9583  2.2263
 6369TIP3   OH219112   3.564   0.866   1.894  0.0371 -0.8030  0.3281
 6369TIP3    H119113   3.539   0.790   1.946 -1.1639 -1.3469 -0.9781
 6369TIP3    H219114   3.557   0.837   1.803  1.7162  0.2200 -0.1870
 6370TIP3   OH219115   4.286   2.459   1.562 -0.4971  0.2774 -0.2133
 6370TIP3    H119116   4.284   2.453   1.466 -2.9780  3.4574 -0.5133
 6370TIP3    H219117   4.208   2.412   1.590 -1.7610  2.2925 -0.1358
 6371TIP3   OH219118   4.427   5.261   2.353 -0.2548 -0.1392  0.8739
 6371TIP3    H119119   4.360   5.196   2.370  0.6775 -1.3035  0.2464
 6371TIP3    H219120   4.381   5.331   2.305 -1.3739 -0.0520  2.0253
 6372TIP3   OH219121   1.868   4.898   5.010  0.0502  0.2640 -0.3419
 6372TIP3    H119122   1.911   4.955   5.074  0.1296 -1.0368  0.8134
 6372TIP3    H219123   1.905   4.923   4.926  2.3971 -0.1743  0.4954
 6373TIP3   OH219124   3.504   0.488   5.010  0.6460  0.1188  0.0435
 6373TIP3    H119125   3.498   0.416   5.072  0.3310 -0.4413 -0.6284
 6373TIP3    H219126   3.498   0.567   5.064 -1.3160 -0.3481  0.5770
 6374TIP3   OH219127   4.318   2.494   2.632  0.7292 -0.5300  0.2306
 6374TIP3    H119128   4.354   2.470   2.718 -0.1980 -0.6556  0.5890
 6374TIP3    H219129   4.389   2.542   2.590  1.1186 -0.2544  1.1664
 6375TIP3   OH219130   3.740   4.281   4.206 -0.1058 -0.5170 -0.4836
 6375TIP3    H119131   3.684   4.358   4.193  1.8654  0.9108 -0.8180
 6375TIP3    H219132   3.680   4.216   4.244 -1.4405  1.8224  1.8091
 6376TIP3   OH219133   3.482   3.019   2.679  0.3717  0.4040  0.2999
 6376TIP3    H119134   3.536   2.954   2.634 -1.4672 -1.1700  0.2993
 6376TIP3    H219135   3.463   2.980   2.764 -1.0987  0.7199  0.1433
 6377TIP3   OH219136   4.841   0.668   1.034 -0.2072 -0.0278 -0.1643
 6377TIP3    H119137   4.774   0.668   0.966  0.0673  2.2769 -0.5093
 6377TIP3    H219138   4.844   0.758   1.065 -0.2239 -0.9633  2.8631
 6378TIP3   OH219139   3.114   0.841   3.585  0.3096  0.1691 -0.2400
 6378TIP3    H119140   3.033   0.810   3.627  0.4214 -1.7730 -1.3401
 6378TIP3    H219141   3.086   0.916   3.532 -0.4306  0.5753  0.6956
 6379TIP3   OH219142   5.103   5.087   4.683 -0.2586  0.2294  0.3244
 6379TIP3    H119143   5.046   5.146   4.634  0.4593  0.2163 -0.5509
 6379TIP3    H219144   5.187   5.134   4.690  1.4454 -1.8407 -3.2390
 6380TIP3   OH219145   2.892   0.911   3.742 -0.4816 -0.2014  0.3875
 6380TIP3    H119146   2.812   0.876   3.704 -1.4684  2.2490  0.0105
 6380TIP3    H219147   2.877   0.908   3.837 -2.0038  2.1563  0.2961
 6381TIP3   OH219148   6.071   5.911   0.746 -0.4882  0.1314  0.5231
 6381TIP3    H119149   5.993   5.957   0.717 -0.5819 -0.1174  0.3796
 6381TIP3    H219150   6.038   5.839   0.800 -0.4758 -1.1554 -1.1145
 6382TIP3   OH219151   4.418   4.289   3.247  0.3912 -0.2454 -0.3425
 6382TIP3    H119152   4.493   4.244   3.286 -0.1500 -1.6269 -0.8222
 6382TIP3    H219153   4.350   4.221   3.242 -0.0323  0.2681 -2.3226
 6383TIP3   OH219154   3.780   3.285   3.170 -0.0703 -0.4947  0.1693
 6383TIP3    H119155   3.837   3.358   3.145 -1.9870  1.0060 -0.0002
 6383TIP3    H219156   3.750   3.306   3.258 -1.5951 -0.4380 -0.3436
 6384TIP3   OH219157   4.276   1.041   4.585  0.4906 -0.7705  0.0098
 6384TIP3    H119158   4.290   0.946   4.587 -0.6163 -0.9816 -1.1096
 6384TIP3    H219159   4.192   1.052   4.542  1.0579  0.7706 -0.7888
 6385TIP3   OH219160   2.688   4.650   4.104  0.0295  0.2456 -0.1769
 6385TIP3    H119161   2.626   4.703   4.054  0.4664 -0.1455 -1.1474
 6385TIP3    H219162   2.737   4.714   4.155 -0.9472  0.5884  0.3749
 6386TIP3   OH219163   3.657   2.847   3.474 -0.0966  0.4070  0.7480
 6386TIP3    H119164   3.581   2.788   3.472 -0.9758  1.4339  2.1857
 6386TIP3    H219165   3.632   2.919   3.416 -0.0844  0.5927  0.9748
 6387TIP3   OH219166   4.481   3.124   1.098  0.0127 -0.0770  0.3808
 6387TIP3    H119167   4.521   3.102   1.014  1.1565  2.0969  0.2787
 6387TIP3    H219168   4.392   3.152   1.076  0.5177  1.1155 -0.2302
 6388TIP3   OH219169   5.846   3.765   4.161 -0.5996  0.1777 -0.2967
 6388TIP3    H119170   5.766   3.722   4.192 -1.0069  0.8179 -0.4328
 6388TIP3    H219171   5.910   3.695   4.154 -0.4930 -0.0267  1.9577
 6389TIP3   OH219172   3.339   1.088   1.370 -0.1944  0.2546 -0.3598
 6389TIP3    H119173   3.304   1.162   1.320 -0.9502  1.1526  1.4133
 6389TIP3    H219174   3.429   1.114   1.391 -0.9339  1.4712  1.6010
 6390TIP3   OH219175   0.493   0.122   3.391  0.7226  0.3273  0.3528
 6390TIP3    H119176   0.411   0.074   3.393 -0.0766  1.6078 -0.5628
 6390TIP3    H219177   0.485   0.187   3.461  0.2694  1.4784 -0.7232
 6391TIP3   OH219178   3.252   1.240   2.965  0.1241  0.0012 -0.1638
 6391TIP3    H119179   3.262   1.145   2.970 -1.6588 -0.2429 -0.5019
 6391TIP3    H219180   3.279   1.262   2.876 -0.5669 -0.3738 -0.4780
 6392TIP3   OH219181   1.725   0.829   2.949  0.3048  0.2706 -0.1752
 6392TIP3    H119182   1.659   0.761   2.967 -0.9372  1.6531  0.7064
 6392TIP3    H219183   1.794   0.811   3.013 -0.6271  0.5932  0.9684
 6393TIP3   OH219184   0.388   4.453   4.810  0.6747  0.6246  0.0110
 6393TIP3    H119185   0.439   4.386   4.764  1.1930  0.3052  1.0240
 6393TIP3    H219186   0.311   4.467   4.754  0.1969 -1.3442  0.0977
 6394TIP3   OH219187   2.870   5.196   3.099 -0.2470 -0.3284 -0.6200
 6394TIP3    H119188   2.784   5.161   3.074 -1.4398  2.4290 -0.7593
 6394TIP3    H219189   2.893   5.256   3.028  0.9754  0.2710  0.2516
 6395TIP3   OH219190   0.813   3.843   1.163  0.0661 -0.0714  0.0509
 6395TIP3    H119191   0.779   3.766   1.207  0.4690  0.0425  0.5669
 6395TIP3    H219192   0.736   3.898   1.148  0.0004  0.1846  1.2085
 6396TIP3   OH219193   4.886   5.774   1.909  0.0924  0.4069 -0.2141
 6396TIP3    H119194   4.932   5.857   1.895  2.3347 -0.7644 -0.2896
 6396TIP3    H219195   4.932   5.733   1.982 -0.3279 -1.2069 -0.8107
 6397TIP3   OH219196   0.709   3.798   4.315  0.7647 -0.0498 -0.5729
 6397TIP3    H119197   0.635   3.785   4.256  1.6761  0.2765 -1.8199
 6397TIP3    H219198   0.762   3.867   4.274  1.2610  0.4227  0.7892
 6398TIP3   OH219199   2.796   1.160   3.902 -0.4567  0.1383  0.4445
 6398TIP3    H119200   2.860   1.093   3.928  0.2563  0.3856 -0.6021
 6398TIP3    H219201   2.751   1.121   3.827  0.8458  1.2840 -1.0012
 6399TIP3   OH219202   2.642   5.941   2.514  0.1729 -0.8308 -0.1680
 6399TIP3    H119203   2.732   5.955   2.544  0.1799  0.1563 -0.6090
 6399TIP3    H219204   2.588   5.973   2.587  0.1549 -2.0080  0.3623
 6400TIP3   OH219205   0.078   5.638   0.256  0.5030  1.3278  0.5019
 6400TIP3    H119206   0.100   5.700   0.326  2.9892  1.3268 -0.2032
 6400TIP3    H219207   0.146   5.571   0.261 -1.6389 -0.9922  0.7008
 6401TIP3   OH219208   1.366   1.416   4.250  0.0895  0.1239  0.4050
 6401TIP3    H119209   1.442   1.442   4.301  1.8343  0.4652 -2.2029
 6401TIP3    H219210   1.347   1.491   4.194 -1.1830 -0.5520 -0.1200
 6402TIP3   OH219211   3.531   4.145   3.453  0.0036  0.6222  0.0126
 6402TIP3    H119212   3.622   4.150   3.482  0.0508  2.2925 -0.3100
 6402TIP3    H219213   3.525   4.210   3.382 -1.3613  0.3337 -0.1647
 6403TIP3   OH219214   5.453   2.651   3.770 -0.2442 -0.0736  0.3168
 6403TIP3    H119215   5.368   2.610   3.754 -0.2740 -0.6175  1.7698
 6403TIP3    H219216   5.432   2.737   3.805 -0.1676  0.5656 -1.1016
 6404TIP3   OH219217   3.364   3.692   0.083  0.1035  0.1021  0.7117
 6404TIP3    H119218   3.279   3.728   0.057 -0.1399  0.7177  2.2100
 6404TIP3    H219219   3.428   3.749   0.040 -0.2537  0.1739  0.2693
 6405TIP3   OH219220   0.128   5.229   4.431 -0.2583 -0.6314 -0.0218
 6405TIP3    H119221   0.093   5.186   4.509 -2.2622 -2.3492 -1.7388
 6405TIP3    H219222   0.103   5.321   4.440 -0.4743 -0.8168  1.3313
 6406TIP3   OH219223   5.436   5.481   2.064  0.0370  0.2398  0.3079
 6406TIP3    H119224   5.413   5.433   2.143  2.3374 -1.5247  0.0198
 6406TIP3    H219225   5.459   5.414   2.000 -0.6721  1.6502 -1.5383
 6407TIP3   OH219226   4.945   0.700   0.313 -0.1504 -0.0855  0.0003
 6407TIP3    H119227   5.015   0.735   0.257 -0.2708  1.6567  0.8907
 6407TIP3    H219228   4.913   0.623   0.265  1.1783  0.1097 -1.2805
 6408TIP3   OH219229   2.388   3.970   2.001 -0.0085  0.5405  0.1013
 6408TIP3    H119230   2.401   3.876   2.007 -0.5694  0.2869 -1.8353
 6408TIP3    H219231   2.391   3.989   1.907 -0.8167  2.3102  0.3780
 6409TIP3   OH219232   5.484   2.689   4.313 -0.6421 -0.1445 -0.1824
 6409TIP3    H119233   5.541   2.622   4.276  0.8337  0.1293  1.4448
 6409TIP3    H219234   5.418   2.640   4.362  0.5692 -0.4674  1.1952
 6410TIP3   OH219235   1.297   1.527   2.655  0.5031 -0.1803 -0.3261
 6410TIP3    H119236   1.345   1.548   2.575  0.7089 -0.4115 -0.2663
 6410TIP3    H219237   1.353   1.463   2.700  0.1802 -0.3832 -0.2130
 6411TIP3   OH219238   3.256   2.548   3.858 -0.1749 -0.1420 -0.1071
 6411TIP3    H119239   3.270   2.637   3.889  3.0641 -0.6677  0.3660
 6411TIP3    H219240   3.282   2.493   3.932 -0.1933 -1.4598 -1.0541
 6412TIP3   OH219241   3.095   0.147   4.152 -0.2212 -0.3844 -0.3909
 6412TIP3    H119242   3.003   0.149   4.179  0.1632  0.8161  1.0135
 6412TIP3    H219243   3.092   0.140   4.057 -1.8591  2.0199 -0.6302
 6413TIP3   OH219244   1.488   2.556   0.116  0.0551 -0.5481 -0.1266
 6413TIP3    H119245   1.553   2.587   0.179  0.6840  1.3203 -1.6101
 6413TIP3    H219246   1.539   2.517   0.046 -0.4770 -0.1634 -0.7408
 6414TIP3   OH219247   1.792   1.430   1.624 -0.0035  0.7338 -0.4396
 6414TIP3    H119248   1.748   1.406   1.543  2.5658 -1.4645 -1.3228
 6414TIP3    H219249   1.865   1.370   1.631 -1.0080 -0.3948  4.4472
 6415TIP3   OH219250   3.452   1.811   0.996 -0.3957 -0.2792 -0.3702
 6415TIP3    H119251   3.498   1.890   1.024 -0.3973 -0.2949 -0.3237
 6415TIP3    H219252   3.468   1.806   0.901 -1.3287  0.3848 -0.5774
 6416TIP3   OH219253   4.215   5.796   3.242  0.2011  0.5061  0.1598
 6416TIP3    H119254   4.279   5.801   3.171 -0.1957  1.5324 -0.1472
 6416TIP3    H219255   4.165   5.877   3.235  0.6419  1.0005  2.0823
 6417TIP3   OH219256   3.476   5.624   0.821  0.3069  0.3281 -0.4445
 6417TIP3    H119257   3.491   5.681   0.896  0.1884  1.7475 -1.4518
 6417TIP3    H219258   3.513   5.672   0.747 -2.5808  0.6015 -1.8533
 6418TIP3   OH219259   3.719   1.288   2.624 -0.3480 -0.1190  0.1181
 6418TIP3    H119260   3.672   1.245   2.696  0.0886  0.5646  0.8309
 6418TIP3    H219261   3.651   1.309   2.560 -0.9558  0.4626  0.9322
 6419TIP3   OH219262   3.001   4.322   0.928 -0.0644  0.0551 -0.1692
 6419TIP3    H119263   3.096   4.328   0.916 -0.0986  1.5798  0.0998
 6419TIP3    H219264   2.965   4.389   0.870 -0.9911 -0.4930 -0.2517
 6420TIP3   OH219265   1.462   4.678   1.420 -1.3111  0.5751  0.1370
 6420TIP3    H119266   1.412   4.643   1.346 -0.0779 -0.7666 -0.0987
 6420TIP3    H219267   1.512   4.750   1.383 -2.2219  1.2420  0.1474
 6421TIP3   OH219268   4.791   3.770   3.373 -0.5239  0.0830 -0.1842
 6421TIP3    H119269   4.792   3.865   3.377 -0.1770  0.0457  1.8821
 6421TIP3    H219270   4.716   3.744   3.426 -0.3255 -0.7880 -0.3129
 6422TIP3   OH219271   5.104   2.227   3.616  0.5336  0.0083 -0.2740
 6422TIP3    H119272   5.185   2.224   3.564  0.7376 -0.8941  0.0778
 6422TIP3    H219273   5.105   2.313   3.657  1.5635 -0.1784  0.1127
 6423TIP3   OH219274   3.100   2.365   3.521 -0.0476 -0.1006  0.3574
 6423TIP3    H119275   3.080   2.306   3.448 -0.7184  1.3007 -0.6280
 6423TIP3    H219276   3.036   2.342   3.589 -0.8875  0.0798 -0.3574
 6424TIP3   OH219277   5.061   1.908   0.401 -0.0882  0.5379  0.1874
 6424TIP3    H119278   5.141   1.883   0.353  0.6002 -0.9281  1.9751
 6424TIP3    H219279   5.001   1.938   0.333  0.6769 -1.8501 -1.7023
 6425TIP3   OH219280   2.368   2.611   1.155 -0.0152  0.3659  0.0096
 6425TIP3    H119281   2.278   2.580   1.157  0.0271  0.2793  1.4001
 6425TIP3    H219282   2.399   2.591   1.067 -1.0582 -0.4381 -0.1826
 6426TIP3   OH219283   2.281   2.420   2.246  0.0008 -0.1630  0.4353
 6426TIP3    H119284   2.324   2.416   2.331  2.4083 -1.1135 -0.7315
 6426TIP3    H219285   2.260   2.512   2.233  2.9061  0.6022  0.5753
 6427TIP3   OH219286   3.616   0.541   1.024  0.0422 -0.1834 -0.2280
 6427TIP3    H119287   3.536   0.490   1.018 -0.4259  0.6818 -1.4737
 6427TIP3    H219288   3.686   0.478   1.008 -0.3154 -1.0306  1.2824
 6428TIP3   OH219289   2.894   3.380   5.077 -0.1350  0.3687  0.0168
 6428TIP3    H119290   2.912   3.358   5.168  0.6388 -1.0484 -0.4442
 6428TIP3    H219291   2.980   3.399   5.040 -0.3651  0.2488 -0.5882
 6429TIP3   OH219292   3.097   1.497   1.516 -0.6815  0.3227 -0.3045
 6429TIP3    H119293   3.178   1.473   1.471  0.6043  0.0193  2.0015
 6429TIP3    H219294   3.089   1.432   1.586 -2.4319  0.8863  0.0551
 6430TIP3   OH219295   1.844   0.817   2.298 -0.5087  0.3645 -0.2099
 6430TIP3    H119296   1.783   0.890   2.303  0.1952  0.8908  0.7887
 6430TIP3    H219297   1.931   0.857   2.297 -0.1313 -0.4274 -0.4821
 6431TIP3   OH219298   3.483   4.349   3.710  0.3758 -0.4793 -0.5640
 6431TIP3    H119299   3.410   4.385   3.759  1.0131 -0.9351  0.7621
 6431TIP3    H219300   3.557   4.405   3.733  0.2349  0.8569 -2.9689
 6432TIP3   OH219301   0.694   0.590   3.718  0.6591  0.1520  0.7903
 6432TIP3    H119302   0.611   0.588   3.670 -0.2174  1.0159  2.2132
 6432TIP3    H219303   0.751   0.532   3.668 -0.0160  1.4108 -1.5954
 6433TIP3   OH219304   3.905   2.923   3.569  0.3222 -1.0285 -0.4100
 6433TIP3    H119305   3.815   2.924   3.537  0.2174 -0.2873 -0.0996
 6433TIP3    H219306   3.953   2.873   3.503  0.3770  1.5690 -2.4848
 6434TIP3   OH219307   4.654   3.974   0.517  0.6166  0.2316 -0.8678
 6434TIP3    H119308   4.695   3.901   0.470  0.4445  1.0765 -2.3920
 6434TIP3    H219309   4.603   3.932   0.586 -0.7599 -1.2652 -2.6578
 6435TIP3   OH219310   4.241   3.731   2.423 -0.2990 -0.1997  0.0435
 6435TIP3    H119311   4.160   3.764   2.383  1.0258  1.7661 -1.1691
 6435TIP3    H219312   4.271   3.802   2.479  0.1183 -1.2979  1.2698
 6436TIP3   OH219313   5.971   3.157   3.891 -0.5050  0.1086  0.5551
 6436TIP3    H119314   5.903   3.089   3.885 -1.6607  1.2289  0.7218
 6436TIP3    H219315   5.947   3.221   3.824  0.9929  0.0292 -0.1077
 6437TIP3   OH219316   3.339   0.459   2.790 -0.4979  0.8617  0.6868
 6437TIP3    H119317   3.310   0.518   2.721 -1.7487 -0.3942  0.1034
 6437TIP3    H219318   3.272   0.391   2.794  1.3594 -1.0701  0.6827
 6438TIP3   OH219319   2.699   4.389   1.801 -1.2269  0.4109 -0.1728
 6438TIP3    H119320   2.787   4.375   1.838 -0.9330  3.3316  0.5042
 6438TIP3    H219321   2.675   4.305   1.763  1.5053 -0.7271  0.3845
 6439TIP3   OH219322   5.854   2.355   3.371  0.2042  0.0528  0.1408
 6439TIP3    H119323   5.949   2.360   3.361  0.0812  1.3782 -0.7230
 6439TIP3    H219324   5.836   2.402   3.452  0.2563  0.2439  0.0432
 6440TIP3   OH219325   6.171   5.314   2.154  0.5101  0.2007 -0.0492
 6440TIP3    H119326   6.262   5.305   2.182  1.2038 -0.5908 -2.3132
 6440TIP3    H219327   6.167   5.270   2.069 -1.9589  0.3738 -0.1186
 6441TIP3   OH219328   4.910   3.484   0.361 -0.8524  0.6646  0.6652
 6441TIP3    H119329   4.932   3.514   0.272 -0.7831 -0.9157  0.1207
 6441TIP3    H219330   4.993   3.490   0.409 -0.9975  2.0080  0.8028
 6442TIP3   OH219331   3.952   4.198   4.053 -0.0905  0.2242  0.3154
 6442TIP3    H119332   3.886   4.220   4.119  0.9185  0.7069  1.1964
 6442TIP3    H219333   4.029   4.172   4.104  1.2015  2.0397 -0.6337
 6443TIP3   OH219334   1.256   2.613   3.541  0.6635 -0.0892  0.4830
 6443TIP3    H119335   1.229   2.632   3.631  1.3426 -0.0030  0.6739
 6443TIP3    H219336   1.175   2.614   3.491  0.3713  0.6489  0.9579
 6444TIP3   OH219337   2.064   1.293   3.905  0.3584 -0.0021  0.1604
 6444TIP3    H119338   2.000   1.223   3.898  0.8183 -0.4361  0.2423
 6444TIP3    H219339   2.051   1.329   3.992 -0.5838  0.7135 -0.2626
 6445TIP3   OH219340   2.554   5.475   3.853 -0.2363 -0.1965 -0.0644
 6445TIP3    H119341   2.563   5.515   3.766  0.6195  1.5426  0.7734
 6445TIP3    H219342   2.578   5.384   3.840  0.9983  0.2857 -1.4659
 6446TIP3   OH219343   4.263   5.828   1.715  0.6564 -0.7015 -0.3256
 6446TIP3    H119344   4.309   5.779   1.647  0.4019 -1.5807  0.1155
 6446TIP3    H219345   4.197   5.878   1.667  0.6471 -1.1111 -0.7546
 6447TIP3   OH219346   1.855   5.255   5.026 -0.5155  0.4140  0.9606
 6447TIP3    H119347   1.893   5.309   5.096 -0.1252  3.8939 -1.6326
 6447TIP3    H219348   1.930   5.230   4.972 -1.0075 -0.5419  0.6946
 6448TIP3   OH219349   5.518   3.031   5.108  0.7054  0.2083 -0.1417
 6448TIP3    H119350   5.572   3.096   5.153 -1.2930  0.8483  1.4649
 6448TIP3    H219351   5.456   3.083   5.057 -0.6623 -0.4113  0.8495
 6449TIP3   OH219352   2.488   0.460   2.984  0.3205 -0.2217 -0.1011
 6449TIP3    H119353   2.504   0.418   3.068 -0.0510 -0.6826 -0.2519
 6449TIP3    H219354   2.422   0.405   2.942  1.2490 -0.5749 -1.1299
 6450TIP3   OH219355   0.183   2.259   0.603  0.0304 -0.3364 -0.4942
 6450TIP3    H119356   0.159   2.309   0.526 -1.8121  1.2171  1.0223
 6450TIP3    H219357   0.238   2.318   0.654  0.0795 -0.8389  0.0470
 6451TIP3   OH219358   4.628   0.551   4.283 -0.3382  0.4989 -0.1594
 6451TIP3    H119359   4.588   0.520   4.364 -0.4360  1.0817  0.0179
 6451TIP3    H219360   4.720   0.566   4.306  0.3332 -1.9935 -0.8623
 6452TIP3   OH219361   1.788   3.292   2.362  0.6838  0.3725 -0.4600
 6452TIP3    H119362   1.726   3.222   2.340 -0.7976  1.4936 -0.0189
 6452TIP3    H219363   1.812   3.275   2.453 -0.2914  0.8511 -0.0975
 6453TIP3   OH219364   0.652   3.789   4.816 -0.6350 -0.6704 -0.4522
 6453TIP3    H119365   0.728   3.783   4.757  0.6871  1.7492  0.8698
 6453TIP3    H219366   0.670   3.723   4.884 -0.0007 -0.5113 -0.4587
 6454TIP3   OH219367   4.358   3.753   3.714  0.0945  0.6284  0.1045
 6454TIP3    H119368   4.331   3.844   3.730  0.1725  0.5396  0.7650
 6454TIP3    H219369   4.284   3.714   3.666 -0.1357  0.9107  0.2289
 6455TIP3   OH219370   0.976   2.874   5.066  0.2281  0.5236 -0.4439
 6455TIP3    H119371   0.915   2.909   5.002 -0.0039 -1.0655 -1.1471
 6455TIP3    H219372   1.026   2.808   5.018  1.3327  0.5988  0.5531
 6456TIP3   OH219373   5.915   1.556   3.508  0.0908  0.4037  0.0844
 6456TIP3    H119374   5.904   1.634   3.562 -0.7159  0.2967  0.0816
 6456TIP3    H219375   5.871   1.578   3.426 -1.6132 -0.6466  0.6722
 6457TIP3   OH219376   4.364   3.836   2.013  0.7478  0.3613 -0.1200
 6457TIP3    H119377   4.418   3.764   1.979 -0.1282 -0.7708  0.7826
 6457TIP3    H219378   4.282   3.793   2.038 -0.7625  2.0839 -1.8595
 6458TIP3   OH219379   4.825   2.264   3.430 -0.2508  0.0564 -0.0952
 6458TIP3    H119380   4.736   2.253   3.462 -0.5641  1.5515 -0.3825
 6458TIP3    H219381   4.872   2.186   3.461 -1.7654 -1.0077 -0.3975
 6459TIP3   OH219382   6.095   2.238   2.097 -0.3500 -0.4659 -0.1315
 6459TIP3    H119383   6.177   2.243   2.146 -0.9002 -0.1683  0.7857
 6459TIP3    H219384   6.082   2.144   2.083 -0.5192 -0.6087  0.8914
 6460TIP3   OH219385   3.572   0.638   2.071 -0.1521 -0.8790 -0.8712
 6460TIP3    H119386   3.643   0.592   2.116  0.2759 -0.5954 -1.2371
 6460TIP3    H219387   3.494   0.587   2.090  0.0618 -0.9080 -0.0232
 6461TIP3   OH219388   3.579   1.192   3.138 -1.0035  0.1198  0.2154
 6461TIP3    H119389   3.612   1.281   3.149 -0.3237  0.0358 -1.0122
 6461TIP3    H219390   3.643   1.137   3.183 -0.8293  0.1687  0.0309
 6462TIP3   OH219391   0.023   2.670   3.477  0.0086  0.3423 -0.3902
 6462TIP3    H119392   0.096   2.619   3.511 -1.3985 -1.5795 -0.0612
 6462TIP3    H219393  -0.005   2.621   3.399 -1.0519  0.9078 -0.3770
 6463TIP3   OH219394   3.165   4.202   0.608  0.1216  0.6912  0.5493
 6463TIP3    H119395   3.245   4.172   0.564 -0.7095  0.2482 -0.6912
 6463TIP3    H219396   3.189   4.287   0.646  0.8583  1.1049 -0.7927
 6464TIP3   OH219397   4.546   4.091   3.438  0.1529  0.3980  0.7676
 6464TIP3    H119398   4.554   4.027   3.508 -1.6008  0.7636  1.3545
 6464TIP3    H219399   4.495   4.046   3.370 -2.7478  1.6545  1.9497
 6465TIP3   OH219400   3.029   0.499   1.851 -0.1769 -0.6128 -0.5461
 6465TIP3    H119401   3.086   0.426   1.826  1.0095 -0.4529  1.5078
 6465TIP3    H219402   3.059   0.572   1.797  0.9570 -0.7891 -0.1883
 6466TIP3   OH219403   1.127   0.235   4.599  0.7320  0.1498 -0.3527
 6466TIP3    H119404   1.209   0.185   4.588  0.9595  0.5884 -0.6450
 6466TIP3    H219405   1.061   0.181   4.556  0.8748 -0.1734 -0.1790
 6467TIP3   OH219406   1.296   3.318   4.435 -0.1596 -0.0691 -0.1648
 6467TIP3    H119407   1.224   3.255   4.440 -1.2743  1.2225  1.1768
 6467TIP3    H219408   1.255   3.402   4.456  1.2924  1.1001 -1.7480
 6468TIP3   OH219409   6.319   3.485   3.505 -0.4476  0.2921  0.2870
 6468TIP3    H119410   6.411   3.479   3.479 -0.6698  0.7490 -0.6275
 6468TIP3    H219411   6.314   3.564   3.558 -0.5186  0.9037 -0.6083
 6469TIP3   OH219412   4.339   0.266   4.096  0.0963 -0.5216  0.2587
 6469TIP3    H119413   4.425   0.308   4.093  0.5088 -1.2984  0.9889
 6469TIP3    H219414   4.340   0.213   4.175 -1.1890 -0.2830  0.4626
 6470TIP3   OH219415   6.309   3.869   3.239 -0.1719  0.3382  0.3942
 6470TIP3    H119416   6.357   3.788   3.226 -0.3370  0.0136  1.6512
 6470TIP3    H219417   6.242   3.869   3.171 -0.3108 -0.6936  0.5217
 6471TIP3   OH219418   5.575   0.667   2.469 -0.2063  0.4157  0.8171
 6471TIP3    H119419   5.516   0.642   2.539  1.9206 -0.8344  2.2959
 6471TIP3    H219420   5.651   0.706   2.513  1.4278 -0.8690 -0.6643
 6472TIP3   OH219421   6.326   3.608   2.328  0.0274 -0.3431 -0.0255
 6472TIP3    H119422   6.384   3.608   2.252  0.0804  0.2929  0.0038
 6472TIP3    H219423   6.246   3.651   2.296  0.8342  1.9472  0.8291
 6473TIP3   OH219424   1.902   3.656   3.888  0.1996 -0.0469 -0.2953
 6473TIP3    H119425   1.820   3.607   3.895 -0.4091  0.9153 -0.4451
 6473TIP3    H219426   1.967   3.599   3.928 -0.2838 -1.3949 -1.3595
 6474TIP3   OH219427   2.150   0.026   2.033 -0.7411 -0.0391 -0.4815
 6474TIP3    H119428   2.149  -0.007   2.123 -0.5552 -1.0380 -0.8364
 6474TIP3    H219429   2.148   0.121   2.043  2.2219  0.0197  0.6938
 6475TIP3   OH219430   4.305   3.606   2.160  0.5051 -0.2032 -0.0544
 6475TIP3    H119431   4.278   3.641   2.245 -0.1244 -2.2168  0.6376
 6475TIP3    H219432   4.372   3.541   2.181 -0.0325 -1.1115 -1.0333
 6476TIP3   OH219433   1.650   2.589   1.981 -0.0420 -0.0790 -0.7144
 6476TIP3    H119434   1.569   2.552   2.014  0.7607 -0.0695  1.4160
 6476TIP3    H219435   1.632   2.683   1.973 -0.1661 -0.0328  0.0423
 6477TIP3   OH219436   0.372   1.190   0.026  0.2803 -0.7299  0.3374
 6477TIP3    H119437   0.406   1.244   0.097 -0.0637 -0.9041  0.6347
 6477TIP3    H219438   0.379   1.246  -0.052  1.5974 -0.8885  0.3139
 6478TIP3   OH219439   2.256   1.994   2.882 -0.0146 -0.0845 -0.3332
 6478TIP3    H119440   2.280   1.912   2.839  1.2663 -0.6696  1.3791
 6478TIP3    H219441   2.176   1.974   2.930 -0.2283 -0.0660 -0.6845
 6479TIP3   OH219442   0.757   1.071   4.475 -0.3679 -0.2187 -0.3670
 6479TIP3    H119443   0.700   1.115   4.411 -1.2168 -0.3119  0.3031
 6479TIP3    H219444   0.699   1.053   4.549  0.0463 -2.1447 -0.4673
 6480TIP3   OH219445   1.464   3.417   3.457 -0.4066  0.0360 -0.6153
 6480TIP3    H119446   1.413   3.337   3.446 -1.6237  0.8694 -1.2628
 6480TIP3    H219447   1.404   3.479   3.498  0.0844  1.0356 -1.3525
 6481TIP3   OH219448   1.430   4.520   4.020  0.2460  0.3693  0.3938
 6481TIP3    H119449   1.419   4.430   3.991 -0.7446  0.1941  1.2317
 6481TIP3    H219450   1.417   4.573   3.941  1.4002 -0.2198 -0.2206
 6482TIP3   OH219451   6.067   2.033   4.959 -0.2296 -0.4768 -0.4443
 6482TIP3    H119452   6.074   1.999   5.049  0.8260  0.3425 -0.1887
 6482TIP3    H219453   6.118   1.972   4.906 -0.4023 -0.6621 -0.3970
 6483TIP3   OH219454   4.641   5.086   2.221 -0.0620  0.0311 -0.7685
 6483TIP3    H119455   4.658   5.166   2.172 -2.0455  0.7529 -0.3693
 6483TIP3    H219456   4.563   5.106   2.274 -0.5636 -2.1093 -0.5946
 6484TIP3   OH219457   2.302   3.150   1.216 -0.1098  0.4039  0.1455
 6484TIP3    H119458   2.224   3.154   1.161  0.2950  2.2795 -0.3704
 6484TIP3    H219459   2.372   3.182   1.160  0.4008  1.9326  1.5614
 6485TIP3   OH219460   2.929   2.675   1.714  0.5109 -0.2637  0.5906
 6485TIP3    H119461   3.000   2.612   1.717  0.5388 -0.2566  0.1770
 6485TIP3    H219462   2.958   2.748   1.769  0.7644 -0.3194  0.5295
 6486TIP3   OH219463   4.626   0.955   4.512  0.1053  0.2688 -0.2030
 6486TIP3    H119464   4.575   0.905   4.449  2.2767 -0.3791 -1.5142
 6486TIP3    H219465   4.609   0.912   4.596 -0.7859 -0.4685 -0.7431
 6487TIP3   OH219466   3.711   3.830   1.248  0.4655  0.1236 -0.6472
 6487TIP3    H119467   3.684   3.892   1.316 -2.7689 -1.4384 -0.3071
 6487TIP3    H219468   3.771   3.880   1.193  1.0701  2.2927  1.7837
 6488TIP3   OH219469   2.780   4.923   3.951  0.4304 -0.0272  0.1474
 6488TIP3    H119470   2.763   4.868   3.874 -0.5678  0.4563  0.0055
 6488TIP3    H219471   2.872   4.906   3.973  0.1143 -1.9013  0.2198
 6489TIP3   OH219472   3.975   5.392   0.072 -0.3805  0.3869  0.0099
 6489TIP3    H119473   4.056   5.430   0.038 -1.5475 -0.0372 -3.7302
 6489TIP3    H219474   3.994   5.299   0.081  0.0517  0.5597  0.9980
 6490TIP3   OH219475   3.791   2.200   0.514 -0.0109  0.2001  0.2193
 6490TIP3    H119476   3.879   2.199   0.552 -0.9558  1.0499  2.6192
 6490TIP3    H219477   3.779   2.290   0.482 -0.7243  0.7409  1.8808
 6491TIP3   OH219478   5.919   1.356   4.009  0.2105  0.0553  0.4666
 6491TIP3    H119479   5.924   1.373   3.915 -0.9836  0.6416  0.4912
 6491TIP3    H219480   6.004   1.319   4.031  0.4805 -0.1667 -0.8589
 6492TIP3   OH219481   5.788   4.313   0.153  0.1007 -0.7005 -0.0988
 6492TIP3    H119482   5.866   4.274   0.114  1.3679 -0.3130  1.8926
 6492TIP3    H219483   5.742   4.239   0.193 -1.3469 -1.1419 -2.4082
 6493TIP3   OH219484   5.427   1.870   4.971  0.6580  0.2458  0.2364
 6493TIP3    H119485   5.510   1.917   4.980 -0.3169  2.2441 -0.6251
 6493TIP3    H219486   5.374   1.925   4.913 -0.1310 -2.5411 -1.9703
 6494TIP3   OH219487   5.826   4.994   4.392  0.0011  0.3814  0.3537
 6494TIP3    H119488   5.862   5.007   4.480  0.1829 -2.7931  0.8431
 6494TIP3    H219489   5.732   4.981   4.406 -0.1729  1.0923 -0.0896
 6495TIP3   OH219490   3.857   4.215   4.545  0.1053  0.1777  0.2500
 6495TIP3    H119491   3.818   4.302   4.538  0.6303  0.4366  0.5249
 6495TIP3    H219492   3.798   4.158   4.495 -1.0229  0.4388  1.2449
 6496TIP3   OH219493   4.916   1.392   4.324 -0.5333 -0.0418  0.0545
 6496TIP3    H119494   4.891   1.301   4.313  0.3053 -0.4860  1.6169
 6496TIP3    H219495   4.960   1.396   4.409 -0.1131  1.7210 -0.1914
 6497TIP3   OH219496   0.942   0.827   1.082  0.3366 -0.3391  0.4957
 6497TIP3    H119497   1.012   0.785   1.131  0.3861 -0.4558  0.3244
 6497TIP3    H219498   0.865   0.773   1.099  0.6850 -1.3145 -0.8257
 6498TIP3   OH219499   4.399   0.058   3.925 -0.0471 -0.6658  0.6883
 6498TIP3    H119500   4.317   0.035   3.882 -1.2560  0.9819  1.9742
 6498TIP3    H219501   4.377   0.132   3.981  2.4905  0.3070  0.5410
 6499TIP3   OH219502   1.218   5.852   0.373  0.1804  1.0416 -0.7424
 6499TIP3    H119503   1.146   5.887   0.322 -3.0343 -0.9222  2.0053
 6499TIP3    H219504   1.201   5.881   0.463  0.7832 -2.2255  0.5987
 6500TIP3   OH219505   1.989   5.168   0.769  0.5946  0.0325  0.2429
 6500TIP3    H119506   1.968   5.187   0.678  1.1926 -1.5861 -0.2595
 6500TIP3    H219507   2.082   5.190   0.777  0.7025 -0.4400  0.2868
 6501TIP3   OH219508   0.706   6.007   4.231 -0.2321 -0.5704  0.4106
 6501TIP3    H119509   0.717   5.912   4.223 -0.7655 -0.5538 -0.7341
 6501TIP3    H219510   0.615   6.019   4.258 -0.8626 -0.3411 -1.6455
 6502TIP3   OH219511   4.912   0.169   0.424 -0.6652  0.6371  0.3084
 6502TIP3    H119512   4.971   0.193   0.495 -1.0917  0.5088  0.7147
 6502TIP3    H219513   4.962   0.186   0.344  0.6797 -1.4071  0.6315
 6503TIP3   OH219514   5.048   5.642   3.762 -0.4203 -0.3956  0.4838
 6503TIP3    H119515   5.134   5.665   3.727 -0.2578 -0.6075  0.7471
 6503TIP3    H219516   4.998   5.613   3.685 -0.4981  0.4393  0.2125
 6504TIP3   OH219517   1.084   1.925   3.288  0.1019 -0.2509  0.2525
 6504TIP3    H119518   1.145   1.864   3.247  2.6458  3.1059 -1.5128
 6504TIP3    H219519   1.132   1.960   3.363 -0.5800  0.7349  0.2449
 6505TIP3   OH219520   4.737   4.268   2.894 -0.1864 -0.0661  0.2443
 6505TIP3    H119521   4.779   4.192   2.935 -0.3939 -0.0568  0.4774
 6505TIP3    H219522   4.805   4.308   2.841 -0.3248 -0.9581 -0.6224
 6506TIP3   OH219523   1.010   0.677   1.688  0.0037 -0.1649 -0.6110
 6506TIP3    H119524   0.924   0.710   1.661 -0.0451 -0.6154 -1.0223
 6506TIP3    H219525   1.039   0.738   1.755 -0.6065  0.0389 -0.5247
 6507TIP3   OH219526   6.066   0.709   4.572 -0.1136  0.4355  0.1275
 6507TIP3    H119527   6.157   0.709   4.601  0.3583 -0.3811 -1.2962
 6507TIP3    H219528   6.023   0.645   4.628  0.5956 -0.4995 -0.3755
 6508TIP3   OH219529   0.423   2.474   3.330  0.2462  0.1622 -0.2317
 6508TIP3    H119530   0.389   2.481   3.419  0.8092 -0.3692  0.0269
 6508TIP3    H219531   0.518   2.476   3.340  0.3457 -1.3648 -0.6876
 6509TIP3   OH219532   0.510   4.010   2.820  0.4806 -0.5451  0.0943
 6509TIP3    H119533   0.572   3.942   2.844  1.8272  0.5432 -0.1781
 6509TIP3    H219534   0.557   4.065   2.758 -0.6637  0.4873  0.0977
 6510TIP3   OH219535   1.805   2.661   1.489 -0.2677  0.2473 -0.5067
 6510TIP3    H119536   1.900   2.650   1.490 -0.1708  0.9947 -0.4950
 6510TIP3    H219537   1.770   2.578   1.522  0.4184  0.3176  0.4303
 6511TIP3   OH219538   2.280   3.861   2.321  0.1804 -0.3412 -0.1174
 6511TIP3    H119539   2.266   3.936   2.263  1.4928  0.5244  0.6346
 6511TIP3    H219540   2.292   3.787   2.262  2.5452  0.6987 -1.0788
 6512TIP3   OH219541   1.753   0.561   0.393  0.4796 -0.5095 -0.4372
 6512TIP3    H119542   1.811   0.609   0.335  0.6490 -1.8929 -1.4704
 6512TIP3    H219543   1.701   0.505   0.334  2.3438 -3.8259  0.7538
 6513TIP3   OH219544   5.172   0.166   2.803  0.0732 -0.2782 -0.0912
 6513TIP3    H119545   5.266   0.182   2.804  0.1622 -0.7925  0.5647
 6513TIP3    H219546   5.149   0.161   2.711  0.9201 -1.4986 -0.2488
 6514TIP3   OH219547   0.019   5.037   5.057  0.1341 -0.5146  0.5144
 6514TIP3    H119548  -0.062   5.016   5.011 -1.2614  3.8572  0.4393
 6514TIP3    H219549   0.089   5.005   5.000 -1.5703  1.1252 -2.8105
 6515TIP3   OH219550   4.123   1.831   4.882 -0.2171  0.5562  0.1910
 6515TIP3    H119551   4.185   1.812   4.952 -0.9010 -0.7947  0.4704
 6515TIP3    H219552   4.176   1.837   4.803  0.4571  1.1869  0.6849
 6516TIP3   OH219553   6.230   4.061   4.594  0.3730 -0.2679 -0.0613
 6516TIP3    H119554   6.182   4.111   4.528  0.1895 -1.5891 -0.9481
 6516TIP3    H219555   6.259   3.982   4.549 -0.0237 -1.3602  1.5015
 6517TIP3   OH219556   2.721   0.039   3.371  0.5728 -0.0721 -0.1501
 6517TIP3    H119557   2.650   0.005   3.317  1.1491  2.2898 -2.6275
 6517TIP3    H219558   2.682   0.111   3.420  0.9556  0.4049 -0.5387
 6518TIP3   OH219559   5.400   2.224   4.215 -0.3321  0.6038 -0.2071
 6518TIP3    H119560   5.430   2.190   4.299 -0.2698 -0.0975 -0.5061
 6518TIP3    H219561   5.358   2.150   4.173  1.1404  0.4505 -1.5105
 6519TIP3   OH219562   1.549   5.429   1.548 -0.2161  0.3881 -0.0214
 6519TIP3    H119563   1.624   5.407   1.493 -0.1270 -0.5611  0.4567
 6519TIP3    H219564   1.497   5.348   1.552 -0.3666  0.5196  1.0332
 6520TIP3   OH219565   0.232   3.425   0.486 -0.1084  0.0120 -0.4574
 6520TIP3    H119566   0.322   3.430   0.517 -0.2630  0.7898 -0.1250
 6520TIP3    H219567   0.196   3.347   0.529  0.3838 -0.2673 -0.5489
 6521TIP3   OH219568   5.710   2.551   1.823  0.2202 -0.0246  0.1094
 6521TIP3    H119569   5.758   2.473   1.795 -0.4363  0.0082 -1.1641
 6521TIP3    H219570   5.622   2.519   1.842  0.3430  0.1633  1.0600
 6522TIP3   OH219571   1.665   4.737   0.572 -0.1578 -0.3942 -0.0365
 6522TIP3    H119572   1.638   4.829   0.582  0.7568 -0.1068 -0.0433
 6522TIP3    H219573   1.685   4.728   0.479 -1.5773 -1.0085 -0.3111
 6523TIP3   OH219574   6.156   1.154   4.041 -0.6530 -0.7928  0.4814
 6523TIP3    H119575   6.214   1.091   4.082 -1.0372 -2.5913 -1.5445
 6523TIP3    H219576   6.169   1.141   3.947 -1.5391  1.4405 -0.0225
 6524TIP3   OH219577   0.044   3.823   4.820 -0.0279 -0.0819 -0.5432
 6524TIP3    H119578   0.138   3.837   4.833  0.4266 -1.4677 -2.0410
 6524TIP3    H219579   0.005   3.846   4.904  1.5731  1.0484 -0.0537
 6525TIP3   OH219580   1.264   0.286   1.327  0.5398  0.2408  0.2394
 6525TIP3    H119581   1.308   0.221   1.382  0.6686  1.5770  1.8214
 6525TIP3    H219582   1.202   0.328   1.387 -1.7077 -0.4297 -1.5020
 6526TIP3   OH219583   1.236   0.828   4.948 -0.7113  0.0446  0.4608
 6526TIP3    H119584   1.143   0.847   4.937 -0.4711  0.3525 -1.2233
 6526TIP3    H219585   1.280   0.909   4.925 -0.0255  0.3496  2.6018
 6527TIP3   OH219586   2.110   3.581   4.444 -0.5124 -0.4729 -0.3950
 6527TIP3    H119587   2.138   3.648   4.381 -0.7994  0.5493  0.5346
 6527TIP3    H219588   2.172   3.510   4.432  0.7958  0.6120 -0.2964
 6528TIP3   OH219589   2.291   3.394   4.456  0.5825  0.1201 -0.0941
 6528TIP3    H119590   2.333   3.474   4.487 -1.0897  0.4347  1.5265
 6528TIP3    H219591   2.320   3.326   4.517  0.0799  0.0031  0.0215
 6529TIP3   OH219592   0.817   3.178   5.050  0.6324  0.1200 -0.6182
 6529TIP3    H119593   0.787   3.268   5.033  0.0141  0.1052  0.3235
 6529TIP3    H219594   0.818   3.171   5.145  3.2310 -0.0320 -0.5842
 6530TIP3   OH219595   0.483   3.687   4.188  0.2766  0.1651  0.1620
 6530TIP3    H119596   0.516   3.607   4.227 -0.2412 -0.3899 -0.5000
 6530TIP3    H219597   0.426   3.725   4.254 -1.2667 -1.2014 -0.3090
 6531TIP3   OH219598   0.661   1.658   3.102 -0.1943 -0.2046  0.2794
 6531TIP3    H119599   0.635   1.745   3.131  0.1478 -0.3234  0.9687
 6531TIP3    H219600   0.581   1.618   3.069 -0.2852  0.4945 -0.3685
 6532TIP3   OH219601   1.056   3.664   1.957  0.1679  0.5431  0.0168
 6532TIP3    H119602   1.020   3.649   2.044 -0.8331  1.1401 -0.2886
 6532TIP3    H219603   1.141   3.706   1.973  0.0888  0.4488  0.6988
 6533TIP3   OH219604   3.779   3.993   2.651  0.5039  0.3958  0.0996
 6533TIP3    H119605   3.753   4.046   2.575 -0.4317  0.0793  0.1843
 6533TIP3    H219606   3.723   4.024   2.722 -1.1094 -1.5980 -0.1691
 6534TIP3   OH219607   0.342   0.173   4.374 -0.1508  0.5588  0.0607
 6534TIP3    H119608   0.263   0.224   4.353 -0.6866  0.2753  1.2871
 6534TIP3    H219609   0.338   0.099   4.314  0.8414  2.0660 -2.0268
 6535TIP3   OH219610   0.323   5.700   1.810 -0.1382  0.1535  0.5048
 6535TIP3    H119611   0.253   5.757   1.778 -0.5626  0.0197  1.1701
 6535TIP3    H219612   0.355   5.655   1.732 -2.7706 -1.9750  0.5007
 6536TIP3   OH219613   1.338   1.417   5.173 -0.7196 -0.3149  0.2468
 6536TIP3    H119614   1.372   1.362   5.243  2.7225 -0.4070 -1.2666
 6536TIP3    H219615   1.318   1.356   5.102  0.9484  0.0902 -0.6355
 6537TIP3   OH219616   4.556   0.941   0.763  0.3144  0.0300  0.0278
 6537TIP3    H119617   4.579   0.995   0.838  1.2248 -0.4837  0.1275
 6537TIP3    H219618   4.462   0.956   0.751  0.0096 -0.4068  1.6883
 6538TIP3   OH219619   2.175   3.277   3.641  0.9592  0.0072 -0.4810
 6538TIP3    H119620   2.253   3.252   3.690  1.7058 -1.3038 -2.2655
 6538TIP3    H219621   2.194   3.254   3.550 -0.7196  1.5463 -1.2995
 6539TIP3   OH219622   5.666   3.958   0.130 -0.1185 -0.5102  0.2255
 6539TIP3    H119623   5.613   3.942   0.207  0.1406 -0.4242  0.4243
 6539TIP3    H219624   5.753   3.980   0.165  0.1496 -1.0374 -0.1029
 6540TIP3   OH219625   4.971   5.354   2.112  0.4903  0.1951 -0.0569
 6540TIP3    H119626   5.009   5.296   2.179 -0.1663  0.8029  0.8660
 6540TIP3    H219627   4.878   5.334   2.113  0.4184  0.5045 -0.4912
 6541TIP3   OH219628   2.630   2.953   3.997  0.4103 -0.0414 -0.1975
 6541TIP3    H119629   2.647   2.965   3.904 -0.0622 -0.1432 -0.3008
 6541TIP3    H219630   2.553   3.006   4.015  0.3959 -0.1581  0.0989
 6542TIP3   OH219631   5.934   2.564   1.405  0.4416  0.6208  0.9253
 6542TIP3    H119632   5.843   2.535   1.403  0.7395 -0.4666 -1.6299
 6542TIP3    H219633   5.931   2.654   1.437 -1.7891  1.2934 -0.9507
 6543TIP3   OH219634   0.974   3.269   1.112  0.4181 -0.0258  0.2328
 6543TIP3    H119635   1.000   3.360   1.129  2.1253 -0.6020  1.0394
 6543TIP3    H219636   0.904   3.252   1.175 -0.5362  0.9694 -0.5278
 6544TIP3   OH219637   1.297   2.042   4.430 -0.4755 -0.7964 -0.1466
 6544TIP3    H119638   1.213   2.065   4.388  0.8457  1.7374 -1.6344
 6544TIP3    H219639   1.332   2.125   4.460  1.0712 -1.9524  1.4108
 6545TIP3   OH219640   6.341   2.135   4.712  0.0737 -0.5549  0.3921
 6545TIP3    H119641   6.382   2.220   4.694 -2.1340  0.6113  0.5051
 6545TIP3    H219642   6.323   2.137   4.806  0.9111 -1.6255  0.6039
 6546TIP3   OH219643   6.037   5.867   1.200  0.0396 -0.0582 -0.1776
 6546TIP3    H119644   5.969   5.934   1.188  0.4512  0.1537 -1.4536
 6546TIP3    H219645   5.997   5.786   1.168  0.1942 -0.0541 -0.3751
 6547TIP3   OH219646   4.867   0.925   2.303 -0.0278  0.1636  0.2365
 6547TIP3    H119647   4.962   0.920   2.305  0.0891  1.4517 -0.7606
 6547TIP3    H219648   4.848   1.018   2.290 -1.3661 -0.2270 -0.9131
 6548TIP3   OH219649   4.436   2.308   4.842 -0.3468 -0.1968 -0.2219
 6548TIP3    H119650   4.490   2.230   4.827 -1.9850 -1.5612  0.5479
 6548TIP3    H219651   4.498   2.380   4.843  1.2335 -1.4706 -1.0861
 6549TIP3   OH219652   4.623   3.932   4.843  0.0091  0.7580 -0.3095
 6549TIP3    H119653   4.531   3.910   4.829 -0.2967  0.8221  1.4470
 6549TIP3    H219654   4.628   3.960   4.934  1.8860  0.2015 -0.1998
 6550TIP3   OH219655   5.444   1.827   2.449  0.3476 -0.5270  0.1423
 6550TIP3    H119656   5.506   1.825   2.376  0.0472 -0.9670 -0.1088
 6550TIP3    H219657   5.362   1.795   2.411 -1.0960  3.3365 -0.5047
 6551TIP3   OH219658   0.217   4.052   1.634  0.4111  0.3789 -0.0223
 6551TIP3    H119659   0.212   4.024   1.725  0.4358 -1.6771 -0.5903
 6551TIP3    H219660   0.138   4.104   1.620 -0.0660 -0.0641  0.9383
 6552TIP3   OH219661   0.934   2.115   3.623 -0.2142  0.5784 -0.1569
 6552TIP3    H119662   0.848   2.103   3.664 -0.0897 -0.0453 -0.0629
 6552TIP3    H219663   0.942   2.040   3.563 -0.3089  1.3747 -1.1821
 6553TIP3   OH219664   0.675   0.743   1.142  0.1355 -0.3658 -0.1082
 6553TIP3    H119665   0.580   0.737   1.152 -0.1535  2.1196 -0.5985
 6553TIP3    H219666   0.711   0.692   1.215 -1.6003  0.1691  1.1849
 6554TIP3   OH219667   6.309   4.351   3.272 -0.2351 -0.1240  0.3800
 6554TIP3    H119668   6.280   4.378   3.358  0.7283  0.3776  0.5636
 6554TIP3    H219669   6.272   4.263   3.261  0.9007 -0.8549  1.9712
 6555TIP3   OH219670   3.103   5.793   1.876 -0.1815  0.2785 -0.0250
 6555TIP3    H119671   3.174   5.797   1.939  0.5493 -0.6979 -0.7437
 6555TIP3    H219672   3.147   5.785   1.791 -1.1365  1.4417 -0.6526
 6556TIP3   OH219673   4.932   0.042   3.334 -0.4371  0.4574 -0.3754
 6556TIP3    H119674   4.950   0.021   3.426  0.2417  0.0018 -0.6023
 6556TIP3    H219675   4.864   0.109   3.337  0.6394  1.5530  0.5138
 6557TIP3   OH219676   2.820   4.783   3.124 -0.5115  0.0504 -0.2051
 6557TIP3    H119677   2.915   4.795   3.130 -0.6154  0.2152  1.6396
 6557TIP3    H219678   2.809   4.709   3.064  0.9511 -1.7664  1.6107
 6558TIP3   OH219679   4.034   2.129   1.319  0.1197 -0.1345  0.1907
 6558TIP3    H119680   4.081   2.207   1.348 -1.8791  0.1365  2.9928
 6558TIP3    H219681   3.951   2.162   1.286 -0.1799 -1.0032  0.0550
 6559TIP3   OH219682   4.138   4.589   2.279  0.2117  0.2685 -0.5990
 6559TIP3    H119683   4.075   4.587   2.351  0.3606  0.5638 -0.4594
 6559TIP3    H219684   4.133   4.501   2.241  0.4240 -0.0151  0.0219
 6560TIP3   OH219685   2.702   1.374   2.850  0.0206  0.2789  0.0624
 6560TIP3    H119686   2.692   1.456   2.899  2.7364  0.4589  0.4733
 6560TIP3    H219687   2.795   1.371   2.828  0.0464 -2.7948  0.1914
 6561TIP3   OH219688   3.996   4.209   0.979  0.0482  0.3413  0.2264
 6561TIP3    H119689   3.919   4.257   1.007 -1.6577 -1.1933 -1.5538
 6561TIP3    H219690   3.991   4.208   0.883  1.7402 -0.6582  0.1018
 6562TIP3   OH219691   0.322   5.235   3.918 -0.4234 -0.2801  0.0164
 6562TIP3    H119692   0.352   5.242   3.827 -0.7585  0.5704 -0.0392
 6562TIP3    H219693   0.230   5.208   3.910 -0.2639 -0.8684  0.1272
 6563TIP3   OH219694   3.758   1.194   4.337 -0.3977  0.1738  0.2842
 6563TIP3    H119695   3.729   1.225   4.252 -0.4315  0.0628  0.2556
 6563TIP3    H219696   3.812   1.266   4.371  0.9692 -0.4211 -0.5299
 6564TIP3   OH219697   2.606   5.243   3.041  0.3890 -0.1610  0.5622
 6564TIP3    H119698   2.666   5.272   2.972  1.5998  0.3016  1.7485
 6564TIP3    H219699   2.539   5.312   3.045 -0.0732 -0.5250 -0.5729
 6565TIP3   OH219700   3.376   5.741   3.369 -0.1399 -0.6769 -0.0525
 6565TIP3    H119701   3.454   5.685   3.372  0.8850  0.7142  0.7591
 6565TIP3    H219702   3.355   5.756   3.461  0.6175  1.5528 -0.1891
 6566TIP3   OH219703   4.906   3.997   2.327  0.0920 -0.2923 -0.1975
 6566TIP3    H119704   4.858   4.076   2.304 -0.7923 -0.5915  0.5703
 6566TIP3    H219705   4.986   4.029   2.369 -1.9672  0.2930  3.7149
 6567TIP3   OH219706   5.399   4.733   5.121  0.5574  0.1672 -0.3831
 6567TIP3    H119707   5.398   4.728   5.026 -1.0663  1.8792 -0.5151
 6567TIP3    H219708   5.432   4.648   5.149 -0.2839 -0.9167 -2.4513
 6568TIP3   OH219709   3.966   0.651   3.897 -0.0804 -0.0023  0.3284
 6568TIP3    H119710   3.910   0.667   3.973 -0.1007 -0.2152  0.3567
 6568TIP3    H219711   3.909   0.610   3.833  0.4952 -2.0919  1.0775
 6569TIP3   OH219712   0.629   2.624   3.058  0.6482 -0.0691 -0.4837
 6569TIP3    H119713   0.619   2.606   3.152 -0.0531  1.2816 -0.2814
 6569TIP3    H219714   0.587   2.549   3.015  1.6878 -1.1202  0.2425
 6570TIP3   OH219715   1.620   3.496   2.364 -0.6083  0.1242  0.1493
 6570TIP3    H119716   1.688   3.429   2.354  1.3582  1.4777  2.9995
 6570TIP3    H219717   1.633   3.555   2.289  1.1964  0.1546  0.4406
 6571TIP3   OH219718   2.686   2.696   1.091 -0.1838  0.0834 -0.0325
 6571TIP3    H119719   2.630   2.723   1.164  0.4775  0.1132  0.4644
 6571TIP3    H219720   2.757   2.647   1.132  0.5676  0.6920 -0.5997
 6572TIP3   OH219721   1.969   4.603   3.600 -0.2154 -0.4483 -0.1719
 6572TIP3    H119722   2.051   4.585   3.556  0.2618 -1.4802  1.0842
 6572TIP3    H219723   1.905   4.613   3.530  0.8881 -0.0243 -1.1450
 6573TIP3   OH219724   0.077   1.570   0.989 -0.3734  0.2258 -0.2605
 6573TIP3    H119725   0.103   1.608   0.905 -1.7199  3.3450  0.5685
 6573TIP3    H219726   0.036   1.643   1.036  0.4310 -1.3621  3.1842
 6574TIP3   OH219727   4.523   2.510   3.857 -0.6138 -0.5739  0.0809
 6574TIP3    H119728   4.437   2.489   3.895 -0.4158 -1.4366  0.0637
 6574TIP3    H219729   4.517   2.603   3.835 -1.6716 -0.7071 -0.2421
 6575TIP3   OH219730   5.817   0.783   2.542 -0.4443  0.1001 -0.8315
 6575TIP3    H119731   5.848   0.808   2.455  0.2736  0.0229 -0.5999
 6575TIP3    H219732   5.895   0.785   2.598 -1.1696  1.8356  0.2114
 6576TIP3   OH219733   3.130   3.029   0.708 -0.0856  0.4520 -0.4421
 6576TIP3    H119734   3.079   3.111   0.703  0.0471  0.5384 -0.3862
 6576TIP3    H219735   3.210   3.048   0.660  0.5694  0.8180  0.7573
 6577TIP3   OH219736   1.635   4.359   1.923  0.1093  0.5279 -0.3594
 6577TIP3    H119737   1.622   4.265   1.931  1.3195  0.1212 -2.6711
 6577TIP3    H219738   1.546   4.395   1.917 -0.3226 -0.6418 -1.1797
 6578TIP3   OH219739   6.165   5.275   2.947  0.0597  0.0613 -0.4761
 6578TIP3    H119740   6.224   5.213   2.991 -0.2982 -0.3059 -0.5127
 6578TIP3    H219741   6.103   5.301   3.015 -0.1322 -0.0514 -0.6082
 6579TIP3   OH219742   1.931   5.303   3.004  0.3814 -0.5783  0.0989
 6579TIP3    H119743   1.921   5.241   2.932 -0.6565 -0.9353  0.5333
 6579TIP3    H219744   2.012   5.277   3.048  0.2136 -1.3075 -0.0264
 6580TIP3   OH219745   1.593   0.166   4.928 -0.1102 -0.5221 -0.2400
 6580TIP3    H119746   1.507   0.206   4.942 -0.2990 -1.0845  0.2362
 6580TIP3    H219747   1.633   0.165   5.015  1.4955  2.1909 -0.8175
 6581TIP3   OH219748   1.268   2.912   1.633 -0.1201 -0.3605 -0.1060
 6581TIP3    H119749   1.339   2.877   1.579  0.4330  0.7696 -0.1291
 6581TIP3    H219750   1.190   2.903   1.578  0.0884 -1.0973 -0.2918
 6582TIP3   OH219751   0.045   5.943   3.992 -0.0194 -0.1636  0.4343
 6582TIP3    H119752  -0.013   6.004   4.038  0.3860 -1.3889  2.7145
 6582TIP3    H219753   0.012   5.857   4.015  1.8727 -0.8634  0.6866
 6583TIP3   OH219754   2.751   0.281   2.666 -0.6240 -0.2689  0.1505
 6583TIP3    H119755   2.794   0.196   2.657  1.7961  0.9549 -0.7486
 6583TIP3    H219756   2.768   0.307   2.757 -0.0842 -0.1002  0.0012
 6584TIP3   OH219757   6.194   2.323   3.889  0.4811  0.0979 -0.0982
 6584TIP3    H119758   6.142   2.306   3.810  1.6701 -0.6518 -0.7559
 6584TIP3    H219759   6.258   2.389   3.861  0.2185  0.6329  0.5541
 6585TIP3   OH219760   2.573   4.340   3.424  0.5527 -0.5357 -0.3376
 6585TIP3    H119761   2.530   4.259   3.395  0.9999 -0.8064 -0.2597
 6585TIP3    H219762   2.582   4.330   3.519  0.4241 -0.3041 -0.3003
 6586TIP3   OH219763   3.791   5.488   4.312 -0.8601  0.0603 -0.3747
 6586TIP3    H119764   3.776   5.452   4.399  1.4971  1.4105  0.6693
 6586TIP3    H219765   3.818   5.413   4.259  2.3028 -0.1542  1.3274
 6587TIP3   OH219766   0.884   3.250   4.087  0.0241 -0.4841 -0.2310
 6587TIP3    H119767   0.850   3.338   4.101  1.8275 -0.0260  1.9988
 6587TIP3    H219768   0.844   3.197   4.157  0.8973 -0.8082  0.0401
 6588TIP3   OH219769   0.298   0.315   4.104 -0.0236 -0.1314  0.1878
 6588TIP3    H119770   0.257   0.236   4.069  0.6359 -0.7011  0.6804
 6588TIP3    H219771   0.245   0.338   4.180 -0.5781  0.2628 -0.3044
 6589TIP3   OH219772   3.056   5.579   1.500 -0.2332 -0.0732 -0.1943
 6589TIP3    H119773   3.044   5.671   1.476  1.8828  0.2626 -0.1210
 6589TIP3    H219774   3.012   5.571   1.585  0.1833  1.0768  0.1550
 6590TIP3   OH219775   4.090   0.869   0.241 -0.4334 -0.0669  0.1633
 6590TIP3    H119776   4.143   0.826   0.174 -1.1194 -0.0797 -0.3814
 6590TIP3    H219777   4.130   0.955   0.253  0.7804 -0.7301  1.0563
 6591TIP3   OH219778   5.630   5.100   2.827 -0.0386  0.0568  0.1766
 6591TIP3    H119779   5.678   5.120   2.908 -0.7439  0.2052  0.5719
 6591TIP3    H219780   5.539   5.090   2.856 -0.3899  0.6977 -0.6933
 6592TIP3   OH219781   4.095   5.501   4.545  0.0517  0.5028 -0.4309
 6592TIP3    H119782   4.060   5.415   4.567  2.0692 -0.2986 -0.0690
 6592TIP3    H219783   4.027   5.563   4.572 -0.2476 -0.7989  2.1150
 6593TIP3   OH219784   0.228   0.128   3.171 -0.0803  0.6099  0.3077
 6593TIP3    H119785   0.257   0.074   3.245  0.7150  0.3055 -0.2170
 6593TIP3    H219786   0.308   0.171   3.140 -0.3388  0.4162 -0.6303
 6594TIP3   OH219787   1.117   2.495   0.505  0.1079 -0.2340  0.1202
 6594TIP3    H119788   1.167   2.527   0.580 -0.3658  0.0216  0.3365
 6594TIP3    H219789   1.096   2.575   0.455 -1.8502 -0.0509  1.1331
 6595TIP3   OH219790   5.777   5.944   2.250  0.0189  0.2066  0.3975
 6595TIP3    H119791   5.716   5.967   2.179 -0.9953  0.8319  1.4330
 6595TIP3    H219792   5.824   5.868   2.216 -0.7787  0.1870 -0.7649
 6596TIP3   OH219793   4.242   1.128   2.378 -0.1340 -0.2117  0.1649
 6596TIP3    H119794   4.214   1.050   2.330  4.4950 -0.8028 -2.1170
 6596TIP3    H219795   4.189   1.199   2.342 -4.1921 -1.9468  2.0135
 6597TIP3   OH219796   2.602   4.908   1.906  0.3529 -0.4140 -0.1094
 6597TIP3    H119797   2.582   4.947   1.821  0.2581 -2.1574 -0.9174
 6597TIP3    H219798   2.686   4.864   1.893  2.1837  2.1930  1.7220
 6598TIP3   OH219799   2.379   1.008   3.889 -0.7346 -0.5518  0.0633
 6598TIP3    H119800   2.441   0.939   3.913 -1.5065 -1.0154  0.7462
 6598TIP3    H219801   2.421   1.088   3.920 -1.7763 -1.1179  3.3509
 6599TIP3   OH219802   3.417   0.883   3.230 -0.4899  0.3104  0.6544
 6599TIP3    H119803   3.334   0.843   3.258 -0.7165  0.0613 -0.3516
 6599TIP3    H219804   3.421   0.966   3.279 -1.9497  0.9339 -0.2158
 6600TIP3   OH219805   4.767   5.252   3.150  0.4557  0.6654 -0.2392
 6600TIP3    H119806   4.846   5.204   3.126  1.1261  0.9979  1.2296
 6600TIP3    H219807   4.799   5.336   3.184 -0.5297  0.8329  0.3123
 6601TIP3   OH219808   6.240   2.011   0.788 -0.0677  0.1071 -0.1480
 6601TIP3    H119809   6.226   2.053   0.873  1.4868  3.0863 -1.1946
 6601TIP3    H219810   6.153   1.985   0.759 -0.5395 -2.0258  2.7352
 6602TIP3   OH219811   4.954   5.070   3.063  0.1774  0.5477 -0.8239
 6602TIP3    H119812   5.030   5.116   3.026  0.6867  0.2928 -0.1007
 6602TIP3    H219813   4.985   4.981   3.080  0.0110  0.7052  0.3829
 6603TIP3   OH219814   1.550   4.013   0.642  0.2950 -0.1430 -0.0011
 6603TIP3    H119815   1.579   3.956   0.713  1.1044  0.6598  0.3355
 6603TIP3    H219816   1.630   4.054   0.610  0.6468 -3.4207 -4.1200
 6604TIP3   OH219817   2.196   2.961   0.861  0.2965  0.0799  0.3267
 6604TIP3    H119818   2.280   2.915   0.852 -0.5824 -1.5448 -0.0321
 6604TIP3    H219819   2.211   3.046   0.820  1.4075 -0.6575 -0.8717
 6605TIP3   OH219820   1.860   4.391   4.324  0.0110  0.2068  0.0204
 6605TIP3    H119821   1.804   4.410   4.399  1.7052  0.8549  1.1672
 6605TIP3    H219822   1.835   4.456   4.258 -1.3956 -0.2816  0.0383
 6606TIP3   OH219823   6.162   2.090   1.034  0.5102  0.0695 -0.3134
 6606TIP3    H119824   6.090   2.129   1.083 -0.5859 -0.1106 -1.7342
 6606TIP3    H219825   6.211   2.040   1.100 -0.3550  0.5948  0.7606
 6607TIP3   OH219826   5.545   5.076   5.051  0.1701  0.0870 -0.4796
 6607TIP3    H119827   5.533   5.148   4.990  0.4654 -0.4661 -1.1985
 6607TIP3    H219828   5.550   4.998   4.996  1.8701 -0.2655  0.1303
 6608TIP3   OH219829   6.341   3.719   1.793 -0.4411  0.2531 -0.1569
 6608TIP3    H119830   6.366   3.681   1.877 -1.2057 -0.2838 -0.1602
 6608TIP3    H219831   6.249   3.744   1.805 -0.5868  0.0695 -0.8712
 6609TIP3   OH219832   6.087   2.105   0.164 -0.3769  0.2281 -0.2348
 6609TIP3    H119833   6.115   2.020   0.199 -0.0745 -0.1366 -1.2949
 6609TIP3    H219834   6.169   2.154   0.153 -0.4223  0.2027 -0.7254
 6610TIP3   OH219835   4.488   5.296   1.553 -0.0714 -0.2708 -0.4035
 6610TIP3    H119836   4.580   5.307   1.531  0.6663 -2.6916  1.0825
 6610TIP3    H219837   4.460   5.222   1.499  0.0945 -2.2845  2.1008
 6611TIP3   OH219838   3.527   1.868   4.665  0.0267  0.6685  0.2387
 6611TIP3    H119839   3.546   1.919   4.586  1.2481  1.6717  1.1295
 6611TIP3    H219840   3.433   1.880   4.679 -0.1760  0.6146 -0.9558
 6612TIP3   OH219841   5.265   2.940   4.824 -0.0257  0.0518 -0.0787
 6612TIP3    H119842   5.241   2.862   4.874  1.7736 -0.3381  0.2529
 6612TIP3    H219843   5.294   3.003   4.891  0.8583  0.0989 -0.4869
 6613TIP3   OH219844   0.923   2.335   2.740  0.4739 -0.2251 -0.1043
 6613TIP3    H119845   0.973   2.361   2.662  0.2744  1.1534  0.2105
 6613TIP3    H219846   0.832   2.341   2.713  0.4245 -2.3819 -0.5621
 6614TIP3   OH219847   3.300   1.857   2.611 -0.1828 -0.1772 -0.0352
 6614TIP3    H119848   3.235   1.889   2.548 -1.6787 -0.3087  1.3596
 6614TIP3    H219849   3.354   1.934   2.631  0.5207 -0.2082 -1.6652
 6615TIP3   OH219850   4.033   0.248   1.495 -0.3995  0.1190  0.2564
 6615TIP3    H119851   4.121   0.213   1.480 -0.0352  0.8170  0.7305
 6615TIP3    H219852   4.047   0.331   1.540 -1.2883  0.4785 -0.1064
 6616TIP3   OH219853   3.119   1.745   0.197 -0.3469 -0.1086 -0.1274
 6616TIP3    H119854   3.139   1.709   0.283 -0.7013 -1.6867 -0.6785
 6616TIP3    H219855   3.191   1.715   0.141 -0.9527 -0.4734 -0.7249
 6617TIP3   OH219856   3.576   3.533   1.458  0.6112 -0.0344 -0.3034
 6617TIP3    H119857   3.597   3.475   1.384 -0.7200 -0.3491 -0.4749
 6617TIP3    H219858   3.507   3.486   1.505 -1.1503  1.7610 -0.9408
 6618TIP3   OH219859   5.899   5.894   5.144  0.1857 -0.0295  0.5894
 6618TIP3    H119860   5.970   5.878   5.206  0.7089 -0.5826 -0.1220
 6618TIP3    H219861   5.926   5.846   5.065 -0.9774 -0.2435  0.3041
 6619TIP3   OH219862   0.164   0.194   4.808  0.3559  0.2079 -0.1639
 6619TIP3    H119863   0.188   0.281   4.778 -0.9725  0.4687 -0.5670
 6619TIP3    H219864   0.069   0.199   4.819  0.3237 -1.0595  0.2340
 6620TIP3   OH219865   0.031   5.435   2.845  0.0200 -0.2546 -0.6502
 6620TIP3    H119866  -0.035   5.436   2.914 -1.4871  0.7732 -2.0196
 6620TIP3    H219867   0.111   5.467   2.886 -0.6035 -0.5023  0.7900
 6621TIP3   OH219868   0.742   4.495   1.227  0.3134  0.6975 -0.3950
 6621TIP3    H119869   0.654   4.527   1.207 -0.6609 -1.5235  0.0586
 6621TIP3    H219870   0.745   4.492   1.322  0.2396 -0.7454 -0.4071
 6622TIP3   OH219871   2.004   2.127   5.156 -0.4765 -0.0570 -0.1490
 6622TIP3    H119872   2.048   2.060   5.105  0.6786 -0.3368  1.1588
 6622TIP3    H219873   1.921   2.086   5.183 -1.6082  0.4628 -2.5880
 6623TIP3   OH219874   1.576   3.738   3.782 -0.7514 -0.0341 -0.6032
 6623TIP3    H119875   1.507   3.719   3.717 -0.3392 -0.6112 -0.8844
 6623TIP3    H219876   1.547   3.818   3.825 -3.0763 -1.7363  1.2860
 6624TIP3   OH219877   1.210   1.845   2.678  0.1401 -0.0947 -0.1897
 6624TIP3    H119878   1.137   1.797   2.639 -0.2875  1.0608 -0.8625
 6624TIP3    H219879   1.176   1.933   2.694  1.4719  0.5767 -0.8392
 6625TIP3   OH219880   0.836   4.290   1.967  0.1197  0.1083  0.1458
 6625TIP3    H119881   0.901   4.234   1.924  0.7126  0.5601  0.4368
 6625TIP3    H219882   0.877   4.313   2.051 -0.2381  0.7420  0.1471
 6626TIP3   OH219883   2.185   0.533   4.022  0.2285  0.2570  0.0270
 6626TIP3    H119884   2.214   0.446   3.996 -0.5599 -0.0614  0.1852
 6626TIP3    H219885   2.161   0.576   3.939  0.6478  0.3406 -0.0538
 6627TIP3   OH219886   0.925   3.379   1.430 -0.5886  0.1518  0.4743
 6627TIP3    H119887   0.923   3.445   1.361  1.5765  0.4437  0.6297
 6627TIP3    H219888   0.901   3.426   1.509 -1.3743  0.1937  0.2270
 6628TIP3   OH219889   2.856   2.991   1.442  0.5262  0.2199  0.1913
 6628TIP3    H119890   2.768   3.024   1.422  0.6769  0.1656 -0.5676
 6628TIP3    H219891   2.849   2.896   1.434  0.8769  0.2656 -0.8265
 6629TIP3   OH219892   3.495   0.444   4.736  0.5190  0.1034  0.5735
 6629TIP3    H119893   3.502   0.465   4.829 -0.7561  1.5230  0.3809
 6629TIP3    H219894   3.506   0.528   4.692 -3.8451  0.4647 -0.2816
 6630TIP3   OH219895   4.670   3.497   5.057 -0.2327  0.3577  0.4608
 6630TIP3    H119896   4.725   3.574   5.045  0.6930 -0.5374 -1.3369
 6630TIP3    H219897   4.694   3.463   5.143  2.8198 -0.5518 -0.6124
 6631TIP3   OH219898   2.548   5.729   0.964  0.6467 -0.6364  0.3619
 6631TIP3    H119899   2.592   5.648   0.990  0.3916  0.1701  3.8656
 6631TIP3    H219900   2.590   5.796   1.018 -0.9861  1.1084 -0.4440
 6632TIP3   OH219901   0.277   1.896   3.675 -0.6487  0.1191 -0.0259
 6632TIP3    H119902   0.339   1.824   3.670 -0.2809  0.3305  1.0986
 6632TIP3    H219903   0.279   1.936   3.588 -0.3741 -0.8191 -0.4623
 6633TIP3   OH219904   6.251   4.066   4.292  0.1221 -0.0026 -0.0459
 6633TIP3    H119905   6.180   4.026   4.240  0.3140 -0.9332  0.3874
 6633TIP3    H219906   6.258   4.155   4.258 -1.6173  0.2879  0.2475
 6634TIP3   OH219907   5.079   3.248   4.878 -0.5110 -0.3033  0.3904
 6634TIP3    H119908   5.078   3.199   4.960  0.1189 -0.6470  0.1959
 6634TIP3    H219909   5.002   3.215   4.830  1.3131 -3.0964 -0.8776
 6635TIP3   OH219910   2.449   0.507   3.795 -0.4732  0.0826 -0.2315
 6635TIP3    H119911   2.421   0.426   3.753  0.8559 -0.2652 -0.4794
 6635TIP3    H219912   2.531   0.529   3.752 -0.9386  1.7202 -0.3576
 6636TIP3   OH219913   0.094   1.904   0.558  0.4578  0.1199  0.4649
 6636TIP3    H119914   0.159   1.975   0.564 -0.4107  0.8656  1.3201
 6636TIP3    H219915   0.019   1.944   0.515  0.7391 -0.9018 -1.0598
 6637TIP3   OH219916   2.412   2.121   1.663  0.0055 -0.2803  0.6189
 6637TIP3    H119917   2.432   2.202   1.711 -0.6831  0.6547 -0.6365
 6637TIP3    H219918   2.335   2.085   1.707 -1.3036  1.1580 -0.4376
 6638TIP3   OH219919   1.685   1.018   2.199  0.1807 -0.6572 -0.3223
 6638TIP3    H119920   1.598   1.015   2.159 -0.6915 -1.7228  1.4930
 6638TIP3    H219921   1.698   1.111   2.218 -1.0506 -0.5813  0.3021
 6639TIP3   OH219922   1.820   0.523   4.021  0.1901 -0.1840 -0.2368
 6639TIP3    H119923   1.728   0.548   4.030  0.1819 -0.2886 -0.0043
 6639TIP3    H219924   1.840   0.537   3.929 -0.9657 -3.1939 -1.0439
 6640TIP3   OH219925   4.282   0.751   0.860  0.1394  0.7306  0.6155
 6640TIP3    H119926   4.327   0.735   0.943  0.3405  0.3624  0.4356
 6640TIP3    H219927   4.204   0.697   0.864  0.8398 -0.3722 -0.0087
   6.35004   5.98688   5.18479   0.00000   0.00000  -2.11668   0.00000  -2.11668  -2.99344
