;;
;; Generated by CHARMM-GUI FF-Converter
;;
;; Correspondance:
;; jul316@lehigh.edu or wonpil@lehigh.edu
;;
;; GROMACS topology file for PROB
;;


[ moleculetype ]
; name	nrexcl
PROB	     3

[ atoms ]
; nr	type	resnr	residu	atom	cgnr	charge	mass
     1         NP      2      PRO      N      1    -0.070000    14.0070   ; qtot -0.070
     2         HC      2      PRO    HN1      2     0.240000     1.0080   ; qtot  0.170
     3         HC      2      PRO    HN2      3     0.240000     1.0080   ; qtot  0.410
     4        CP3      2      PRO     CD      4     0.160000    12.0110   ; qtot  0.570
     5        HA2      2      PRO    HD1      5     0.090000     1.0080   ; qtot  0.660
     6        HA2      2      PRO    HD2      6     0.090000     1.0080   ; qtot  0.750
     7        CP1      2      PRO     CA      7     0.160000    12.0110   ; qtot  0.910
     8        HB1      2      PRO     HA      8     0.090000     1.0080   ; qtot  1.000
     9        CP2      2      PRO     CB      9    -0.180000    12.0110   ; qtot  0.820
    10        HA2      2      PRO    HB1     10     0.090000     1.0080   ; qtot  0.910
    11        HA2      2      PRO    HB2     11     0.090000     1.0080   ; qtot  1.000
    12        CP2      2      PRO     CG     12    -0.180000    12.0110   ; qtot  0.820
    13        HA2      2      PRO    HG1     13     0.090000     1.0080   ; qtot  0.910
    14        HA2      2      PRO    HG2     14     0.090000     1.0080   ; qtot  1.000
    15          C      2      PRO      C     15     0.510000    12.0110   ; qtot  1.510
    16          O      2      PRO      O     16    -0.510000    15.9994   ; qtot  1.000
    17        NH1      3      GLY      N     17    -0.470000    14.0070   ; qtot  0.530
    18          H      3      GLY     HN     18     0.310000     1.0080   ; qtot  0.840
    19        CT2      3      GLY     CA     19    -0.020000    12.0110   ; qtot  0.820
    20        HB2      3      GLY    HA1     20     0.090000     1.0080   ; qtot  0.910
    21        HB2      3      GLY    HA2     21     0.090000     1.0080   ; qtot  1.000
    22          C      3      GLY      C     22     0.510000    12.0110   ; qtot  1.510
    23          O      3      GLY      O     23    -0.510000    15.9994   ; qtot  1.000
    24        NH1      4      ASP      N     24    -0.470000    14.0070   ; qtot  0.530
    25          H      4      ASP     HN     25     0.310000     1.0080   ; qtot  0.840
    26        CT1      4      ASP     CA     26     0.070000    12.0110   ; qtot  0.910
    27        HB1      4      ASP     HA     27     0.090000     1.0080   ; qtot  1.000
    28       CT2A      4      ASP     CB     28    -0.280000    12.0110   ; qtot  0.720
    29        HA2      4      ASP    HB1     29     0.090000     1.0080   ; qtot  0.810
    30        HA2      4      ASP    HB2     30     0.090000     1.0080   ; qtot  0.900
    31         CC      4      ASP     CG     31     0.620000    12.0110   ; qtot  1.520
    32         OC      4      ASP    OD1     32    -0.760000    15.9994   ; qtot  0.760
    33         OC      4      ASP    OD2     33    -0.760000    15.9994   ; qtot -0.000
    34          C      4      ASP      C     34     0.510000    12.0110   ; qtot  0.510
    35          O      4      ASP      O     35    -0.510000    15.9994   ; qtot -0.000
    36          N      5      PRO      N     36    -0.290000    14.0070   ; qtot -0.290
    37        CP3      5      PRO     CD     37     0.000000    12.0110   ; qtot -0.290
    38        HA2      5      PRO    HD1     38     0.090000     1.0080   ; qtot -0.200
    39        HA2      5      PRO    HD2     39     0.090000     1.0080   ; qtot -0.110
    40        CP1      5      PRO     CA     40     0.020000    12.0110   ; qtot -0.090
    41        HB1      5      PRO     HA     41     0.090000     1.0080   ; qtot -0.000
    42        CP2      5      PRO     CB     42    -0.180000    12.0110   ; qtot -0.180
    43        HA2      5      PRO    HB1     43     0.090000     1.0080   ; qtot -0.090
    44        HA2      5      PRO    HB2     44     0.090000     1.0080   ; qtot -0.000
    45        CP2      5      PRO     CG     45    -0.180000    12.0110   ; qtot -0.180
    46        HA2      5      PRO    HG1     46     0.090000     1.0080   ; qtot -0.090
    47        HA2      5      PRO    HG2     47     0.090000     1.0080   ; qtot -0.000
    48          C      5      PRO      C     48     0.510000    12.0110   ; qtot  0.510
    49          O      5      PRO      O     49    -0.510000    15.9994   ; qtot -0.000
    50        NH1      6      GLY      N     50    -0.470000    14.0070   ; qtot -0.470
    51          H      6      GLY     HN     51     0.310000     1.0080   ; qtot -0.160
    52        CT2      6      GLY     CA     52    -0.020000    12.0110   ; qtot -0.180
    53        HB2      6      GLY    HA1     53     0.090000     1.0080   ; qtot -0.090
    54        HB2      6      GLY    HA2     54     0.090000     1.0080   ; qtot -0.000
    55          C      6      GLY      C     55     0.510000    12.0110   ; qtot  0.510
    56          O      6      GLY      O     56    -0.510000    15.9994   ; qtot -0.000
    57        NH1      7      SER      N     57    -0.470000    14.0070   ; qtot -0.470
    58          H      7      SER     HN     58     0.310000     1.0080   ; qtot -0.160
    59        CT1      7      SER     CA     59     0.070000    12.0110   ; qtot -0.090
    60        HB1      7      SER     HA     60     0.090000     1.0080   ; qtot -0.000
    61        CT2      7      SER     CB     61     0.050000    12.0110   ; qtot  0.050
    62        HA2      7      SER    HB1     62     0.090000     1.0080   ; qtot  0.140
    63        HA2      7      SER    HB2     63     0.090000     1.0080   ; qtot  0.230
    64        OH1      7      SER     OG     64    -0.660000    15.9994   ; qtot -0.430
    65          H      7      SER    HG1     65     0.430000     1.0080   ; qtot -0.000
    66          C      7      SER      C     66     0.510000    12.0110   ; qtot  0.510
    67          O      7      SER      O     67    -0.510000    15.9994   ; qtot -0.000
    68        NH1      8      GLY      N     68    -0.470000    14.0070   ; qtot -0.470
    69          H      8      GLY     HN     69     0.310000     1.0080   ; qtot -0.160
    70        CT2      8      GLY     CA     70    -0.020000    12.0110   ; qtot -0.180
    71        HB2      8      GLY    HA1     71     0.090000     1.0080   ; qtot -0.090
    72        HB2      8      GLY    HA2     72     0.090000     1.0080   ; qtot -0.000
    73          C      8      GLY      C     73     0.510000    12.0110   ; qtot  0.510
    74          O      8      GLY      O     74    -0.510000    15.9994   ; qtot -0.000
    75          N      9      PRO      N     75    -0.290000    14.0070   ; qtot -0.290
    76        CP3      9      PRO     CD     76     0.000000    12.0110   ; qtot -0.290
    77        HA2      9      PRO    HD1     77     0.090000     1.0080   ; qtot -0.200
    78        HA2      9      PRO    HD2     78     0.090000     1.0080   ; qtot -0.110
    79        CP1      9      PRO     CA     79     0.020000    12.0110   ; qtot -0.090
    80        HB1      9      PRO     HA     80     0.090000     1.0080   ; qtot -0.000
    81        CP2      9      PRO     CB     81    -0.180000    12.0110   ; qtot -0.180
    82        HA2      9      PRO    HB1     82     0.090000     1.0080   ; qtot -0.090
    83        HA2      9      PRO    HB2     83     0.090000     1.0080   ; qtot -0.000
    84        CP2      9      PRO     CG     84    -0.180000    12.0110   ; qtot -0.180
    85        HA2      9      PRO    HG1     85     0.090000     1.0080   ; qtot -0.090
    86        HA2      9      PRO    HG2     86     0.090000     1.0080   ; qtot -0.000
    87          C      9      PRO      C     87     0.510000    12.0110   ; qtot  0.510
    88          O      9      PRO      O     88    -0.510000    15.9994   ; qtot -0.000
    89        NH1     10      GLY      N     89    -0.470000    14.0070   ; qtot -0.470
    90          H     10      GLY     HN     90     0.310000     1.0080   ; qtot -0.160
    91        CT2     10      GLY     CA     91    -0.020000    12.0110   ; qtot -0.180
    92        HB2     10      GLY    HA1     92     0.090000     1.0080   ; qtot -0.090
    93        HB2     10      GLY    HA2     93     0.090000     1.0080   ; qtot -0.000
    94          C     10      GLY      C     94     0.510000    12.0110   ; qtot  0.510
    95          O     10      GLY      O     95    -0.510000    15.9994   ; qtot -0.000
    96        NH1     11      ASP      N     96    -0.470000    14.0070   ; qtot -0.470
    97          H     11      ASP     HN     97     0.310000     1.0080   ; qtot -0.160
    98        CT1     11      ASP     CA     98     0.070000    12.0110   ; qtot -0.090
    99        HB1     11      ASP     HA     99     0.090000     1.0080   ; qtot -0.000
   100       CT2A     11      ASP     CB    100    -0.280000    12.0110   ; qtot -0.280
   101        HA2     11      ASP    HB1    101     0.090000     1.0080   ; qtot -0.190
   102        HA2     11      ASP    HB2    102     0.090000     1.0080   ; qtot -0.100
   103         CC     11      ASP     CG    103     0.620000    12.0110   ; qtot  0.520
   104         OC     11      ASP    OD1    104    -0.760000    15.9994   ; qtot -0.240
   105         OC     11      ASP    OD2    105    -0.760000    15.9994   ; qtot -1.000
   106          C     11      ASP      C    106     0.510000    12.0110   ; qtot -0.490
   107          O     11      ASP      O    107    -0.510000    15.9994   ; qtot -1.000
   108          N     12      PRO      N    108    -0.290000    14.0070   ; qtot -1.290
   109        CP3     12      PRO     CD    109     0.000000    12.0110   ; qtot -1.290
   110        HA2     12      PRO    HD1    110     0.090000     1.0080   ; qtot -1.200
   111        HA2     12      PRO    HD2    111     0.090000     1.0080   ; qtot -1.110
   112        CP1     12      PRO     CA    112     0.020000    12.0110   ; qtot -1.090
   113        HB1     12      PRO     HA    113     0.090000     1.0080   ; qtot -1.000
   114        CP2     12      PRO     CB    114    -0.180000    12.0110   ; qtot -1.180
   115        HA2     12      PRO    HB1    115     0.090000     1.0080   ; qtot -1.090
   116        HA2     12      PRO    HB2    116     0.090000     1.0080   ; qtot -1.000
   117        CP2     12      PRO     CG    117    -0.180000    12.0110   ; qtot -1.180
   118        HA2     12      PRO    HG1    118     0.090000     1.0080   ; qtot -1.090
   119        HA2     12      PRO    HG2    119     0.090000     1.0080   ; qtot -1.000
   120          C     12      PRO      C    120     0.510000    12.0110   ; qtot -0.490
   121          O     12      PRO      O    121    -0.510000    15.9994   ; qtot -1.000
   122        NH1     13      GLY      N    122    -0.470000    14.0070   ; qtot -1.470
   123          H     13      GLY     HN    123     0.310000     1.0080   ; qtot -1.160
   124        CT2     13      GLY     CA    124    -0.020000    12.0110   ; qtot -1.180
   125        HB2     13      GLY    HA1    125     0.090000     1.0080   ; qtot -1.090
   126        HB2     13      GLY    HA2    126     0.090000     1.0080   ; qtot -1.000
   127          C     13      GLY      C    127     0.510000    12.0110   ; qtot -0.490
   128          O     13      GLY      O    128    -0.510000    15.9994   ; qtot -1.000
   129        NH1     14      SER      N    129    -0.470000    14.0070   ; qtot -1.470
   130          H     14      SER     HN    130     0.310000     1.0080   ; qtot -1.160
   131        CT1     14      SER     CA    131     0.070000    12.0110   ; qtot -1.090
   132        HB1     14      SER     HA    132     0.090000     1.0080   ; qtot -1.000
   133        CT2     14      SER     CB    133     0.050000    12.0110   ; qtot -0.950
   134        HA2     14      SER    HB1    134     0.090000     1.0080   ; qtot -0.860
   135        HA2     14      SER    HB2    135     0.090000     1.0080   ; qtot -0.770
   136        OH1     14      SER     OG    136    -0.660000    15.9994   ; qtot -1.430
   137          H     14      SER    HG1    137     0.430000     1.0080   ; qtot -1.000
   138          C     14      SER      C    138     0.510000    12.0110   ; qtot -0.490
   139          O     14      SER      O    139    -0.510000    15.9994   ; qtot -1.000
   140        NH1     15      GLY      N    140    -0.470000    14.0070   ; qtot -1.470
   141          H     15      GLY     HN    141     0.310000     1.0080   ; qtot -1.160
   142        CT2     15      GLY     CA    142    -0.020000    12.0110   ; qtot -1.180
   143        HB2     15      GLY    HA1    143     0.090000     1.0080   ; qtot -1.090
   144        HB2     15      GLY    HA2    144     0.090000     1.0080   ; qtot -1.000
   145          C     15      GLY      C    145     0.510000    12.0110   ; qtot -0.490
   146          O     15      GLY      O    146    -0.510000    15.9994   ; qtot -1.000
   147          N     16      PRO      N    147    -0.290000    14.0070   ; qtot -1.290
   148        CP3     16      PRO     CD    148     0.000000    12.0110   ; qtot -1.290
   149        HA2     16      PRO    HD1    149     0.090000     1.0080   ; qtot -1.200
   150        HA2     16      PRO    HD2    150     0.090000     1.0080   ; qtot -1.110
   151        CP1     16      PRO     CA    151     0.020000    12.0110   ; qtot -1.090
   152        HB1     16      PRO     HA    152     0.090000     1.0080   ; qtot -1.000
   153        CP2     16      PRO     CB    153    -0.180000    12.0110   ; qtot -1.180
   154        HA2     16      PRO    HB1    154     0.090000     1.0080   ; qtot -1.090
   155        HA2     16      PRO    HB2    155     0.090000     1.0080   ; qtot -1.000
   156        CP2     16      PRO     CG    156    -0.180000    12.0110   ; qtot -1.180
   157        HA2     16      PRO    HG1    157     0.090000     1.0080   ; qtot -1.090
   158        HA2     16      PRO    HG2    158     0.090000     1.0080   ; qtot -1.000
   159          C     16      PRO      C    159     0.510000    12.0110   ; qtot -0.490
   160          O     16      PRO      O    160    -0.510000    15.9994   ; qtot -1.000
   161        NH1     17      GLY      N    161    -0.470000    14.0070   ; qtot -1.470
   162          H     17      GLY     HN    162     0.310000     1.0080   ; qtot -1.160
   163        CT2     17      GLY     CA    163    -0.020000    12.0110   ; qtot -1.180
   164        HB2     17      GLY    HA1    164     0.090000     1.0080   ; qtot -1.090
   165        HB2     17      GLY    HA2    165     0.090000     1.0080   ; qtot -1.000
   166          C     17      GLY      C    166     0.510000    12.0110   ; qtot -0.490
   167          O     17      GLY      O    167    -0.510000    15.9994   ; qtot -1.000
   168        NH1     18      ASP      N    168    -0.470000    14.0070   ; qtot -1.470
   169          H     18      ASP     HN    169     0.310000     1.0080   ; qtot -1.160
   170        CT1     18      ASP     CA    170     0.070000    12.0110   ; qtot -1.090
   171        HB1     18      ASP     HA    171     0.090000     1.0080   ; qtot -1.000
   172       CT2A     18      ASP     CB    172    -0.280000    12.0110   ; qtot -1.280
   173        HA2     18      ASP    HB1    173     0.090000     1.0080   ; qtot -1.190
   174        HA2     18      ASP    HB2    174     0.090000     1.0080   ; qtot -1.100
   175         CC     18      ASP     CG    175     0.620000    12.0110   ; qtot -0.480
   176         OC     18      ASP    OD1    176    -0.760000    15.9994   ; qtot -1.240
   177         OC     18      ASP    OD2    177    -0.760000    15.9994   ; qtot -2.000
   178          C     18      ASP      C    178     0.510000    12.0110   ; qtot -1.490
   179          O     18      ASP      O    179    -0.510000    15.9994   ; qtot -2.000
   180          N     19      PRO      N    180    -0.290000    14.0070   ; qtot -2.290
   181        CP3     19      PRO     CD    181     0.000000    12.0110   ; qtot -2.290
   182        HA2     19      PRO    HD1    182     0.090000     1.0080   ; qtot -2.200
   183        HA2     19      PRO    HD2    183     0.090000     1.0080   ; qtot -2.110
   184        CP1     19      PRO     CA    184     0.020000    12.0110   ; qtot -2.090
   185        HB1     19      PRO     HA    185     0.090000     1.0080   ; qtot -2.000
   186        CP2     19      PRO     CB    186    -0.180000    12.0110   ; qtot -2.180
   187        HA2     19      PRO    HB1    187     0.090000     1.0080   ; qtot -2.090
   188        HA2     19      PRO    HB2    188     0.090000     1.0080   ; qtot -2.000
   189        CP2     19      PRO     CG    189    -0.180000    12.0110   ; qtot -2.180
   190        HA2     19      PRO    HG1    190     0.090000     1.0080   ; qtot -2.090
   191        HA2     19      PRO    HG2    191     0.090000     1.0080   ; qtot -2.000
   192         CC     19      PRO      C    192     0.340000    12.0110   ; qtot -1.660
   193         OC     19      PRO    OT1    193    -0.670000    15.9994   ; qtot -2.330
   194         OC     19      PRO    OT2    194    -0.670000    15.9994   ; qtot -3.000

[ bonds ]
; ai	aj	funct	b0	Kb
    2     1     1
    3     1     1
    1     4     1
    1     7     1
    5     4     1
    6     4     1
   12     4     1
    8     7     1
    7     9     1
   15     7     1
   10     9     1
   11     9     1
    9    12     1
   13    12     1
   14    12     1
   16    15     1
   15    17     1
   17    18     1
   17    19     1
   19    20     1
   19    21     1
   22    19     1
   23    22     1
   22    24     1
   24    25     1
   24    26     1
   26    27     1
   28    26     1
   34    26     1
   28    29     1
   28    30     1
   31    28     1
   31    32     1
   33    31     1
   35    34     1
   34    36     1
   36    37     1
   36    40     1
   38    37     1
   39    37     1
   45    37     1
   41    40     1
   40    42     1
   48    40     1
   43    42     1
   44    42     1
   42    45     1
   46    45     1
   47    45     1
   49    48     1
   48    50     1
   50    51     1
   50    52     1
   52    53     1
   52    54     1
   55    52     1
   56    55     1
   55    57     1
   57    58     1
   57    59     1
   59    60     1
   61    59     1
   66    59     1
   61    62     1
   61    63     1
   64    61     1
   64    65     1
   67    66     1
   66    68     1
   68    69     1
   68    70     1
   70    71     1
   70    72     1
   73    70     1
   74    73     1
   73    75     1
   75    76     1
   75    79     1
   77    76     1
   78    76     1
   84    76     1
   80    79     1
   79    81     1
   87    79     1
   82    81     1
   83    81     1
   81    84     1
   85    84     1
   86    84     1
   88    87     1
   87    89     1
   89    90     1
   89    91     1
   91    92     1
   91    93     1
   94    91     1
   95    94     1
   94    96     1
   96    97     1
   96    98     1
   98    99     1
  100    98     1
  106    98     1
  100   101     1
  100   102     1
  103   100     1
  103   104     1
  105   103     1
  107   106     1
  106   108     1
  108   109     1
  108   112     1
  110   109     1
  111   109     1
  117   109     1
  113   112     1
  112   114     1
  120   112     1
  115   114     1
  116   114     1
  114   117     1
  118   117     1
  119   117     1
  121   120     1
  120   122     1
  122   123     1
  122   124     1
  124   125     1
  124   126     1
  127   124     1
  128   127     1
  127   129     1
  129   130     1
  129   131     1
  131   132     1
  133   131     1
  138   131     1
  133   134     1
  133   135     1
  136   133     1
  136   137     1
  139   138     1
  138   140     1
  140   141     1
  140   142     1
  142   143     1
  142   144     1
  145   142     1
  146   145     1
  145   147     1
  147   148     1
  147   151     1
  149   148     1
  150   148     1
  156   148     1
  152   151     1
  151   153     1
  159   151     1
  154   153     1
  155   153     1
  153   156     1
  157   156     1
  158   156     1
  160   159     1
  159   161     1
  161   162     1
  161   163     1
  163   164     1
  163   165     1
  166   163     1
  167   166     1
  166   168     1
  168   169     1
  168   170     1
  170   171     1
  172   170     1
  178   170     1
  172   173     1
  172   174     1
  175   172     1
  175   176     1
  177   175     1
  179   178     1
  178   180     1
  180   181     1
  180   184     1
  182   181     1
  183   181     1
  189   181     1
  185   184     1
  184   186     1
  192   184     1
  187   186     1
  188   186     1
  186   189     1
  190   189     1
  191   189     1
  192   193     1
  192   194     1

[ pairs ]
; ai	aj	funct	c6	c12 or
; ai	aj	funct	fudgeQQ	q1	q2	c6	c12
    1    10     1
    1    11     1
    1    13     1
    1    14     1
    1    16     1
    1    17     1
    2     5     1
    2     6     1
    2     8     1
    2     9     1
    2    12     1
    2    15     1
    3     5     1
    3     6     1
    3     8     1
    3     9     1
    3    12     1
    3    15     1
    4     8     1
    4    10     1
    4    11     1
    4    15     1
    5     7     1
    5     9     1
    5    13     1
    5    14     1
    6     7     1
    6     9     1
    6    13     1
    6    14     1
    7    13     1
    7    14     1
    7    18     1
    7    19     1
    8    10     1
    8    11     1
    8    12     1
    8    16     1
    8    17     1
    9    16     1
    9    17     1
   10    13     1
   10    14     1
   10    15     1
   11    13     1
   11    14     1
   11    15     1
   12    15     1
   15    20     1
   15    21     1
   15    22     1
   16    18     1
   16    19     1
   17    23     1
   17    24     1
   18    20     1
   18    21     1
   18    22     1
   19    25     1
   19    26     1
   20    23     1
   20    24     1
   21    23     1
   21    24     1
   22    27     1
   22    28     1
   22    34     1
   23    25     1
   23    26     1
   24    29     1
   24    30     1
   24    31     1
   24    35     1
   24    36     1
   25    27     1
   25    28     1
   25    34     1
   26    32     1
   26    33     1
   26    37     1
   26    40     1
   27    29     1
   27    30     1
   27    31     1
   27    35     1
   27    36     1
   28    35     1
   28    36     1
   29    32     1
   29    33     1
   29    34     1
   30    32     1
   30    33     1
   30    34     1
   31    34     1
   34    38     1
   34    39     1
   34    41     1
   34    42     1
   34    45     1
   34    48     1
   35    37     1
   35    40     1
   36    43     1
   36    44     1
   36    46     1
   36    47     1
   36    49     1
   36    50     1
   37    41     1
   37    43     1
   37    44     1
   37    48     1
   38    40     1
   38    42     1
   38    46     1
   38    47     1
   39    40     1
   39    42     1
   39    46     1
   39    47     1
   40    46     1
   40    47     1
   40    51     1
   40    52     1
   41    43     1
   41    44     1
   41    45     1
   41    49     1
   41    50     1
   42    49     1
   42    50     1
   43    46     1
   43    47     1
   43    48     1
   44    46     1
   44    47     1
   44    48     1
   45    48     1
   48    53     1
   48    54     1
   48    55     1
   49    51     1
   49    52     1
   50    56     1
   50    57     1
   51    53     1
   51    54     1
   51    55     1
   52    58     1
   52    59     1
   53    56     1
   53    57     1
   54    56     1
   54    57     1
   55    60     1
   55    61     1
   55    66     1
   56    58     1
   56    59     1
   57    62     1
   57    63     1
   57    64     1
   57    67     1
   57    68     1
   58    60     1
   58    61     1
   58    66     1
   59    65     1
   59    69     1
   59    70     1
   60    62     1
   60    63     1
   60    64     1
   60    67     1
   60    68     1
   61    67     1
   61    68     1
   62    65     1
   62    66     1
   63    65     1
   63    66     1
   64    66     1
   66    71     1
   66    72     1
   66    73     1
   67    69     1
   67    70     1
   68    74     1
   68    75     1
   69    71     1
   69    72     1
   69    73     1
   70    76     1
   70    79     1
   71    74     1
   71    75     1
   72    74     1
   72    75     1
   73    77     1
   73    78     1
   73    80     1
   73    81     1
   73    84     1
   73    87     1
   74    76     1
   74    79     1
   75    82     1
   75    83     1
   75    85     1
   75    86     1
   75    88     1
   75    89     1
   76    80     1
   76    82     1
   76    83     1
   76    87     1
   77    79     1
   77    81     1
   77    85     1
   77    86     1
   78    79     1
   78    81     1
   78    85     1
   78    86     1
   79    85     1
   79    86     1
   79    90     1
   79    91     1
   80    82     1
   80    83     1
   80    84     1
   80    88     1
   80    89     1
   81    88     1
   81    89     1
   82    85     1
   82    86     1
   82    87     1
   83    85     1
   83    86     1
   83    87     1
   84    87     1
   87    92     1
   87    93     1
   87    94     1
   88    90     1
   88    91     1
   89    95     1
   89    96     1
   90    92     1
   90    93     1
   90    94     1
   91    97     1
   91    98     1
   92    95     1
   92    96     1
   93    95     1
   93    96     1
   94    99     1
   94   100     1
   94   106     1
   95    97     1
   95    98     1
   96   101     1
   96   102     1
   96   103     1
   96   107     1
   96   108     1
   97    99     1
   97   100     1
   97   106     1
   98   104     1
   98   105     1
   98   109     1
   98   112     1
   99   101     1
   99   102     1
   99   103     1
   99   107     1
   99   108     1
  100   107     1
  100   108     1
  101   104     1
  101   105     1
  101   106     1
  102   104     1
  102   105     1
  102   106     1
  103   106     1
  106   110     1
  106   111     1
  106   113     1
  106   114     1
  106   117     1
  106   120     1
  107   109     1
  107   112     1
  108   115     1
  108   116     1
  108   118     1
  108   119     1
  108   121     1
  108   122     1
  109   113     1
  109   115     1
  109   116     1
  109   120     1
  110   112     1
  110   114     1
  110   118     1
  110   119     1
  111   112     1
  111   114     1
  111   118     1
  111   119     1
  112   118     1
  112   119     1
  112   123     1
  112   124     1
  113   115     1
  113   116     1
  113   117     1
  113   121     1
  113   122     1
  114   121     1
  114   122     1
  115   118     1
  115   119     1
  115   120     1
  116   118     1
  116   119     1
  116   120     1
  117   120     1
  120   125     1
  120   126     1
  120   127     1
  121   123     1
  121   124     1
  122   128     1
  122   129     1
  123   125     1
  123   126     1
  123   127     1
  124   130     1
  124   131     1
  125   128     1
  125   129     1
  126   128     1
  126   129     1
  127   132     1
  127   133     1
  127   138     1
  128   130     1
  128   131     1
  129   134     1
  129   135     1
  129   136     1
  129   139     1
  129   140     1
  130   132     1
  130   133     1
  130   138     1
  131   137     1
  131   141     1
  131   142     1
  132   134     1
  132   135     1
  132   136     1
  132   139     1
  132   140     1
  133   139     1
  133   140     1
  134   137     1
  134   138     1
  135   137     1
  135   138     1
  136   138     1
  138   143     1
  138   144     1
  138   145     1
  139   141     1
  139   142     1
  140   146     1
  140   147     1
  141   143     1
  141   144     1
  141   145     1
  142   148     1
  142   151     1
  143   146     1
  143   147     1
  144   146     1
  144   147     1
  145   149     1
  145   150     1
  145   152     1
  145   153     1
  145   156     1
  145   159     1
  146   148     1
  146   151     1
  147   154     1
  147   155     1
  147   157     1
  147   158     1
  147   160     1
  147   161     1
  148   152     1
  148   154     1
  148   155     1
  148   159     1
  149   151     1
  149   153     1
  149   157     1
  149   158     1
  150   151     1
  150   153     1
  150   157     1
  150   158     1
  151   157     1
  151   158     1
  151   162     1
  151   163     1
  152   154     1
  152   155     1
  152   156     1
  152   160     1
  152   161     1
  153   160     1
  153   161     1
  154   157     1
  154   158     1
  154   159     1
  155   157     1
  155   158     1
  155   159     1
  156   159     1
  159   164     1
  159   165     1
  159   166     1
  160   162     1
  160   163     1
  161   167     1
  161   168     1
  162   164     1
  162   165     1
  162   166     1
  163   169     1
  163   170     1
  164   167     1
  164   168     1
  165   167     1
  165   168     1
  166   171     1
  166   172     1
  166   178     1
  167   169     1
  167   170     1
  168   173     1
  168   174     1
  168   175     1
  168   179     1
  168   180     1
  169   171     1
  169   172     1
  169   178     1
  170   176     1
  170   177     1
  170   181     1
  170   184     1
  171   173     1
  171   174     1
  171   175     1
  171   179     1
  171   180     1
  172   179     1
  172   180     1
  173   176     1
  173   177     1
  173   178     1
  174   176     1
  174   177     1
  174   178     1
  175   178     1
  178   182     1
  178   183     1
  178   185     1
  178   186     1
  178   189     1
  178   192     1
  179   181     1
  179   184     1
  180   187     1
  180   188     1
  180   190     1
  180   191     1
  180   193     1
  180   194     1
  181   185     1
  181   187     1
  181   188     1
  181   192     1
  182   184     1
  182   186     1
  182   190     1
  182   191     1
  183   184     1
  183   186     1
  183   190     1
  183   191     1
  184   190     1
  184   191     1
  185   187     1
  185   188     1
  185   189     1
  185   193     1
  185   194     1
  186   193     1
  186   194     1
  187   190     1
  187   191     1
  187   192     1
  188   190     1
  188   191     1
  188   192     1
  189   192     1

[ angles ] 
; ai	aj	ak	funct	th0	cth	S0	Kub
    2     1     3     5
    2     1     4     5
    2     1     7     5
    3     1     4     5
    3     1     7     5
    4     1     7     5
    1     4     5     5
    1     4     6     5
    1     4    12     5
    5     4     6     5
    5     4    12     5
    6     4    12     5
    1     7     8     5
    1     7     9     5
    1     7    15     5
    8     7     9     5
    8     7    15     5
    9     7    15     5
    7     9    10     5
    7     9    11     5
    7     9    12     5
   10     9    11     5
   10     9    12     5
   11     9    12     5
    4    12     9     5
    4    12    13     5
    4    12    14     5
    9    12    13     5
    9    12    14     5
   13    12    14     5
    7    15    16     5
    7    15    17     5
   16    15    17     5
   15    17    18     5
   15    17    19     5
   18    17    19     5
   17    19    20     5
   17    19    21     5
   17    19    22     5
   20    19    21     5
   20    19    22     5
   21    19    22     5
   19    22    23     5
   19    22    24     5
   23    22    24     5
   22    24    25     5
   22    24    26     5
   25    24    26     5
   24    26    27     5
   24    26    28     5
   24    26    34     5
   27    26    28     5
   27    26    34     5
   28    26    34     5
   26    28    29     5
   26    28    30     5
   26    28    31     5
   29    28    30     5
   29    28    31     5
   30    28    31     5
   28    31    32     5
   28    31    33     5
   32    31    33     5
   26    34    35     5
   26    34    36     5
   35    34    36     5
   34    36    37     5
   34    36    40     5
   37    36    40     5
   36    37    38     5
   36    37    39     5
   36    37    45     5
   38    37    39     5
   38    37    45     5
   39    37    45     5
   36    40    41     5
   36    40    42     5
   36    40    48     5
   41    40    42     5
   41    40    48     5
   42    40    48     5
   40    42    43     5
   40    42    44     5
   40    42    45     5
   43    42    44     5
   43    42    45     5
   44    42    45     5
   37    45    42     5
   37    45    46     5
   37    45    47     5
   42    45    46     5
   42    45    47     5
   46    45    47     5
   40    48    49     5
   40    48    50     5
   49    48    50     5
   48    50    51     5
   48    50    52     5
   51    50    52     5
   50    52    53     5
   50    52    54     5
   50    52    55     5
   53    52    54     5
   53    52    55     5
   54    52    55     5
   52    55    56     5
   52    55    57     5
   56    55    57     5
   55    57    58     5
   55    57    59     5
   58    57    59     5
   57    59    60     5
   57    59    61     5
   57    59    66     5
   60    59    61     5
   60    59    66     5
   61    59    66     5
   59    61    62     5
   59    61    63     5
   59    61    64     5
   62    61    63     5
   62    61    64     5
   63    61    64     5
   61    64    65     5
   59    66    67     5
   59    66    68     5
   67    66    68     5
   66    68    69     5
   66    68    70     5
   69    68    70     5
   68    70    71     5
   68    70    72     5
   68    70    73     5
   71    70    72     5
   71    70    73     5
   72    70    73     5
   70    73    74     5
   70    73    75     5
   74    73    75     5
   73    75    76     5
   73    75    79     5
   76    75    79     5
   75    76    77     5
   75    76    78     5
   75    76    84     5
   77    76    78     5
   77    76    84     5
   78    76    84     5
   75    79    80     5
   75    79    81     5
   75    79    87     5
   80    79    81     5
   80    79    87     5
   81    79    87     5
   79    81    82     5
   79    81    83     5
   79    81    84     5
   82    81    83     5
   82    81    84     5
   83    81    84     5
   76    84    81     5
   76    84    85     5
   76    84    86     5
   81    84    85     5
   81    84    86     5
   85    84    86     5
   79    87    88     5
   79    87    89     5
   88    87    89     5
   87    89    90     5
   87    89    91     5
   90    89    91     5
   89    91    92     5
   89    91    93     5
   89    91    94     5
   92    91    93     5
   92    91    94     5
   93    91    94     5
   91    94    95     5
   91    94    96     5
   95    94    96     5
   94    96    97     5
   94    96    98     5
   97    96    98     5
   96    98    99     5
   96    98   100     5
   96    98   106     5
   99    98   100     5
   99    98   106     5
  100    98   106     5
   98   100   101     5
   98   100   102     5
   98   100   103     5
  101   100   102     5
  101   100   103     5
  102   100   103     5
  100   103   104     5
  100   103   105     5
  104   103   105     5
   98   106   107     5
   98   106   108     5
  107   106   108     5
  106   108   109     5
  106   108   112     5
  109   108   112     5
  108   109   110     5
  108   109   111     5
  108   109   117     5
  110   109   111     5
  110   109   117     5
  111   109   117     5
  108   112   113     5
  108   112   114     5
  108   112   120     5
  113   112   114     5
  113   112   120     5
  114   112   120     5
  112   114   115     5
  112   114   116     5
  112   114   117     5
  115   114   116     5
  115   114   117     5
  116   114   117     5
  109   117   114     5
  109   117   118     5
  109   117   119     5
  114   117   118     5
  114   117   119     5
  118   117   119     5
  112   120   121     5
  112   120   122     5
  121   120   122     5
  120   122   123     5
  120   122   124     5
  123   122   124     5
  122   124   125     5
  122   124   126     5
  122   124   127     5
  125   124   126     5
  125   124   127     5
  126   124   127     5
  124   127   128     5
  124   127   129     5
  128   127   129     5
  127   129   130     5
  127   129   131     5
  130   129   131     5
  129   131   132     5
  129   131   133     5
  129   131   138     5
  132   131   133     5
  132   131   138     5
  133   131   138     5
  131   133   134     5
  131   133   135     5
  131   133   136     5
  134   133   135     5
  134   133   136     5
  135   133   136     5
  133   136   137     5
  131   138   139     5
  131   138   140     5
  139   138   140     5
  138   140   141     5
  138   140   142     5
  141   140   142     5
  140   142   143     5
  140   142   144     5
  140   142   145     5
  143   142   144     5
  143   142   145     5
  144   142   145     5
  142   145   146     5
  142   145   147     5
  146   145   147     5
  145   147   148     5
  145   147   151     5
  148   147   151     5
  147   148   149     5
  147   148   150     5
  147   148   156     5
  149   148   150     5
  149   148   156     5
  150   148   156     5
  147   151   152     5
  147   151   153     5
  147   151   159     5
  152   151   153     5
  152   151   159     5
  153   151   159     5
  151   153   154     5
  151   153   155     5
  151   153   156     5
  154   153   155     5
  154   153   156     5
  155   153   156     5
  148   156   153     5
  148   156   157     5
  148   156   158     5
  153   156   157     5
  153   156   158     5
  157   156   158     5
  151   159   160     5
  151   159   161     5
  160   159   161     5
  159   161   162     5
  159   161   163     5
  162   161   163     5
  161   163   164     5
  161   163   165     5
  161   163   166     5
  164   163   165     5
  164   163   166     5
  165   163   166     5
  163   166   167     5
  163   166   168     5
  167   166   168     5
  166   168   169     5
  166   168   170     5
  169   168   170     5
  168   170   171     5
  168   170   172     5
  168   170   178     5
  171   170   172     5
  171   170   178     5
  172   170   178     5
  170   172   173     5
  170   172   174     5
  170   172   175     5
  173   172   174     5
  173   172   175     5
  174   172   175     5
  172   175   176     5
  172   175   177     5
  176   175   177     5
  170   178   179     5
  170   178   180     5
  179   178   180     5
  178   180   181     5
  178   180   184     5
  181   180   184     5
  180   181   182     5
  180   181   183     5
  180   181   189     5
  182   181   183     5
  182   181   189     5
  183   181   189     5
  180   184   185     5
  180   184   186     5
  180   184   192     5
  185   184   186     5
  185   184   192     5
  186   184   192     5
  184   186   187     5
  184   186   188     5
  184   186   189     5
  187   186   188     5
  187   186   189     5
  188   186   189     5
  181   189   186     5
  181   189   190     5
  181   189   191     5
  186   189   190     5
  186   189   191     5
  190   189   191     5
  184   192   193     5
  184   192   194     5
  193   192   194     5

[ dihedrals ]
; ai	aj	ak	al	funct	phi0	cp	mult
    2     1     4     5     9
    2     1     4     6     9
    2     1     4    12     9
    3     1     4     5     9
    3     1     4     6     9
    3     1     4    12     9
    7     1     4    12     9
    2     1     7     8     9
    2     1     7     9     9
    2     1     7    15     9
    3     1     7     8     9
    3     1     7     9     9
    3     1     7    15     9
    4     1     7     8     9
    4     1     7     9     9
    4     1     7    15     9
    5     4     1     7     9
    6     4     1     7     9
    1     4    12     9     9
    1     4    12    13     9
    1     4    12    14     9
    5     4    12     9     9
    5     4    12    13     9
    5     4    12    14     9
    6     4    12     9     9
    6     4    12    13     9
    6     4    12    14     9
    1     7     9    10     9
    1     7     9    11     9
    1     7     9    12     9
    8     7     9    10     9
    8     7     9    11     9
    8     7     9    12     9
    1     7    15    16     9
    1     7    15    17     9
    8     7    15    16     9
    8     7    15    17     9
    9     7    15    16     9
    9     7    15    17     9
   10     9     7    15     9
   11     9     7    15     9
   12     9     7    15     9
    7     9    12    13     9
    7     9    12    14     9
   10     9    12    13     9
   10     9    12    14     9
   11     9    12    13     9
   11     9    12    14     9
    4    12     9     7     9
    4    12     9    10     9
    4    12     9    11     9
    7    15    17    18     9
    7    15    17    19     9
   16    15    17    18     9
   16    15    17    19     9
   15    17    19    20     9
   15    17    19    21     9
   15    17    19    22     9
   18    17    19    20     9
   18    17    19    21     9
   18    17    19    22     9
   17    19    22    23     9
   17    19    22    24     9
   20    19    22    23     9
   20    19    22    24     9
   21    19    22    23     9
   21    19    22    24     9
   19    22    24    25     9
   19    22    24    26     9
   23    22    24    25     9
   23    22    24    26     9
   22    24    26    27     9
   22    24    26    28     9
   22    24    26    34     9
   25    24    26    27     9
   25    24    26    28     9
   25    24    26    34     9
   24    26    28    29     9
   24    26    28    30     9
   24    26    28    31     9
   27    26    28    29     9
   27    26    28    30     9
   27    26    28    31     9
   24    26    34    35     9
   24    26    34    36     9
   27    26    34    35     9
   27    26    34    36     9
   28    26    34    35     9
   28    26    34    36     9
   29    28    26    34     9
   30    28    26    34     9
   31    28    26    34     9
   26    28    31    32     9
   26    28    31    33     9
   29    28    31    32     9
   29    28    31    33     9
   30    28    31    32     9
   30    28    31    33     9
   26    34    36    37     9
   26    34    36    40     9
   35    34    36    37     9
   35    34    36    40     9
   34    36    37    38     9
   34    36    37    39     9
   34    36    37    45     9
   40    36    37    45     9
   34    36    40    41     9
   34    36    40    42     9
   34    36    40    48     9
   37    36    40    41     9
   37    36    40    42     9
   37    36    40    48     9
   38    37    36    40     9
   39    37    36    40     9
   36    37    45    42     9
   36    37    45    46     9
   36    37    45    47     9
   38    37    45    42     9
   38    37    45    46     9
   38    37    45    47     9
   39    37    45    42     9
   39    37    45    46     9
   39    37    45    47     9
   36    40    42    43     9
   36    40    42    44     9
   36    40    42    45     9
   41    40    42    43     9
   41    40    42    44     9
   41    40    42    45     9
   36    40    48    49     9
   36    40    48    50     9
   41    40    48    49     9
   41    40    48    50     9
   42    40    48    49     9
   42    40    48    50     9
   43    42    40    48     9
   44    42    40    48     9
   45    42    40    48     9
   40    42    45    46     9
   40    42    45    47     9
   43    42    45    46     9
   43    42    45    47     9
   44    42    45    46     9
   44    42    45    47     9
   37    45    42    40     9
   37    45    42    43     9
   37    45    42    44     9
   40    48    50    51     9
   40    48    50    52     9
   49    48    50    51     9
   49    48    50    52     9
   48    50    52    53     9
   48    50    52    54     9
   48    50    52    55     9
   51    50    52    53     9
   51    50    52    54     9
   51    50    52    55     9
   50    52    55    56     9
   50    52    55    57     9
   53    52    55    56     9
   53    52    55    57     9
   54    52    55    56     9
   54    52    55    57     9
   52    55    57    58     9
   52    55    57    59     9
   56    55    57    58     9
   56    55    57    59     9
   55    57    59    60     9
   55    57    59    61     9
   55    57    59    66     9
   58    57    59    60     9
   58    57    59    61     9
   58    57    59    66     9
   57    59    61    62     9
   57    59    61    63     9
   57    59    61    64     9
   60    59    61    62     9
   60    59    61    63     9
   60    59    61    64     9
   57    59    66    67     9
   57    59    66    68     9
   60    59    66    67     9
   60    59    66    68     9
   61    59    66    67     9
   61    59    66    68     9
   62    61    59    66     9
   63    61    59    66     9
   64    61    59    66     9
   59    61    64    65     9
   62    61    64    65     9
   63    61    64    65     9
   59    66    68    69     9
   59    66    68    70     9
   67    66    68    69     9
   67    66    68    70     9
   66    68    70    71     9
   66    68    70    72     9
   66    68    70    73     9
   69    68    70    71     9
   69    68    70    72     9
   69    68    70    73     9
   68    70    73    74     9
   68    70    73    75     9
   71    70    73    74     9
   71    70    73    75     9
   72    70    73    74     9
   72    70    73    75     9
   70    73    75    76     9
   70    73    75    79     9
   74    73    75    76     9
   74    73    75    79     9
   73    75    76    77     9
   73    75    76    78     9
   73    75    76    84     9
   79    75    76    84     9
   73    75    79    80     9
   73    75    79    81     9
   73    75    79    87     9
   76    75    79    80     9
   76    75    79    81     9
   76    75    79    87     9
   77    76    75    79     9
   78    76    75    79     9
   75    76    84    81     9
   75    76    84    85     9
   75    76    84    86     9
   77    76    84    81     9
   77    76    84    85     9
   77    76    84    86     9
   78    76    84    81     9
   78    76    84    85     9
   78    76    84    86     9
   75    79    81    82     9
   75    79    81    83     9
   75    79    81    84     9
   80    79    81    82     9
   80    79    81    83     9
   80    79    81    84     9
   75    79    87    88     9
   75    79    87    89     9
   80    79    87    88     9
   80    79    87    89     9
   81    79    87    88     9
   81    79    87    89     9
   82    81    79    87     9
   83    81    79    87     9
   84    81    79    87     9
   79    81    84    85     9
   79    81    84    86     9
   82    81    84    85     9
   82    81    84    86     9
   83    81    84    85     9
   83    81    84    86     9
   76    84    81    79     9
   76    84    81    82     9
   76    84    81    83     9
   79    87    89    90     9
   79    87    89    91     9
   88    87    89    90     9
   88    87    89    91     9
   87    89    91    92     9
   87    89    91    93     9
   87    89    91    94     9
   90    89    91    92     9
   90    89    91    93     9
   90    89    91    94     9
   89    91    94    95     9
   89    91    94    96     9
   92    91    94    95     9
   92    91    94    96     9
   93    91    94    95     9
   93    91    94    96     9
   91    94    96    97     9
   91    94    96    98     9
   95    94    96    97     9
   95    94    96    98     9
   94    96    98    99     9
   94    96    98   100     9
   94    96    98   106     9
   97    96    98    99     9
   97    96    98   100     9
   97    96    98   106     9
   96    98   100   101     9
   96    98   100   102     9
   96    98   100   103     9
   99    98   100   101     9
   99    98   100   102     9
   99    98   100   103     9
   96    98   106   107     9
   96    98   106   108     9
   99    98   106   107     9
   99    98   106   108     9
  100    98   106   107     9
  100    98   106   108     9
  101   100    98   106     9
  102   100    98   106     9
  103   100    98   106     9
   98   100   103   104     9
   98   100   103   105     9
  101   100   103   104     9
  101   100   103   105     9
  102   100   103   104     9
  102   100   103   105     9
   98   106   108   109     9
   98   106   108   112     9
  107   106   108   109     9
  107   106   108   112     9
  106   108   109   110     9
  106   108   109   111     9
  106   108   109   117     9
  112   108   109   117     9
  106   108   112   113     9
  106   108   112   114     9
  106   108   112   120     9
  109   108   112   113     9
  109   108   112   114     9
  109   108   112   120     9
  110   109   108   112     9
  111   109   108   112     9
  108   109   117   114     9
  108   109   117   118     9
  108   109   117   119     9
  110   109   117   114     9
  110   109   117   118     9
  110   109   117   119     9
  111   109   117   114     9
  111   109   117   118     9
  111   109   117   119     9
  108   112   114   115     9
  108   112   114   116     9
  108   112   114   117     9
  113   112   114   115     9
  113   112   114   116     9
  113   112   114   117     9
  108   112   120   121     9
  108   112   120   122     9
  113   112   120   121     9
  113   112   120   122     9
  114   112   120   121     9
  114   112   120   122     9
  115   114   112   120     9
  116   114   112   120     9
  117   114   112   120     9
  112   114   117   118     9
  112   114   117   119     9
  115   114   117   118     9
  115   114   117   119     9
  116   114   117   118     9
  116   114   117   119     9
  109   117   114   112     9
  109   117   114   115     9
  109   117   114   116     9
  112   120   122   123     9
  112   120   122   124     9
  121   120   122   123     9
  121   120   122   124     9
  120   122   124   125     9
  120   122   124   126     9
  120   122   124   127     9
  123   122   124   125     9
  123   122   124   126     9
  123   122   124   127     9
  122   124   127   128     9
  122   124   127   129     9
  125   124   127   128     9
  125   124   127   129     9
  126   124   127   128     9
  126   124   127   129     9
  124   127   129   130     9
  124   127   129   131     9
  128   127   129   130     9
  128   127   129   131     9
  127   129   131   132     9
  127   129   131   133     9
  127   129   131   138     9
  130   129   131   132     9
  130   129   131   133     9
  130   129   131   138     9
  129   131   133   134     9
  129   131   133   135     9
  129   131   133   136     9
  132   131   133   134     9
  132   131   133   135     9
  132   131   133   136     9
  129   131   138   139     9
  129   131   138   140     9
  132   131   138   139     9
  132   131   138   140     9
  133   131   138   139     9
  133   131   138   140     9
  134   133   131   138     9
  135   133   131   138     9
  136   133   131   138     9
  131   133   136   137     9
  134   133   136   137     9
  135   133   136   137     9
  131   138   140   141     9
  131   138   140   142     9
  139   138   140   141     9
  139   138   140   142     9
  138   140   142   143     9
  138   140   142   144     9
  138   140   142   145     9
  141   140   142   143     9
  141   140   142   144     9
  141   140   142   145     9
  140   142   145   146     9
  140   142   145   147     9
  143   142   145   146     9
  143   142   145   147     9
  144   142   145   146     9
  144   142   145   147     9
  142   145   147   148     9
  142   145   147   151     9
  146   145   147   148     9
  146   145   147   151     9
  145   147   148   149     9
  145   147   148   150     9
  145   147   148   156     9
  151   147   148   156     9
  145   147   151   152     9
  145   147   151   153     9
  145   147   151   159     9
  148   147   151   152     9
  148   147   151   153     9
  148   147   151   159     9
  149   148   147   151     9
  150   148   147   151     9
  147   148   156   153     9
  147   148   156   157     9
  147   148   156   158     9
  149   148   156   153     9
  149   148   156   157     9
  149   148   156   158     9
  150   148   156   153     9
  150   148   156   157     9
  150   148   156   158     9
  147   151   153   154     9
  147   151   153   155     9
  147   151   153   156     9
  152   151   153   154     9
  152   151   153   155     9
  152   151   153   156     9
  147   151   159   160     9
  147   151   159   161     9
  152   151   159   160     9
  152   151   159   161     9
  153   151   159   160     9
  153   151   159   161     9
  154   153   151   159     9
  155   153   151   159     9
  156   153   151   159     9
  151   153   156   157     9
  151   153   156   158     9
  154   153   156   157     9
  154   153   156   158     9
  155   153   156   157     9
  155   153   156   158     9
  148   156   153   151     9
  148   156   153   154     9
  148   156   153   155     9
  151   159   161   162     9
  151   159   161   163     9
  160   159   161   162     9
  160   159   161   163     9
  159   161   163   164     9
  159   161   163   165     9
  159   161   163   166     9
  162   161   163   164     9
  162   161   163   165     9
  162   161   163   166     9
  161   163   166   167     9
  161   163   166   168     9
  164   163   166   167     9
  164   163   166   168     9
  165   163   166   167     9
  165   163   166   168     9
  163   166   168   169     9
  163   166   168   170     9
  167   166   168   169     9
  167   166   168   170     9
  166   168   170   171     9
  166   168   170   172     9
  166   168   170   178     9
  169   168   170   171     9
  169   168   170   172     9
  169   168   170   178     9
  168   170   172   173     9
  168   170   172   174     9
  168   170   172   175     9
  171   170   172   173     9
  171   170   172   174     9
  171   170   172   175     9
  168   170   178   179     9
  168   170   178   180     9
  171   170   178   179     9
  171   170   178   180     9
  172   170   178   179     9
  172   170   178   180     9
  173   172   170   178     9
  174   172   170   178     9
  175   172   170   178     9
  170   172   175   176     9
  170   172   175   177     9
  173   172   175   176     9
  173   172   175   177     9
  174   172   175   176     9
  174   172   175   177     9
  170   178   180   181     9
  170   178   180   184     9
  179   178   180   181     9
  179   178   180   184     9
  178   180   181   182     9
  178   180   181   183     9
  178   180   181   189     9
  184   180   181   189     9
  178   180   184   185     9
  178   180   184   186     9
  178   180   184   192     9
  181   180   184   185     9
  181   180   184   186     9
  181   180   184   192     9
  182   181   180   184     9
  183   181   180   184     9
  180   181   189   186     9
  180   181   189   190     9
  180   181   189   191     9
  182   181   189   186     9
  182   181   189   190     9
  182   181   189   191     9
  183   181   189   186     9
  183   181   189   190     9
  183   181   189   191     9
  180   184   186   187     9
  180   184   186   188     9
  180   184   186   189     9
  185   184   186   187     9
  185   184   186   188     9
  185   184   186   189     9
  180   184   192   193     9
  180   184   192   194     9
  185   184   192   193     9
  185   184   192   194     9
  186   184   192   193     9
  186   184   192   194     9
  187   186   184   192     9
  188   186   184   192     9
  189   186   184   192     9
  184   186   189   190     9
  184   186   189   191     9
  187   186   189   190     9
  187   186   189   191     9
  188   186   189   190     9
  188   186   189   191     9
  181   189   186   184     9
  181   189   186   187     9
  181   189   186   188     9

[ dihedrals ]
; ai	aj	ak	al	funct	q0	cq
   15     7    17    16     2
   17    15    19    18     2
   22    19    24    23     2
   24    22    26    25     2
   31    28    33    32     2
   34    26    36    35     2
   36    34    40    37     2
   48    40    50    49     2
   50    48    52    51     2
   55    52    57    56     2
   57    55    59    58     2
   66    59    68    67     2
   68    66    70    69     2
   73    70    75    74     2
   75    73    79    76     2
   87    79    89    88     2
   89    87    91    90     2
   94    91    96    95     2
   96    94    98    97     2
  103   100   105   104     2
  106    98   108   107     2
  108   106   112   109     2
  120   112   122   121     2
  122   120   124   123     2
  127   124   129   128     2
  129   127   131   130     2
  138   131   140   139     2
  140   138   142   141     2
  145   142   147   146     2
  147   145   151   148     2
  159   151   161   160     2
  161   159   163   162     2
  166   163   168   167     2
  168   166   170   169     2
  175   172   177   176     2
  178   170   180   179     2
  180   178   184   181     2
  192   184   194   193     2

[ cmap ] 
; ai	aj	ak	al	am	funct
   15    17    19    22    24     1
   22    24    26    34    36     1
   34    36    40    48    50     1
   48    50    52    55    57     1
   55    57    59    66    68     1
   66    68    70    73    75     1
   73    75    79    87    89     1
   87    89    91    94    96     1
   94    96    98   106   108     1
  106   108   112   120   122     1
  120   122   124   127   129     1
  127   129   131   138   140     1
  138   140   142   145   147     1
  145   147   151   159   161     1
  159   161   163   166   168     1
  166   168   170   178   180     1

#ifdef POSRES
[ position_restraints ]
    1     1    POSRES_FC_BB    POSRES_FC_BB    POSRES_FC_BB   
    4     1    POSRES_FC_SC    POSRES_FC_SC    POSRES_FC_SC   
    7     1    POSRES_FC_BB    POSRES_FC_BB    POSRES_FC_BB   
    9     1    POSRES_FC_SC    POSRES_FC_SC    POSRES_FC_SC   
   12     1    POSRES_FC_SC    POSRES_FC_SC    POSRES_FC_SC   
   15     1    POSRES_FC_BB    POSRES_FC_BB    POSRES_FC_BB   
   16     1    POSRES_FC_BB    POSRES_FC_BB    POSRES_FC_BB   
   17     1    POSRES_FC_BB    POSRES_FC_BB    POSRES_FC_BB   
   19     1    POSRES_FC_BB    POSRES_FC_BB    POSRES_FC_BB   
   22     1    POSRES_FC_BB    POSRES_FC_BB    POSRES_FC_BB   
   23     1    POSRES_FC_BB    POSRES_FC_BB    POSRES_FC_BB   
   24     1    POSRES_FC_BB    POSRES_FC_BB    POSRES_FC_BB   
   26     1    POSRES_FC_BB    POSRES_FC_BB    POSRES_FC_BB   
   28     1    POSRES_FC_SC    POSRES_FC_SC    POSRES_FC_SC   
   31     1    POSRES_FC_SC    POSRES_FC_SC    POSRES_FC_SC   
   32     1    POSRES_FC_SC    POSRES_FC_SC    POSRES_FC_SC   
   33     1    POSRES_FC_SC    POSRES_FC_SC    POSRES_FC_SC   
   34     1    POSRES_FC_BB    POSRES_FC_BB    POSRES_FC_BB   
   35     1    POSRES_FC_BB    POSRES_FC_BB    POSRES_FC_BB   
   36     1    POSRES_FC_BB    POSRES_FC_BB    POSRES_FC_BB   
   37     1    POSRES_FC_SC    POSRES_FC_SC    POSRES_FC_SC   
   40     1    POSRES_FC_BB    POSRES_FC_BB    POSRES_FC_BB   
   42     1    POSRES_FC_SC    POSRES_FC_SC    POSRES_FC_SC   
   45     1    POSRES_FC_SC    POSRES_FC_SC    POSRES_FC_SC   
   48     1    POSRES_FC_BB    POSRES_FC_BB    POSRES_FC_BB   
   49     1    POSRES_FC_BB    POSRES_FC_BB    POSRES_FC_BB   
   50     1    POSRES_FC_BB    POSRES_FC_BB    POSRES_FC_BB   
   52     1    POSRES_FC_BB    POSRES_FC_BB    POSRES_FC_BB   
   55     1    POSRES_FC_BB    POSRES_FC_BB    POSRES_FC_BB   
   56     1    POSRES_FC_BB    POSRES_FC_BB    POSRES_FC_BB   
   57     1    POSRES_FC_BB    POSRES_FC_BB    POSRES_FC_BB   
   59     1    POSRES_FC_BB    POSRES_FC_BB    POSRES_FC_BB   
   61     1    POSRES_FC_SC    POSRES_FC_SC    POSRES_FC_SC   
   64     1    POSRES_FC_SC    POSRES_FC_SC    POSRES_FC_SC   
   66     1    POSRES_FC_BB    POSRES_FC_BB    POSRES_FC_BB   
   67     1    POSRES_FC_BB    POSRES_FC_BB    POSRES_FC_BB   
   68     1    POSRES_FC_BB    POSRES_FC_BB    POSRES_FC_BB   
   70     1    POSRES_FC_BB    POSRES_FC_BB    POSRES_FC_BB   
   73     1    POSRES_FC_BB    POSRES_FC_BB    POSRES_FC_BB   
   74     1    POSRES_FC_BB    POSRES_FC_BB    POSRES_FC_BB   
   75     1    POSRES_FC_BB    POSRES_FC_BB    POSRES_FC_BB   
   76     1    POSRES_FC_SC    POSRES_FC_SC    POSRES_FC_SC   
   79     1    POSRES_FC_BB    POSRES_FC_BB    POSRES_FC_BB   
   81     1    POSRES_FC_SC    POSRES_FC_SC    POSRES_FC_SC   
   84     1    POSRES_FC_SC    POSRES_FC_SC    POSRES_FC_SC   
   87     1    POSRES_FC_BB    POSRES_FC_BB    POSRES_FC_BB   
   88     1    POSRES_FC_BB    POSRES_FC_BB    POSRES_FC_BB   
   89     1    POSRES_FC_BB    POSRES_FC_BB    POSRES_FC_BB   
   91     1    POSRES_FC_BB    POSRES_FC_BB    POSRES_FC_BB   
   94     1    POSRES_FC_BB    POSRES_FC_BB    POSRES_FC_BB   
   95     1    POSRES_FC_BB    POSRES_FC_BB    POSRES_FC_BB   
   96     1    POSRES_FC_BB    POSRES_FC_BB    POSRES_FC_BB   
   98     1    POSRES_FC_BB    POSRES_FC_BB    POSRES_FC_BB   
  100     1    POSRES_FC_SC    POSRES_FC_SC    POSRES_FC_SC   
  103     1    POSRES_FC_SC    POSRES_FC_SC    POSRES_FC_SC   
  104     1    POSRES_FC_SC    POSRES_FC_SC    POSRES_FC_SC   
  105     1    POSRES_FC_SC    POSRES_FC_SC    POSRES_FC_SC   
  106     1    POSRES_FC_BB    POSRES_FC_BB    POSRES_FC_BB   
  107     1    POSRES_FC_BB    POSRES_FC_BB    POSRES_FC_BB   
  108     1    POSRES_FC_BB    POSRES_FC_BB    POSRES_FC_BB   
  109     1    POSRES_FC_SC    POSRES_FC_SC    POSRES_FC_SC   
  112     1    POSRES_FC_BB    POSRES_FC_BB    POSRES_FC_BB   
  114     1    POSRES_FC_SC    POSRES_FC_SC    POSRES_FC_SC   
  117     1    POSRES_FC_SC    POSRES_FC_SC    POSRES_FC_SC   
  120     1    POSRES_FC_BB    POSRES_FC_BB    POSRES_FC_BB   
  121     1    POSRES_FC_BB    POSRES_FC_BB    POSRES_FC_BB   
  122     1    POSRES_FC_BB    POSRES_FC_BB    POSRES_FC_BB   
  124     1    POSRES_FC_BB    POSRES_FC_BB    POSRES_FC_BB   
  127     1    POSRES_FC_BB    POSRES_FC_BB    POSRES_FC_BB   
  128     1    POSRES_FC_BB    POSRES_FC_BB    POSRES_FC_BB   
  129     1    POSRES_FC_BB    POSRES_FC_BB    POSRES_FC_BB   
  131     1    POSRES_FC_BB    POSRES_FC_BB    POSRES_FC_BB   
  133     1    POSRES_FC_SC    POSRES_FC_SC    POSRES_FC_SC   
  136     1    POSRES_FC_SC    POSRES_FC_SC    POSRES_FC_SC   
  138     1    POSRES_FC_BB    POSRES_FC_BB    POSRES_FC_BB   
  139     1    POSRES_FC_BB    POSRES_FC_BB    POSRES_FC_BB   
  140     1    POSRES_FC_BB    POSRES_FC_BB    POSRES_FC_BB   
  142     1    POSRES_FC_BB    POSRES_FC_BB    POSRES_FC_BB   
  145     1    POSRES_FC_BB    POSRES_FC_BB    POSRES_FC_BB   
  146     1    POSRES_FC_BB    POSRES_FC_BB    POSRES_FC_BB   
  147     1    POSRES_FC_BB    POSRES_FC_BB    POSRES_FC_BB   
  148     1    POSRES_FC_SC    POSRES_FC_SC    POSRES_FC_SC   
  151     1    POSRES_FC_BB    POSRES_FC_BB    POSRES_FC_BB   
  153     1    POSRES_FC_SC    POSRES_FC_SC    POSRES_FC_SC   
  156     1    POSRES_FC_SC    POSRES_FC_SC    POSRES_FC_SC   
  159     1    POSRES_FC_BB    POSRES_FC_BB    POSRES_FC_BB   
  160     1    POSRES_FC_BB    POSRES_FC_BB    POSRES_FC_BB   
  161     1    POSRES_FC_BB    POSRES_FC_BB    POSRES_FC_BB   
  163     1    POSRES_FC_BB    POSRES_FC_BB    POSRES_FC_BB   
  166     1    POSRES_FC_BB    POSRES_FC_BB    POSRES_FC_BB   
  167     1    POSRES_FC_BB    POSRES_FC_BB    POSRES_FC_BB   
  168     1    POSRES_FC_BB    POSRES_FC_BB    POSRES_FC_BB   
  170     1    POSRES_FC_BB    POSRES_FC_BB    POSRES_FC_BB   
  172     1    POSRES_FC_SC    POSRES_FC_SC    POSRES_FC_SC   
  175     1    POSRES_FC_SC    POSRES_FC_SC    POSRES_FC_SC   
  176     1    POSRES_FC_SC    POSRES_FC_SC    POSRES_FC_SC   
  177     1    POSRES_FC_SC    POSRES_FC_SC    POSRES_FC_SC   
  178     1    POSRES_FC_BB    POSRES_FC_BB    POSRES_FC_BB   
  179     1    POSRES_FC_BB    POSRES_FC_BB    POSRES_FC_BB   
  180     1    POSRES_FC_BB    POSRES_FC_BB    POSRES_FC_BB   
  181     1    POSRES_FC_SC    POSRES_FC_SC    POSRES_FC_SC   
  184     1    POSRES_FC_BB    POSRES_FC_BB    POSRES_FC_BB   
  186     1    POSRES_FC_SC    POSRES_FC_SC    POSRES_FC_SC   
  189     1    POSRES_FC_SC    POSRES_FC_SC    POSRES_FC_SC   
  192     1    POSRES_FC_BB    POSRES_FC_BB    POSRES_FC_BB   
  193     1    POSRES_FC_SC    POSRES_FC_SC    POSRES_FC_SC   
  194     1    POSRES_FC_SC    POSRES_FC_SC    POSRES_FC_SC   
#endif
