Title t= 140.00000 step= 70000
44434
    1GLY      N    1   4.301   4.386   4.631
    1GLY    HT1    2   4.321   4.429   4.724
    1GLY    HT2    3   4.299   4.457   4.556
    1GLY    HT3    4   4.365   4.304   4.619
    1GLY     CA    5   4.151   4.335   4.655
    1GLY    HA1    6   4.126   4.280   4.566
    1GLY    HA2    7   4.080   4.416   4.655
    1GLY      C    8   4.148   4.250   4.774
    1GLY      O    9   4.254   4.233   4.839
    2PRO      N   10   4.039   4.190   4.809
    2PRO     CD   11   3.913   4.211   4.747
    2PRO    HD1   12   3.905   4.213   4.636
    2PRO    HD2   13   3.866   4.303   4.787
    2PRO     CA   14   4.029   4.087   4.908
    2PRO     HA   15   4.080   4.119   4.997
    2PRO     CB   16   3.879   4.060   4.927
    2PRO    HB1   17   3.839   4.122   5.009
    2PRO    HB2   18   3.858   3.955   4.953
    2PRO     CG   19   3.821   4.091   4.792
    2PRO    HG1   20   3.836   4.011   4.717
    2PRO    HG2   21   3.713   4.109   4.812
    2PRO      C   22   4.103   3.953   4.856
    2PRO      O   23   4.087   3.913   4.741
    3GLY      N   24   4.170   3.880   4.951
    3GLY     HN   25   4.159   3.911   5.045
    3GLY     CA   26   4.242   3.754   4.931
    3GLY    HA1   27   4.172   3.673   4.920
    3GLY    HA2   28   4.296   3.742   5.024
    3GLY      C   29   4.350   3.758   4.826
    3GLY      O   30   4.426   3.848   4.816
    4ASP      N   31   4.355   3.653   4.747
    4ASP     HN   32   4.299   3.572   4.761
    4ASP     CA   33   4.467   3.627   4.667
    4ASP     HA   34   4.550   3.648   4.732
    4ASP     CB   35   4.476   3.484   4.612
    4ASP    HB1   36   4.555   3.471   4.535
    4ASP    HB2   37   4.383   3.439   4.571
    4ASP     CG   38   4.509   3.393   4.724
    4ASP    OD1   39   4.596   3.431   4.807
    4ASP    OD2   40   4.461   3.276   4.721
    4ASP      C   41   4.474   3.731   4.550
    4ASP      O   42   4.367   3.773   4.506
    5PRO      N   43   4.588   3.770   4.487
    5PRO     CD   44   4.723   3.729   4.525
    5PRO    HD1   45   4.716   3.620   4.542
    5PRO    HD2   46   4.746   3.763   4.629
    5PRO     CA   47   4.591   3.865   4.378
    5PRO     HA   48   4.556   3.960   4.416
    5PRO     CB   49   4.743   3.891   4.353
    5PRO    HB1   50   4.772   3.979   4.414
    5PRO    HB2   51   4.772   3.893   4.246
    5PRO     CG   52   4.816   3.772   4.414
    5PRO    HG1   53   4.821   3.685   4.345
    5PRO    HG2   54   4.922   3.793   4.441
    5PRO      C   55   4.513   3.834   4.250
    5PRO      O   56   4.501   3.713   4.213
    6GLY      N   57   4.468   3.947   4.190
    6GLY     HN   58   4.498   4.030   4.235
    6GLY     CA   59   4.400   3.951   4.066
    6GLY    HA1   60   4.358   4.051   4.065
    6GLY    HA2   61   4.328   3.873   4.053
    6GLY      C   62   4.497   3.949   3.954
    6GLY      O   63   4.609   3.898   3.969
    7SER      N   64   4.454   3.997   3.839
    7SER     HN   65   4.363   4.038   3.839
    7SER     CA   66   4.523   3.977   3.710
    7SER     HA   67   4.553   3.873   3.710
    7SER     CB   68   4.424   3.991   3.586
    7SER    HB1   69   4.485   3.979   3.493
    7SER    HB2   70   4.375   4.090   3.583
    7SER     OG   71   4.336   3.881   3.586
    7SER    HG1   72   4.287   3.890   3.668
    7SER      C   73   4.651   4.064   3.694
    7SER      O   74   4.642   4.184   3.727
    8GLY      N   75   4.772   4.009   3.664
    8GLY     HN   76   4.784   3.918   3.626
    8GLY     CA   77   4.904   4.083   3.662
    8GLY    HA1   78   4.988   4.019   3.635
    8GLY    HA2   79   4.923   4.118   3.763
    8GLY      C   80   4.903   4.200   3.565
    8GLY      O   81   4.850   4.198   3.458
    9ASN      N   82   4.988   4.301   3.609
    9ASN     HN   83   5.033   4.291   3.697
    9ASN     CA   84   5.003   4.423   3.537
    9ASN     HA   85   4.901   4.458   3.526
    9ASN     CB   86   5.092   4.514   3.614
    9ASN    HB1   87   5.197   4.479   3.605
    9ASN    HB2   88   5.055   4.508   3.719
    9ASN     CG   89   5.072   4.654   3.575
    9ASN    OD1   90   5.155   4.719   3.516
    9ASN    ND2   91   4.942   4.702   3.578
    9ASN   HD21   92   4.913   4.779   3.522
    9ASN   HD22   93   4.871   4.641   3.613
    9ASN      C   94   5.056   4.405   3.395
    9ASN      O   95   5.149   4.329   3.375
   10PRO      N   96   5.004   4.473   3.290
   10PRO     CD   97   4.872   4.545   3.282
   10PRO    HD1   98   4.897   4.647   3.319
   10PRO    HD2   99   4.798   4.491   3.345
   10PRO     CA  100   5.071   4.490   3.160
   10PRO     HA  101   5.071   4.396   3.107
   10PRO     CB  102   4.976   4.584   3.088
   10PRO    HB1  103   4.983   4.559   2.980
   10PRO    HB2  104   4.992   4.694   3.100
   10PRO     CG  105   4.840   4.547   3.139
   10PRO    HG1  106   4.760   4.617   3.108
   10PRO    HG2  107   4.814   4.443   3.110
   10PRO      C  108   5.209   4.544   3.147
   10PRO      O  109   5.248   4.634   3.226
   11GLY      N  110   5.289   4.487   3.052
   11GLY     HN  111   5.247   4.420   2.992
   11GLY     CA  112   5.428   4.517   3.031
   11GLY    HA1  113   5.469   4.435   2.974
   11GLY    HA2  114   5.471   4.516   3.131
   11GLY      C  115   5.457   4.641   2.957
   11GLY      O  116   5.415   4.751   2.992
   12SER      N  117   5.546   4.634   2.852
   12SER     HN  118   5.585   4.548   2.819
   12SER     CA  119   5.602   4.736   2.769
   12SER     HA  120   5.663   4.801   2.831
   12SER     CB  121   5.694   4.688   2.653
   12SER    HB1  122   5.730   4.770   2.586
   12SER    HB2  123   5.638   4.605   2.604
   12SER     OG  124   5.822   4.642   2.707
   12SER    HG1  125   5.801   4.562   2.756
   12SER      C  126   5.509   4.832   2.702
   12SER      O  127   5.399   4.801   2.655
   13GLY      N  128   5.553   4.960   2.683
   13GLY     HN  129   5.650   4.980   2.695
   13GLY     CA  130   5.483   5.067   2.609
   13GLY    HA1  131   5.507   5.169   2.637
   13GLY    HA2  132   5.381   5.056   2.644
   13GLY      C  133   5.496   5.043   2.462
   13GLY      O  134   5.506   4.931   2.412
   14ASP      N  135   5.482   5.153   2.386
   14ASP     HN  136   5.453   5.233   2.437
   14ASP     CA  137   5.500   5.154   2.245
   14ASP     HA  138   5.421   5.097   2.198
   14ASP     CB  139   5.490   5.298   2.201
   14ASP    HB1  140   5.529   5.314   2.099
   14ASP    HB2  141   5.550   5.368   2.263
   14ASP     CG  142   5.350   5.352   2.197
   14ASP    OD1  143   5.333   5.471   2.170
   14ASP    OD2  144   5.257   5.274   2.203
   14ASP      C  145   5.639   5.099   2.195
   14ASP      O  146   5.738   5.129   2.263
   15PRO      N  147   5.666   5.033   2.083
   15PRO     CD  148   5.552   4.997   1.991
   15PRO    HD1  149   5.506   5.096   1.971
   15PRO    HD2  150   5.497   4.915   2.041
   15PRO     CA  151   5.790   4.984   2.034
   15PRO     HA  152   5.848   4.939   2.113
   15PRO     CB  153   5.749   4.888   1.912
   15PRO    HB1  154   5.731   4.789   1.960
   15PRO    HB2  155   5.827   4.882   1.833
   15PRO     CG  156   5.612   4.939   1.862
   15PRO    HG1  157   5.629   5.025   1.794
   15PRO    HG2  158   5.546   4.857   1.827
   15PRO      C  159   5.875   5.097   1.977
   15PRO    OT1  160   5.830   5.209   1.937
   15PRO    OT2  161   5.993   5.060   1.946
   16LIT    LIT  162   4.551   3.145   4.797
   17LIT    LIT  163   5.594   3.747   1.778
   18LIT    LIT  164   5.389   0.783   1.712
   19LIT    LIT  165   3.411   4.436   3.856
   20LIT    LIT  166   5.743   6.374   4.496
   21LIT    LIT  167   1.500   2.704   4.364
   22LIT    LIT  168   6.754   1.021   5.671
   23LIT    LIT  169   4.930   2.271   0.068
   24LIT    LIT  170   3.084   0.676   3.027
   25LIT    LIT  171   6.835   0.312   4.670
   26LIT    LIT  172   2.246   4.075   3.022
   27LIT    LIT  173   6.719   7.780   4.511
   28LIT    LIT  174   7.082   1.599   1.617
   29LIT    LIT  175   7.384   0.593   3.462
   30LIT    LIT  176   6.258   6.942   5.815
   31LIT    LIT  177   1.769   0.394   2.137
   32LIT    LIT  178   1.634   2.355   4.814
   33LIT    LIT  179   1.598   7.145   0.975
   34LIT    LIT  180   5.639   4.653   6.226
   35LIT    LIT  181   4.763   2.874   1.469
   36LIT    LIT  182   3.455   7.556   2.231
   37LIT    LIT  183   6.167   0.721   6.563
   38LIT    LIT  184   4.669   5.325   5.235
   39LIT    LIT  185   3.370   1.475   4.865
   40LIT    LIT  186   7.087   6.528   2.686
   41LIT    LIT  187   6.004   5.235   1.872
   42LIT    LIT  188   2.424   1.621   6.756
   43LIT    LIT  189   1.056   1.279   1.816
   44LIT    LIT  190   0.575   0.654   2.067
   45LIT    LIT  191   1.377   2.397   2.468
   46LIT    LIT  192   4.061   4.040   0.258
   47LIT    LIT  193   4.496   1.902   0.674
   48LIT    LIT  194   7.964   5.946   4.324
   49LIT    LIT  195   5.150   5.469   2.181
   50LIT    LIT  196   5.026   1.501   2.106
   51LIT    LIT  197   4.895   3.177   6.721
   52LIT    LIT  198   6.682   1.544   6.471
   53LIT    LIT  199   3.087   5.015   1.463
   54LIT    LIT  200   1.376   7.380   4.173
   55LIT    LIT  201   1.668   0.601   5.142
   56LIT    LIT  202   8.196   0.640   5.390
   57LIT    LIT  203   8.079   0.884   2.781
   58LIT    LIT  204   7.302   3.573   0.997
   59LIT    LIT  205   4.012   4.459   1.002
   60CLA    CLA  206   2.043   0.215   2.486
   61CLA    CLA  207   6.049   5.808   4.975
   62CLA    CLA  208   5.970   4.396   0.682
   63CLA    CLA  209   1.022   1.649   2.154
   64CLA    CLA  210   1.698   0.651   3.139
   65CLA    CLA  211   2.772   0.533   1.567
   66CLA    CLA  212   3.369   2.065   5.228
   67CLA    CLA  213   0.136   1.037   6.598
   68CLA    CLA  214   6.555   1.544   5.687
   69CLA    CLA  215   1.557   0.201   5.365
   70CLA    CLA  216   3.239   5.771   1.038
   71CLA    CLA  217   2.974   1.175   3.256
   72CLA    CLA  218   0.876   1.957   2.499
   73CLA    CLA  219   3.815   5.019   4.316
   74CLA    CLA  220   3.723   5.650   1.305
   75CLA    CLA  221   4.422   2.083   4.382
   76CLA    CLA  222   3.603   5.540   4.631
   77CLA    CLA  223   3.464   4.036   5.725
   78CLA    CLA  224   7.474   1.404   0.004
   79CLA    CLA  225   7.037   7.426   1.171
   80CLA    CLA  226   2.291   7.298   1.266
   81CLA    CLA  227   8.169   0.682   2.728
   82CLA    CLA  228   7.726   0.853   5.823
   83CLA    CLA  229   7.281   3.761   4.498
   84CLA    CLA  230   4.845   1.840   5.341
   85CLA    CLA  231   0.244   4.258   6.260
   86CLA    CLA  232   5.693   4.360   2.786
   87CLA    CLA  233   8.282   5.696   2.964
   88CLA    CLA  234   1.273   7.474   2.204
   89CLA    CLA  235   7.958   3.991   5.008
   90CLA    CLA  236   3.057   0.230   3.476
   91CLA    CLA  237   5.880   0.145   1.940
   92CLA    CLA  238   2.171   4.273   6.155
   93CLA    CLA  239   4.790   1.314   4.028
   94CLA    CLA  240   3.826   4.016   5.390
   95CLA    CLA  241   7.134   3.435   0.975
   96CLA    CLA  242   6.827   0.423   4.876
   97CLA    CLA  243   5.257   4.070   2.681
   98CLA    CLA  244   0.201   4.591   6.665
   99CLA    CLA  245   4.443   4.377   0.790
  100CLA    CLA  246   2.303   5.652   2.650
  101CLA    CLA  247   5.919   1.509   1.729
  102TIP3   OH2  248   5.184   3.042   2.015
  102TIP3    H1  249   5.168   2.978   2.085
  102TIP3    H2  250   5.252   3.003   1.961
  103TIP3   OH2  251   8.013   1.588   5.125
  103TIP3    H1  252   8.015   1.674   5.083
  103TIP3    H2  253   8.049   1.603   5.212
  104TIP3   OH2  254   4.289   1.831   5.669
  104TIP3    H1  255   4.274   1.850   5.762
  104TIP3    H2  256   4.210   1.863   5.625
  105TIP3   OH2  257   2.945   6.709   1.938
  105TIP3    H1  258   2.969   6.617   1.943
  105TIP3    H2  259   2.989   6.750   2.011
  106TIP3   OH2  260   6.631   4.912   6.123
  106TIP3    H1  261   6.673   4.877   6.045
  106TIP3    H2  262   6.691   4.981   6.153
  107TIP3   OH2  263   7.824   7.284   6.507
  107TIP3    H1  264   7.784   7.357   6.555
  107TIP3    H2  265   7.918   7.299   6.516
  108TIP3   OH2  266   1.414   6.970   5.599
  108TIP3    H1  267   1.500   7.005   5.624
  108TIP3    H2  268   1.391   7.017   5.518
  109TIP3   OH2  269   7.174   5.191   6.665
  109TIP3    H1  270   7.088   5.227   6.685
  109TIP3    H2  271   7.236   5.250   6.708
  110TIP3   OH2  272   7.401   1.657   2.274
  110TIP3    H1  273   7.366   1.746   2.271
  110TIP3    H2  274   7.477   1.664   2.333
  111TIP3   OH2  275   6.779   3.025   4.565
  111TIP3    H1  276   6.737   3.069   4.640
  111TIP3    H2  277   6.821   2.948   4.603
  112TIP3   OH2  278   5.798   6.141   4.149
  112TIP3    H1  279   5.820   6.048   4.161
  112TIP3    H2  280   5.855   6.170   4.078
  113TIP3   OH2  281   5.645   2.913   0.769
  113TIP3    H1  282   5.679   2.826   0.749
  113TIP3    H2  283   5.551   2.907   0.753
  114TIP3   OH2  284   6.541   1.529   3.349
  114TIP3    H1  285   6.513   1.600   3.292
  114TIP3    H2  286   6.630   1.508   3.319
  115TIP3   OH2  287   5.697   0.697   2.107
  115TIP3    H1  288   5.687   0.630   2.175
  115TIP3    H2  289   5.791   0.717   2.107
  116TIP3   OH2  290   3.053   2.463   3.580
  116TIP3    H1  291   2.998   2.447   3.504
  116TIP3    H2  292   2.999   2.514   3.640
  117TIP3   OH2  293   3.461   5.304   4.418
  117TIP3    H1  294   3.523   5.301   4.344
  117TIP3    H2  295   3.505   5.357   4.484
  118TIP3   OH2  296   7.783   3.951   0.813
  118TIP3    H1  297   7.770   4.046   0.816
  118TIP3    H2  298   7.878   3.941   0.818
  119TIP3   OH2  299   1.805   3.756   1.719
  119TIP3    H1  300   1.820   3.814   1.793
  119TIP3    H2  301   1.734   3.797   1.670
  120TIP3   OH2  302   1.340   7.672   5.894
  120TIP3    H1  303   1.430   7.643   5.885
  120TIP3    H2  304   1.338   7.718   5.978
  121TIP3   OH2  305   7.692   1.777   4.335
  121TIP3    H1  306   7.667   1.802   4.424
  121TIP3    H2  307   7.781   1.812   4.325
  122TIP3   OH2  308   0.310   5.995   2.323
  122TIP3    H1  309   0.220   5.990   2.291
  122TIP3    H2  310   0.309   6.066   2.387
  123TIP3   OH2  311   6.021   6.399   2.633
  123TIP3    H1  312   6.117   6.390   2.631
  123TIP3    H2  313   6.001   6.422   2.723
  124TIP3   OH2  314   3.471   6.595   2.477
  124TIP3    H1  315   3.378   6.593   2.502
  124TIP3    H2  316   3.489   6.506   2.447
  125TIP3   OH2  317   7.465   5.313   4.627
  125TIP3    H1  318   7.423   5.374   4.687
  125TIP3    H2  319   7.456   5.354   4.541
  126TIP3   OH2  320   7.209   0.766   0.021
  126TIP3    H1  321   7.252   0.832   0.076
  126TIP3    H2  322   7.187   0.813  -0.060
  127TIP3   OH2  323   6.605   0.052   4.921
  127TIP3    H1  324   6.588   0.130   4.868
  127TIP3    H2  325   6.630   0.086   5.007
  128TIP3   OH2  326   4.615   7.093   0.127
  128TIP3    H1  327   4.644   7.173   0.083
  128TIP3    H2  328   4.529   7.115   0.162
  129TIP3   OH2  329   5.485   0.464   6.390
  129TIP3    H1  330   5.530   0.512   6.321
  129TIP3    H2  331   5.392   0.478   6.373
  130TIP3   OH2  332   1.750   4.898   6.586
  130TIP3    H1  333   1.835   4.860   6.562
  130TIP3    H2  334   1.771   4.966   6.650
  131TIP3   OH2  335   1.056   2.743   1.345
  131TIP3    H1  336   0.964   2.715   1.346
  131TIP3    H2  337   1.098   2.686   1.281
  132TIP3   OH2  338   0.630   4.927   4.551
  132TIP3    H1  339   0.603   4.972   4.471
  132TIP3    H2  340   0.567   4.856   4.561
  133TIP3   OH2  341   6.595   3.488   5.783
  133TIP3    H1  342   6.680   3.452   5.758
  133TIP3    H2  343   6.550   3.415   5.826
  134TIP3   OH2  344   4.465   1.438   6.271
  134TIP3    H1  345   4.481   1.522   6.314
  134TIP3    H2  346   4.414   1.387   6.334
  135TIP3   OH2  347   0.291   1.737   5.677
  135TIP3    H1  348   0.212   1.778   5.714
  135TIP3    H2  349   0.350   1.810   5.661
  136TIP3   OH2  350   5.436   3.485   4.664
  136TIP3    H1  351   5.357   3.435   4.682
  136TIP3    H2  352   5.501   3.419   4.637
  137TIP3   OH2  353   1.894   2.832   4.219
  137TIP3    H1  354   1.953   2.905   4.204
  137TIP3    H2  355   1.927   2.762   4.162
  138TIP3   OH2  356   6.533   0.068   5.728
  138TIP3    H1  357   6.479   0.104   5.658
  138TIP3    H2  358   6.572  -0.010   5.689
  139TIP3   OH2  359   5.372   3.653   6.168
  139TIP3    H1  360   5.290   3.618   6.133
  139TIP3    H2  361   5.408   3.582   6.220
  140TIP3   OH2  362   2.147   6.242   5.299
  140TIP3    H1  363   2.118   6.280   5.216
  140TIP3    H2  364   2.209   6.173   5.273
  141TIP3   OH2  365   2.103   6.735   2.460
  141TIP3    H1  366   2.041   6.749   2.388
  141TIP3    H2  367   2.115   6.641   2.465
  142TIP3   OH2  368   0.204   4.489   3.492
  142TIP3    H1  369   0.109   4.477   3.488
  142TIP3    H2  370   0.236   4.451   3.411
  143TIP3   OH2  371   4.805   1.610   2.315
  143TIP3    H1  372   4.795   1.702   2.294
  143TIP3    H2  373   4.821   1.608   2.410
  144TIP3   OH2  374   6.916   6.575   4.299
  144TIP3    H1  375   6.984   6.518   4.335
  144TIP3    H2  376   6.962   6.630   4.235
  145TIP3   OH2  377   2.654   4.487   0.805
  145TIP3    H1  378   2.638   4.514   0.895
  145TIP3    H2  379   2.727   4.426   0.810
  146TIP3   OH2  380   5.556   0.978   1.429
  146TIP3    H1  381   5.516   1.040   1.491
  146TIP3    H2  382   5.512   0.996   1.346
  147TIP3   OH2  383   1.907   7.719   3.029
  147TIP3    H1  384   1.840   7.679   3.084
  147TIP3    H2  385   1.988   7.707   3.078
  148TIP3   OH2  386   6.920   3.085   1.499
  148TIP3    H1  387   6.965   3.003   1.515
  148TIP3    H2  388   6.974   3.152   1.541
  149TIP3   OH2  389   6.449   7.407   5.469
  149TIP3    H1  390   6.391   7.416   5.545
  149TIP3    H2  391   6.442   7.491   5.424
  150TIP3   OH2  392   7.618   1.707   6.091
  150TIP3    H1  393   7.638   1.742   6.178
  150TIP3    H2  394   7.649   1.616   6.094
  151TIP3   OH2  395   5.276   7.367   1.982
  151TIP3    H1  396   5.281   7.376   2.077
  151TIP3    H2  397   5.326   7.288   1.963
  152TIP3   OH2  398   7.809   6.628   0.532
  152TIP3    H1  399   7.817   6.718   0.502
  152TIP3    H2  400   7.893   6.609   0.574
  153TIP3   OH2  401   7.610   3.244   1.268
  153TIP3    H1  402   7.610   3.229   1.173
  153TIP3    H2  403   7.580   3.161   1.306
  154TIP3   OH2  404   8.290   7.278   1.372
  154TIP3    H1  405   8.304   7.360   1.418
  154TIP3    H2  406   8.259   7.217   1.440
  155TIP3   OH2  407   2.310   5.759   2.063
  155TIP3    H1  408   2.308   5.675   2.110
  155TIP3    H2  409   2.342   5.737   1.976
  156TIP3   OH2  410   0.601   6.383   6.174
  156TIP3    H1  411   0.520   6.365   6.221
  156TIP3    H2  412   0.665   6.323   6.212
  157TIP3   OH2  413   5.946   3.756   1.063
  157TIP3    H1  414   5.998   3.710   1.129
  157TIP3    H2  415   5.864   3.775   1.107
  158TIP3   OH2  416   2.512   6.441   3.858
  158TIP3    H1  417   2.589   6.409   3.905
  158TIP3    H2  418   2.544   6.519   3.812
  159TIP3   OH2  419   1.295   5.431   5.676
  159TIP3    H1  420   1.316   5.477   5.595
  159TIP3    H2  421   1.348   5.351   5.672
  160TIP3   OH2  422   2.188   0.618   3.443
  160TIP3    H1  423   2.106   0.640   3.399
  160TIP3    H2  424   2.213   0.533   3.406
  161TIP3   OH2  425   1.317   0.692   5.498
  161TIP3    H1  426   1.382   0.632   5.535
  161TIP3    H2  427   1.233   0.658   5.526
  162TIP3   OH2  428   8.090   4.009   3.138
  162TIP3    H1  429   8.018   4.010   3.201
  162TIP3    H2  430   8.075   4.086   3.083
  163TIP3   OH2  431   1.040   2.127   2.690
  163TIP3    H1  432   0.988   2.066   2.640
  163TIP3    H2  433   0.993   2.210   2.684
  164TIP3   OH2  434   1.220   3.349   6.365
  164TIP3    H1  435   1.250   3.381   6.450
  164TIP3    H2  436   1.128   3.375   6.360
  165TIP3   OH2  437   3.466   0.935   1.894
  165TIP3    H1  438   3.541   0.970   1.846
  165TIP3    H2  439   3.485   0.842   1.903
  166TIP3   OH2  440   3.109   0.202   0.400
  166TIP3    H1  441   3.182   0.180   0.458
  166TIP3    H2  442   3.089   0.121   0.353
  167TIP3   OH2  443   1.305   0.612   1.486
  167TIP3    H1  444   1.386   0.655   1.514
  167TIP3    H2  445   1.314   0.605   1.391
  168TIP3   OH2  446   5.339   1.891   3.457
  168TIP3    H1  447   5.326   1.985   3.463
  168TIP3    H2  448   5.253   1.856   3.433
  169TIP3   OH2  449   3.151   6.709   5.572
  169TIP3    H1  450   3.244   6.713   5.595
  169TIP3    H2  451   3.150   6.694   5.478
  170TIP3   OH2  452   1.100   6.504   1.075
  170TIP3    H1  453   1.159   6.434   1.044
  170TIP3    H2  454   1.143   6.538   1.153
  171TIP3   OH2  455   6.482   3.234   0.882
  171TIP3    H1  456   6.492   3.239   0.977
  171TIP3    H2  457   6.564   3.271   0.847
  172TIP3   OH2  458   4.537   7.068   5.280
  172TIP3    H1  459   4.447   7.042   5.296
  172TIP3    H2  460   4.570   7.094   5.366
  173TIP3   OH2  461   3.433   1.004   0.854
  173TIP3    H1  462   3.491   1.080   0.862
  173TIP3    H2  463   3.345   1.042   0.848
  174TIP3   OH2  464   5.587   1.549   5.357
  174TIP3    H1  465   5.545   1.493   5.293
  174TIP3    H2  466   5.672   1.508   5.374
  175TIP3   OH2  467   5.056   1.082   6.034
  175TIP3    H1  468   5.116   1.116   6.100
  175TIP3    H2  469   5.042   0.990   6.058
  176TIP3   OH2  470   3.644   0.870   5.311
  176TIP3    H1  471   3.736   0.854   5.291
  176TIP3    H2  472   3.631   0.833   5.398
  177TIP3   OH2  473   6.947   0.587   3.008
  177TIP3    H1  474   6.897   0.507   2.992
  177TIP3    H2  475   6.994   0.603   2.926
  178TIP3   OH2  476   7.746   4.813   4.562
  178TIP3    H1  477   7.656   4.785   4.544
  178TIP3    H2  478   7.754   4.809   4.657
  179TIP3   OH2  479   4.117   5.267   1.496
  179TIP3    H1  480   4.122   5.173   1.508
  179TIP3    H2  481   4.077   5.278   1.410
  180TIP3   OH2  482   5.162   2.618   4.270
  180TIP3    H1  483   5.163   2.631   4.365
  180TIP3    H2  484   5.098   2.548   4.256
  181TIP3   OH2  485   2.903   3.917   3.692
  181TIP3    H1  486   2.920   3.923   3.786
  181TIP3    H2  487   2.879   3.825   3.678
  182TIP3   OH2  488   8.198   3.553   6.430
  182TIP3    H1  489   8.256   3.559   6.506
  182TIP3    H2  490   8.250   3.505   6.365
  183TIP3   OH2  491   6.569   2.526   3.339
  183TIP3    H1  492   6.656   2.561   3.361
  183TIP3    H2  493   6.560   2.543   3.245
  184TIP3   OH2  494   5.148   1.059   3.626
  184TIP3    H1  495   5.206   0.984   3.613
  184TIP3    H2  496   5.165   1.115   3.551
  185TIP3   OH2  497   1.538   5.153   5.871
  185TIP3    H1  498   1.468   5.132   5.933
  185TIP3    H2  499   1.614   5.172   5.927
  186TIP3   OH2  500   2.762   3.254   2.823
  186TIP3    H1  501   2.757   3.217   2.911
  186TIP3    H2  502   2.806   3.338   2.834
  187TIP3   OH2  503   2.292   4.498   4.833
  187TIP3    H1  504   2.226   4.517   4.767
  187TIP3    H2  505   2.354   4.439   4.789
  188TIP3   OH2  506   4.914   0.816   5.661
  188TIP3    H1  507   4.860   0.753   5.708
  188TIP3    H2  508   4.854   0.860   5.601
  189TIP3   OH2  509   4.153   1.318   0.781
  189TIP3    H1  510   4.150   1.313   0.877
  189TIP3    H2  511   4.243   1.293   0.759
  190TIP3   OH2  512   1.925   5.805   2.171
  190TIP3    H1  513   1.999   5.858   2.199
  190TIP3    H2  514   1.964   5.733   2.121
  191TIP3   OH2  515   7.761   2.250   5.129
  191TIP3    H1  516   7.681   2.234   5.078
  191TIP3    H2  517   7.827   2.195   5.087
  192TIP3   OH2  518   1.436   7.309   5.593
  192TIP3    H1  519   1.434   7.249   5.518
  192TIP3    H2  520   1.345   7.311   5.624
  193TIP3   OH2  521   1.923   5.624   5.764
  193TIP3    H1  522   1.905   5.715   5.790
  193TIP3    H2  523   2.002   5.630   5.711
  194TIP3   OH2  524   4.729   5.521   1.317
  194TIP3    H1  525   4.754   5.470   1.239
  194TIP3    H2  526   4.676   5.460   1.369
  195TIP3   OH2  527   2.705   1.400   2.987
  195TIP3    H1  528   2.749   1.484   2.974
  195TIP3    H2  529   2.639   1.418   3.054
  196TIP3   OH2  530   7.427   5.624   2.973
  196TIP3    H1  531   7.381   5.706   2.956
  196TIP3    H2  532   7.514   5.651   3.000
  197TIP3   OH2  533   6.464   7.053   1.437
  197TIP3    H1  534   6.550   7.016   1.455
  197TIP3    H2  535   6.403   6.996   1.484
  198TIP3   OH2  536   4.997   5.557   3.337
  198TIP3    H1  537   5.006   5.625   3.404
  198TIP3    H2  538   5.010   5.603   3.254
  199TIP3   OH2  539   1.535   5.873   5.396
  199TIP3    H1  540   1.519   5.967   5.392
  199TIP3    H2  541   1.459   5.834   5.353
  200TIP3   OH2  542   2.860   6.996   5.800
  200TIP3    H1  543   2.946   7.026   5.830
  200TIP3    H2  544   2.812   7.076   5.781
  201TIP3   OH2  545   1.412   5.967   2.920
  201TIP3    H1  546   1.347   5.951   2.851
  201TIP3    H2  547   1.450   5.881   2.938
  202TIP3   OH2  548   7.904   3.344   5.859
  202TIP3    H1  549   7.821   3.386   5.839
  202TIP3    H2  550   7.892   3.252   5.836
  203TIP3   OH2  551   0.357   1.995   3.799
  203TIP3    H1  552   0.264   2.014   3.786
  203TIP3    H2  553   0.380   1.938   3.724
  204TIP3   OH2  554   4.131   0.624   3.706
  204TIP3    H1  555   4.194   0.667   3.648
  204TIP3    H2  556   4.105   0.693   3.768
  205TIP3   OH2  557   1.967   1.137   4.543
  205TIP3    H1  558   2.005   1.066   4.594
  205TIP3    H2  559   2.024   1.212   4.560
  206TIP3   OH2  560   6.691   1.815   5.747
  206TIP3    H1  561   6.602   1.845   5.728
  206TIP3    H2  562   6.684   1.719   5.748
  207TIP3   OH2  563   5.150   1.892   4.820
  207TIP3    H1  564   5.099   1.910   4.899
  207TIP3    H2  565   5.085   1.888   4.750
  208TIP3   OH2  566   4.952   0.061   3.621
  208TIP3    H1  567   4.961   0.046   3.527
  208TIP3    H2  568   5.035   0.031   3.659
  209TIP3   OH2  569   3.796   4.200   2.940
  209TIP3    H1  570   3.852   4.245   2.876
  209TIP3    H2  571   3.710   4.198   2.898
  210TIP3   OH2  572   5.007   0.388   6.190
  210TIP3    H1  573   4.966   0.376   6.275
  210TIP3    H2  574   5.059   0.309   6.177
  211TIP3   OH2  575   2.564   0.943   4.671
  211TIP3    H1  576   2.617   0.870   4.704
  211TIP3    H2  577   2.628   1.003   4.633
  212TIP3   OH2  578   3.414   4.690   1.448
  212TIP3    H1  579   3.396   4.597   1.462
  212TIP3    H2  580   3.483   4.691   1.381
  213TIP3   OH2  581   6.507   2.554   1.476
  213TIP3    H1  582   6.499   2.557   1.572
  213TIP3    H2  583   6.519   2.646   1.451
  214TIP3   OH2  584   0.582   7.742   4.551
  214TIP3    H1  585   0.489   7.720   4.557
  214TIP3    H2  586   0.585   7.837   4.559
  215TIP3   OH2  587   5.765   6.983   5.106
  215TIP3    H1  588   5.843   6.929   5.092
  215TIP3    H2  589   5.711   6.932   5.165
  216TIP3   OH2  590   7.098   7.310   4.584
  216TIP3    H1  591   7.131   7.280   4.500
  216TIP3    H2  592   7.115   7.237   4.644
  217TIP3   OH2  593   6.722   4.121   4.219
  217TIP3    H1  594   6.714   4.197   4.276
  217TIP3    H2  595   6.782   4.149   4.150
  218TIP3   OH2  596   5.457   2.212   1.815
  218TIP3    H1  597   5.528   2.234   1.754
  218TIP3    H2  598   5.463   2.117   1.824
  219TIP3   OH2  599   8.063   4.541   4.100
  219TIP3    H1  600   7.975   4.574   4.079
  219TIP3    H2  601   8.098   4.602   4.164
  220TIP3   OH2  602   3.344   0.998   4.290
  220TIP3    H1  603   3.272   1.042   4.337
  220TIP3    H2  604   3.301   0.956   4.216
  221TIP3   OH2  605   6.635   3.100   4.364
  221TIP3    H1  606   6.689   3.079   4.440
  221TIP3    H2  607   6.616   3.193   4.373
  222TIP3   OH2  608   5.074   1.225   3.084
  222TIP3    H1  609   5.136   1.280   3.037
  222TIP3    H2  610   5.051   1.155   3.023
  223TIP3   OH2  611   0.142   0.284   2.506
  223TIP3    H1  612   0.166   0.315   2.419
  223TIP3    H2  613   0.142   0.188   2.498
  224TIP3   OH2  614   0.989   2.233   2.356
  224TIP3    H1  615   0.958   2.157   2.405
  224TIP3    H2  616   0.909   2.283   2.336
  225TIP3   OH2  617   7.114   0.231   1.243
  225TIP3    H1  618   7.152   0.234   1.331
  225TIP3    H2  619   7.084   0.320   1.226
  226TIP3   OH2  620   5.637   2.443   3.339
  226TIP3    H1  621   5.551   2.402   3.326
  226TIP3    H2  622   5.620   2.515   3.400
  227TIP3   OH2  623   6.867   7.159   0.664
  227TIP3    H1  624   6.877   7.246   0.625
  227TIP3    H2  625   6.793   7.168   0.724
  228TIP3   OH2  626   8.279   1.403   4.551
  228TIP3    H1  627   8.221   1.447   4.613
  228TIP3    H2  628   8.296   1.317   4.591
  229TIP3   OH2  629   5.191   7.702   5.498
  229TIP3    H1  630   5.118   7.764   5.491
  229TIP3    H2  631   5.249   7.726   5.425
  230TIP3   OH2  632   4.277   5.346   5.840
  230TIP3    H1  633   4.281   5.370   5.748
  230TIP3    H2  634   4.184   5.350   5.862
  231TIP3   OH2  635   1.241   6.479   2.860
  231TIP3    H1  636   1.330   6.462   2.828
  231TIP3    H2  637   1.254   6.521   2.945
  232TIP3   OH2  638   4.281   0.904   4.898
  232TIP3    H1  639   4.255   0.876   4.985
  232TIP3    H2  640   4.369   0.940   4.909
  233TIP3   OH2  641   7.812   5.379   4.350
  233TIP3    H1  642   7.763   5.458   4.326
  233TIP3    H2  643   7.745   5.316   4.376
  234TIP3   OH2  644   4.281   2.899   6.749
  234TIP3    H1  645   4.300   2.837   6.819
  234TIP3    H2  646   4.300   2.850   6.669
  235TIP3   OH2  647   6.615   5.593   1.906
  235TIP3    H1  648   6.683   5.577   1.841
  235TIP3    H2  649   6.663   5.604   1.988
  236TIP3   OH2  650   0.236   3.925   1.785
  236TIP3    H1  651   0.222   3.902   1.693
  236TIP3    H2  652   0.222   4.019   1.789
  237TIP3   OH2  653   2.378   4.297   5.298
  237TIP3    H1  654   2.345   4.295   5.208
  237TIP3    H2  655   2.398   4.205   5.318
  238TIP3   OH2  656   7.169   0.370   1.504
  238TIP3    H1  657   7.115   0.387   1.582
  238TIP3    H2  658   7.244   0.321   1.538
  239TIP3   OH2  659   0.783   3.948   5.993
  239TIP3    H1  660   0.766   3.854   5.984
  239TIP3    H2  661   0.716   3.979   6.054
  240TIP3   OH2  662   7.783   7.221  -0.003
  240TIP3    H1  663   7.758   7.308   0.029
  240TIP3    H2  664   7.877   7.229  -0.022
  241TIP3   OH2  665   7.291   3.143   0.677
  241TIP3    H1  666   7.376   3.182   0.697
  241TIP3    H2  667   7.234   3.218   0.659
  242TIP3   OH2  668   8.070   3.243   1.670
  242TIP3    H1  669   8.094   3.157   1.705
  242TIP3    H2  670   8.153   3.291   1.667
  243TIP3   OH2  671   6.981   6.873   4.219
  243TIP3    H1  672   7.038   6.880   4.295
  243TIP3    H2  673   6.922   6.949   4.227
  244TIP3   OH2  674   4.153   4.601   6.665
  244TIP3    H1  675   4.152   4.662   6.591
  244TIP3    H2  676   4.241   4.564   6.664
  245TIP3   OH2  677   6.668   5.092   2.805
  245TIP3    H1  678   6.707   5.169   2.846
  245TIP3    H2  679   6.611   5.128   2.737
  246TIP3   OH2  680   2.735   2.183   1.725
  246TIP3    H1  681   2.807   2.160   1.666
  246TIP3    H2  682   2.740   2.279   1.733
  247TIP3   OH2  683   2.984   0.554   5.207
  247TIP3    H1  684   2.999   0.622   5.141
  247TIP3    H2  685   2.904   0.580   5.252
  248TIP3   OH2  686   3.647   4.183   2.304
  248TIP3    H1  687   3.735   4.201   2.274
  248TIP3    H2  688   3.659   4.143   2.391
  249TIP3   OH2  689   2.099   6.643   0.066
  249TIP3    H1  690   2.112   6.662  -0.026
  249TIP3    H2  691   2.093   6.548   0.071
  250TIP3   OH2  692   0.160   6.142   3.754
  250TIP3    H1  693   0.171   6.144   3.849
  250TIP3    H2  694   0.067   6.125   3.742
  251TIP3   OH2  695   4.506   1.732   0.141
  251TIP3    H1  696   4.433   1.714   0.201
  251TIP3    H2  697   4.475   1.699   0.056
  252TIP3   OH2  698   3.021   6.470   3.092
  252TIP3    H1  699   2.951   6.440   3.151
  252TIP3    H2  700   3.009   6.418   3.013
  253TIP3   OH2  701   6.711   3.535   3.085
  253TIP3    H1  702   6.639   3.567   3.030
  253TIP3    H2  703   6.783   3.596   3.068
  254TIP3   OH2  704   6.388   5.679   1.397
  254TIP3    H1  705   6.319   5.736   1.432
  254TIP3    H2  706   6.404   5.711   1.308
  255TIP3   OH2  707   1.603   6.135   4.506
  255TIP3    H1  708   1.635   6.196   4.573
  255TIP3    H2  709   1.649   6.162   4.426
  256TIP3   OH2  710   7.952   1.219   4.107
  256TIP3    H1  711   7.961   1.210   4.202
  256TIP3    H2  712   7.903   1.140   4.080
  257TIP3   OH2  713   4.522   0.271   6.336
  257TIP3    H1  714   4.535   0.333   6.408
  257TIP3    H2  715   4.519   0.326   6.258
  258TIP3   OH2  716   2.819   4.878   2.282
  258TIP3    H1  717   2.849   4.843   2.198
  258TIP3    H2  718   2.789   4.967   2.261
  259TIP3   OH2  719   4.768   5.395   1.064
  259TIP3    H1  720   4.841   5.400   1.002
  259TIP3    H2  721   4.696   5.357   1.013
  260TIP3   OH2  722   2.250   1.785   1.417
  260TIP3    H1  723   2.322   1.770   1.479
  260TIP3    H2  724   2.290   1.775   1.331
  261TIP3   OH2  725   1.556   4.746   6.448
  261TIP3    H1  726   1.622   4.704   6.393
  261TIP3    H2  727   1.605   4.812   6.497
  262TIP3   OH2  728   4.611   7.783   0.279
  262TIP3    H1  729   4.548   7.763   0.348
  262TIP3    H2  730   4.575   7.860   0.235
  263TIP3   OH2  731   3.749   3.347   4.481
  263TIP3    H1  732   3.712   3.304   4.404
  263TIP3    H2  733   3.843   3.344   4.467
  264TIP3   OH2  734   0.199   7.306  -0.004
  264TIP3    H1  735   0.157   7.392  -0.009
  264TIP3    H2  736   0.202   7.286   0.089
  265TIP3   OH2  737   1.545   3.657   3.340
  265TIP3    H1  738   1.586   3.638   3.424
  265TIP3    H2  739   1.468   3.600   3.338
  266TIP3   OH2  740   7.037   1.605   3.552
  266TIP3    H1  741   7.060   1.696   3.570
  266TIP3    H2  742   7.118   1.566   3.519
  267TIP3   OH2  743   1.877   4.079   4.823
  267TIP3    H1  744   1.972   4.070   4.826
  267TIP3    H2  745   1.853   4.045   4.737
  268TIP3   OH2  746   7.165   5.530   4.442
  268TIP3    H1  747   7.108   5.531   4.519
  268TIP3    H2  748   7.123   5.469   4.382
  269TIP3   OH2  749   6.157   3.957   1.227
  269TIP3    H1  750   6.075   3.986   1.267
  269TIP3    H2  751   6.149   3.862   1.222
  270TIP3   OH2  752   5.575   1.573   0.427
  270TIP3    H1  753   5.566   1.496   0.484
  270TIP3    H2  754   5.644   1.549   0.365
  271TIP3   OH2  755   5.698   4.992   4.986
  271TIP3    H1  756   5.624   5.012   4.928
  271TIP3    H2  757   5.740   5.077   5.000
  272TIP3   OH2  758   4.149   0.359   3.770
  272TIP3    H1  759   4.157   0.451   3.745
  272TIP3    H2  760   4.149   0.359   3.865
  273TIP3   OH2  761   3.453   0.061   2.263
  273TIP3    H1  762   3.512  -0.009   2.290
  273TIP3    H2  763   3.390   0.068   2.334
  274TIP3   OH2  764   7.152   1.616   4.555
  274TIP3    H1  765   7.056   1.621   4.553
  274TIP3    H2  766   7.171   1.562   4.632
  275TIP3   OH2  767   3.068   2.536   4.684
  275TIP3    H1  768   3.103   2.527   4.596
  275TIP3    H2  769   3.104   2.462   4.732
  276TIP3   OH2  770   0.748   6.728   0.465
  276TIP3    H1  771   0.720   6.749   0.554
  276TIP3    H2  772   0.720   6.803   0.412
  277TIP3   OH2  773   2.503   0.599   4.148
  277TIP3    H1  774   2.492   0.599   4.053
  277TIP3    H2  775   2.578   0.657   4.163
  278TIP3   OH2  776   1.889   6.807   6.499
  278TIP3    H1  777   1.853   6.787   6.586
  278TIP3    H2  778   1.981   6.826   6.516
  279TIP3   OH2  779   3.215   1.958   2.295
  279TIP3    H1  780   3.166   1.914   2.364
  279TIP3    H2  781   3.243   2.041   2.334
  280TIP3   OH2  782   0.831   0.864   5.438
  280TIP3    H1  783   0.825   0.927   5.510
  280TIP3    H2  784   0.775   0.900   5.370
  281TIP3   OH2  785   2.185   2.015   6.144
  281TIP3    H1  786   2.216   1.951   6.208
  281TIP3    H2  787   2.123   1.966   6.090
  282TIP3   OH2  788   2.905   6.893   3.137
  282TIP3    H1  789   2.852   6.842   3.198
  282TIP3    H2  790   2.907   6.841   3.056
  283TIP3   OH2  791   7.378   2.537   0.325
  283TIP3    H1  792   7.337   2.617   0.358
  283TIP3    H2  793   7.397   2.556   0.233
  284TIP3   OH2  794   6.650   5.062   2.205
  284TIP3    H1  795   6.736   5.068   2.165
  284TIP3    H2  796   6.666   5.029   2.293
  285TIP3   OH2  797   1.482   3.577   0.746
  285TIP3    H1  798   1.518   3.624   0.821
  285TIP3    H2  799   1.416   3.636   0.710
  286TIP3   OH2  800   6.680   5.909   2.523
  286TIP3    H1  801   6.747   5.841   2.516
  286TIP3    H2  802   6.612   5.882   2.461
  287TIP3   OH2  803   7.053   0.685   5.135
  287TIP3    H1  804   7.115   0.671   5.206
  287TIP3    H2  805   6.994   0.609   5.139
  288TIP3   OH2  806   5.775   6.210   4.586
  288TIP3    H1  807   5.720   6.198   4.663
  288TIP3    H2  808   5.800   6.121   4.560
  289TIP3   OH2  809   4.642   5.694   1.109
  289TIP3    H1  810   4.554   5.715   1.140
  289TIP3    H2  811   4.675   5.631   1.173
  290TIP3   OH2  812   7.682   6.197   4.392
  290TIP3    H1  813   7.716   6.237   4.312
  290TIP3    H2  814   7.660   6.107   4.367
  291TIP3   OH2  815   6.166   3.505   0.148
  291TIP3    H1  816   6.126   3.437   0.093
  291TIP3    H2  817   6.259   3.485   0.148
  292TIP3   OH2  818   4.092   6.814   3.405
  292TIP3    H1  819   4.010   6.805   3.454
  292TIP3    H2  820   4.097   6.734   3.353
  293TIP3   OH2  821   8.128   6.506   3.619
  293TIP3    H1  822   8.127   6.418   3.656
  293TIP3    H2  823   8.147   6.563   3.694
  294TIP3   OH2  824   1.244   7.236   6.665
  294TIP3    H1  825   1.195   7.213   6.587
  294TIP3    H2  826   1.201   7.188   6.736
  295TIP3   OH2  827   1.070   7.236   4.903
  295TIP3    H1  828   1.072   7.309   4.840
  295TIP3    H2  829   1.123   7.168   4.862
  296TIP3   OH2  830   2.447   7.469   3.966
  296TIP3    H1  831   2.487   7.549   4.001
  296TIP3    H2  832   2.477   7.400   4.025
  297TIP3   OH2  833   7.521   7.258   1.569
  297TIP3    H1  834   7.529   7.339   1.518
  297TIP3    H2  835   7.584   7.270   1.641
  298TIP3   OH2  836   7.246   0.265   4.691
  298TIP3    H1  837   7.308   0.249   4.619
  298TIP3    H2  838   7.266   0.354   4.720
  299TIP3   OH2  839   3.930   3.455   1.952
  299TIP3    H1  840   3.873   3.460   2.028
  299TIP3    H2  841   3.880   3.497   1.882
  300TIP3   OH2  842   2.434   5.705   1.641
  300TIP3    H1  843   2.360   5.666   1.687
  300TIP3    H2  844   2.395   5.761   1.574
  301TIP3   OH2  845   6.331   5.469   3.736
  301TIP3    H1  846   6.329   5.565   3.742
  301TIP3    H2  847   6.292   5.449   3.651
  302TIP3   OH2  848   4.341   7.178   4.805
  302TIP3    H1  849   4.433   7.159   4.824
  302TIP3    H2  850   4.293   7.107   4.849
  303TIP3   OH2  851   6.865   5.172   5.463
  303TIP3    H1  852   6.829   5.259   5.447
  303TIP3    H2  853   6.803   5.113   5.420
  304TIP3   OH2  854   4.014   4.220   0.286
  304TIP3    H1  855   4.018   4.257   0.374
  304TIP3    H2  856   4.037   4.292   0.228
  305TIP3   OH2  857   7.178   5.492   3.151
  305TIP3    H1  858   7.086   5.516   3.145
  305TIP3    H2  859   7.201   5.461   3.063
  306TIP3   OH2  860   0.335   6.411   6.249
  306TIP3    H1  861   0.335   6.499   6.287
  306TIP3    H2  862   0.242   6.390   6.237
  307TIP3   OH2  863   5.791   1.690   4.877
  307TIP3    H1  864   5.879   1.725   4.862
  307TIP3    H2  865   5.775   1.634   4.801
  308TIP3   OH2  866   7.076   4.834   4.047
  308TIP3    H1  867   6.986   4.847   4.017
  308TIP3    H2  868   7.107   4.921   4.068
  309TIP3   OH2  869   3.199   7.713   3.022
  309TIP3    H1  870   3.144   7.693   3.098
  309TIP3    H2  871   3.155   7.670   2.949
  310TIP3   OH2  872   6.140   5.805   1.722
  310TIP3    H1  873   6.179   5.884   1.684
  310TIP3    H2  874   6.205   5.736   1.705
  311TIP3   OH2  875   7.334   2.315   0.036
  311TIP3    H1  876   7.350   2.409   0.030
  311TIP3    H2  877   7.303   2.301   0.125
  312TIP3   OH2  878   8.209   0.924   0.171
  312TIP3    H1  879   8.214   0.854   0.235
  312TIP3    H2  880   8.292   0.918   0.122
  313TIP3   OH2  881   2.320   3.098   0.594
  313TIP3    H1  882   2.363   3.058   0.669
  313TIP3    H2  883   2.231   3.116   0.624
  314TIP3   OH2  884   0.180   2.130   6.483
  314TIP3    H1  885   0.161   2.075   6.407
  314TIP3    H2  886   0.270   2.161   6.469
  315TIP3   OH2  887   0.730   0.345   6.012
  315TIP3    H1  888   0.755   0.315   6.099
  315TIP3    H2  889   0.812   0.374   5.972
  316TIP3   OH2  890   3.393   6.744   1.727
  316TIP3    H1  891   3.330   6.738   1.799
  316TIP3    H2  892   3.339   6.736   1.648
  317TIP3   OH2  893   5.155   2.446   6.590
  317TIP3    H1  894   5.162   2.536   6.558
  317TIP3    H2  895   5.224   2.439   6.657
  318TIP3   OH2  896   7.655   2.795   5.620
  318TIP3    H1  897   7.613   2.713   5.646
  318TIP3    H2  898   7.604   2.864   5.664
  319TIP3   OH2  899   3.745   0.280   0.655
  319TIP3    H1  900   3.739   0.282   0.560
  319TIP3    H2  901   3.720   0.191   0.679
  320TIP3   OH2  902   2.791   0.477   3.228
  320TIP3    H1  903   2.723   0.448   3.289
  320TIP3    H2  904   2.742   0.515   3.155
  321TIP3   OH2  905   7.044   4.792   1.790
  321TIP3    H1  906   6.999   4.715   1.824
  321TIP3    H2  907   7.098   4.822   1.863
  322TIP3   OH2  908   1.999   7.602   3.667
  322TIP3    H1  909   2.076   7.617   3.721
  322TIP3    H2  910   1.954   7.529   3.709
  323TIP3   OH2  911   5.259   5.778   1.176
  323TIP3    H1  912   5.207   5.718   1.122
  323TIP3    H2  913   5.340   5.790   1.127
  324TIP3   OH2  914   7.790   1.649   1.090
  324TIP3    H1  915   7.760   1.570   1.045
  324TIP3    H2  916   7.855   1.687   1.031
  325TIP3   OH2  917   7.242   4.699   2.319
  325TIP3    H1  918   7.146   4.705   2.316
  325TIP3    H2  919   7.259   4.613   2.359
  326TIP3   OH2  920   6.165   0.587   0.944
  326TIP3    H1  921   6.207   0.515   0.992
  326TIP3    H2  922   6.170   0.662   1.004
  327TIP3   OH2  923   7.494   1.325   2.925
  327TIP3    H1  924   7.510   1.265   2.852
  327TIP3    H2  925   7.461   1.268   2.995
  328TIP3   OH2  926   8.174   1.442   2.290
  328TIP3    H1  927   8.268   1.422   2.289
  328TIP3    H2  928   8.140   1.393   2.364
  329TIP3   OH2  929   6.680   4.039   5.296
  329TIP3    H1  930   6.715   3.961   5.340
  329TIP3    H2  931   6.748   4.063   5.233
  330TIP3   OH2  932   4.644   2.008   4.168
  330TIP3    H1  933   4.572   2.022   4.229
  330TIP3    H2  934   4.604   2.015   4.081
  331TIP3   OH2  935   7.107   1.287   0.242
  331TIP3    H1  936   7.095   1.198   0.275
  331TIP3    H2  937   7.052   1.341   0.299
  332TIP3   OH2  938   8.259   5.733   1.356
  332TIP3    H1  939   8.168   5.737   1.325
  332TIP3    H2  940   8.278   5.821   1.388
  333TIP3   OH2  941   4.763   6.783   2.569
  333TIP3    H1  942   4.795   6.696   2.545
  333TIP3    H2  943   4.806   6.842   2.507
  334TIP3   OH2  944   5.564   1.177   2.920
  334TIP3    H1  945   5.640   1.124   2.945
  334TIP3    H2  946   5.498   1.112   2.895
  335TIP3   OH2  947   1.908   5.520   3.118
  335TIP3    H1  948   1.945   5.561   3.040
  335TIP3    H2  949   1.939   5.430   3.115
  336TIP3   OH2  950   7.923   0.124   6.486
  336TIP3    H1  951   7.976   0.113   6.565
  336TIP3    H2  952   7.961   0.063   6.423
  337TIP3   OH2  953   3.156   3.247   0.699
  337TIP3    H1  954   3.198   3.213   0.620
  337TIP3    H2  955   3.173   3.180   0.765
  338TIP3   OH2  956   1.089   7.057   1.648
  338TIP3    H1  957   1.033   7.086   1.575
  338TIP3    H2  958   1.084   6.962   1.645
  339TIP3   OH2  959   4.316   6.432   0.856
  339TIP3    H1  960   4.385   6.486   0.817
  339TIP3    H2  961   4.318   6.351   0.806
  340TIP3   OH2  962   5.165   2.528   5.797
  340TIP3    H1  963   5.146   2.493   5.884
  340TIP3    H2  964   5.254   2.562   5.804
  341TIP3   OH2  965   0.858   7.192   2.940
  341TIP3    H1  966   0.930   7.144   2.899
  341TIP3    H2  967   0.796   7.124   2.965
  342TIP3   OH2  968   4.626   1.003   0.094
  342TIP3    H1  969   4.595   1.007   0.003
  342TIP3    H2  970   4.683   0.926   0.096
  343TIP3   OH2  971   0.993   3.474   1.326
  343TIP3    H1  972   0.900   3.471   1.345
  343TIP3    H2  973   1.035   3.464   1.412
  344TIP3   OH2  974   4.938   2.068   3.063
  344TIP3    H1  975   4.937   2.143   3.003
  344TIP3    H2  976   4.913   2.105   3.147
  345TIP3   OH2  977   0.689   1.435   4.198
  345TIP3    H1  978   0.755   1.487   4.151
  345TIP3    H2  979   0.611   1.490   4.197
  346TIP3   OH2  980   6.928   7.612   5.727
  346TIP3    H1  981   6.986   7.609   5.652
  346TIP3    H2  982   6.976   7.567   5.797
  347TIP3   OH2  983   4.898   2.632   2.743
  347TIP3    H1  984   4.900   2.721   2.709
  347TIP3    H2  985   4.824   2.631   2.804
  348TIP3   OH2  986   7.011   1.427   5.968
  348TIP3    H1  987   6.962   1.373   6.029
  348TIP3    H2  988   6.944   1.464   5.910
  349TIP3   OH2  989   7.380   4.168   4.573
  349TIP3    H1  990   7.292   4.132   4.586
  349TIP3    H2  991   7.423   4.105   4.515
  350TIP3   OH2  992   2.457   0.635   5.622
  350TIP3    H1  993   2.520   0.576   5.583
  350TIP3    H2  994   2.436   0.596   5.707
  351TIP3   OH2  995   7.618   6.270   4.641
  351TIP3    H1  996   7.711   6.290   4.649
  351TIP3    H2  997   7.609   6.224   4.558
  352TIP3   OH2  998   0.494   0.392   0.190
  352TIP3    H1  999   0.576   0.442   0.199
  352TIP3    H2 1000   0.512   0.329   0.120
  353TIP3   OH2 1001   7.746   1.901   1.227
  353TIP3    H1 1002   7.786   1.971   1.175
  353TIP3    H2 1003   7.761   1.821   1.176
  354TIP3   OH2 1004   6.299   1.457   5.825
  354TIP3    H1 1005   6.292   1.365   5.799
  354TIP3    H2 1006   6.363   1.494   5.764
  355TIP3   OH2 1007   1.029   0.659   1.578
  355TIP3    H1 1008   1.003   0.728   1.517
  355TIP3    H2 1009   1.118   0.636   1.551
  356TIP3   OH2 1010   1.934   2.479   3.104
  356TIP3    H1 1011   1.874   2.420   3.059
  356TIP3    H2 1012   1.997   2.505   3.036
  357TIP3   OH2 1013   2.652   0.545   2.974
  357TIP3    H1 1014   2.622   0.610   3.037
  357TIP3    H2 1015   2.576   0.528   2.918
  358TIP3   OH2 1016   3.593   5.148   1.390
  358TIP3    H1 1017   3.591   5.205   1.313
  358TIP3    H2 1018   3.553   5.200   1.460
  359TIP3   OH2 1019   2.393   1.541   4.036
  359TIP3    H1 1020   2.335   1.500   4.100
  359TIP3    H2 1021   2.354   1.521   3.951
  360TIP3   OH2 1022   3.915   2.761   2.811
  360TIP3    H1 1023   3.952   2.694   2.869
  360TIP3    H2 1024   3.988   2.820   2.793
  361TIP3   OH2 1025   5.908   5.982   6.141
  361TIP3    H1 1026   5.824   5.943   6.168
  361TIP3    H2 1027   5.971   5.950   6.205
  362TIP3   OH2 1028   4.827   2.519   4.576
  362TIP3    H1 1029   4.772   2.444   4.600
  362TIP3    H2 1030   4.916   2.488   4.588
  363TIP3   OH2 1031   5.370   4.600   5.466
  363TIP3    H1 1032   5.336   4.545   5.536
  363TIP3    H2 1033   5.327   4.685   5.480
  364TIP3   OH2 1034   0.573   0.689   1.681
  364TIP3    H1 1035   0.516   0.763   1.659
  364TIP3    H2 1036   0.579   0.639   1.599
  365TIP3   OH2 1037   3.823   5.706   2.047
  365TIP3    H1 1038   3.733   5.739   2.041
  365TIP3    H2 1039   3.873   5.761   1.988
  366TIP3   OH2 1040   1.949   0.963   3.375
  366TIP3    H1 1041   1.931   1.042   3.325
  366TIP3    H2 1042   1.961   0.895   3.310
  367TIP3   OH2 1043   2.235   6.250   5.869
  367TIP3    H1 1044   2.317   6.278   5.829
  367TIP3    H2 1045   2.169   6.260   5.801
  368TIP3   OH2 1046   0.947   5.587   5.545
  368TIP3    H1 1047   0.955   5.679   5.571
  368TIP3    H2 1048   0.979   5.538   5.620
  369TIP3   OH2 1049   2.290   4.345   1.598
  369TIP3    H1 1050   2.274   4.250   1.598
  369TIP3    H2 1051   2.281   4.371   1.690
  370TIP3   OH2 1052   0.124   2.614   2.771
  370TIP3    H1 1053   0.062   2.600   2.843
  370TIP3    H2 1054   0.192   2.670   2.810
  371TIP3   OH2 1055   4.908   2.264   2.873
  371TIP3    H1 1056   4.840   2.327   2.895
  371TIP3    H2 1057   4.865   2.201   2.815
  372TIP3   OH2 1058   1.495   2.536   2.395
  372TIP3    H1 1059   1.584   2.514   2.369
  372TIP3    H2 1060   1.496   2.631   2.406
  373TIP3   OH2 1061   1.989   2.398   5.302
  373TIP3    H1 1062   2.047   2.453   5.249
  373TIP3    H2 1063   2.046   2.362   5.370
  374TIP3   OH2 1064   1.833   7.410   3.804
  374TIP3    H1 1065   1.739   7.420   3.820
  374TIP3    H2 1066   1.874   7.426   3.889
  375TIP3   OH2 1067   7.921   3.248   1.399
  375TIP3    H1 1068   7.964   3.253   1.484
  375TIP3    H2 1069   7.829   3.266   1.418
  376TIP3   OH2 1070   3.203   0.054   2.449
  376TIP3    H1 1071   3.126   0.020   2.494
  376TIP3    H2 1072   3.175   0.063   2.358
  377TIP3   OH2 1073   7.696   2.412   3.133
  377TIP3    H1 1074   7.719   2.492   3.086
  377TIP3    H2 1075   7.780   2.379   3.166
  378TIP3   OH2 1076   1.355   6.592   4.642
  378TIP3    H1 1077   1.281   6.531   4.643
  378TIP3    H2 1078   1.317   6.676   4.671
  379TIP3   OH2 1079   3.240   1.586   4.406
  379TIP3    H1 1080   3.280   1.533   4.474
  379TIP3    H2 1081   3.289   1.565   4.327
  380TIP3   OH2 1082   5.005   5.029   3.052
  380TIP3    H1 1083   5.051   4.963   3.104
  380TIP3    H2 1084   4.976   4.983   2.974
  381TIP3   OH2 1085   4.880   3.276   5.898
  381TIP3    H1 1086   4.787   3.253   5.885
  381TIP3    H2 1087   4.881   3.371   5.898
  382TIP3   OH2 1088   0.135   4.781   4.883
  382TIP3    H1 1089   0.092   4.856   4.924
  382TIP3    H2 1090   0.221   4.814   4.856
  383TIP3   OH2 1091   5.486   3.973   0.769
  383TIP3    H1 1092   5.567   3.922   0.759
  383TIP3    H2 1093   5.419   3.907   0.788
  384TIP3   OH2 1094   2.044   0.882   5.668
  384TIP3    H1 1095   2.065   0.824   5.741
  384TIP3    H2 1096   1.949   0.892   5.672
  385TIP3   OH2 1097   6.070   7.393   5.993
  385TIP3    H1 1098   6.051   7.309   6.036
  385TIP3    H2 1099   6.025   7.388   5.909
  386TIP3   OH2 1100   2.031   4.731   0.287
  386TIP3    H1 1101   1.990   4.814   0.266
  386TIP3    H2 1102   2.116   4.735   0.244
  387TIP3   OH2 1103   3.832   1.656   1.347
  387TIP3    H1 1104   3.853   1.672   1.439
  387TIP3    H2 1105   3.869   1.569   1.329
  388TIP3   OH2 1106   1.678   2.799   4.391
  388TIP3    H1 1107   1.755   2.796   4.334
  388TIP3    H2 1108   1.707   2.845   4.469
  389TIP3   OH2 1109   5.977   4.572   1.999
  389TIP3    H1 1110   6.026   4.585   1.918
  389TIP3    H2 1111   6.029   4.617   2.066
  390TIP3   OH2 1112   3.559   2.625   4.853
  390TIP3    H1 1113   3.490   2.589   4.910
  390TIP3    H2 1114   3.578   2.711   4.889
  391TIP3   OH2 1115   0.330   6.763   4.892
  391TIP3    H1 1116   0.367   6.761   4.980
  391TIP3    H2 1117   0.383   6.701   4.843
  392TIP3   OH2 1118   0.216   1.778   0.695
  392TIP3    H1 1119   0.282   1.723   0.653
  392TIP3    H2 1120   0.192   1.731   0.775
  393TIP3   OH2 1121   2.234   6.776   5.641
  393TIP3    H1 1122   2.192   6.734   5.716
  393TIP3    H2 1123   2.224   6.870   5.657
  394TIP3   OH2 1124   4.517   3.156   6.306
  394TIP3    H1 1125   4.475   3.096   6.244
  394TIP3    H2 1126   4.472   3.141   6.389
  395TIP3   OH2 1127   2.252   6.473   0.943
  395TIP3    H1 1128   2.229   6.560   0.911
  395TIP3    H2 1129   2.312   6.489   1.016
  396TIP3   OH2 1130   1.655   7.601   0.159
  396TIP3    H1 1131   1.722   7.610   0.227
  396TIP3    H2 1132   1.620   7.513   0.171
  397TIP3   OH2 1133   6.466   6.606   6.070
  397TIP3    H1 1134   6.380   6.615   6.028
  397TIP3    H2 1135   6.463   6.668   6.143
  398TIP3   OH2 1136   6.628   0.578   1.081
  398TIP3    H1 1137   6.636   0.591   0.987
  398TIP3    H2 1138   6.627   0.483   1.092
  399TIP3   OH2 1139   5.905   4.475   2.499
  399TIP3    H1 1140   5.896   4.548   2.561
  399TIP3    H2 1141   5.869   4.399   2.546
  400TIP3   OH2 1142   6.986   2.111   2.245
  400TIP3    H1 1143   7.016   2.121   2.335
  400TIP3    H2 1144   6.902   2.066   2.252
  401TIP3   OH2 1145   0.360   6.337   3.793
  401TIP3    H1 1146   0.313   6.411   3.755
  401TIP3    H2 1147   0.292   6.271   3.808
  402TIP3   OH2 1148   7.858   4.434   6.391
  402TIP3    H1 1149   7.939   4.400   6.428
  402TIP3    H2 1150   7.794   4.428   6.462
  403TIP3   OH2 1151   0.017   3.031   2.322
  403TIP3    H1 1152  -0.036   3.040   2.243
  403TIP3    H2 1153   0.100   3.075   2.301
  404TIP3   OH2 1154   7.655   0.986   2.764
  404TIP3    H1 1155   7.662   1.065   2.710
  404TIP3    H2 1156   7.700   1.008   2.845
  405TIP3   OH2 1157   4.791   7.139   6.246
  405TIP3    H1 1158   4.778   7.232   6.266
  405TIP3    H2 1159   4.734   7.122   6.171
  406TIP3   OH2 1160   2.229   6.141   2.824
  406TIP3    H1 1161   2.235   6.055   2.865
  406TIP3    H2 1162   2.250   6.125   2.732
  407TIP3   OH2 1163   2.037   4.602   1.517
  407TIP3    H1 1164   1.958   4.645   1.550
  407TIP3    H2 1165   2.052   4.531   1.580
  408TIP3   OH2 1166   8.022   6.306   2.264
  408TIP3    H1 1167   7.986   6.389   2.296
  408TIP3    H2 1168   7.976   6.291   2.181
  409TIP3   OH2 1169   7.679   4.669   1.682
  409TIP3    H1 1170   7.726   4.587   1.676
  409TIP3    H2 1171   7.625   4.672   1.602
  410TIP3   OH2 1172   5.257   4.572   6.244
  410TIP3    H1 1173   5.279   4.490   6.200
  410TIP3    H2 1174   5.162   4.579   6.236
  411TIP3   OH2 1175   8.257   6.151   3.125
  411TIP3    H1 1176   8.205   6.075   3.152
  411TIP3    H2 1177   8.226   6.171   3.037
  412TIP3   OH2 1178   7.383   6.154   3.390
  412TIP3    H1 1179   7.433   6.205   3.454
  412TIP3    H2 1180   7.420   6.066   3.394
  413TIP3   OH2 1181   2.686   0.685   4.848
  413TIP3    H1 1182   2.761   0.727   4.807
  413TIP3    H2 1183   2.715   0.596   4.867
  414TIP3   OH2 1184   4.341   4.252   6.406
  414TIP3    H1 1185   4.367   4.160   6.394
  414TIP3    H2 1186   4.347   4.265   6.501
  415TIP3   OH2 1187   6.953   7.651   2.125
  415TIP3    H1 1188   6.864   7.626   2.150
  415TIP3    H2 1189   6.949   7.670   2.032
  416TIP3   OH2 1190   7.792   1.212   6.698
  416TIP3    H1 1191   7.753   1.251   6.777
  416TIP3    H2 1192   7.858   1.276   6.671
  417TIP3   OH2 1193   2.524   5.076   0.542
  417TIP3    H1 1194   2.573   5.044   0.618
  417TIP3    H2 1195   2.483   4.997   0.505
  418TIP3   OH2 1196   8.105   3.583   2.140
  418TIP3    H1 1197   8.138   3.553   2.225
  418TIP3    H2 1198   8.140   3.672   2.131
  419TIP3   OH2 1199   0.606   3.057   6.234
  419TIP3    H1 1200   0.630   3.069   6.142
  419TIP3    H2 1201   0.594   3.145   6.268
  420TIP3   OH2 1202   2.444   6.528   0.575
  420TIP3    H1 1203   2.530   6.561   0.548
  420TIP3    H2 1204   2.391   6.606   0.587
  421TIP3   OH2 1205   4.679   3.721   5.414
  421TIP3    H1 1206   4.625   3.800   5.411
  421TIP3    H2 1207   4.664   3.679   5.329
  422TIP3   OH2 1208   7.818   6.275   4.928
  422TIP3    H1 1209   7.731   6.237   4.919
  422TIP3    H2 1210   7.822   6.343   4.861
  423TIP3   OH2 1211   0.696   6.982   3.015
  423TIP3    H1 1212   0.645   6.961   2.936
  423TIP3    H2 1213   0.735   6.899   3.042
  424TIP3   OH2 1214   4.339   1.673   5.151
  424TIP3    H1 1215   4.369   1.699   5.238
  424TIP3    H2 1216   4.320   1.755   5.106
  425TIP3   OH2 1217   6.868   2.057   0.891
  425TIP3    H1 1218   6.891   2.133   0.838
  425TIP3    H2 1219   6.861   2.091   0.980
  426TIP3   OH2 1220   6.337   0.370   3.047
  426TIP3    H1 1221   6.245   0.379   3.022
  426TIP3    H2 1222   6.352   0.441   3.109
  427TIP3   OH2 1223   3.664   2.144   3.009
  427TIP3    H1 1224   3.661   2.232   2.971
  427TIP3    H2 1225   3.581   2.135   3.055
  428TIP3   OH2 1226   7.686   3.604   0.145
  428TIP3    H1 1227   7.743   3.532   0.121
  428TIP3    H2 1228   7.733   3.650   0.214
  429TIP3   OH2 1229   6.534   4.590   6.631
  429TIP3    H1 1230   6.581   4.638   6.699
  429TIP3    H2 1231   6.602   4.545   6.581
  430TIP3   OH2 1232   5.805   5.545   1.963
  430TIP3    H1 1233   5.718   5.582   1.947
  430TIP3    H2 1234   5.814   5.546   2.058
  431TIP3   OH2 1235   6.236   5.383   3.489
  431TIP3    H1 1236   6.145   5.365   3.515
  431TIP3    H2 1237   6.259   5.310   3.432
  432TIP3   OH2 1238   3.388   3.598   2.985
  432TIP3    H1 1239   3.373   3.524   2.927
  432TIP3    H2 1240   3.421   3.668   2.929
  433TIP3   OH2 1241   6.546   7.003   5.587
  433TIP3    H1 1242   6.625   6.957   5.616
  433TIP3    H2 1243   6.536   6.976   5.495
  434TIP3   OH2 1244   2.827   4.981   1.090
  434TIP3    H1 1245   2.740   4.976   1.049
  434TIP3    H2 1246   2.888   4.962   1.020
  435TIP3   OH2 1247   7.691   0.943   6.120
  435TIP3    H1 1248   7.678   0.926   6.027
  435TIP3    H2 1249   7.726   0.860   6.155
  436TIP3   OH2 1250   5.575   5.777   5.586
  436TIP3    H1 1251   5.590   5.868   5.612
  436TIP3    H2 1252   5.481   5.764   5.600
  437TIP3   OH2 1253   1.492   7.528   2.459
  437TIP3    H1 1254   1.431   7.530   2.385
  437TIP3    H2 1255   1.509   7.620   2.479
  438TIP3   OH2 1256   1.250   3.036   0.956
  438TIP3    H1 1257   1.263   3.086   0.876
  438TIP3    H2 1258   1.206   3.097   1.015
  439TIP3   OH2 1259   2.934   4.322   0.039
  439TIP3    H1 1260   2.903   4.381  -0.030
  439TIP3    H2 1261   2.856   4.275   0.067
  440TIP3   OH2 1262   7.994   4.582   1.512
  440TIP3    H1 1263   8.013   4.494   1.478
  440TIP3    H2 1264   7.983   4.635   1.433
  441TIP3   OH2 1265   0.516   6.773   6.370
  441TIP3    H1 1266   0.459   6.836   6.327
  441TIP3    H2 1267   0.564   6.731   6.299
  442TIP3   OH2 1268   7.472   1.988   1.232
  442TIP3    H1 1269   7.565   1.985   1.253
  442TIP3    H2 1270   7.469   2.017   1.140
  443TIP3   OH2 1271   2.496   3.331   3.145
  443TIP3    H1 1272   2.454   3.384   3.078
  443TIP3    H2 1273   2.540   3.261   3.097
  444TIP3   OH2 1274   6.423   7.228   1.228
  444TIP3    H1 1275   6.466   7.311   1.249
  444TIP3    H2 1276   6.427   7.178   1.310
  445TIP3   OH2 1277   3.145   6.589   0.234
  445TIP3    H1 1278   3.170   6.559   0.147
  445TIP3    H2 1279   3.073   6.531   0.259
  446TIP3   OH2 1280   3.966   1.405   6.256
  446TIP3    H1 1281   3.943   1.405   6.163
  446TIP3    H2 1282   4.060   1.383   6.256
  447TIP3   OH2 1283   2.063   0.205   4.011
  447TIP3    H1 1284   2.027   0.126   4.051
  447TIP3    H2 1285   2.158   0.195   4.018
  448TIP3   OH2 1286   2.914   0.647   2.937
  448TIP3    H1 1287   2.823   0.618   2.946
  448TIP3    H2 1288   2.939   0.619   2.849
  449TIP3   OH2 1289   5.750   6.441   4.958
  449TIP3    H1 1290   5.690   6.378   4.918
  449TIP3    H2 1291   5.837   6.403   4.945
  450TIP3   OH2 1292   7.571   0.710   1.426
  450TIP3    H1 1293   7.476   0.715   1.423
  450TIP3    H2 1294   7.590   0.651   1.498
  451TIP3   OH2 1295   1.627   3.969   6.707
  451TIP3    H1 1296   1.648   4.030   6.778
  451TIP3    H2 1297   1.704   3.971   6.650
  452TIP3   OH2 1298   5.507   2.657   3.489
  452TIP3    H1 1299   5.428   2.617   3.451
  452TIP3    H2 1300   5.482   2.680   3.578
  453TIP3   OH2 1301   3.438   1.511   2.970
  453TIP3    H1 1302   3.501   1.462   3.023
  453TIP3    H2 1303   3.444   1.471   2.883
  454TIP3   OH2 1304   2.528   7.684   5.293
  454TIP3    H1 1305   2.520   7.642   5.379
  454TIP3    H2 1306   2.438   7.709   5.271
  455TIP3   OH2 1307   1.607   6.393   5.114
  455TIP3    H1 1308   1.570   6.481   5.124
  455TIP3    H2 1309   1.688   6.406   5.065
  456TIP3   OH2 1310   6.479   7.275   6.402
  456TIP3    H1 1311   6.421   7.273   6.326
  456TIP3    H2 1312   6.565   7.251   6.368
  457TIP3   OH2 1313   4.248   7.345   2.035
  457TIP3    H1 1314   4.193   7.268   2.048
  457TIP3    H2 1315   4.334   7.320   2.068
  458TIP3   OH2 1316   0.031   4.773   0.346
  458TIP3    H1 1317   0.126   4.774   0.351
  458TIP3    H2 1318   0.002   4.774   0.438
  459TIP3   OH2 1319   0.220   5.280   1.030
  459TIP3    H1 1320   0.195   5.309   0.942
  459TIP3    H2 1321   0.142   5.297   1.083
  460TIP3   OH2 1322   5.503   6.992   0.108
  460TIP3    H1 1323   5.507   7.087   0.093
  460TIP3    H2 1324   5.513   6.983   0.203
  461TIP3   OH2 1325   1.139   1.627   4.377
  461TIP3    H1 1326   1.131   1.547   4.324
  461TIP3    H2 1327   1.116   1.599   4.465
  462TIP3   OH2 1328   6.935   3.609   1.131
  462TIP3    H1 1329   6.986   3.567   1.062
  462TIP3    H2 1330   6.851   3.563   1.129
  463TIP3   OH2 1331   2.785   3.456   5.719
  463TIP3    H1 1332   2.748   3.388   5.664
  463TIP3    H2 1333   2.808   3.527   5.658
  464TIP3   OH2 1334   7.650   5.822   1.817
  464TIP3    H1 1335   7.584   5.754   1.817
  464TIP3    H2 1336   7.696   5.813   1.734
  465TIP3   OH2 1337   2.754   1.687   3.516
  465TIP3    H1 1338   2.813   1.680   3.440
  465TIP3    H2 1339   2.716   1.774   3.509
  466TIP3   OH2 1340   0.745   4.679   6.509
  466TIP3    H1 1341   0.668   4.623   6.508
  466TIP3    H2 1342   0.815   4.625   6.472
  467TIP3   OH2 1343   6.865   4.991   1.094
  467TIP3    H1 1344   6.821   5.074   1.116
  467TIP3    H2 1345   6.818   4.925   1.144
  468TIP3   OH2 1346   3.468   1.418   5.565
  468TIP3    H1 1347   3.557   1.387   5.581
  468TIP3    H2 1348   3.414   1.339   5.567
  469TIP3   OH2 1349   2.029   3.708   6.467
  469TIP3    H1 1350   2.101   3.650   6.493
  469TIP3    H2 1351   2.032   3.707   6.371
  470TIP3   OH2 1352   3.633   2.539   3.477
  470TIP3    H1 1353   3.649   2.524   3.570
  470TIP3    H2 1354   3.626   2.451   3.440
  471TIP3   OH2 1355   7.878   6.508   1.152
  471TIP3    H1 1356   7.813   6.552   1.207
  471TIP3    H2 1357   7.839   6.507   1.064
  472TIP3   OH2 1358   2.212   1.228   0.989
  472TIP3    H1 1359   2.264   1.291   1.039
  472TIP3    H2 1360   2.273   1.159   0.967
  473TIP3   OH2 1361   2.397   2.800   3.607
  473TIP3    H1 1362   2.328   2.789   3.541
  473TIP3    H2 1363   2.407   2.895   3.615
  474TIP3   OH2 1364   4.918   6.973   2.444
  474TIP3    H1 1365   4.908   6.979   2.349
  474TIP3    H2 1366   4.905   7.063   2.475
  475TIP3   OH2 1367   2.141   4.186   1.241
  475TIP3    H1 1368   2.088   4.127   1.294
  475TIP3    H2 1369   2.135   4.150   1.153
  476TIP3   OH2 1370   1.176   6.582   1.499
  476TIP3    H1 1371   1.194   6.615   1.411
  476TIP3    H2 1372   1.178   6.660   1.555
  477TIP3   OH2 1373   1.692   2.420   0.117
  477TIP3    H1 1374   1.617   2.413   0.175
  477TIP3    H2 1375   1.768   2.415   0.175
  478TIP3   OH2 1376   6.781   4.796   0.831
  478TIP3    H1 1377   6.833   4.725   0.869
  478TIP3    H2 1378   6.690   4.771   0.849
  479TIP3   OH2 1379   1.408   0.359   3.014
  479TIP3    H1 1380   1.320   0.384   2.986
  479TIP3    H2 1381   1.425   0.412   3.092
  480TIP3   OH2 1382   3.627   0.542   2.554
  480TIP3    H1 1383   3.586   0.581   2.477
  480TIP3    H2 1384   3.632   0.449   2.534
  481TIP3   OH2 1385   5.984   3.404   3.336
  481TIP3    H1 1386   6.068   3.361   3.355
  481TIP3    H2 1387   5.934   3.396   3.417
  482TIP3   OH2 1388   5.624   4.686   4.687
  482TIP3    H1 1389   5.620   4.664   4.594
  482TIP3    H2 1390   5.538   4.661   4.721
  483TIP3   OH2 1391   6.361   4.046   1.441
  483TIP3    H1 1392   6.429   4.090   1.390
  483TIP3    H2 1393   6.300   4.012   1.376
  484TIP3   OH2 1394   3.068   1.696   2.027
  484TIP3    H1 1395   3.072   1.741   1.942
  484TIP3    H2 1396   2.995   1.738   2.073
  485TIP3   OH2 1397   4.364   5.089   4.112
  485TIP3    H1 1398   4.426   5.152   4.151
  485TIP3    H2 1399   4.279   5.132   4.117
  486TIP3   OH2 1400   2.911   7.241   6.549
  486TIP3    H1 1401   2.972   7.173   6.519
  486TIP3    H2 1402   2.903   7.300   6.474
  487TIP3   OH2 1403   4.164   2.771   3.576
  487TIP3    H1 1404   4.184   2.852   3.623
  487TIP3    H2 1405   4.081   2.742   3.611
  488TIP3   OH2 1406   0.959   7.516   4.328
  488TIP3    H1 1407   0.967   7.611   4.320
  488TIP3    H2 1408   0.879   7.495   4.279
  489TIP3   OH2 1409   7.213   5.004   4.385
  489TIP3    H1 1410   7.143   4.942   4.364
  489TIP3    H2 1411   7.223   4.998   4.480
  490TIP3   OH2 1412   0.958   4.045   2.967
  490TIP3    H1 1413   1.040   4.064   3.012
  490TIP3    H2 1414   0.970   4.081   2.879
  491TIP3   OH2 1415   4.656   1.960   1.048
  491TIP3    H1 1416   4.702   1.879   1.027
  491TIP3    H2 1417   4.721   2.014   1.093
  492TIP3   OH2 1418   5.875   2.767   2.297
  492TIP3    H1 1419   5.917   2.685   2.271
  492TIP3    H2 1420   5.936   2.806   2.360
  493TIP3   OH2 1421   3.502   6.405   4.006
  493TIP3    H1 1422   3.588   6.381   4.041
  493TIP3    H2 1423   3.495   6.355   3.924
  494TIP3   OH2 1424   4.708   1.344   2.371
  494TIP3    H1 1425   4.757   1.343   2.453
  494TIP3    H2 1426   4.742   1.420   2.323
  495TIP3   OH2 1427   0.775   0.906   1.688
  495TIP3    H1 1428   0.687   0.943   1.698
  495TIP3    H2 1429   0.794   0.866   1.773
  496TIP3   OH2 1430   1.309   7.082   4.836
  496TIP3    H1 1431   1.357   7.158   4.867
  496TIP3    H2 1432   1.377   7.023   4.803
  497TIP3   OH2 1433   4.850   1.627   2.959
  497TIP3    H1 1434   4.818   1.717   2.950
  497TIP3    H2 1435   4.783   1.573   2.919
  498TIP3   OH2 1436   5.448   2.348   5.959
  498TIP3    H1 1437   5.488   2.381   6.039
  498TIP3    H2 1438   5.417   2.426   5.913
  499TIP3   OH2 1439   5.458   5.380   1.165
  499TIP3    H1 1440   5.449   5.441   1.092
  499TIP3    H2 1441   5.395   5.310   1.145
  500TIP3   OH2 1442   0.174   0.838   2.003
  500TIP3    H1 1443   0.079   0.830   1.989
  500TIP3    H2 1444   0.205   0.748   2.005
  501TIP3   OH2 1445   5.414   0.488   3.120
  501TIP3    H1 1446   5.475   0.437   3.173
  501TIP3    H2 1447   5.365   0.423   3.071
  502TIP3   OH2 1448   1.223   5.520   1.665
  502TIP3    H1 1449   1.191   5.590   1.721
  502TIP3    H2 1450   1.200   5.439   1.713
  503TIP3   OH2 1451   6.933   7.406   0.558
  503TIP3    H1 1452   6.932   7.484   0.503
  503TIP3    H2 1453   6.898   7.436   0.642
  504TIP3   OH2 1454   3.494   0.622   2.790
  504TIP3    H1 1455   3.519   0.567   2.716
  504TIP3    H2 1456   3.513   0.711   2.761
  505TIP3   OH2 1457   2.434   5.363   6.654
  505TIP3    H1 1458   2.405   5.274   6.672
  505TIP3    H2 1459   2.358   5.418   6.674
  506TIP3   OH2 1460   6.602   0.819   4.201
  506TIP3    H1 1461   6.602   0.915   4.196
  506TIP3    H2 1462   6.522   0.792   4.157
  507TIP3   OH2 1463   3.012   3.265   5.810
  507TIP3    H1 1464   2.960   3.345   5.821
  507TIP3    H2 1465   3.065   3.281   5.732
  508TIP3   OH2 1466   6.971   3.542   6.605
  508TIP3    H1 1467   6.985   3.621   6.657
  508TIP3    H2 1468   7.040   3.482   6.633
  509TIP3   OH2 1469   0.950   6.759   5.106
  509TIP3    H1 1470   1.013   6.688   5.102
  509TIP3    H2 1471   0.954   6.791   5.196
  510TIP3   OH2 1472   3.826   3.866   1.949
  510TIP3    H1 1473   3.807   3.772   1.951
  510TIP3    H2 1474   3.764   3.904   2.011
  511TIP3   OH2 1475   6.569   3.031   5.112
  511TIP3    H1 1476   6.478   3.028   5.144
  511TIP3    H2 1477   6.619   2.985   5.179
  512TIP3   OH2 1478   6.474   3.895   3.420
  512TIP3    H1 1479   6.463   3.849   3.503
  512TIP3    H2 1480   6.410   3.966   3.424
  513TIP3   OH2 1481   8.170   5.218   1.437
  513TIP3    H1 1482   8.137   5.139   1.393
  513TIP3    H2 1483   8.146   5.205   1.529
  514TIP3   OH2 1484   6.190   5.118   2.114
  514TIP3    H1 1485   6.188   5.054   2.186
  514TIP3    H2 1486   6.123   5.088   2.053
  515TIP3   OH2 1487   4.778   6.984   6.478
  515TIP3    H1 1488   4.792   7.020   6.390
  515TIP3    H2 1489   4.683   6.968   6.481
  516TIP3   OH2 1490   5.536   1.440   5.749
  516TIP3    H1 1491   5.512   1.386   5.674
  516TIP3    H2 1492   5.462   1.500   5.761
  517TIP3   OH2 1493   1.092   3.758   1.477
  517TIP3    H1 1494   1.158   3.690   1.489
  517TIP3    H2 1495   1.052   3.768   1.563
  518TIP3   OH2 1496   0.022   6.375   2.600
  518TIP3    H1 1497   0.091   6.348   2.662
  518TIP3    H2 1498   0.057   6.352   2.514
  519TIP3   OH2 1499   7.977   1.409   6.651
  519TIP3    H1 1500   7.995   1.422   6.557
  519TIP3    H2 1501   8.038   1.341   6.678
  520TIP3   OH2 1502   3.222   0.161   4.614
  520TIP3    H1 1503   3.131   0.184   4.635
  520TIP3    H2 1504   3.262   0.144   4.699
  521TIP3   OH2 1505   2.558   3.185   1.367
  521TIP3    H1 1506   2.511   3.117   1.416
  521TIP3    H2 1507   2.510   3.194   1.285
  522TIP3   OH2 1508   2.343   2.348   2.730
  522TIP3    H1 1509   2.434   2.319   2.728
  522TIP3    H2 1510   2.300   2.286   2.789
  523TIP3   OH2 1511   4.093   1.607   3.900
  523TIP3    H1 1512   4.186   1.596   3.923
  523TIP3    H2 1513   4.047   1.600   3.984
  524TIP3   OH2 1514   3.851   4.673   2.139
  524TIP3    H1 1515   3.892   4.752   2.175
  524TIP3    H2 1516   3.922   4.609   2.139
  525TIP3   OH2 1517   7.713   2.722   2.698
  525TIP3    H1 1518   7.636   2.774   2.676
  525TIP3    H2 1519   7.786   2.784   2.695
  526TIP3   OH2 1520   1.881   6.424   3.677
  526TIP3    H1 1521   1.890   6.384   3.591
  526TIP3    H2 1522   1.803   6.479   3.670
  527TIP3   OH2 1523   3.366   6.611   4.100
  527TIP3    H1 1524   3.396   6.610   4.190
  527TIP3    H2 1525   3.421   6.545   4.056
  528TIP3   OH2 1526   1.136   1.724   6.247
  528TIP3    H1 1527   1.178   1.668   6.181
  528TIP3    H2 1528   1.097   1.663   6.309
  529TIP3   OH2 1529   0.189   1.474   4.373
  529TIP3    H1 1530   0.127   1.465   4.446
  529TIP3    H2 1531   0.134   1.496   4.298
  530TIP3   OH2 1532   6.059   6.542   4.849
  530TIP3    H1 1533   5.976   6.494   4.848
  530TIP3    H2 1534   6.112   6.497   4.914
  531TIP3   OH2 1535   4.994   4.625   5.942
  531TIP3    H1 1536   4.990   4.604   6.035
  531TIP3    H2 1537   4.918   4.580   5.904
  532TIP3   OH2 1538   2.446   6.166   3.946
  532TIP3    H1 1539   2.440   6.241   3.886
  532TIP3    H2 1540   2.364   6.170   3.996
  533TIP3   OH2 1541   7.568   4.721   2.944
  533TIP3    H1 1542   7.657   4.701   2.975
  533TIP3    H2 1543   7.533   4.781   3.010
  534TIP3   OH2 1544   2.895   0.925   3.745
  534TIP3    H1 1545   2.825   0.977   3.783
  534TIP3    H2 1546   2.878   0.836   3.775
  535TIP3   OH2 1547   4.067   2.075   4.840
  535TIP3    H1 1548   4.155   2.088   4.804
  535TIP3    H2 1549   4.037   2.163   4.861
  536TIP3   OH2 1550   1.685   7.496   5.343
  536TIP3    H1 1551   1.707   7.408   5.314
  536TIP3    H2 1552   1.768   7.544   5.340
  537TIP3   OH2 1553   5.312   1.858   0.828
  537TIP3    H1 1554   5.397   1.833   0.792
  537TIP3    H2 1555   5.303   1.807   0.908
  538TIP3   OH2 1556   8.008   7.037   1.874
  538TIP3    H1 1557   8.046   7.106   1.929
  538TIP3    H2 1558   8.066   6.962   1.887
  539TIP3   OH2 1559   0.037   0.190   3.718
  539TIP3    H1 1560   0.006   0.178   3.807
  539TIP3    H2 1561  -0.022   0.137   3.664
  540TIP3   OH2 1562   4.974   5.583   4.519
  540TIP3    H1 1563   4.948   5.521   4.587
  540TIP3    H2 1564   4.905   5.577   4.453
  541TIP3   OH2 1565   0.741   7.143   5.204
  541TIP3    H1 1566   0.710   7.063   5.245
  541TIP3    H2 1567   0.779   7.115   5.121
  542TIP3   OH2 1568   2.812   5.616   5.664
  542TIP3    H1 1569   2.717   5.613   5.663
  542TIP3    H2 1570   2.834   5.693   5.611
  543TIP3   OH2 1571   6.528   6.683   5.653
  543TIP3    H1 1572   6.596   6.735   5.611
  543TIP3    H2 1573   6.548   6.593   5.626
  544TIP3   OH2 1574   5.898   0.808   4.011
  544TIP3    H1 1575   5.822   0.782   4.062
  544TIP3    H2 1576   5.954   0.856   4.073
  545TIP3   OH2 1577   7.491   0.337   2.285
  545TIP3    H1 1578   7.446   0.307   2.364
  545TIP3    H2 1579   7.499   0.258   2.231
  546TIP3   OH2 1580   7.434   0.885   4.444
  546TIP3    H1 1581   7.428   0.980   4.436
  546TIP3    H2 1582   7.475   0.871   4.530
  547TIP3   OH2 1583   5.941   4.489   6.109
  547TIP3    H1 1584   5.926   4.412   6.053
  547TIP3    H2 1585   5.947   4.453   6.197
  548TIP3   OH2 1586   7.736   1.847   0.156
  548TIP3    H1 1587   7.671   1.823   0.221
  548TIP3    H2 1588   7.816   1.801   0.184
  549TIP3   OH2 1589   4.527   4.610   4.077
  549TIP3    H1 1590   4.453   4.670   4.074
  549TIP3    H2 1591   4.490   4.525   4.054
  550TIP3   OH2 1592   0.459   3.437   4.167
  550TIP3    H1 1593   0.407   3.357   4.156
  550TIP3    H2 1594   0.523   3.415   4.234
  551TIP3   OH2 1595   0.368   3.372   3.617
  551TIP3    H1 1596   0.332   3.339   3.700
  551TIP3    H2 1597   0.355   3.466   3.621
  552TIP3   OH2 1598   1.775   3.213   4.501
  552TIP3    H1 1599   1.712   3.175   4.440
  552TIP3    H2 1600   1.782   3.149   4.572
  553TIP3   OH2 1601   3.936   0.718   0.770
  553TIP3    H1 1602   4.023   0.758   0.760
  553TIP3    H2 1603   3.895   0.767   0.841
  554TIP3   OH2 1604   3.793   0.314   0.337
  554TIP3    H1 1605   3.850   0.373   0.289
  554TIP3    H2 1606   3.711   0.314   0.286
  555TIP3   OH2 1607   2.520   0.288   3.661
  555TIP3    H1 1608   2.546   0.314   3.749
  555TIP3    H2 1609   2.425   0.284   3.664
  556TIP3   OH2 1610   3.768   4.768   4.997
  556TIP3    H1 1611   3.839   4.770   5.062
  556TIP3    H2 1612   3.759   4.858   4.969
  557TIP3   OH2 1613   6.492   2.739   5.567
  557TIP3    H1 1614   6.585   2.732   5.590
  557TIP3    H2 1615   6.491   2.732   5.471
  558TIP3   OH2 1616   8.214   5.764   6.127
  558TIP3    H1 1617   8.139   5.712   6.153
  558TIP3    H2 1618   8.250   5.798   6.209
  559TIP3   OH2 1619   2.903   4.704   1.772
  559TIP3    H1 1620   2.926   4.706   1.679
  559TIP3    H2 1621   2.983   4.730   1.817
  560TIP3   OH2 1622   7.401   1.743   0.845
  560TIP3    H1 1623   7.362   1.827   0.820
  560TIP3    H2 1624   7.494   1.752   0.827
  561TIP3   OH2 1625   2.719   3.240   1.794
  561TIP3    H1 1626   2.696   3.275   1.708
  561TIP3    H2 1627   2.705   3.313   1.854
  562TIP3   OH2 1628   2.302   6.919   3.170
  562TIP3    H1 1629   2.383   6.928   3.121
  562TIP3    H2 1630   2.322   6.855   3.239
  563TIP3   OH2 1631   3.862   7.553   1.592
  563TIP3    H1 1632   3.800   7.498   1.545
  563TIP3    H2 1633   3.892   7.616   1.527
  564TIP3   OH2 1634   3.100   4.026   2.953
  564TIP3    H1 1635   3.065   3.985   2.874
  564TIP3    H2 1636   3.195   4.026   2.940
  565TIP3   OH2 1637   4.844   0.536   0.710
  565TIP3    H1 1638   4.812   0.489   0.633
  565TIP3    H2 1639   4.914   0.481   0.744
  566TIP3   OH2 1640   6.475   5.337   3.121
  566TIP3    H1 1641   6.495   5.393   3.047
  566TIP3    H2 1642   6.398   5.377   3.162
  567TIP3   OH2 1643   2.309   1.234   0.412
  567TIP3    H1 1644   2.266   1.157   0.451
  567TIP3    H2 1645   2.263   1.308   0.450
  568TIP3   OH2 1646   5.409   3.611   2.519
  568TIP3    H1 1647   5.476   3.560   2.473
  568TIP3    H2 1648   5.457   3.682   2.561
  569TIP3   OH2 1649   2.718   3.529   4.998
  569TIP3    H1 1650   2.765   3.500   4.920
  569TIP3    H2 1651   2.773   3.599   5.035
  570TIP3   OH2 1652   1.776   0.652   6.546
  570TIP3    H1 1653   1.837   0.720   6.519
  570TIP3    H2 1654   1.788   0.581   6.482
  571TIP3   OH2 1655   7.319   3.654   6.531
  571TIP3    H1 1656   7.353   3.573   6.493
  571TIP3    H2 1657   7.245   3.626   6.585
  572TIP3   OH2 1658   7.917   4.214   6.230
  572TIP3    H1 1659   7.908   4.216   6.134
  572TIP3    H2 1660   7.880   4.297   6.259
  573TIP3   OH2 1661   2.459   3.469   5.114
  573TIP3    H1 1662   2.543   3.500   5.079
  573TIP3    H2 1663   2.408   3.549   5.127
  574TIP3   OH2 1664   5.666   3.519   4.286
  574TIP3    H1 1665   5.734   3.496   4.222
  574TIP3    H2 1666   5.635   3.605   4.258
  575TIP3   OH2 1667   0.962   2.134   1.257
  575TIP3    H1 1668   0.943   2.041   1.248
  575TIP3    H2 1669   1.053   2.143   1.231
  576TIP3   OH2 1670   2.464   7.543   1.224
  576TIP3    H1 1671   2.476   7.575   1.134
  576TIP3    H2 1672   2.407   7.467   1.216
  577TIP3   OH2 1673   3.316   1.895   3.567
  577TIP3    H1 1674   3.292   1.841   3.491
  577TIP3    H2 1675   3.233   1.930   3.599
  578TIP3   OH2 1676   1.025   3.116   3.540
  578TIP3    H1 1677   1.105   3.169   3.537
  578TIP3    H2 1678   0.955   3.180   3.551
  579TIP3   OH2 1679   3.488   5.026   2.332
  579TIP3    H1 1680   3.439   5.062   2.258
  579TIP3    H2 1681   3.535   4.951   2.295
  580TIP3   OH2 1682   4.754   1.096   1.031
  580TIP3    H1 1683   4.702   1.016   1.027
  580TIP3    H2 1684   4.703   1.160   0.982
  581TIP3   OH2 1685   6.604   1.498   2.043
  581TIP3    H1 1686   6.660   1.479   2.119
  581TIP3    H2 1687   6.518   1.517   2.081
  582TIP3   OH2 1688   7.592   5.262   2.533
  582TIP3    H1 1689   7.559   5.187   2.485
  582TIP3    H2 1690   7.543   5.337   2.498
  583TIP3   OH2 1691   7.150   3.426   0.301
  583TIP3    H1 1692   7.105   3.346   0.330
  583TIP3    H2 1693   7.203   3.452   0.377
  584TIP3   OH2 1694   3.647   7.121   3.674
  584TIP3    H1 1695   3.704   7.178   3.622
  584TIP3    H2 1696   3.706   7.079   3.737
  585TIP3   OH2 1697   7.146   4.843   6.115
  585TIP3    H1 1698   7.073   4.799   6.072
  585TIP3    H2 1699   7.216   4.844   6.049
  586TIP3   OH2 1700   1.063   1.106   0.715
  586TIP3    H1 1701   0.985   1.062   0.747
  586TIP3    H2 1702   1.125   1.035   0.696
  587TIP3   OH2 1703   2.771   6.220   0.031
  587TIP3    H1 1704   2.827   6.158  -0.015
  587TIP3    H2 1705   2.737   6.171   0.105
  588TIP3   OH2 1706   2.237   0.473   5.887
  588TIP3    H1 1707   2.224   0.407   5.819
  588TIP3    H2 1708   2.329   0.465   5.911
  589TIP3   OH2 1709   5.512   3.681  -0.022
  589TIP3    H1 1710   5.514   3.599   0.027
  589TIP3    H2 1711   5.458   3.739   0.031
  590TIP3   OH2 1712   1.670   7.338   6.033
  590TIP3    H1 1713   1.642   7.316   6.122
  590TIP3    H2 1714   1.731   7.269   6.009
  591TIP3   OH2 1715   5.314   6.147   4.587
  591TIP3    H1 1716   5.304   6.198   4.667
  591TIP3    H2 1717   5.259   6.192   4.523
  592TIP3   OH2 1718   5.106   4.140   4.839
  592TIP3    H1 1719   5.061   4.204   4.895
  592TIP3    H2 1720   5.107   4.059   4.891
  593TIP3   OH2 1721   5.384   4.385   2.695
  593TIP3    H1 1722   5.470   4.383   2.737
  593TIP3    H2 1723   5.358   4.293   2.690
  594TIP3   OH2 1724   0.185   4.150   5.980
  594TIP3    H1 1725   0.238   4.169   6.057
  594TIP3    H2 1726   0.111   4.211   5.986
  595TIP3   OH2 1727   4.668   1.303   6.525
  595TIP3    H1 1728   4.745   1.337   6.479
  595TIP3    H2 1729   4.643   1.373   6.585
  596TIP3   OH2 1730   2.982   4.618   6.186
  596TIP3    H1 1731   2.933   4.539   6.163
  596TIP3    H2 1732   3.035   4.593   6.262
  597TIP3   OH2 1733   7.493   0.571   1.971
  597TIP3    H1 1734   7.535   0.649   1.934
  597TIP3    H2 1735   7.559   0.503   1.966
  598TIP3   OH2 1736   3.037   1.298   5.905
  598TIP3    H1 1737   3.090   1.219   5.901
  598TIP3    H2 1738   3.008   1.312   5.815
  599TIP3   OH2 1739   7.113   4.006   2.771
  599TIP3    H1 1740   7.049   3.935   2.769
  599TIP3    H2 1741   7.064   4.083   2.745
  600TIP3   OH2 1742   4.222   7.408   4.378
  600TIP3    H1 1743   4.296   7.374   4.427
  600TIP3    H2 1744   4.248   7.400   4.286
  601TIP3   OH2 1745   6.690   7.627   4.615
  601TIP3    H1 1746   6.630   7.610   4.687
  601TIP3    H2 1747   6.766   7.572   4.634
  602TIP3   OH2 1748   3.450   3.390   2.065
  602TIP3    H1 1749   3.364   3.432   2.068
  602TIP3    H2 1750   3.434   3.306   2.023
  603TIP3   OH2 1751   2.266   7.214   2.007
  603TIP3    H1 1752   2.188   7.269   2.003
  603TIP3    H2 1753   2.329   7.256   1.949
  604TIP3   OH2 1754   0.190   6.809   6.347
  604TIP3    H1 1755   0.207   6.739   6.411
  604TIP3    H2 1756   0.229   6.777   6.266
  605TIP3   OH2 1757   7.232   2.716   5.094
  605TIP3    H1 1758   7.320   2.688   5.120
  605TIP3    H2 1759   7.175   2.645   5.122
  606TIP3   OH2 1760   8.174   6.887   5.579
  606TIP3    H1 1761   8.131   6.896   5.664
  606TIP3    H2 1762   8.258   6.932   5.589
  607TIP3   OH2 1763   2.348   7.357   2.621
  607TIP3    H1 1764   2.373   7.436   2.574
  607TIP3    H2 1765   2.384   7.285   2.570
  608TIP3   OH2 1766   6.152   3.033   1.723
  608TIP3    H1 1767   6.101   2.961   1.685
  608TIP3    H2 1768   6.205   2.992   1.791
  609TIP3   OH2 1769   4.793   0.556   6.071
  609TIP3    H1 1770   4.828   0.480   6.117
  609TIP3    H2 1771   4.829   0.550   5.982
  610TIP3   OH2 1772   5.239   1.511   0.591
  610TIP3    H1 1773   5.169   1.575   0.608
  610TIP3    H2 1774   5.194   1.427   0.583
  611TIP3   OH2 1775   0.219   0.762   5.093
  611TIP3    H1 1776   0.259   0.849   5.087
  611TIP3    H2 1777   0.258   0.723   5.171
  612TIP3   OH2 1778   2.208   1.342   2.549
  612TIP3    H1 1779   2.295   1.304   2.560
  612TIP3    H2 1780   2.193   1.393   2.629
  613TIP3   OH2 1781   3.643   0.775   2.305
  613TIP3    H1 1782   3.590   0.710   2.352
  613TIP3    H2 1783   3.608   0.775   2.216
  614TIP3   OH2 1784   4.820   0.165   4.817
  614TIP3    H1 1785   4.863   0.217   4.885
  614TIP3    H2 1786   4.782   0.229   4.757
  615TIP3   OH2 1787   2.209   1.956   3.224
  615TIP3    H1 1788   2.174   1.916   3.145
  615TIP3    H2 1789   2.298   1.982   3.199
  616TIP3   OH2 1790   7.381   5.898   5.201
  616TIP3    H1 1791   7.411   5.824   5.254
  616TIP3    H2 1792   7.293   5.917   5.233
  617TIP3   OH2 1793   1.115   7.269   0.640
  617TIP3    H1 1794   1.081   7.331   0.706
  617TIP3    H2 1795   1.069   7.292   0.560
  618TIP3   OH2 1796   0.990   2.489   5.721
  618TIP3    H1 1797   1.061   2.490   5.785
  618TIP3    H2 1798   1.001   2.406   5.674
  619TIP3   OH2 1799   1.366   4.518   5.189
  619TIP3    H1 1800   1.445   4.484   5.231
  619TIP3    H2 1801   1.296   4.496   5.249
  620TIP3   OH2 1802   7.392   0.440   5.532
  620TIP3    H1 1803   7.372   0.353   5.568
  620TIP3    H2 1804   7.469   0.426   5.477
  621TIP3   OH2 1805   1.144   2.979   5.916
  621TIP3    H1 1806   1.182   2.898   5.883
  621TIP3    H2 1807   1.167   3.044   5.850
  622TIP3   OH2 1808   0.355   6.457   2.769
  622TIP3    H1 1809   0.442   6.430   2.798
  622TIP3    H2 1810   0.365   6.551   2.751
  623TIP3   OH2 1811   6.282   7.592   1.645
  623TIP3    H1 1812   6.294   7.645   1.724
  623TIP3    H2 1813   6.197   7.549   1.658
  624TIP3   OH2 1814   1.095   2.126   1.743
  624TIP3    H1 1815   1.101   2.043   1.791
  624TIP3    H2 1816   1.186   2.150   1.725
  625TIP3   OH2 1817   2.647   7.729   0.772
  625TIP3    H1 1818   2.637   7.818   0.738
  625TIP3    H2 1819   2.741   7.713   0.770
  626TIP3   OH2 1820   2.712   0.775   5.573
  626TIP3    H1 1821   2.649   0.721   5.621
  626TIP3    H2 1822   2.661   0.812   5.501
  627TIP3   OH2 1823   1.401   6.514   1.960
  627TIP3    H1 1824   1.381   6.489   1.870
  627TIP3    H2 1825   1.451   6.595   1.952
  628TIP3   OH2 1826   1.266   5.792   0.890
  628TIP3    H1 1827   1.213   5.841   0.952
  628TIP3    H2 1828   1.327   5.743   0.944
  629TIP3   OH2 1829   4.196   1.169   3.492
  629TIP3    H1 1830   4.189   1.200   3.402
  629TIP3    H2 1831   4.120   1.207   3.537
  630TIP3   OH2 1832   2.812   7.566   3.820
  630TIP3    H1 1833   2.812   7.629   3.892
  630TIP3    H2 1834   2.722   7.567   3.788
  631TIP3   OH2 1835   5.159   3.473   6.050
  631TIP3    H1 1836   5.196   3.448   5.966
  631TIP3    H2 1837   5.074   3.511   6.028
  632TIP3   OH2 1838   1.280   0.620   5.982
  632TIP3    H1 1839   1.351   0.666   5.936
  632TIP3    H2 1840   1.277   0.534   5.941
  633TIP3   OH2 1841   1.927   2.855   5.241
  633TIP3    H1 1842   1.965   2.925   5.188
  633TIP3    H2 1843   1.900   2.789   5.177
  634TIP3   OH2 1844   0.367   1.645   0.478
  634TIP3    H1 1845   0.375   1.703   0.402
  634TIP3    H2 1846   0.341   1.560   0.442
  635TIP3   OH2 1847   3.107   7.125   2.524
  635TIP3    H1 1848   3.122   7.200   2.582
  635TIP3    H2 1849   3.027   7.147   2.477
  636TIP3   OH2 1850   3.268   2.083   4.652
  636TIP3    H1 1851   3.212   2.052   4.580
  636TIP3    H2 1852   3.267   2.012   4.716
  637TIP3   OH2 1853   0.444   1.387   4.514
  637TIP3    H1 1854   0.416   1.414   4.601
  637TIP3    H2 1855   0.383   1.432   4.455
  638TIP3   OH2 1856   4.684   6.664   1.793
  638TIP3    H1 1857   4.620   6.609   1.748
  638TIP3    H2 1858   4.698   6.620   1.877
  639TIP3   OH2 1859   6.135   7.352   1.016
  639TIP3    H1 1860   6.096   7.276   1.060
  639TIP3    H2 1861   6.228   7.331   1.010
  640TIP3   OH2 1862   3.200   4.460   4.831
  640TIP3    H1 1863   3.192   4.477   4.924
  640TIP3    H2 1864   3.289   4.426   4.820
  641TIP3   OH2 1865   7.171   0.738   0.878
  641TIP3    H1 1866   7.194   0.653   0.915
  641TIP3    H2 1867   7.249   0.766   0.829
  642TIP3   OH2 1868   4.365   4.591   0.449
  642TIP3    H1 1869   4.327   4.615   0.365
  642TIP3    H2 1870   4.460   4.597   0.435
  643TIP3   OH2 1871   4.055   7.360   3.447
  643TIP3    H1 1872   4.016   7.286   3.494
  643TIP3    H2 1873   4.132   7.383   3.499
  644TIP3   OH2 1874   0.992   2.151   0.048
  644TIP3    H1 1875   0.940   2.096   0.105
  644TIP3    H2 1876   0.996   2.236   0.093
  645TIP3   OH2 1877   1.518   6.928   4.557
  645TIP3    H1 1878   1.516   6.838   4.523
  645TIP3    H2 1879   1.528   6.918   4.651
  646TIP3   OH2 1880   0.001   0.630   0.152
  646TIP3    H1 1881  -0.014   0.582   0.070
  646TIP3    H2 1882   0.056   0.704   0.127
  647TIP3   OH2 1883   4.264   5.012   0.802
  647TIP3    H1 1884   4.224   4.926   0.822
  647TIP3    H2 1885   4.263   5.058   0.886
  648TIP3   OH2 1886   1.971   4.402   1.111
  648TIP3    H1 1887   2.033   4.330   1.103
  648TIP3    H2 1888   1.939   4.397   1.201
  649TIP3   OH2 1889   6.935   4.508   2.348
  649TIP3    H1 1890   6.899   4.419   2.356
  649TIP3    H2 1891   6.987   4.520   2.427
  650TIP3   OH2 1892   2.856   2.323   0.785
  650TIP3    H1 1893   2.787   2.390   0.786
  650TIP3    H2 1894   2.828   2.259   0.851
  651TIP3   OH2 1895   6.401   4.706   4.127
  651TIP3    H1 1896   6.437   4.775   4.072
  651TIP3    H2 1897   6.329   4.748   4.174
  652TIP3   OH2 1898   4.570   3.070   2.600
  652TIP3    H1 1899   4.505   3.021   2.650
  652TIP3    H2 1900   4.611   3.004   2.543
  653TIP3   OH2 1901   6.735   1.417   5.149
  653TIP3    H1 1902   6.702   1.420   5.239
  653TIP3    H2 1903   6.819   1.462   5.153
  654TIP3   OH2 1904   2.592   2.708   1.891
  654TIP3    H1 1905   2.600   2.624   1.846
  654TIP3    H2 1906   2.548   2.765   1.828
  655TIP3   OH2 1907   0.635   4.476   0.823
  655TIP3    H1 1908   0.548   4.515   0.826
  655TIP3    H2 1909   0.695   4.548   0.845
  656TIP3   OH2 1910   1.298   4.470   2.263
  656TIP3    H1 1911   1.373   4.488   2.206
  656TIP3    H2 1912   1.273   4.555   2.298
  657TIP3   OH2 1913   4.923   4.648   4.389
  657TIP3    H1 1914   4.874   4.605   4.320
  657TIP3    H2 1915   4.911   4.592   4.466
  658TIP3   OH2 1916   4.983   7.287   4.019
  658TIP3    H1 1917   4.932   7.211   3.989
  658TIP3    H2 1918   4.918   7.357   4.029
  659TIP3   OH2 1919   0.327   5.927   0.548
  659TIP3    H1 1920   0.366   5.871   0.480
  659TIP3    H2 1921   0.233   5.924   0.529
  660TIP3   OH2 1922   7.842   4.740   2.578
  660TIP3    H1 1923   7.825   4.830   2.549
  660TIP3    H2 1924   7.897   4.703   2.510
  661TIP3   OH2 1925   5.597   3.836   2.548
  661TIP3    H1 1926   5.684   3.799   2.564
  661TIP3    H2 1927   5.615   3.922   2.509
  662TIP3   OH2 1928   1.991   5.006   6.719
  662TIP3    H1 1929   2.050   4.993   6.645
  662TIP3    H2 1930   2.010   5.095   6.749
  663TIP3   OH2 1931   2.976   6.958   0.104
  663TIP3    H1 1932   3.034   6.906   0.048
  663TIP3    H2 1933   2.915   6.894   0.141
  664TIP3   OH2 1934   5.160   1.309   5.747
  664TIP3    H1 1935   5.118   1.305   5.661
  664TIP3    H2 1936   5.199   1.223   5.758
  665TIP3   OH2 1937   6.525   0.090   2.321
  665TIP3    H1 1938   6.562   0.096   2.410
  665TIP3    H2 1939   6.480   0.005   2.320
  666TIP3   OH2 1940   0.261   6.375   3.038
  666TIP3    H1 1941   0.273   6.375   2.943
  666TIP3    H2 1942   0.169   6.396   3.050
  667TIP3   OH2 1943   3.539   3.894   6.689
  667TIP3    H1 1944   3.511   3.802   6.697
  667TIP3    H2 1945   3.634   3.890   6.685
  668TIP3   OH2 1946   3.460   7.510   5.638
  668TIP3    H1 1947   3.463   7.602   5.609
  668TIP3    H2 1948   3.493   7.460   5.563
  669TIP3   OH2 1949   7.098   7.222   0.388
  669TIP3    H1 1950   7.080   7.198   0.297
  669TIP3    H2 1951   7.034   7.290   0.409
  670TIP3   OH2 1952   1.330   1.636   0.528
  670TIP3    H1 1953   1.339   1.628   0.623
  670TIP3    H2 1954   1.374   1.558   0.493
  671TIP3   OH2 1955   0.279   0.930   3.711
  671TIP3    H1 1956   0.362   0.977   3.719
  671TIP3    H2 1957   0.229   0.980   3.646
  672TIP3   OH2 1958   4.275   1.311   2.568
  672TIP3    H1 1959   4.198   1.259   2.590
  672TIP3    H2 1960   4.244   1.374   2.504
  673TIP3   OH2 1961   6.253   4.071   4.414
  673TIP3    H1 1962   6.277   3.986   4.376
  673TIP3    H2 1963   6.306   4.134   4.365
  674TIP3   OH2 1964   1.782   2.316   4.716
  674TIP3    H1 1965   1.787   2.247   4.650
  674TIP3    H2 1966   1.872   2.323   4.748
  675TIP3   OH2 1967   5.156   3.466   0.765
  675TIP3    H1 1968   5.250   3.452   0.767
  675TIP3    H2 1969   5.130   3.449   0.675
  676TIP3   OH2 1970   5.284   1.121   5.079
  676TIP3    H1 1971   5.199   1.082   5.099
  676TIP3    H2 1972   5.343   1.047   5.068
  677TIP3   OH2 1973   4.360   4.857   5.902
  677TIP3    H1 1974   4.273   4.839   5.867
  677TIP3    H2 1975   4.355   4.947   5.935
  678TIP3   OH2 1976   3.914   5.864   0.145
  678TIP3    H1 1977   3.919   5.950   0.102
  678TIP3    H2 1978   3.852   5.878   0.217
  679TIP3   OH2 1979   3.662   2.485   2.603
  679TIP3    H1 1980   3.691   2.560   2.551
  679TIP3    H2 1981   3.742   2.436   2.621
  680TIP3   OH2 1982   8.043   3.659   2.794
  680TIP3    H1 1983   8.070   3.567   2.793
  680TIP3    H2 1984   8.097   3.699   2.862
  681TIP3   OH2 1985   3.300   2.807   4.337
  681TIP3    H1 1986   3.372   2.811   4.401
  681TIP3    H2 1987   3.324   2.873   4.272
  682TIP3   OH2 1988   0.429   1.653   1.656
  682TIP3    H1 1989   0.369   1.636   1.583
  682TIP3    H2 1990   0.396   1.733   1.697
  683TIP3   OH2 1991   3.149   7.619   3.918
  683TIP3    H1 1992   3.182   7.535   3.948
  683TIP3    H2 1993   3.111   7.659   3.996
  684TIP3   OH2 1994   3.444   7.475   4.447
  684TIP3    H1 1995   3.470   7.390   4.411
  684TIP3    H2 1996   3.455   7.535   4.373
  685TIP3   OH2 1997   4.266   2.410   6.098
  685TIP3    H1 1998   4.305   2.329   6.066
  685TIP3    H2 1999   4.192   2.427   6.039
  686TIP3   OH2 2000   2.285   3.724   5.362
  686TIP3    H1 2001   2.262   3.671   5.438
  686TIP3    H2 2002   2.375   3.753   5.379
  687TIP3   OH2 2003   5.622   6.870   6.178
  687TIP3    H1 2004   5.556   6.928   6.139
  687TIP3    H2 2005   5.575   6.788   6.194
  688TIP3   OH2 2006   3.827   6.002   4.789
  688TIP3    H1 2007   3.848   6.043   4.873
  688TIP3    H2 2008   3.912   5.984   4.749
  689TIP3   OH2 2009   7.006   3.775   0.796
  689TIP3    H1 2010   6.996   3.854   0.743
  689TIP3    H2 2011   6.945   3.787   0.869
  690TIP3   OH2 2012   1.044   5.442   5.757
  690TIP3    H1 2013   1.138   5.443   5.741
  690TIP3    H2 2014   1.031   5.506   5.827
  691TIP3   OH2 2015   1.892   5.753   4.016
  691TIP3    H1 2016   1.914   5.723   4.105
  691TIP3    H2 2017   1.813   5.805   4.027
  692TIP3   OH2 2018   3.442   5.926   0.156
  692TIP3    H1 2019   3.519   5.871   0.141
  692TIP3    H2 2020   3.368   5.864   0.156
  693TIP3   OH2 2021   2.700   7.706   2.041
  693TIP3    H1 2022   2.651   7.775   2.088
  693TIP3    H2 2023   2.664   7.708   1.953
  694TIP3   OH2 2024   5.128   4.594   1.607
  694TIP3    H1 2025   5.077   4.543   1.544
  694TIP3    H2 2026   5.218   4.590   1.574
  695TIP3   OH2 2027   8.139   0.731   4.797
  695TIP3    H1 2028   8.186   0.752   4.878
  695TIP3    H2 2029   8.144   0.811   4.745
  696TIP3   OH2 2030   5.221   5.834   4.952
  696TIP3    H1 2031   5.183   5.922   4.961
  696TIP3    H2 2032   5.283   5.843   4.879
  697TIP3   OH2 2033   4.319   3.680   0.606
  697TIP3    H1 2034   4.365   3.729   0.674
  697TIP3    H2 2035   4.320   3.589   0.638
  698TIP3   OH2 2036   2.527   2.453   3.945
  698TIP3    H1 2037   2.583   2.529   3.960
  698TIP3    H2 2038   2.476   2.476   3.867
  699TIP3   OH2 2039   3.876   7.730   0.999
  699TIP3    H1 2040   3.917   7.675   0.932
  699TIP3    H2 2041   3.893   7.685   1.082
  700TIP3   OH2 2042   6.350   6.120   4.383
  700TIP3    H1 2043   6.385   6.159   4.463
  700TIP3    H2 2044   6.410   6.047   4.364
  701TIP3   OH2 2045   1.946   4.222   2.739
  701TIP3    H1 2046   1.878   4.156   2.753
  701TIP3    H2 2047   1.933   4.250   2.648
  702TIP3   OH2 2048   3.498   4.300   2.965
  702TIP3    H1 2049   3.539   4.325   3.048
  702TIP3    H2 2050   3.548   4.347   2.898
  703TIP3   OH2 2051   0.349   3.590   1.772
  703TIP3    H1 2052   0.410   3.547   1.712
  703TIP3    H2 2053   0.391   3.583   1.858
  704TIP3   OH2 2054   7.664   2.529   2.511
  704TIP3    H1 2055   7.641   2.565   2.426
  704TIP3    H2 2056   7.691   2.604   2.563
  705TIP3   OH2 2057   0.389   0.294   3.218
  705TIP3    H1 2058   0.299   0.312   3.190
  705TIP3    H2 2059   0.424   0.379   3.243
  706TIP3   OH2 2060   6.785   5.686   0.165
  706TIP3    H1 2061   6.842   5.634   0.108
  706TIP3    H2 2062   6.840   5.757   0.196
  707TIP3   OH2 2063   3.319   0.305   2.860
  707TIP3    H1 2064   3.257   0.235   2.880
  707TIP3    H2 2065   3.344   0.289   2.769
  708TIP3   OH2 2066   2.129   6.662   2.903
  708TIP3    H1 2067   2.075   6.612   2.842
  708TIP3    H2 2068   2.072   6.678   2.978
  709TIP3   OH2 2069   2.735   0.059   3.220
  709TIP3    H1 2070   2.792   0.136   3.211
  709TIP3    H2 2071   2.688   0.074   3.302
  710TIP3   OH2 2072   2.594   4.416   0.285
  710TIP3    H1 2073   2.600   4.508   0.257
  710TIP3    H2 2074   2.608   4.418   0.379
  711TIP3   OH2 2075   3.483   3.277   2.354
  711TIP3    H1 2076   3.458   3.299   2.265
  711TIP3    H2 2077   3.491   3.181   2.354
  712TIP3   OH2 2078   7.252   1.717   2.610
  712TIP3    H1 2079   7.339   1.748   2.636
  712TIP3    H2 2080   7.254   1.623   2.626
  713TIP3   OH2 2081   5.321   6.664   3.028
  713TIP3    H1 2082   5.309   6.668   3.123
  713TIP3    H2 2083   5.353   6.751   3.005
  714TIP3   OH2 2084   2.706   3.969   6.035
  714TIP3    H1 2085   2.617   3.990   6.007
  714TIP3    H2 2086   2.713   4.006   6.123
  715TIP3   OH2 2087   6.273   6.803   2.353
  715TIP3    H1 2088   6.182   6.824   2.374
  715TIP3    H2 2089   6.290   6.721   2.400
  716TIP3   OH2 2090   2.257   0.927   0.935
  716TIP3    H1 2091   2.246   0.912   1.029
  716TIP3    H2 2092   2.350   0.913   0.919
  717TIP3   OH2 2093   0.883   3.403   3.998
  717TIP3    H1 2094   0.890   3.408   4.093
  717TIP3    H2 2095   0.962   3.358   3.970
  718TIP3   OH2 2096   6.079   6.358   0.886
  718TIP3    H1 2097   6.112   6.448   0.881
  718TIP3    H2 2098   6.118   6.323   0.966
  719TIP3   OH2 2099   5.679   2.983   5.965
  719TIP3    H1 2100   5.727   3.020   6.039
  719TIP3    H2 2101   5.672   3.055   5.902
  720TIP3   OH2 2102   2.704   2.047   4.613
  720TIP3    H1 2103   2.709   1.965   4.565
  720TIP3    H2 2104   2.760   2.033   4.690
  721TIP3   OH2 2105   5.151   5.346   3.299
  721TIP3    H1 2106   5.095   5.423   3.305
  721TIP3    H2 2107   5.138   5.312   3.210
  722TIP3   OH2 2108   6.971   5.581   5.702
  722TIP3    H1 2109   6.895   5.569   5.758
  722TIP3    H2 2110   7.039   5.526   5.742
  723TIP3   OH2 2111   6.958   5.088   1.780
  723TIP3    H1 2112   6.986   5.177   1.758
  723TIP3    H2 2113   7.037   5.035   1.765
  724TIP3   OH2 2114   7.784   6.827   6.215
  724TIP3    H1 2115   7.866   6.837   6.166
  724TIP3    H2 2116   7.801   6.870   6.299
  725TIP3   OH2 2117   7.124   4.594   4.454
  725TIP3    H1 2118   7.096   4.578   4.545
  725TIP3    H2 2119   7.105   4.512   4.409
  726TIP3   OH2 2120   2.566   1.746   2.198
  726TIP3    H1 2121   2.550   1.717   2.288
  726TIP3    H2 2122   2.518   1.684   2.143
  727TIP3   OH2 2123   7.816   6.813   4.326
  727TIP3    H1 2124   7.738   6.866   4.310
  727TIP3    H2 2125   7.888   6.876   4.330
  728TIP3   OH2 2126   7.035   6.990   0.826
  728TIP3    H1 2127   7.091   7.046   0.880
  728TIP3    H2 2128   7.000   7.049   0.759
  729TIP3   OH2 2129   2.971   3.997   4.464
  729TIP3    H1 2130   2.982   4.089   4.442
  729TIP3    H2 2131   2.967   3.952   4.379
  730TIP3   OH2 2132   0.493   1.000   1.659
  730TIP3    H1 2133   0.473   1.003   1.753
  730TIP3    H2 2134   0.410   0.976   1.618
  731TIP3   OH2 2135   2.669   7.713   5.063
  731TIP3    H1 2136   2.739   7.648   5.057
  731TIP3    H2 2137   2.623   7.691   5.144
  732TIP3   OH2 2138   3.556   4.388   1.038
  732TIP3    H1 2139   3.584   4.301   1.012
  732TIP3    H2 2140   3.595   4.446   0.972
  733TIP3   OH2 2141   5.392   2.567   4.025
  733TIP3    H1 2142   5.323   2.575   3.959
  733TIP3    H2 2143   5.356   2.608   4.104
  734TIP3   OH2 2144   6.512   5.356   1.349
  734TIP3    H1 2145   6.560   5.396   1.421
  734TIP3    H2 2146   6.442   5.419   1.328
  735TIP3   OH2 2147   0.443   2.268   2.168
  735TIP3    H1 2148   0.396   2.349   2.185
  735TIP3    H2 2149   0.380   2.199   2.188
  736TIP3   OH2 2150   1.516   1.338   3.682
  736TIP3    H1 2151   1.565   1.258   3.664
  736TIP3    H2 2152   1.471   1.321   3.765
  737TIP3   OH2 2153   1.588   6.968   6.062
  737TIP3    H1 2154   1.495   6.986   6.073
  737TIP3    H2 2155   1.593   6.874   6.046
  738TIP3   OH2 2156   1.449   2.473   0.310
  738TIP3    H1 2157   1.401   2.446   0.389
  738TIP3    H2 2158   1.499   2.550   0.337
  739TIP3   OH2 2159   4.981   4.868   5.571
  739TIP3    H1 2160   4.950   4.943   5.621
  739TIP3    H2 2161   5.036   4.819   5.632
  740TIP3   OH2 2162   3.417   7.625   5.299
  740TIP3    H1 2163   3.404   7.707   5.252
  740TIP3    H2 2164   3.502   7.636   5.343
  741TIP3   OH2 2165   5.760   2.904   1.009
  741TIP3    H1 2166   5.849   2.896   0.976
  741TIP3    H2 2167   5.706   2.915   0.930
  742TIP3   OH2 2168   4.436   4.495   1.419
  742TIP3    H1 2169   4.525   4.465   1.400
  742TIP3    H2 2170   4.439   4.524   1.510
  743TIP3   OH2 2171   3.689   1.713   3.899
  743TIP3    H1 2172   3.669   1.800   3.931
  743TIP3    H2 2173   3.741   1.672   3.968
  744TIP3   OH2 2174   2.755   6.078   2.490
  744TIP3    H1 2175   2.663   6.059   2.471
  744TIP3    H2 2176   2.786   6.002   2.539
  745TIP3   OH2 2177   8.180   7.615   5.320
  745TIP3    H1 2178   8.128   7.538   5.344
  745TIP3    H2 2179   8.125   7.663   5.257
  746TIP3   OH2 2180   5.876   4.153   5.366
  746TIP3    H1 2181   5.932   4.227   5.390
  746TIP3    H2 2182   5.920   4.076   5.402
  747TIP3   OH2 2183   7.830   4.772   6.747
  747TIP3    H1 2184   7.740   4.800   6.731
  747TIP3    H2 2185   7.824   4.677   6.762
  748TIP3   OH2 2186   5.740   7.357   6.324
  748TIP3    H1 2187   5.750   7.422   6.395
  748TIP3    H2 2188   5.660   7.310   6.347
  749TIP3   OH2 2189   4.103   5.597   2.510
  749TIP3    H1 2190   4.052   5.550   2.576
  749TIP3    H2 2191   4.137   5.673   2.556
  750TIP3   OH2 2192   5.896   6.174   6.395
  750TIP3    H1 2193   5.928   6.115   6.463
  750TIP3    H2 2194   5.971   6.188   6.338
  751TIP3   OH2 2195   6.111   3.125   2.148
  751TIP3    H1 2196   6.185   3.070   2.173
  751TIP3    H2 2197   6.077   3.159   2.231
  752TIP3   OH2 2198   3.847   0.097   2.887
  752TIP3    H1 2199   3.798   0.139   2.957
  752TIP3    H2 2200   3.906   0.164   2.854
  753TIP3   OH2 2201   4.705   3.277   2.091
  753TIP3    H1 2202   4.671   3.363   2.067
  753TIP3    H2 2203   4.631   3.234   2.135
  754TIP3   OH2 2204   2.722   0.953   2.858
  754TIP3    H1 2205   2.710   1.016   2.929
  754TIP3    H2 2206   2.815   0.932   2.861
  755TIP3   OH2 2207   3.280   2.352   0.639
  755TIP3    H1 2208   3.305   2.305   0.559
  755TIP3    H2 2209   3.206   2.302   0.674
  756TIP3   OH2 2210   4.890   4.816   0.160
  756TIP3    H1 2211   4.824   4.837   0.225
  756TIP3    H2 2212   4.971   4.806   0.211
  757TIP3   OH2 2213   6.212   7.089   0.562
  757TIP3    H1 2214   6.236   7.019   0.623
  757TIP3    H2 2215   6.117   7.094   0.567
  758TIP3   OH2 2216   6.328   0.513   4.528
  758TIP3    H1 2217   6.366   0.426   4.516
  758TIP3    H2 2218   6.343   0.533   4.621
  759TIP3   OH2 2219   3.319   2.854   5.032
  759TIP3    H1 2220   3.319   2.843   5.127
  759TIP3    H2 2221   3.411   2.864   5.009
  760TIP3   OH2 2222   0.221   3.789   1.086
  760TIP3    H1 2223   0.188   3.711   1.131
  760TIP3    H2 2224   0.294   3.818   1.141
  761TIP3   OH2 2225   5.417   0.896   1.866
  761TIP3    H1 2226   5.380   0.980   1.892
  761TIP3    H2 2227   5.492   0.884   1.924
  762TIP3   OH2 2228   7.627   1.272   0.457
  762TIP3    H1 2229   7.638   1.364   0.431
  762TIP3    H2 2230   7.676   1.223   0.391
  763TIP3   OH2 2231   2.828   1.590   2.789
  763TIP3    H1 2232   2.852   1.662   2.730
  763TIP3    H2 2233   2.887   1.519   2.764
  764TIP3   OH2 2234   4.685   1.737   4.528
  764TIP3    H1 2235   4.751   1.680   4.568
  764TIP3    H2 2236   4.717   1.753   4.440
  765TIP3   OH2 2237   1.697   5.141   6.728
  765TIP3    H1 2238   1.788   5.167   6.736
  765TIP3    H2 2239   1.654   5.178   6.805
  766TIP3   OH2 2240   7.990   0.659   6.671
  766TIP3    H1 2241   7.970   0.600   6.598
  766TIP3    H2 2242   8.048   0.725   6.635
  767TIP3   OH2 2243   7.132   3.848   5.830
  767TIP3    H1 2244   7.161   3.883   5.914
  767TIP3    H2 2245   7.037   3.837   5.841
  768TIP3   OH2 2246   5.567   0.674   6.651
  768TIP3    H1 2247   5.540   0.685   6.742
  768TIP3    H2 2248   5.488   0.692   6.599
  769TIP3   OH2 2249   6.472   4.254   2.229
  769TIP3    H1 2250   6.417   4.292   2.161
  769TIP3    H2 2251   6.420   4.265   2.309
  770TIP3   OH2 2252   5.602   1.320   4.219
  770TIP3    H1 2253   5.564   1.266   4.149
  770TIP3    H2 2254   5.576   1.410   4.197
  771TIP3   OH2 2255   5.285   5.958   3.461
  771TIP3    H1 2256   5.252   5.909   3.386
  771TIP3    H2 2257   5.333   5.894   3.513
  772TIP3   OH2 2258   3.486   2.107   4.473
  772TIP3    H1 2259   3.557   2.163   4.501
  772TIP3    H2 2260   3.461   2.058   4.551
  773TIP3   OH2 2261   4.828   1.797   0.627
  773TIP3    H1 2262   4.880   1.868   0.666
  773TIP3    H2 2263   4.808   1.828   0.539
  774TIP3   OH2 2264   1.539   6.709   2.872
  774TIP3    H1 2265   1.537   6.660   2.790
  774TIP3    H2 2266   1.629   6.739   2.880
  775TIP3   OH2 2267   6.156   4.459   1.058
  775TIP3    H1 2268   6.129   4.449   1.149
  775TIP3    H2 2269   6.190   4.373   1.033
  776TIP3   OH2 2270   2.161   4.331   5.024
  776TIP3    H1 2271   2.191   4.401   4.965
  776TIP3    H2 2272   2.223   4.260   5.010
  777TIP3   OH2 2273   5.092   6.451   5.750
  777TIP3    H1 2274   5.042   6.417   5.676
  777TIP3    H2 2275   5.059   6.403   5.826
  778TIP3   OH2 2276   3.828   6.095   4.325
  778TIP3    H1 2277   3.896   6.066   4.264
  778TIP3    H2 2278   3.783   6.014   4.350
  779TIP3   OH2 2279   1.718   7.491   6.351
  779TIP3    H1 2280   1.671   7.574   6.361
  779TIP3    H2 2281   1.671   7.429   6.407
  780TIP3   OH2 2282   6.229   4.955   3.964
  780TIP3    H1 2283   6.245   4.921   3.876
  780TIP3    H2 2284   6.204   5.046   3.949
  781TIP3   OH2 2285   6.673   6.499   0.909
  781TIP3    H1 2286   6.654   6.434   0.977
  781TIP3    H2 2287   6.710   6.573   0.957
  782TIP3   OH2 2288   6.082   1.805   5.445
  782TIP3    H1 2289   6.174   1.779   5.458
  782TIP3    H2 2290   6.068   1.876   5.507
  783TIP3   OH2 2291   6.989   1.752   3.139
  783TIP3    H1 2292   7.074   1.712   3.158
  783TIP3    H2 2293   6.976   1.815   3.209
  784TIP3   OH2 2294   5.478   7.166   2.450
  784TIP3    H1 2295   5.510   7.257   2.449
  784TIP3    H2 2296   5.557   7.113   2.447
  785TIP3   OH2 2297   0.528   5.803   1.557
  785TIP3    H1 2298   0.500   5.722   1.598
  785TIP3    H2 2299   0.579   5.848   1.625
  786TIP3   OH2 2300   4.048   4.540   5.699
  786TIP3    H1 2301   4.037   4.537   5.604
  786TIP3    H2 2302   4.115   4.474   5.717
  787TIP3   OH2 2303   0.884   1.759   6.449
  787TIP3    H1 2304   0.814   1.710   6.407
  787TIP3    H2 2305   0.848   1.846   6.462
  788TIP3   OH2 2306   0.732   0.513   0.280
  788TIP3    H1 2307   0.798   0.564   0.232
  788TIP3    H2 2308   0.775   0.490   0.362
  789TIP3   OH2 2309   7.800   3.698   0.413
  789TIP3    H1 2310   7.893   3.680   0.403
  789TIP3    H2 2311   7.784   3.692   0.507
  790TIP3   OH2 2312   0.991   7.062   4.661
  790TIP3    H1 2313   0.919   7.125   4.666
  790TIP3    H2 2314   1.065   7.112   4.626
  791TIP3   OH2 2315   2.061   0.532   6.334
  791TIP3    H1 2316   2.129   0.499   6.275
  791TIP3    H2 2317   2.109   0.581   6.401
  792TIP3   OH2 2318   1.942   3.929   4.185
  792TIP3    H1 2319   1.883   3.925   4.260
  792TIP3    H2 2320   2.026   3.954   4.223
  793TIP3   OH2 2321   0.918   5.757   0.343
  793TIP3    H1 2322   0.964   5.828   0.387
  793TIP3    H2 2323   0.982   5.686   0.338
  794TIP3   OH2 2324   6.194   2.278   5.384
  794TIP3    H1 2325   6.238   2.301   5.466
  794TIP3    H2 2326   6.115   2.331   5.384
  795TIP3   OH2 2327   2.560   1.823   5.029
  795TIP3    H1 2328   2.498   1.894   5.047
  795TIP3    H2 2329   2.522   1.777   4.954
  796TIP3   OH2 2330   0.821   4.653   4.204
  796TIP3    H1 2331   0.771   4.585   4.248
  796TIP3    H2 2332   0.794   4.648   4.113
  797TIP3   OH2 2333   1.804   1.137   5.042
  797TIP3    H1 2334   1.772   1.056   5.002
  797TIP3    H2 2335   1.866   1.172   4.978
  798TIP3   OH2 2336   5.745   7.058   2.527
  798TIP3    H1 2337   5.720   7.070   2.619
  798TIP3    H2 2338   5.823   7.112   2.517
  799TIP3   OH2 2339   0.353   1.523   5.879
  799TIP3    H1 2340   0.331   1.610   5.848
  799TIP3    H2 2341   0.431   1.498   5.829
  800TIP3   OH2 2342   5.044   6.726   0.553
  800TIP3    H1 2343   4.978   6.674   0.599
  800TIP3    H2 2344   5.070   6.671   0.479
  801TIP3   OH2 2345   1.552   0.257   4.097
  801TIP3    H1 2346   1.572   0.314   4.171
  801TIP3    H2 2347   1.526   0.317   4.027
  802TIP3   OH2 2348   7.070   6.678   6.392
  802TIP3    H1 2349   7.130   6.604   6.394
  802TIP3    H2 2350   7.008   6.661   6.463
  803TIP3   OH2 2351   2.354   4.906   0.901
  803TIP3    H1 2352   2.313   4.891   0.986
  803TIP3    H2 2353   2.287   4.880   0.838
  804TIP3   OH2 2354   3.364   4.088   0.037
  804TIP3    H1 2355   3.431   4.128  -0.018
  804TIP3    H2 2356   3.310   4.161   0.068
  805TIP3   OH2 2357   0.323   6.999   3.910
  805TIP3    H1 2358   0.415   6.980   3.896
  805TIP3    H2 2359   0.280   6.972   3.829
  806TIP3   OH2 2360   1.449   5.571   6.629
  806TIP3    H1 2361   1.386   5.641   6.612
  806TIP3    H2 2362   1.525   5.616   6.665
  807TIP3   OH2 2363   0.819   1.213   3.889
  807TIP3    H1 2364   0.885   1.281   3.893
  807TIP3    H2 2365   0.736   1.260   3.876
  808TIP3   OH2 2366   4.435   1.999   1.204
  808TIP3    H1 2367   4.511   1.970   1.154
  808TIP3    H2 2368   4.384   2.050   1.142
  809TIP3   OH2 2369   7.398   4.868   1.724
  809TIP3    H1 2370   7.456   4.806   1.681
  809TIP3    H2 2371   7.321   4.873   1.666
  810TIP3   OH2 2372   4.646   0.974   5.581
  810TIP3    H1 2373   4.645   1.059   5.625
  810TIP3    H2 2374   4.557   0.941   5.592
  811TIP3   OH2 2375   7.636   1.994   1.619
  811TIP3    H1 2376   7.563   2.020   1.563
  811TIP3    H2 2377   7.641   1.899   1.609
  812TIP3   OH2 2378   5.873   1.645   3.386
  812TIP3    H1 2379   5.916   1.721   3.425
  812TIP3    H2 2380   5.919   1.569   3.423
  813TIP3   OH2 2381   2.839   2.515   5.881
  813TIP3    H1 2382   2.917   2.560   5.851
  813TIP3    H2 2383   2.870   2.456   5.950
  814TIP3   OH2 2384   0.464   7.219   4.209
  814TIP3    H1 2385   0.440   7.267   4.130
  814TIP3    H2 2386   0.553   7.189   4.193
  815TIP3   OH2 2387   4.614   5.969   4.151
  815TIP3    H1 2388   4.559   5.949   4.227
  815TIP3    H2 2389   4.554   6.008   4.088
  816TIP3   OH2 2390   6.998   1.784   2.687
  816TIP3    H1 2391   7.005   1.723   2.761
  816TIP3    H2 2392   7.086   1.784   2.648
  817TIP3   OH2 2393   5.222   7.454   0.000
  817TIP3    H1 2394   5.243   7.527   0.059
  817TIP3    H2 2395   5.303   7.404  -0.007
  818TIP3   OH2 2396   6.047   4.103   2.050
  818TIP3    H1 2397   6.052   4.011   2.075
  818TIP3    H2 2398   5.979   4.140   2.106
  819TIP3   OH2 2399   2.501   4.405   3.805
  819TIP3    H1 2400   2.482   4.499   3.797
  819TIP3    H2 2401   2.475   4.384   3.895
  820TIP3   OH2 2402   7.598   3.570   3.111
  820TIP3    H1 2403   7.627   3.549   3.200
  820TIP3    H2 2404   7.663   3.633   3.080
  821TIP3   OH2 2405   6.505   3.466   3.280
  821TIP3    H1 2406   6.546   3.418   3.352
  821TIP3    H2 2407   6.579   3.506   3.233
  822TIP3   OH2 2408   7.033   0.692   0.224
  822TIP3    H1 2409   7.107   0.721   0.170
  822TIP3    H2 2410   6.965   0.758   0.209
  823TIP3   OH2 2411   6.470   2.005   1.964
  823TIP3    H1 2412   6.490   1.959   2.046
  823TIP3    H2 2413   6.554   2.040   1.935
  824TIP3   OH2 2414   1.360   4.531   4.287
  824TIP3    H1 2415   1.357   4.436   4.294
  824TIP3    H2 2416   1.450   4.554   4.313
  825TIP3   OH2 2417   4.040   0.639   0.300
  825TIP3    H1 2418   4.001   0.582   0.233
  825TIP3    H2 2419   4.102   0.693   0.251
  826TIP3   OH2 2420   6.280   4.681   6.628
  826TIP3    H1 2421   6.281   4.664   6.722
  826TIP3    H2 2422   6.370   4.663   6.599
  827TIP3   OH2 2423   7.699   2.289   5.420
  827TIP3    H1 2424   7.684   2.374   5.379
  827TIP3    H2 2425   7.759   2.244   5.360
  828TIP3   OH2 2426   3.000   0.422   2.781
  828TIP3    H1 2427   3.069   0.450   2.720
  828TIP3    H2 2428   3.042   0.422   2.867
  829TIP3   OH2 2429   1.320   3.412   0.411
  829TIP3    H1 2430   1.301   3.492   0.461
  829TIP3    H2 2431   1.234   3.379   0.384
  830TIP3   OH2 2432   6.148   0.209   3.983
  830TIP3    H1 2433   6.169   0.123   4.020
  830TIP3    H2 2434   6.154   0.196   3.888
  831TIP3   OH2 2435   4.949   2.273   6.541
  831TIP3    H1 2436   4.948   2.226   6.624
  831TIP3    H2 2437   5.026   2.329   6.546
  832TIP3   OH2 2438   6.920   3.824   2.761
  832TIP3    H1 2439   6.887   3.784   2.841
  832TIP3    H2 2440   6.953   3.751   2.709
  833TIP3   OH2 2441   6.201   2.119   3.632
  833TIP3    H1 2442   6.221   2.025   3.627
  833TIP3    H2 2443   6.133   2.126   3.699
  834TIP3   OH2 2444   8.164   2.623   4.334
  834TIP3    H1 2445   8.106   2.562   4.379
  834TIP3    H2 2446   8.143   2.708   4.373
  835TIP3   OH2 2447   7.042   5.250   1.421
  835TIP3    H1 2448   7.001   5.329   1.456
  835TIP3    H2 2449   6.972   5.185   1.419
  836TIP3   OH2 2450   0.114   1.934   2.680
  836TIP3    H1 2451   0.097   1.997   2.610
  836TIP3    H2 2452   0.200   1.899   2.660
  837TIP3   OH2 2453   7.562   4.588   4.177
  837TIP3    H1 2454   7.489   4.646   4.155
  837TIP3    H2 2455   7.638   4.646   4.186
  838TIP3   OH2 2456   1.272   0.936   0.684
  838TIP3    H1 2457   1.319   0.899   0.609
  838TIP3    H2 2458   1.326   0.914   0.760
  839TIP3   OH2 2459   7.782   0.532   1.791
  839TIP3    H1 2460   7.781   0.476   1.868
  839TIP3    H2 2461   7.875   0.547   1.773
  840TIP3   OH2 2462   8.182   1.714   2.054
  840TIP3    H1 2463   8.239   1.641   2.031
  840TIP3    H2 2464   8.094   1.676   2.053
  841TIP3   OH2 2465   2.661   0.220   4.143
  841TIP3    H1 2466   2.633   0.129   4.147
  841TIP3    H2 2467   2.756   0.217   4.156
  842TIP3   OH2 2468   2.206   6.395   6.391
  842TIP3    H1 2469   2.198   6.402   6.296
  842TIP3    H2 2470   2.283   6.340   6.405
  843TIP3   OH2 2471   6.164   3.938   4.786
  843TIP3    H1 2472   6.203   3.863   4.742
  843TIP3    H2 2473   6.177   4.011   4.725
  844TIP3   OH2 2474   4.794  -0.011   6.291
  844TIP3    H1 2475   4.816   0.030   6.375
  844TIP3    H2 2476   4.736   0.052   6.248
  845TIP3   OH2 2477   3.300   3.742   4.451
  845TIP3    H1 2478   3.245   3.665   4.441
  845TIP3    H2 2479   3.262   3.790   4.524
  846TIP3   OH2 2480   6.997   0.871   2.262
  846TIP3    H1 2481   6.997   0.903   2.171
  846TIP3    H2 2482   7.086   0.887   2.293
  847TIP3   OH2 2483   6.137   1.947   2.151
  847TIP3    H1 2484   6.146   2.041   2.163
  847TIP3    H2 2485   6.059   1.937   2.096
  848TIP3   OH2 2486   7.494   3.386   0.261
  848TIP3    H1 2487   7.481   3.374   0.355
  848TIP3    H2 2488   7.564   3.324   0.238
  849TIP3   OH2 2489   6.932   7.269   1.737
  849TIP3    H1 2490   7.000   7.314   1.788
  849TIP3    H2 2491   6.970   7.259   1.650
  850TIP3   OH2 2492   4.217   1.693   1.843
  850TIP3    H1 2493   4.140   1.751   1.834
  850TIP3    H2 2494   4.284   1.748   1.883
  851TIP3   OH2 2495   6.695   3.055   3.154
  851TIP3    H1 2496   6.750   3.133   3.155
  851TIP3    H2 2497   6.669   3.045   3.063
  852TIP3   OH2 2498   4.646   7.395   0.089
  852TIP3    H1 2499   4.647   7.431   0.178
  852TIP3    H2 2500   4.631   7.470   0.032
  853TIP3   OH2 2501   3.952   5.088   2.755
  853TIP3    H1 2502   4.035   5.114   2.714
  853TIP3    H2 2503   3.970   5.002   2.793
  854TIP3   OH2 2504   8.203   7.771   2.936
  854TIP3    H1 2505   8.278   7.769   2.877
  854TIP3    H2 2506   8.238   7.802   3.020
  855TIP3   OH2 2507   0.185   3.022   0.754
  855TIP3    H1 2508   0.234   3.014   0.672
  855TIP3    H2 2509   0.237   2.972   0.818
  856TIP3   OH2 2510   5.112   0.463   5.824
  856TIP3    H1 2511   5.158   0.419   5.895
  856TIP3    H2 2512   5.131   0.556   5.836
  857TIP3   OH2 2513   6.611   1.697   2.767
  857TIP3    H1 2514   6.687   1.655   2.806
  857TIP3    H2 2515   6.562   1.732   2.841
  858TIP3   OH2 2516   7.593   1.098   3.933
  858TIP3    H1 2517   7.583   1.163   4.003
  858TIP3    H2 2518   7.668   1.129   3.882
  859TIP3   OH2 2519   6.713   6.719   3.237
  859TIP3    H1 2520   6.634   6.666   3.245
  859TIP3    H2 2521   6.683   6.799   3.192
  860TIP3   OH2 2522   4.921   0.916   3.696
  860TIP3    H1 2523   4.996   0.966   3.664
  860TIP3    H2 2524   4.870   0.896   3.617
  861TIP3   OH2 2525   0.643   0.080   5.966
  861TIP3    H1 2526   0.712   0.014   5.957
  861TIP3    H2 2527   0.685   0.154   6.010
  862TIP3   OH2 2528   1.538   7.042   0.114
  862TIP3    H1 2529   1.582   7.024   0.031
  862TIP3    H2 2530   1.523   6.955   0.152
  863TIP3   OH2 2531   5.097   7.584   0.233
  863TIP3    H1 2532   5.029   7.605   0.169
  863TIP3    H2 2533   5.063   7.617   0.316
  864TIP3   OH2 2534   2.854   4.315   1.084
  864TIP3    H1 2535   2.820   4.234   1.044
  864TIP3    H2 2536   2.776   4.356   1.122
  865TIP3   OH2 2537   3.712   7.374   0.811
  865TIP3    H1 2538   3.685   7.377   0.903
  865TIP3    H2 2539   3.631   7.388   0.762
  866TIP3   OH2 2540   1.237   2.429   5.504
  866TIP3    H1 2541   1.224   2.408   5.597
  866TIP3    H2 2542   1.302   2.499   5.505
  867TIP3   OH2 2543   0.768   4.248   2.040
  867TIP3    H1 2544   0.838   4.296   1.996
  867TIP3    H2 2545   0.718   4.316   2.086
  868TIP3   OH2 2546   6.359   0.964   2.054
  868TIP3    H1 2547   6.354   0.873   2.026
  868TIP3    H2 2548   6.440   0.969   2.106
  869TIP3   OH2 2549   4.037   0.550   2.555
  869TIP3    H1 2550   3.967   0.550   2.490
  869TIP3    H2 2551   3.997   0.588   2.633
  870TIP3   OH2 2552   5.616   1.710   0.823
  870TIP3    H1 2553   5.687   1.646   0.819
  870TIP3    H2 2554   5.537   1.656   0.834
  871TIP3   OH2 2555   3.361   5.346   5.962
  871TIP3    H1 2556   3.376   5.439   5.942
  871TIP3    H2 2557   3.348   5.306   5.876
  872TIP3   OH2 2558   1.287   7.069   1.390
  872TIP3    H1 2559   1.211   7.114   1.428
  872TIP3    H2 2560   1.266   7.063   1.296
  873TIP3   OH2 2561   4.173   6.059   1.568
  873TIP3    H1 2562   4.259   6.061   1.525
  873TIP3    H2 2563   4.113   6.091   1.501
  874TIP3   OH2 2564   1.959   5.513   0.928
  874TIP3    H1 2565   1.882   5.476   0.885
  874TIP3    H2 2566   2.019   5.439   0.938
  875TIP3   OH2 2567   3.369   5.545   0.623
  875TIP3    H1 2568   3.315   5.580   0.694
  875TIP3    H2 2569   3.422   5.477   0.665
  876TIP3   OH2 2570   1.087   7.028   5.857
  876TIP3    H1 2571   1.100   7.048   5.764
  876TIP3    H2 2572   0.995   7.049   5.873
  877TIP3   OH2 2573   6.939   3.979   5.430
  877TIP3    H1 2574   7.004   4.048   5.424
  877TIP3    H2 2575   6.986   3.906   5.471
  878TIP3   OH2 2576   0.169   5.472   3.580
  878TIP3    H1 2577   0.179   5.387   3.538
  878TIP3    H2 2578   0.085   5.467   3.626
  879TIP3   OH2 2579   1.626   3.010   1.722
  879TIP3    H1 2580   1.537   2.976   1.728
  879TIP3    H2 2581   1.657   3.012   1.812
  880TIP3   OH2 2582   8.063   5.889   5.925
  880TIP3    H1 2583   8.107   5.965   5.886
  880TIP3    H2 2584   8.126   5.853   5.987
  881TIP3   OH2 2585   4.537   0.731   1.951
  881TIP3    H1 2586   4.518   0.768   1.864
  881TIP3    H2 2587   4.478   0.656   1.958
  882TIP3   OH2 2588   0.390   2.215   4.814
  882TIP3    H1 2589   0.484   2.207   4.830
  882TIP3    H2 2590   0.361   2.281   4.876
  883TIP3   OH2 2591   1.821   2.980   6.647
  883TIP3    H1 2592   1.806   3.015   6.735
  883TIP3    H2 2593   1.767   2.901   6.644
  884TIP3   OH2 2594   2.327   3.066   6.055
  884TIP3    H1 2595   2.406   3.015   6.074
  884TIP3    H2 2596   2.268   3.047   6.128
  885TIP3   OH2 2597   7.635   7.659   3.673
  885TIP3    H1 2598   7.636   7.571   3.636
  885TIP3    H2 2599   7.728   7.682   3.684
  886TIP3   OH2 2600   0.068   7.089   0.464
  886TIP3    H1 2601   0.049   6.998   0.485
  886TIP3    H2 2602   0.027   7.139   0.534
  887TIP3   OH2 2603   2.826   2.232   3.576
  887TIP3    H1 2604   2.795   2.318   3.550
  887TIP3    H2 2605   2.809   2.227   3.670
  888TIP3   OH2 2606   4.766   5.215   1.865
  888TIP3    H1 2607   4.697   5.185   1.925
  888TIP3    H2 2608   4.751   5.310   1.858
  889TIP3   OH2 2609   3.017   6.923   3.398
  889TIP3    H1 2610   3.082   6.938   3.329
  889TIP3    H2 2611   2.966   6.848   3.367
  890TIP3   OH2 2612   8.277   4.420   2.009
  890TIP3    H1 2613   8.199   4.427   2.063
  890TIP3    H2 2614   8.260   4.347   1.950
  891TIP3   OH2 2615   2.197   1.788   4.994
  891TIP3    H1 2616   2.214   1.744   5.077
  891TIP3    H2 2617   2.149   1.867   5.019
  892TIP3   OH2 2618   4.600   3.391   5.065
  892TIP3    H1 2619   4.506   3.374   5.069
  892TIP3    H2 2620   4.619   3.407   4.973
  893TIP3   OH2 2621   6.593   2.271   5.010
  893TIP3    H1 2622   6.686   2.268   4.987
  893TIP3    H2 2623   6.592   2.257   5.105
  894TIP3   OH2 2624   2.068   7.502   2.282
  894TIP3    H1 2625   2.006   7.431   2.301
  894TIP3    H2 2626   2.053   7.567   2.351
  895TIP3   OH2 2627   5.697   5.458   0.513
  895TIP3    H1 2628   5.775   5.492   0.470
  895TIP3    H2 2629   5.707   5.483   0.605
  896TIP3   OH2 2630   2.864   5.121   6.331
  896TIP3    H1 2631   2.870   5.036   6.375
  896TIP3    H2 2632   2.948   5.132   6.288
  897TIP3   OH2 2633   7.816   2.536   4.566
  897TIP3    H1 2634   7.726   2.519   4.538
  897TIP3    H2 2635   7.824   2.491   4.650
  898TIP3   OH2 2636   3.580   7.412   5.170
  898TIP3    H1 2637   3.529   7.487   5.202
  898TIP3    H2 2638   3.661   7.451   5.138
  899TIP3   OH2 2639   4.769   1.890   1.808
  899TIP3    H1 2640   4.836   1.890   1.877
  899TIP3    H2 2641   4.791   1.965   1.753
  900TIP3   OH2 2642   4.560   3.492   2.033
  900TIP3    H1 2643   4.531   3.577   1.999
  900TIP3    H2 2644   4.481   3.455   2.074
  901TIP3   OH2 2645   4.357   6.058   6.065
  901TIP3    H1 2646   4.270   6.048   6.102
  901TIP3    H2 2647   4.383   6.147   6.090
  902TIP3   OH2 2648   5.630   3.251   5.343
  902TIP3    H1 2649   5.631   3.199   5.423
  902TIP3    H2 2650   5.541   3.287   5.338
  903TIP3   OH2 2651   0.914   6.124   1.192
  903TIP3    H1 2652   0.834   6.148   1.144
  903TIP3    H2 2653   0.954   6.208   1.214
  904TIP3   OH2 2654   2.392  -0.001   3.200
  904TIP3    H1 2655   2.391   0.041   3.114
  904TIP3    H2 2656   2.435   0.063   3.257
  905TIP3   OH2 2657   4.483   4.238   2.354
  905TIP3    H1 2658   4.547   4.209   2.289
  905TIP3    H2 2659   4.459   4.326   2.325
  906TIP3   OH2 2660   3.846   6.207   1.692
  906TIP3    H1 2661   3.896   6.206   1.610
  906TIP3    H2 2662   3.864   6.121   1.731
  907TIP3   OH2 2663   4.812   5.434   3.482
  907TIP3    H1 2664   4.860   5.479   3.412
  907TIP3    H2 2665   4.880   5.409   3.545
  908TIP3   OH2 2666   3.170   3.689   4.871
  908TIP3    H1 2667   3.114   3.663   4.797
  908TIP3    H2 2668   3.146   3.780   4.887
  909TIP3   OH2 2669   3.541   3.159   1.026
  909TIP3    H1 2670   3.608   3.128   1.087
  909TIP3    H2 2671   3.590   3.191   0.951
  910TIP3   OH2 2672   3.120   1.719   0.035
  910TIP3    H1 2673   3.197   1.673   0.070
  910TIP3    H2 2674   3.141   1.733  -0.058
  911TIP3   OH2 2675   6.384   2.321   5.605
  911TIP3    H1 2676   6.371   2.235   5.643
  911TIP3    H2 2677   6.389   2.380   5.680
  912TIP3   OH2 2678   3.025   7.473   2.429
  912TIP3    H1 2679   2.998   7.563   2.408
  912TIP3    H2 2680   3.117   7.481   2.453
  913TIP3   OH2 2681   5.844   5.499   2.756
  913TIP3    H1 2682   5.905   5.546   2.700
  913TIP3    H2 2683   5.757   5.527   2.726
  914TIP3   OH2 2684   5.468   7.055   1.087
  914TIP3    H1 2685   5.403   6.996   1.124
  914TIP3    H2 2686   5.519   7.086   1.163
  915TIP3   OH2 2687   2.768   7.231   5.874
  915TIP3    H1 2688   2.698   7.291   5.847
  915TIP3    H2 2689   2.844   7.258   5.823
  916TIP3   OH2 2690   6.947   0.651   2.512
  916TIP3    H1 2691   6.912   0.612   2.432
  916TIP3    H2 2692   7.042   0.649   2.501
  917TIP3   OH2 2693   4.704   0.527   1.530
  917TIP3    H1 2694   4.718   0.561   1.442
  917TIP3    H2 2695   4.671   0.438   1.516
  918TIP3   OH2 2696   0.774   3.433   2.469
  918TIP3    H1 2697   0.709   3.447   2.538
  918TIP3    H2 2698   0.761   3.507   2.409
  919TIP3   OH2 2699   0.472   5.606   1.098
  919TIP3    H1 2700   0.376   5.613   1.097
  919TIP3    H2 2701   0.498   5.626   1.008
  920TIP3   OH2 2702   4.257   6.585   6.295
  920TIP3    H1 2703   4.243   6.499   6.334
  920TIP3    H2 2704   4.310   6.633   6.359
  921TIP3   OH2 2705   1.842   3.510   1.858
  921TIP3    H1 2706   1.868   3.551   1.776
  921TIP3    H2 2707   1.812   3.423   1.833
  922TIP3   OH2 2708   6.290   2.273   3.859
  922TIP3    H1 2709   6.297   2.246   3.768
  922TIP3    H2 2710   6.196   2.273   3.877
  923TIP3   OH2 2711   6.168   1.742   6.491
  923TIP3    H1 2712   6.102   1.811   6.498
  923TIP3    H2 2713   6.157   1.707   6.402
  924TIP3   OH2 2714   5.325   2.294   3.095
  924TIP3    H1 2715   5.317   2.235   3.020
  924TIP3    H2 2716   5.284   2.376   3.066
  925TIP3   OH2 2717   7.584   2.307   6.060
  925TIP3    H1 2718   7.547   2.275   5.978
  925TIP3    H2 2719   7.671   2.266   6.064
  926TIP3   OH2 2720   5.630   4.892   5.678
  926TIP3    H1 2721   5.703   4.845   5.717
  926TIP3    H2 2722   5.565   4.900   5.748
  927TIP3   OH2 2723   6.230   3.526   4.227
  927TIP3    H1 2724   6.213   3.542   4.320
  927TIP3    H2 2725   6.155   3.473   4.199
  928TIP3   OH2 2726   3.801   6.764   6.485
  928TIP3    H1 2727   3.783   6.696   6.549
  928TIP3    H2 2728   3.894   6.784   6.497
  929TIP3   OH2 2729   4.254   5.752   2.741
  929TIP3    H1 2730   4.347   5.772   2.752
  929TIP3    H2 2731   4.209   5.811   2.801
  930TIP3   OH2 2732   6.636   7.491   0.961
  930TIP3    H1 2733   6.688   7.516   0.884
  930TIP3    H2 2734   6.603   7.574   0.996
  931TIP3   OH2 2735   0.099   0.679   5.394
  931TIP3    H1 2736   0.121   0.619   5.466
  931TIP3    H2 2737   0.173   0.671   5.334
  932TIP3   OH2 2738   5.883   5.929   5.873
  932TIP3    H1 2739   5.900   5.968   5.959
  932TIP3    H2 2740   5.815   5.863   5.890
  933TIP3   OH2 2741   3.113   6.461   6.093
  933TIP3    H1 2742   3.049   6.390   6.084
  933TIP3    H2 2743   3.092   6.521   6.021
  934TIP3   OH2 2744   5.957   7.343   5.738
  934TIP3    H1 2745   5.987   7.310   5.653
  934TIP3    H2 2746   5.895   7.277   5.769
  935TIP3   OH2 2747   1.437   5.217   5.604
  935TIP3    H1 2748   1.466   5.143   5.551
  935TIP3    H2 2749   1.473   5.200   5.691
  936TIP3   OH2 2750   2.331   1.290   6.223
  936TIP3    H1 2751   2.365   1.374   6.192
  936TIP3    H2 2752   2.352   1.229   6.154
  937TIP3   OH2 2753   2.274   7.690   1.374
  937TIP3    H1 2754   2.337   7.750   1.415
  937TIP3    H2 2755   2.329   7.626   1.327
  938TIP3   OH2 2756   6.784   1.415   3.183
  938TIP3    H1 2757   6.734   1.362   3.122
  938TIP3    H2 2758   6.766   1.505   3.157
  939TIP3   OH2 2759   0.110   2.802   4.286
  939TIP3    H1 2760   0.110   2.796   4.191
  939TIP3    H2 2761   0.067   2.721   4.315
  940TIP3   OH2 2762   7.629   5.151   3.750
  940TIP3    H1 2763   7.537   5.147   3.777
  940TIP3    H2 2764   7.630   5.208   3.674
  941TIP3   OH2 2765   2.513   5.886   4.655
  941TIP3    H1 2766   2.485   5.976   4.676
  941TIP3    H2 2767   2.447   5.855   4.593
  942TIP3   OH2 2768   3.873   1.026   3.629
  942TIP3    H1 2769   3.888   1.066   3.543
  942TIP3    H2 2770   3.932   1.073   3.688
  943TIP3   OH2 2771   5.561   1.028   4.842
  943TIP3    H1 2772   5.494   0.976   4.887
  943TIP3    H2 2773   5.615   0.963   4.796
  944TIP3   OH2 2774   7.234   1.694   4.288
  944TIP3    H1 2775   7.292   1.619   4.273
  944TIP3    H2 2776   7.211   1.689   4.381
  945TIP3   OH2 2777   4.402   5.850   3.956
  945TIP3    H1 2778   4.459   5.801   3.897
  945TIP3    H2 2779   4.381   5.789   4.026
  946TIP3   OH2 2780   2.953   2.427   1.509
  946TIP3    H1 2781   2.946   2.337   1.539
  946TIP3    H2 2782   2.864   2.463   1.520
  947TIP3   OH2 2783   0.818   5.761   3.758
  947TIP3    H1 2784   0.785   5.839   3.804
  947TIP3    H2 2785   0.827   5.789   3.667
  948TIP3   OH2 2786   0.382   6.443   0.995
  948TIP3    H1 2787   0.346   6.371   1.047
  948TIP3    H2 2788   0.368   6.416   0.904
  949TIP3   OH2 2789   3.143   7.828   3.725
  949TIP3    H1 2790   3.149   7.884   3.802
  949TIP3    H2 2791   3.164   7.740   3.757
  950TIP3   OH2 2792   1.109   4.457   3.428
  950TIP3    H1 2793   1.166   4.406   3.371
  950TIP3    H2 2794   1.099   4.404   3.507
  951TIP3   OH2 2795   4.830   7.223   1.277
  951TIP3    H1 2796   4.779   7.165   1.334
  951TIP3    H2 2797   4.887   7.165   1.228
  952TIP3   OH2 2798   5.745   1.562   3.177
  952TIP3    H1 2799   5.757   1.643   3.128
  952TIP3    H2 2800   5.774   1.582   3.265
  953TIP3   OH2 2801   2.545   1.594   2.778
  953TIP3    H1 2802   2.491   1.549   2.842
  953TIP3    H2 2803   2.632   1.555   2.788
  954TIP3   OH2 2804   2.605   2.677   6.266
  954TIP3    H1 2805   2.610   2.696   6.360
  954TIP3    H2 2806   2.637   2.757   6.224
  955TIP3   OH2 2807   5.431   1.669   1.890
  955TIP3    H1 2808   5.445   1.602   1.823
  955TIP3    H2 2809   5.516   1.678   1.933
  956TIP3   OH2 2810   2.765   2.761   2.267
  956TIP3    H1 2811   2.736   2.808   2.346
  956TIP3    H2 2812   2.684   2.736   2.223
  957TIP3   OH2 2813   6.831   4.432   5.309
  957TIP3    H1 2814   6.909   4.405   5.261
  957TIP3    H2 2815   6.762   4.437   5.243
  958TIP3   OH2 2816   7.018   1.633   0.996
  958TIP3    H1 2817   7.047   1.599   1.081
  958TIP3    H2 2818   7.087   1.606   0.935
  959TIP3   OH2 2819   4.733   7.214   2.247
  959TIP3    H1 2820   4.823   7.194   2.220
  959TIP3    H2 2821   4.740   7.230   2.341
  960TIP3   OH2 2822   2.224   5.872   0.524
  960TIP3    H1 2823   2.134   5.895   0.546
  960TIP3    H2 2824   2.232   5.779   0.544
  961TIP3   OH2 2825   1.018   6.374   1.289
  961TIP3    H1 2826   1.009   6.419   1.205
  961TIP3    H2 2827   0.969   6.428   1.351
  962TIP3   OH2 2828   1.404   4.294   1.170
  962TIP3    H1 2829   1.341   4.248   1.116
  962TIP3    H2 2830   1.412   4.381   1.130
  963TIP3   OH2 2831   0.078   7.800   4.849
  963TIP3    H1 2832   0.020   7.729   4.821
  963TIP3    H2 2833   0.122   7.767   4.927
  964TIP3   OH2 2834   6.774   1.420   4.344
  964TIP3    H1 2835   6.803   1.462   4.263
  964TIP3    H2 2836   6.684   1.394   4.327
  965TIP3   OH2 2837   5.131   7.566   0.496
  965TIP3    H1 2838   5.177   7.645   0.467
  965TIP3    H2 2839   5.167   7.547   0.582
  966TIP3   OH2 2840   4.050   7.764   4.053
  966TIP3    H1 2841   4.134   7.758   4.098
  966TIP3    H2 2842   4.051   7.851   4.013
  967TIP3   OH2 2843   3.446   5.654   4.389
  967TIP3    H1 2844   3.356   5.640   4.417
  967TIP3    H2 2845   3.499   5.610   4.456
  968TIP3   OH2 2846   5.328   4.349   6.082
  968TIP3    H1 2847   5.393   4.370   6.015
  968TIP3    H2 2848   5.366   4.277   6.131
  969TIP3   OH2 2849   1.269   5.926   4.720
  969TIP3    H1 2850   1.195   5.985   4.703
  969TIP3    H2 2851   1.311   5.962   4.798
  970TIP3   OH2 2852   7.820   3.641   3.672
  970TIP3    H1 2853   7.875   3.566   3.650
  970TIP3    H2 2854   7.856   3.714   3.621
  971TIP3   OH2 2855   2.184   0.924   6.316
  971TIP3    H1 2856   2.196   0.880   6.232
  971TIP3    H2 2857   2.251   0.885   6.373
  972TIP3   OH2 2858   4.335   1.516   3.906
  972TIP3    H1 2859   4.306   1.493   3.818
  972TIP3    H2 2860   4.409   1.458   3.924
  973TIP3   OH2 2861   7.892   4.569   0.603
  973TIP3    H1 2862   7.799   4.554   0.586
  973TIP3    H2 2863   7.916   4.502   0.668
  974TIP3   OH2 2864   1.010   5.885   0.098
  974TIP3    H1 2865   0.942   5.930   0.048
  974TIP3    H2 2866   0.966   5.809   0.136
  975TIP3   OH2 2867   1.318   3.067   0.056
  975TIP3    H1 2868   1.294   3.024  -0.026
  975TIP3    H2 2869   1.264   3.146   0.059
  976TIP3   OH2 2870   6.289   6.007   0.288
  976TIP3    H1 2871   6.359   6.013   0.223
  976TIP3    H2 2872   6.294   5.917   0.320
  977TIP3   OH2 2873   5.241   2.103   0.828
  977TIP3    H1 2874   5.272   2.012   0.825
  977TIP3    H2 2875   5.301   2.147   0.888
  978TIP3   OH2 2876   5.195   0.350   3.450
  978TIP3    H1 2877   5.170   0.443   3.453
  978TIP3    H2 2878   5.284   0.348   3.485
  979TIP3   OH2 2879   1.949   6.887   5.947
  979TIP3    H1 2880   1.928   6.861   6.037
  979TIP3    H2 2881   2.041   6.861   5.935
  980TIP3   OH2 2882   7.491   6.751   2.209
  980TIP3    H1 2883   7.502   6.685   2.140
  980TIP3    H2 2884   7.427   6.812   2.172
  981TIP3   OH2 2885   4.854   5.691   5.382
  981TIP3    H1 2886   4.843   5.784   5.367
  981TIP3    H2 2887   4.935   5.684   5.433
  982TIP3   OH2 2888   4.917   4.832   2.872
  982TIP3    H1 2889   4.998   4.791   2.843
  982TIP3    H2 2890   4.849   4.788   2.821
  983TIP3   OH2 2891   6.803   3.837   0.575
  983TIP3    H1 2892   6.885   3.886   0.565
  983TIP3    H2 2893   6.770   3.828   0.485
  984TIP3   OH2 2894   3.426   5.816   0.797
  984TIP3    H1 2895   3.412   5.910   0.809
  984TIP3    H2 2896   3.360   5.774   0.851
  985TIP3   OH2 2897   6.237   3.953   5.630
  985TIP3    H1 2898   6.164   3.960   5.568
  985TIP3    H2 2899   6.291   3.882   5.595
  986TIP3   OH2 2900   5.769   3.939   0.511
  986TIP3    H1 2901   5.822   3.989   0.449
  986TIP3    H2 2902   5.783   3.847   0.487
  987TIP3   OH2 2903   7.231   7.590   1.362
  987TIP3    H1 2904   7.186   7.663   1.405
  987TIP3    H2 2905   7.168   7.558   1.298
  988TIP3   OH2 2906   2.804   6.795   0.817
  988TIP3    H1 2907   2.833   6.771   0.729
  988TIP3    H2 2908   2.747   6.870   0.804
  989TIP3   OH2 2909   2.250   4.829   2.670
  989TIP3    H1 2910   2.295   4.810   2.752
  989TIP3    H2 2911   2.189   4.900   2.692
  990TIP3   OH2 2912   0.223   3.901   3.196
  990TIP3    H1 2913   0.294   3.893   3.133
  990TIP3    H2 2914   0.177   3.981   3.171
  991TIP3   OH2 2915   7.665   0.176   6.427
  991TIP3    H1 2916   7.646   0.233   6.501
  991TIP3    H2 2917   7.760   0.159   6.434
  992TIP3   OH2 2918   1.594   0.766   4.680
  992TIP3    H1 2919   1.618   0.817   4.758
  992TIP3    H2 2920   1.576   0.832   4.613
  993TIP3   OH2 2921   6.515   6.036   4.823
  993TIP3    H1 2922   6.604   6.049   4.854
  993TIP3    H2 2923   6.470   5.992   4.896
  994TIP3   OH2 2924   7.300   1.046   3.517
  994TIP3    H1 2925   7.204   1.053   3.522
  994TIP3    H2 2926   7.323   1.095   3.438
  995TIP3   OH2 2927   6.473   0.160   4.106
  995TIP3    H1 2928   6.483   0.109   4.026
  995TIP3    H2 2929   6.390   0.131   4.143
  996TIP3   OH2 2930   5.175   0.916   0.975
  996TIP3    H1 2931   5.171   0.821   0.961
  996TIP3    H2 2932   5.195   0.952   0.889
  997TIP3   OH2 2933   2.450   5.397   0.324
  997TIP3    H1 2934   2.502   5.330   0.281
  997TIP3    H2 2935   2.405   5.443   0.253
  998TIP3   OH2 2936   7.877   3.342   3.834
  998TIP3    H1 2937   7.933   3.407   3.876
  998TIP3    H2 2938   7.937   3.282   3.791
  999TIP3   OH2 2939   6.444   1.122   2.348
  999TIP3    H1 2940   6.420   1.203   2.393
  999TIP3    H2 2941   6.496   1.151   2.273
 1000TIP3   OH2 2942   3.989   7.446   2.342
 1000TIP3    H1 2943   3.907   7.423   2.387
 1000TIP3    H2 2944   4.057   7.402   2.393
 1001TIP3   OH2 2945   7.751   1.224   2.662
 1001TIP3    H1 2946   7.706   1.306   2.683
 1001TIP3    H2 2947   7.746   1.218   2.567
 1002TIP3   OH2 2948   5.184   1.178   6.679
 1002TIP3    H1 2949   5.222   1.103   6.724
 1002TIP3    H2 2950   5.136   1.226   6.747
 1003TIP3   OH2 2951   3.526   3.518   1.017
 1003TIP3    H1 2952   3.462   3.478   1.075
 1003TIP3    H2 2953   3.591   3.449   1.002
 1004TIP3   OH2 2954   6.840   5.831   4.289
 1004TIP3    H1 2955   6.799   5.797   4.369
 1004TIP3    H2 2956   6.934   5.829   4.308
 1005TIP3   OH2 2957   1.163   2.951   4.434
 1005TIP3    H1 2958   1.165   3.032   4.384
 1005TIP3    H2 2959   1.128   2.976   4.519
 1006TIP3   OH2 2960   3.195   2.690   3.124
 1006TIP3    H1 2961   3.258   2.754   3.090
 1006TIP3    H2 2962   3.222   2.676   3.215
 1007TIP3   OH2 2963   2.773   4.609   2.343
 1007TIP3    H1 2964   2.803   4.697   2.367
 1007TIP3    H2 2965   2.692   4.624   2.294
 1008TIP3   OH2 2966   0.038   5.963   0.831
 1008TIP3    H1 2967  -0.004   5.891   0.783
 1008TIP3    H2 2968  -0.019   5.976   0.908
 1009TIP3   OH2 2969   2.690   1.040   4.325
 1009TIP3    H1 2970   2.699   1.134   4.339
 1009TIP3    H2 2971   2.709   1.028   4.232
 1010TIP3   OH2 2972   7.510   5.901   0.775
 1010TIP3    H1 2973   7.577   5.897   0.842
 1010TIP3    H2 2974   7.429   5.920   0.822
 1011TIP3   OH2 2975   4.491   1.081   6.472
 1011TIP3    H1 2976   4.531   1.021   6.409
 1011TIP3    H2 2977   4.559   1.145   6.491
 1012TIP3   OH2 2978   7.054   3.339   6.288
 1012TIP3    H1 2979   6.977   3.385   6.320
 1012TIP3    H2 2980   7.080   3.386   6.209
 1013TIP3   OH2 2981   5.202   1.814   3.896
 1013TIP3    H1 2982   5.108   1.800   3.879
 1013TIP3    H2 2983   5.210   1.803   3.991
 1014TIP3   OH2 2984   1.818   3.890   6.322
 1014TIP3    H1 2985   1.809   3.802   6.286
 1014TIP3    H2 2986   1.798   3.948   6.249
 1015TIP3   OH2 2987   6.869   6.460   1.507
 1015TIP3    H1 2988   6.819   6.535   1.539
 1015TIP3    H2 2989   6.961   6.483   1.523
 1016TIP3   OH2 2990   2.420   7.501   4.960
 1016TIP3    H1 2991   2.384   7.508   4.871
 1016TIP3    H2 2992   2.374   7.568   5.010
 1017TIP3   OH2 2993   5.478   0.633   5.406
 1017TIP3    H1 2994   5.499   0.554   5.454
 1017TIP3    H2 2995   5.387   0.622   5.379
 1018TIP3   OH2 2996   0.402   1.245   2.071
 1018TIP3    H1 2997   0.483   1.237   2.121
 1018TIP3    H2 2998   0.335   1.262   2.138
 1019TIP3   OH2 2999   1.184   1.096   2.177
 1019TIP3    H1 3000   1.252   1.036   2.145
 1019TIP3    H2 3001   1.232   1.176   2.201
 1020TIP3   OH2 3002   1.504   6.726   2.256
 1020TIP3    H1 3003   1.443   6.653   2.264
 1020TIP3    H2 3004   1.560   6.703   2.182
 1021TIP3   OH2 3005   1.782   7.590   0.826
 1021TIP3    H1 3006   1.727   7.541   0.765
 1021TIP3    H2 3007   1.863   7.540   0.832
 1022TIP3   OH2 3008   5.403   3.378   5.302
 1022TIP3    H1 3009   5.451   3.442   5.249
 1022TIP3    H2 3010   5.334   3.346   5.243
 1023TIP3   OH2 3011   8.277   7.184   3.223
 1023TIP3    H1 3012   8.205   7.157   3.280
 1023TIP3    H2 3013   8.254   7.271   3.194
 1024TIP3   OH2 3014   5.966   3.397   4.731
 1024TIP3    H1 3015   5.988   3.352   4.813
 1024TIP3    H2 3016   5.977   3.490   4.751
 1025TIP3   OH2 3017   2.937   2.097   2.675
 1025TIP3    H1 3018   2.884   2.061   2.747
 1025TIP3    H2 3019   2.934   2.029   2.607
 1026TIP3   OH2 3020   5.572   1.826   4.215
 1026TIP3    H1 3021   5.578   1.784   4.129
 1026TIP3    H2 3022   5.536   1.913   4.198
 1027TIP3   OH2 3023   6.055   6.104   0.170
 1027TIP3    H1 3024   6.072   6.197   0.179
 1027TIP3    H2 3025   6.142   6.063   0.170
 1028TIP3   OH2 3026   5.912   2.450   3.673
 1028TIP3    H1 3027   5.872   2.367   3.701
 1028TIP3    H2 3028   5.981   2.466   3.737
 1029TIP3   OH2 3029   1.518   3.237   1.131
 1029TIP3    H1 3030   1.473   3.314   1.167
 1029TIP3    H2 3031   1.520   3.253   1.037
 1030TIP3   OH2 3032   0.414   2.483   4.091
 1030TIP3    H1 3033   0.499   2.455   4.056
 1030TIP3    H2 3034   0.363   2.508   4.014
 1031TIP3   OH2 3035   0.872   1.159   4.606
 1031TIP3    H1 3036   0.821   1.239   4.595
 1031TIP3    H2 3037   0.825   1.109   4.672
 1032TIP3   OH2 3038   1.500   1.927   3.757
 1032TIP3    H1 3039   1.567   1.987   3.726
 1032TIP3    H2 3040   1.541   1.840   3.750
 1033TIP3   OH2 3041   6.245   1.588   5.301
 1033TIP3    H1 3042   6.295   1.596   5.220
 1033TIP3    H2 3043   6.288   1.648   5.362
 1034TIP3   OH2 3044   0.634   2.309   4.798
 1034TIP3    H1 3045   0.718   2.286   4.759
 1034TIP3    H2 3046   0.622   2.402   4.776
 1035TIP3   OH2 3047   7.127   2.213   6.476
 1035TIP3    H1 3048   7.050   2.261   6.443
 1035TIP3    H2 3049   7.128   2.233   6.570
 1036TIP3   OH2 3050   2.756   5.296   5.961
 1036TIP3    H1 3051   2.744   5.324   5.870
 1036TIP3    H2 3052   2.851   5.293   5.972
 1037TIP3   OH2 3053   6.606   3.681   5.977
 1037TIP3    H1 3054   6.585   3.621   5.906
 1037TIP3    H2 3055   6.683   3.642   6.019
 1038TIP3   OH2 3056   2.296   2.356   1.731
 1038TIP3    H1 3057   2.339   2.369   1.646
 1038TIP3    H2 3058   2.277   2.444   1.762
 1039TIP3   OH2 3059   6.354   7.288   3.032
 1039TIP3    H1 3060   6.422   7.310   2.969
 1039TIP3    H2 3061   6.349   7.192   3.028
 1040TIP3   OH2 3062   7.312   2.982   4.994
 1040TIP3    H1 3063   7.265   3.065   4.982
 1040TIP3    H2 3064   7.295   2.958   5.085
 1041TIP3   OH2 3065   4.447   1.856   1.916
 1041TIP3    H1 3066   4.454   1.949   1.936
 1041TIP3    H2 3067   4.461   1.852   1.821
 1042TIP3   OH2 3068   3.302   2.770   0.052
 1042TIP3    H1 3069   3.391   2.800   0.032
 1042TIP3    H2 3070   3.308   2.675   0.049
 1043TIP3   OH2 3071   4.328   3.997   5.503
 1043TIP3    H1 3072   4.347   3.925   5.562
 1043TIP3    H2 3073   4.239   4.024   5.525
 1044TIP3   OH2 3074   5.538   5.918   3.206
 1044TIP3    H1 3075   5.553   5.869   3.126
 1044TIP3    H2 3076   5.465   5.873   3.248
 1045TIP3   OH2 3077   4.975   4.480   1.410
 1045TIP3    H1 3078   4.881   4.481   1.393
 1045TIP3    H2 3079   5.006   4.399   1.370
 1046TIP3   OH2 3080   5.430   3.829   1.677
 1046TIP3    H1 3081   5.420   3.906   1.621
 1046TIP3    H2 3082   5.402   3.756   1.623
 1047TIP3   OH2 3083   5.128   3.084   0.245
 1047TIP3    H1 3084   5.187   3.140   0.295
 1047TIP3    H2 3085   5.046   3.087   0.293
 1048TIP3   OH2 3086   0.359   0.415   1.551
 1048TIP3    H1 3087   0.373   0.360   1.629
 1048TIP3    H2 3088   0.307   0.488   1.582
 1049TIP3   OH2 3089   3.471   1.360   4.472
 1049TIP3    H1 3090   3.485   1.410   4.391
 1049TIP3    H2 3091   3.515   1.276   4.457
 1050TIP3   OH2 3092   7.005   2.804   3.534
 1050TIP3    H1 3093   7.072   2.738   3.517
 1050TIP3    H2 3094   6.970   2.824   3.447
 1051TIP3   OH2 3095   3.533   1.125   5.163
 1051TIP3    H1 3096   3.529   1.095   5.254
 1051TIP3    H2 3097   3.596   1.196   5.165
 1052TIP3   OH2 3098   7.480   7.277   4.281
 1052TIP3    H1 3099   7.484   7.294   4.375
 1052TIP3    H2 3100   7.525   7.352   4.242
 1053TIP3   OH2 3101   0.017   2.801   0.443
 1053TIP3    H1 3102   0.042   2.883   0.400
 1053TIP3    H2 3103   0.017   2.736   0.373
 1054TIP3   OH2 3104   2.983   5.580   1.000
 1054TIP3    H1 3105   2.918   5.648   1.014
 1054TIP3    H2 3106   3.066   5.619   1.028
 1055TIP3   OH2 3107   7.372   1.133   5.719
 1055TIP3    H1 3108   7.418   1.214   5.697
 1055TIP3    H2 3109   7.422   1.097   5.793
 1056TIP3   OH2 3110   8.225   4.161   4.419
 1056TIP3    H1 3111   8.229   4.245   4.465
 1056TIP3    H2 3112   8.315   4.129   4.421
 1057TIP3   OH2 3113   1.700   7.345   2.442
 1057TIP3    H1 3114   1.623   7.401   2.442
 1057TIP3    H2 3115   1.736   7.353   2.353
 1058TIP3   OH2 3116   7.949   1.809   1.832
 1058TIP3    H1 3117   7.877   1.871   1.845
 1058TIP3    H2 3118   8.014   1.833   1.898
 1059TIP3   OH2 3119   4.613   4.149   5.167
 1059TIP3    H1 3120   4.550   4.201   5.218
 1059TIP3    H2 3121   4.565   4.125   5.087
 1060TIP3   OH2 3122   7.547   4.712   3.368
 1060TIP3    H1 3123   7.460   4.683   3.397
 1060TIP3    H2 3124   7.579   4.641   3.313
 1061TIP3   OH2 3125   6.747   7.311   1.186
 1061TIP3    H1 3126   6.712   7.385   1.136
 1061TIP3    H2 3127   6.842   7.319   1.178
 1062TIP3   OH2 3128   4.273   5.924   5.849
 1062TIP3    H1 3129   4.302   5.834   5.864
 1062TIP3    H2 3130   4.303   5.973   5.926
 1063TIP3   OH2 3131   6.164   4.074   2.882
 1063TIP3    H1 3132   6.092   4.013   2.864
 1063TIP3    H2 3133   6.231   4.021   2.925
 1064TIP3   OH2 3134   0.827   1.592   3.432
 1064TIP3    H1 3135   0.837   1.552   3.346
 1064TIP3    H2 3136   0.910   1.637   3.448
 1065TIP3   OH2 3137   8.284   7.778   0.963
 1065TIP3    H1 3138   8.264   7.735   1.046
 1065TIP3    H2 3139   8.222   7.851   0.958
 1066TIP3   OH2 3140   0.767   1.712   0.854
 1066TIP3    H1 3141   0.765   1.623   0.887
 1066TIP3    H2 3142   0.741   1.704   0.762
 1067TIP3   OH2 3143   7.090   4.282   4.793
 1067TIP3    H1 3144   7.158   4.343   4.765
 1067TIP3    H2 3145   7.137   4.205   4.823
 1068TIP3   OH2 3146   3.220   7.705   0.337
 1068TIP3    H1 3147   3.232   7.797   0.361
 1068TIP3    H2 3148   3.229   7.704   0.242
 1069TIP3   OH2 3149   4.253   5.819   4.393
 1069TIP3    H1 3150   4.217   5.906   4.407
 1069TIP3    H2 3151   4.249   5.777   4.479
 1070TIP3   OH2 3152   5.718   7.041   5.559
 1070TIP3    H1 3153   5.707   7.116   5.617
 1070TIP3    H2 3154   5.702   7.077   5.471
 1071TIP3   OH2 3155   0.809   2.816   4.541
 1071TIP3    H1 3156   0.821   2.788   4.450
 1071TIP3    H2 3157   0.888   2.866   4.561
 1072TIP3   OH2 3158   4.489   2.648   1.134
 1072TIP3    H1 3159   4.405   2.616   1.100
 1072TIP3    H2 3160   4.530   2.571   1.173
 1073TIP3   OH2 3161   6.626   4.805   3.373
 1073TIP3    H1 3162   6.557   4.746   3.342
 1073TIP3    H2 3163   6.617   4.883   3.318
 1074TIP3   OH2 3164   1.506   6.364   0.041
 1074TIP3    H1 3165   1.531   6.405  -0.041
 1074TIP3    H2 3166   1.530   6.272   0.030
 1075TIP3   OH2 3167   1.071   6.801   2.857
 1075TIP3    H1 3168   1.024   6.833   2.780
 1075TIP3    H2 3169   1.122   6.726   2.826
 1076TIP3   OH2 3170   7.658   7.238   1.778
 1076TIP3    H1 3171   7.705   7.154   1.786
 1076TIP3    H2 3172   7.643   7.265   1.868
 1077TIP3   OH2 3173   6.442   4.304   4.353
 1077TIP3    H1 3174   6.456   4.321   4.260
 1077TIP3    H2 3175   6.409   4.387   4.388
 1078TIP3   OH2 3176   3.836   3.599   1.067
 1078TIP3    H1 3177   3.743   3.621   1.075
 1078TIP3    H2 3178   3.881   3.683   1.073
 1079TIP3   OH2 3179   1.575   7.602   2.097
 1079TIP3    H1 3180   1.489   7.559   2.094
 1079TIP3    H2 3181   1.563   7.673   2.161
 1080TIP3   OH2 3182   1.832   3.046   0.657
 1080TIP3    H1 3183   1.766   3.114   0.643
 1080TIP3    H2 3184   1.836   2.998   0.574
 1081TIP3   OH2 3185   6.029   3.692   2.381
 1081TIP3    H1 3186   6.076   3.724   2.458
 1081TIP3    H2 3187   6.094   3.696   2.310
 1082TIP3   OH2 3188   2.083   0.599   5.282
 1082TIP3    H1 3189   2.075   0.514   5.325
 1082TIP3    H2 3190   2.129   0.654   5.345
 1083TIP3   OH2 3191   4.365   3.485   5.195
 1083TIP3    H1 3192   4.432   3.533   5.146
 1083TIP3    H2 3193   4.345   3.542   5.270
 1084TIP3   OH2 3194   4.976   0.714   2.659
 1084TIP3    H1 3195   4.971   0.622   2.633
 1084TIP3    H2 3196   4.891   0.750   2.635
 1085TIP3   OH2 3197   5.315   6.001   3.858
 1085TIP3    H1 3198   5.221   6.022   3.862
 1085TIP3    H2 3199   5.358   6.081   3.889
 1086TIP3   OH2 3200   6.367   5.114   4.155
 1086TIP3    H1 3201   6.311   5.042   4.129
 1086TIP3    H2 3202   6.397   5.092   4.243
 1087TIP3   OH2 3203   4.259   5.836   1.743
 1087TIP3    H1 3204   4.234   5.801   1.657
 1087TIP3    H2 3205   4.309   5.915   1.723
 1088TIP3   OH2 3206   0.423   5.124   6.001
 1088TIP3    H1 3207   0.486   5.192   5.976
 1088TIP3    H2 3208   0.345   5.172   6.027
 1089TIP3   OH2 3209   3.480   4.807   3.992
 1089TIP3    H1 3210   3.425   4.877   4.028
 1089TIP3    H2 3211   3.542   4.788   4.062
 1090TIP3   OH2 3212   1.264   6.215   1.439
 1090TIP3    H1 3213   1.343   6.250   1.479
 1090TIP3    H2 3214   1.227   6.289   1.390
 1091TIP3   OH2 3215   4.439   2.108   1.618
 1091TIP3    H1 3216   4.367   2.123   1.680
 1091TIP3    H2 3217   4.444   2.012   1.611
 1092TIP3   OH2 3218   8.267   5.482   1.867
 1092TIP3    H1 3219   8.287   5.390   1.884
 1092TIP3    H2 3220   8.201   5.505   1.931
 1093TIP3   OH2 3221   4.326   1.656   0.944
 1093TIP3    H1 3222   4.243   1.607   0.943
 1093TIP3    H2 3223   4.378   1.614   1.012
 1094TIP3   OH2 3224   7.981   6.116   4.430
 1094TIP3    H1 3225   8.045   6.184   4.452
 1094TIP3    H2 3226   7.922   6.113   4.506
 1095TIP3   OH2 3227   6.227   4.320   2.014
 1095TIP3    H1 3228   6.177   4.248   2.054
 1095TIP3    H2 3229   6.295   4.276   1.964
 1096TIP3   OH2 3230   7.275   4.402   5.209
 1096TIP3    H1 3231   7.324   4.325   5.182
 1096TIP3    H2 3232   7.327   4.441   5.280
 1097TIP3   OH2 3233   6.447   5.739   0.511
 1097TIP3    H1 3234   6.521   5.783   0.469
 1097TIP3    H2 3235   6.433   5.789   0.592
 1098TIP3   OH2 3236   6.921   5.081   6.197
 1098TIP3    H1 3237   6.885   5.168   6.179
 1098TIP3    H2 3238   6.923   5.076   6.293
 1099TIP3   OH2 3239   6.821   3.791   3.065
 1099TIP3    H1 3240   6.906   3.818   3.100
 1099TIP3    H2 3241   6.765   3.784   3.141
 1100TIP3   OH2 3242   7.681   1.058   4.591
 1100TIP3    H1 3243   7.756   1.014   4.550
 1100TIP3    H2 3244   7.622   0.987   4.616
 1101TIP3   OH2 3245   7.638   0.987   2.356
 1101TIP3    H1 3246   7.601   0.923   2.295
 1101TIP3    H2 3247   7.564   1.039   2.385
 1102TIP3   OH2 3248   6.715   7.036   0.224
 1102TIP3    H1 3249   6.759   7.041   0.139
 1102TIP3    H2 3250   6.783   7.005   0.283
 1103TIP3   OH2 3251   1.734   0.215   2.582
 1103TIP3    H1 3252   1.737   0.160   2.660
 1103TIP3    H2 3253   1.818   0.200   2.539
 1104TIP3   OH2 3254   0.986   6.431   5.295
 1104TIP3    H1 3255   0.988   6.358   5.357
 1104TIP3    H2 3256   0.895   6.435   5.265
 1105TIP3   OH2 3257   5.872   5.974   5.452
 1105TIP3    H1 3258   5.835   5.949   5.367
 1105TIP3    H2 3259   5.901   6.065   5.440
 1106TIP3   OH2 3260   6.011   4.516   6.615
 1106TIP3    H1 3261   5.993   4.488   6.705
 1106TIP3    H2 3262   6.085   4.576   6.623
 1107TIP3   OH2 3263   5.503   3.721   4.534
 1107TIP3    H1 3264   5.474   3.649   4.589
 1107TIP3    H2 3265   5.451   3.714   4.454
 1108TIP3   OH2 3266   6.961   6.638   3.204
 1108TIP3    H1 3267   6.869   6.650   3.180
 1108TIP3    H2 3268   6.974   6.694   3.281
 1109TIP3   OH2 3269   0.856   2.397   6.632
 1109TIP3    H1 3270   0.901   2.331   6.579
 1109TIP3    H2 3271   0.774   2.414   6.584
 1110TIP3   OH2 3272   5.959   1.968   3.393
 1110TIP3    H1 3273   5.864   1.959   3.388
 1110TIP3    H2 3274   5.978   1.958   3.487
 1111TIP3   OH2 3275   4.975   2.378   0.485
 1111TIP3    H1 3276   4.906   2.315   0.509
 1111TIP3    H2 3277   5.053   2.345   0.529
 1112TIP3   OH2 3278   6.272   0.940   5.636
 1112TIP3    H1 3279   6.310   0.856   5.608
 1112TIP3    H2 3280   6.272   0.994   5.557
 1113TIP3   OH2 3281   5.998   2.114   2.750
 1113TIP3    H1 3282   5.906   2.094   2.765
 1113TIP3    H2 3283   5.997   2.190   2.691
 1114TIP3   OH2 3284   4.617   6.157   5.331
 1114TIP3    H1 3285   4.605   6.071   5.291
 1114TIP3    H2 3286   4.660   6.209   5.263
 1115TIP3   OH2 3287   3.346   2.465   2.922
 1115TIP3    H1 3288   3.354   2.489   3.014
 1115TIP3    H2 3289   3.344   2.549   2.876
 1116TIP3   OH2 3290   5.852   2.269   5.781
 1116TIP3    H1 3291   5.863   2.266   5.686
 1116TIP3    H2 3292   5.865   2.179   5.810
 1117TIP3   OH2 3293   7.099   5.115   5.959
 1117TIP3    H1 3294   7.074   5.060   6.033
 1117TIP3    H2 3295   7.026   5.109   5.898
 1118TIP3   OH2 3296   0.473   0.559   3.157
 1118TIP3    H1 3297   0.490   0.524   3.069
 1118TIP3    H2 3298   0.430   0.643   3.141
 1119TIP3   OH2 3299   2.350   1.563   6.080
 1119TIP3    H1 3300   2.373   1.513   6.002
 1119TIP3    H2 3301   2.411   1.637   6.080
 1120TIP3   OH2 3302   0.209   6.677   0.220
 1120TIP3    H1 3303   0.171   6.610   0.276
 1120TIP3    H2 3304   0.303   6.660   0.222
 1121TIP3   OH2 3305   5.282   5.336   3.739
 1121TIP3    H1 3306   5.226   5.339   3.661
 1121TIP3    H2 3307   5.223   5.314   3.811
 1122TIP3   OH2 3308   0.700   4.966   6.215
 1122TIP3    H1 3309   0.738   4.906   6.151
 1122TIP3    H2 3310   0.773   5.023   6.241
 1123TIP3   OH2 3311   1.868   5.272   6.212
 1123TIP3    H1 3312   1.811   5.214   6.262
 1123TIP3    H2 3313   1.827   5.358   6.219
 1124TIP3   OH2 3314   7.495   6.935   4.058
 1124TIP3    H1 3315   7.575   6.950   4.108
 1124TIP3    H2 3316   7.524   6.932   3.967
 1125TIP3   OH2 3317   5.183   2.810   2.196
 1125TIP3    H1 3318   5.112   2.762   2.238
 1125TIP3    H2 3319   5.241   2.741   2.162
 1126TIP3   OH2 3320   3.550   2.936   6.022
 1126TIP3    H1 3321   3.521   2.883   5.948
 1126TIP3    H2 3322   3.638   2.903   6.042
 1127TIP3   OH2 3323   1.993   3.371   4.466
 1127TIP3    H1 3324   2.043   3.323   4.400
 1127TIP3    H2 3325   1.922   3.311   4.490
 1128TIP3   OH2 3326   0.885   2.240   4.706
 1128TIP3    H1 3327   0.959   2.299   4.719
 1128TIP3    H2 3328   0.875   2.234   4.611
 1129TIP3   OH2 3329   6.836   0.923   5.539
 1129TIP3    H1 3330   6.803   0.853   5.483
 1129TIP3    H2 3331   6.931   0.920   5.528
 1130TIP3   OH2 3332   2.610   5.432   1.920
 1130TIP3    H1 3333   2.586   5.525   1.926
 1130TIP3    H2 3334   2.575   5.392   1.999
 1131TIP3   OH2 3335   1.269   6.544   6.113
 1131TIP3    H1 3336   1.234   6.528   6.200
 1131TIP3    H2 3337   1.252   6.636   6.096
 1132TIP3   OH2 3338   3.080   3.002   1.841
 1132TIP3    H1 3339   3.101   2.926   1.788
 1132TIP3    H2 3340   3.012   2.972   1.901
 1133TIP3   OH2 3341   2.915   4.674   4.558
 1133TIP3    H1 3342   2.936   4.760   4.523
 1133TIP3    H2 3343   2.882   4.691   4.646
 1134TIP3   OH2 3344   0.539   1.232   5.904
 1134TIP3    H1 3345   0.527   1.291   5.829
 1134TIP3    H2 3346   0.499   1.150   5.877
 1135TIP3   OH2 3347   4.023   4.279   0.536
 1135TIP3    H1 3348   4.065   4.359   0.567
 1135TIP3    H2 3349   3.977   4.245   0.613
 1136TIP3   OH2 3350   1.138   3.700   3.122
 1136TIP3    H1 3351   1.150   3.729   3.032
 1136TIP3    H2 3352   1.079   3.765   3.161
 1137TIP3   OH2 3353   5.773   2.516   2.186
 1137TIP3    H1 3354   5.764   2.451   2.116
 1137TIP3    H2 3355   5.718   2.589   2.158
 1138TIP3   OH2 3356   7.523   2.181   2.000
 1138TIP3    H1 3357   7.599   2.133   2.031
 1138TIP3    H2 3358   7.473   2.202   2.080
 1139TIP3   OH2 3359   3.773   3.760   6.229
 1139TIP3    H1 3360   3.704   3.798   6.175
 1139TIP3    H2 3361   3.804   3.832   6.283
 1140TIP3   OH2 3362   8.244   2.540   1.051
 1140TIP3    H1 3363   8.248   2.605   1.121
 1140TIP3    H2 3364   8.154   2.546   1.018
 1141TIP3   OH2 3365   1.951   4.044   5.704
 1141TIP3    H1 3366   2.037   4.024   5.668
 1141TIP3    H2 3367   1.970   4.093   5.785
 1142TIP3   OH2 3368   3.047   0.716   0.624
 1142TIP3    H1 3369   3.072   0.627   0.598
 1142TIP3    H2 3370   3.078   0.772   0.552
 1143TIP3   OH2 3371   8.286   0.781   3.475
 1143TIP3    H1 3372   8.230   0.817   3.543
 1143TIP3    H2 3373   8.250   0.817   3.393
 1144TIP3   OH2 3374   6.223   0.944   3.505
 1144TIP3    H1 3375   6.318   0.951   3.520
 1144TIP3    H2 3376   6.197   1.033   3.481
 1145TIP3   OH2 3377   6.456   4.237   1.886
 1145TIP3    H1 3378   6.432   4.248   1.794
 1145TIP3    H2 3379   6.530   4.177   1.885
 1146TIP3   OH2 3380   1.879   5.339   0.111
 1146TIP3    H1 3381   1.915   5.427   0.112
 1146TIP3    H2 3382   1.913   5.300   0.030
 1147TIP3   OH2 3383   7.602   1.848   0.661
 1147TIP3    H1 3384   7.520   1.896   0.654
 1147TIP3    H2 3385   7.668   1.909   0.630
 1148TIP3   OH2 3386   3.133   4.789   3.034
 1148TIP3    H1 3387   3.201   4.722   3.028
 1148TIP3    H2 3388   3.074   4.770   2.960
 1149TIP3   OH2 3389   0.490   5.790   3.537
 1149TIP3    H1 3390   0.491   5.855   3.467
 1149TIP3    H2 3391   0.470   5.840   3.616
 1150TIP3   OH2 3392   2.914   5.744   1.559
 1150TIP3    H1 3393   2.948   5.694   1.484
 1150TIP3    H2 3394   2.859   5.811   1.520
 1151TIP3   OH2 3395   7.164   0.078   0.830
 1151TIP3    H1 3396   7.215   0.052   0.753
 1151TIP3    H2 3397   7.137  -0.005   0.870
 1152TIP3   OH2 3398   8.104   4.183   0.675
 1152TIP3    H1 3399   8.158   4.120   0.723
 1152TIP3    H2 3400   8.148   4.193   0.591
 1153TIP3   OH2 3401   3.781   1.192   6.276
 1153TIP3    H1 3402   3.692   1.228   6.281
 1153TIP3    H2 3403   3.837   1.267   6.258
 1154TIP3   OH2 3404   2.251   1.220   4.267
 1154TIP3    H1 3405   2.211   1.306   4.265
 1154TIP3    H2 3406   2.256   1.193   4.176
 1155TIP3   OH2 3407   6.715   4.164   1.589
 1155TIP3    H1 3408   6.665   4.238   1.555
 1155TIP3    H2 3409   6.803   4.198   1.601
 1156TIP3   OH2 3410   3.161   1.468   6.090
 1156TIP3    H1 3411   3.146   1.400   6.025
 1156TIP3    H2 3412   3.083   1.522   6.087
 1157TIP3   OH2 3413   6.658   6.017   4.494
 1157TIP3    H1 3414   6.689   6.009   4.403
 1157TIP3    H2 3415   6.592   5.948   4.503
 1158TIP3   OH2 3416   4.609   1.442  -0.001
 1158TIP3    H1 3417   4.584   1.489   0.079
 1158TIP3    H2 3418   4.646   1.510  -0.057
 1159TIP3   OH2 3419   3.825   0.045   6.082
 1159TIP3    H1 3420   3.770   0.066   6.158
 1159TIP3    H2 3421   3.764   0.014   6.015
 1160TIP3   OH2 3422   6.181   0.124   2.247
 1160TIP3    H1 3423   6.209   0.185   2.315
 1160TIP3    H2 3424   6.194   0.038   2.286
 1161TIP3   OH2 3425   0.326   1.016   5.100
 1161TIP3    H1 3426   0.408   1.059   5.076
 1161TIP3    H2 3427   0.312   1.041   5.192
 1162TIP3   OH2 3428   2.373   0.340   4.275
 1162TIP3    H1 3429   2.436   0.409   4.257
 1162TIP3    H2 3430   2.421   0.259   4.259
 1163TIP3   OH2 3431   4.465   0.972   3.053
 1163TIP3    H1 3432   4.510   1.035   2.996
 1163TIP3    H2 3433   4.423   0.911   2.992
 1164TIP3   OH2 3434   1.394   3.459   6.152
 1164TIP3    H1 3435   1.406   3.554   6.147
 1164TIP3    H2 3436   1.317   3.448   6.208
 1165TIP3   OH2 3437   3.718   0.390   4.237
 1165TIP3    H1 3438   3.625   0.384   4.217
 1165TIP3    H2 3439   3.735   0.484   4.244
 1166TIP3   OH2 3440   5.258   5.142   1.150
 1166TIP3    H1 3441   5.304   5.074   1.100
 1166TIP3    H2 3442   5.206   5.093   1.214
 1167TIP3   OH2 3443   1.626   7.549   5.009
 1167TIP3    H1 3444   1.607   7.528   5.100
 1167TIP3    H2 3445   1.720   7.565   5.007
 1168TIP3   OH2 3446   3.998   3.621   6.530
 1168TIP3    H1 3447   4.019   3.528   6.530
 1168TIP3    H2 3448   4.064   3.661   6.585
 1169TIP3   OH2 3449   7.683   4.261   0.726
 1169TIP3    H1 3450   7.722   4.261   0.813
 1169TIP3    H2 3451   7.654   4.351   0.712
 1170TIP3   OH2 3452   7.329   1.775   6.394
 1170TIP3    H1 3453   7.396   1.707   6.399
 1170TIP3    H2 3454   7.378   1.857   6.396
 1171TIP3   OH2 3455   5.790   1.563   4.342
 1171TIP3    H1 3456   5.812   1.655   4.357
 1171TIP3    H2 3457   5.695   1.558   4.355
 1172TIP3   OH2 3458   6.359   4.523   0.903
 1172TIP3    H1 3459   6.270   4.525   0.939
 1172TIP3    H2 3460   6.395   4.439   0.931
 1173TIP3   OH2 3461   6.725   5.378   1.059
 1173TIP3    H1 3462   6.816   5.362   1.034
 1173TIP3    H2 3463   6.694   5.294   1.093
 1174TIP3   OH2 3464   7.291   2.149   3.440
 1174TIP3    H1 3465   7.377   2.125   3.405
 1174TIP3    H2 3466   7.310   2.197   3.520
 1175TIP3   OH2 3467   6.913   4.042   3.956
 1175TIP3    H1 3468   6.954   4.025   4.040
 1175TIP3    H2 3469   6.874   4.129   3.965
 1176TIP3   OH2 3470   5.995   6.884   0.352
 1176TIP3    H1 3471   5.949   6.931   0.283
 1176TIP3    H2 3472   6.006   6.948   0.422
 1177TIP3   OH2 3473   4.844   7.479   5.731
 1177TIP3    H1 3474   4.932   7.497   5.765
 1177TIP3    H2 3475   4.801   7.433   5.803
 1178TIP3   OH2 3476   2.914   0.306   3.742
 1178TIP3    H1 3477   2.941   0.273   3.656
 1178TIP3    H2 3478   2.855   0.240   3.776
 1179TIP3   OH2 3479   6.023   3.929   5.416
 1179TIP3    H1 3480   6.068   3.925   5.332
 1179TIP3    H2 3481   6.002   3.838   5.436
 1180TIP3   OH2 3482   7.760   3.019   6.667
 1180TIP3    H1 3483   7.841   2.986   6.627
 1180TIP3    H2 3484   7.698   3.027   6.595
 1181TIP3   OH2 3485   7.590   5.354   0.964
 1181TIP3    H1 3486   7.558   5.309   1.042
 1181TIP3    H2 3487   7.597   5.285   0.898
 1182TIP3   OH2 3488   0.630   4.310   3.085
 1182TIP3    H1 3489   0.564   4.241   3.086
 1182TIP3    H2 3490   0.650   4.322   2.992
 1183TIP3   OH2 3491   0.231   1.274   6.406
 1183TIP3    H1 3492   0.211   1.205   6.469
 1183TIP3    H2 3493   0.222   1.355   6.457
 1184TIP3   OH2 3494   0.848   5.110   6.634
 1184TIP3    H1 3495   0.916   5.048   6.659
 1184TIP3    H2 3496   0.881   5.195   6.660
 1185TIP3   OH2 3497   0.469   3.397   5.296
 1185TIP3    H1 3498   0.394   3.382   5.238
 1185TIP3    H2 3499   0.543   3.358   5.249
 1186TIP3   OH2 3500   1.544   0.627   0.169
 1186TIP3    H1 3501   1.639   0.614   0.171
 1186TIP3    H2 3502   1.533   0.719   0.145
 1187TIP3   OH2 3503   6.435   3.142   0.313
 1187TIP3    H1 3504   6.516   3.146   0.262
 1187TIP3    H2 3505   6.379   3.081   0.264
 1188TIP3   OH2 3506   1.557   4.240   2.462
 1188TIP3    H1 3507   1.573   4.213   2.372
 1188TIP3    H2 3508   1.510   4.167   2.502
 1189TIP3   OH2 3509   5.724   2.659   0.682
 1189TIP3    H1 3510   5.789   2.675   0.613
 1189TIP3    H2 3511   5.774   2.623   0.754
 1190TIP3   OH2 3512   1.124   1.921  -0.016
 1190TIP3    H1 3513   1.139   1.898   0.076
 1190TIP3    H2 3514   1.070   2.000  -0.013
 1191TIP3   OH2 3515   1.723   7.125   3.465
 1191TIP3    H1 3516   1.651   7.179   3.431
 1191TIP3    H2 3517   1.796   7.186   3.473
 1192TIP3   OH2 3518   4.555   2.277   6.086
 1192TIP3    H1 3519   4.605   2.195   6.092
 1192TIP3    H2 3520   4.478   2.254   6.034
 1193TIP3   OH2 3521   2.915   3.656   3.458
 1193TIP3    H1 3522   2.946   3.595   3.392
 1193TIP3    H2 3523   2.990   3.671   3.515
 1194TIP3   OH2 3524   0.031   2.239   4.803
 1194TIP3    H1 3525   0.083   2.167   4.766
 1194TIP3    H2 3526   0.053   2.239   4.897
 1195TIP3   OH2 3527   2.564   4.053   2.786
 1195TIP3    H1 3528   2.613   4.107   2.848
 1195TIP3    H2 3529   2.563   4.104   2.705
 1196TIP3   OH2 3530   2.781   0.751   2.190
 1196TIP3    H1 3531   2.692   0.787   2.189
 1196TIP3    H2 3532   2.815   0.769   2.102
 1197TIP3   OH2 3533   7.324   4.520   0.156
 1197TIP3    H1 3534   7.237   4.489   0.181
 1197TIP3    H2 3535   7.309   4.608   0.121
 1198TIP3   OH2 3536   5.348   0.437   1.010
 1198TIP3    H1 3537   5.397   0.454   1.090
 1198TIP3    H2 3538   5.400   0.372   0.963
 1199TIP3   OH2 3539   4.054   1.697   3.648
 1199TIP3    H1 3540   4.058   1.662   3.737
 1199TIP3    H2 3541   4.143   1.730   3.631
 1200TIP3   OH2 3542   2.356   0.561   1.796
 1200TIP3    H1 3543   2.308   0.528   1.872
 1200TIP3    H2 3544   2.296   0.624   1.757
 1201TIP3   OH2 3545   4.869   1.888   4.773
 1201TIP3    H1 3546   4.828   1.952   4.714
 1201TIP3    H2 3547   4.806   1.817   4.779
 1202TIP3   OH2 3548   3.217   5.242   4.542
 1202TIP3    H1 3549   3.282   5.259   4.611
 1202TIP3    H2 3550   3.268   5.244   4.461
 1203TIP3   OH2 3551   3.051   0.395   1.472
 1203TIP3    H1 3552   3.118   0.457   1.501
 1203TIP3    H2 3553   2.969   0.432   1.504
 1204TIP3   OH2 3554   5.373   4.971   5.776
 1204TIP3    H1 3555   5.356   4.881   5.803
 1204TIP3    H2 3556   5.326   5.025   5.840
 1205TIP3   OH2 3557   2.426   6.484   5.179
 1205TIP3    H1 3558   2.483   6.560   5.165
 1205TIP3    H2 3559   2.352   6.499   5.121
 1206TIP3   OH2 3560   3.544   1.113   5.484
 1206TIP3    H1 3561   3.591   1.091   5.565
 1206TIP3    H2 3562   3.452   1.116   5.510
 1207TIP3   OH2 3563   7.757   3.754   4.007
 1207TIP3    H1 3564   7.719   3.737   3.921
 1207TIP3    H2 3565   7.682   3.767   4.065
 1208TIP3   OH2 3566   0.331   5.031   1.082
 1208TIP3    H1 3567   0.296   5.120   1.087
 1208TIP3    H2 3568   0.390   5.033   1.007
 1209TIP3   OH2 3569   3.240   5.836   3.773
 1209TIP3    H1 3570   3.154   5.857   3.810
 1209TIP3    H2 3571   3.270   5.761   3.823
 1210TIP3   OH2 3572   5.085   5.944   4.110
 1210TIP3    H1 3573   5.088   5.865   4.057
 1210TIP3    H2 3574   5.163   5.938   4.166
 1211TIP3   OH2 3575   4.208   3.447   6.704
 1211TIP3    H1 3576   4.273   3.394   6.658
 1211TIP3    H2 3577   4.212   3.532   6.661
 1212TIP3   OH2 3578   2.516   4.778   1.237
 1212TIP3    H1 3579   2.430   4.753   1.270
 1212TIP3    H2 3580   2.551   4.838   1.303
 1213TIP3   OH2 3581   3.667   7.559   0.119
 1213TIP3    H1 3582   3.619   7.561   0.037
 1213TIP3    H2 3583   3.756   7.536   0.095
 1214TIP3   OH2 3584   7.969   7.408   3.236
 1214TIP3    H1 3585   8.002   7.427   3.148
 1214TIP3    H2 3586   7.875   7.391   3.222
 1215TIP3   OH2 3587   0.489   0.402   6.467
 1215TIP3    H1 3588   0.531   0.316   6.470
 1215TIP3    H2 3589   0.532   0.447   6.394
 1216TIP3   OH2 3590   3.467   4.702   1.826
 1216TIP3    H1 3591   3.560   4.722   1.838
 1216TIP3    H2 3592   3.466   4.629   1.764
 1217TIP3   OH2 3593   0.739   5.376   1.713
 1217TIP3    H1 3594   0.791   5.398   1.635
 1217TIP3    H2 3595   0.775   5.432   1.781
 1218TIP3   OH2 3596   5.715   2.188   2.502
 1218TIP3    H1 3597   5.715   2.133   2.581
 1218TIP3    H2 3598   5.802   2.228   2.501
 1219TIP3   OH2 3599   8.038   1.138   0.694
 1219TIP3    H1 3600   8.090   1.108   0.620
 1219TIP3    H2 3601   8.018   1.058   0.743
 1220TIP3   OH2 3602   6.056   5.421   1.906
 1220TIP3    H1 3603   5.966   5.455   1.903
 1220TIP3    H2 3604   6.106   5.490   1.950
 1221TIP3   OH2 3605   6.089   5.532   5.659
 1221TIP3    H1 3606   6.045   5.453   5.629
 1221TIP3    H2 3607   6.036   5.561   5.733
 1222TIP3   OH2 3608   0.744   7.283   5.915
 1222TIP3    H1 3609   0.697   7.339   5.853
 1222TIP3    H2 3610   0.730   7.194   5.882
 1223TIP3   OH2 3611   7.073   2.186   4.416
 1223TIP3    H1 3612   7.016   2.123   4.459
 1223TIP3    H2 3613   7.139   2.133   4.371
 1224TIP3   OH2 3614   6.496   6.210   4.594
 1224TIP3    H1 3615   6.555   6.148   4.551
 1224TIP3    H2 3616   6.485   6.174   4.682
 1225TIP3   OH2 3617   4.018   1.868   1.825
 1225TIP3    H1 3618   3.931   1.849   1.862
 1225TIP3    H2 3619   4.000   1.928   1.753
 1226TIP3   OH2 3620   3.358   6.112   3.925
 1226TIP3    H1 3621   3.425   6.066   3.976
 1226TIP3    H2 3622   3.276   6.070   3.953
 1227TIP3   OH2 3623   0.035   5.931   2.261
 1227TIP3    H1 3624  -0.052   5.963   2.287
 1227TIP3    H2 3625   0.023   5.837   2.252
 1228TIP3   OH2 3626   7.454   2.613   4.229
 1228TIP3    H1 3627   7.417   2.624   4.317
 1228TIP3    H2 3628   7.532   2.669   4.229
 1229TIP3   OH2 3629   5.996   1.590   5.589
 1229TIP3    H1 3630   5.903   1.593   5.608
 1229TIP3    H2 3631   6.010   1.659   5.524
 1230TIP3   OH2 3632   3.205   1.998   6.532
 1230TIP3    H1 3633   3.264   2.072   6.521
 1230TIP3    H2 3634   3.261   1.927   6.563
 1231TIP3   OH2 3635   7.727   3.236   1.586
 1231TIP3    H1 3636   7.718   3.300   1.657
 1231TIP3    H2 3637   7.646   3.186   1.587
 1232TIP3   OH2 3638   1.501   4.910   0.105
 1232TIP3    H1 3639   1.551   4.962   0.042
 1232TIP3    H2 3640   1.526   4.819   0.087
 1233TIP3   OH2 3641   0.820   2.250   1.842
 1233TIP3    H1 3642   0.903   2.223   1.802
 1233TIP3    H2 3643   0.779   2.168   1.871
 1234TIP3   OH2 3644   4.620   4.553   0.595
 1234TIP3    H1 3645   4.707   4.532   0.627
 1234TIP3    H2 3646   4.561   4.496   0.645
 1235TIP3   OH2 3647   5.064   4.983   1.360
 1235TIP3    H1 3648   5.105   4.905   1.323
 1235TIP3    H2 3649   5.086   4.980   1.453
 1236TIP3   OH2 3650   6.709   2.598   6.650
 1236TIP3    H1 3651   6.756   2.613   6.568
 1236TIP3    H2 3652   6.737   2.670   6.707
 1237TIP3   OH2 3653   4.642   5.275   0.222
 1237TIP3    H1 3654   4.701   5.243   0.154
 1237TIP3    H2 3655   4.625   5.199   0.277
 1238TIP3   OH2 3656   1.687   4.670   0.833
 1238TIP3    H1 3657   1.757   4.733   0.814
 1238TIP3    H2 3658   1.614   4.698   0.777
 1239TIP3   OH2 3659   1.455   3.044   4.704
 1239TIP3    H1 3660   1.469   3.026   4.611
 1239TIP3    H2 3661   1.441   3.138   4.709
 1240TIP3   OH2 3662   0.500   4.570   5.016
 1240TIP3    H1 3663   0.489   4.574   4.920
 1240TIP3    H2 3664   0.444   4.640   5.049
 1241TIP3   OH2 3665   6.556   1.963   6.122
 1241TIP3    H1 3666   6.498   1.920   6.184
 1241TIP3    H2 3667   6.599   2.031   6.173
 1242TIP3   OH2 3668   3.534   3.614   6.666
 1242TIP3    H1 3669   3.454   3.583   6.708
 1242TIP3    H2 3670   3.563   3.541   6.612
 1243TIP3   OH2 3671   2.385   1.407   0.725
 1243TIP3    H1 3672   2.454   1.370   0.669
 1243TIP3    H2 3673   2.323   1.336   0.738
 1244TIP3   OH2 3674   3.487   1.792   3.027
 1244TIP3    H1 3675   3.468   1.710   2.980
 1244TIP3    H2 3676   3.429   1.856   2.987
 1245TIP3   OH2 3677   3.620   5.617   4.942
 1245TIP3    H1 3678   3.624   5.595   4.849
 1245TIP3    H2 3679   3.543   5.672   4.952
 1246TIP3   OH2 3680   3.096   5.808   3.156
 1246TIP3    H1 3681   3.158   5.802   3.229
 1246TIP3    H2 3682   3.149   5.832   3.081
 1247TIP3   OH2 3683   0.366   2.949   0.513
 1247TIP3    H1 3684   0.433   2.936   0.580
 1247TIP3    H2 3685   0.372   2.871   0.458
 1248TIP3   OH2 3686   7.807   6.330   3.010
 1248TIP3    H1 3687   7.815   6.258   2.948
 1248TIP3    H2 3688   7.715   6.329   3.036
 1249TIP3   OH2 3689   0.536   7.312  -0.006
 1249TIP3    H1 3690   0.458   7.257  -0.014
 1249TIP3    H2 3691   0.569   7.293   0.082
 1250TIP3   OH2 3692   8.074   0.273   3.476
 1250TIP3    H1 3693   8.141   0.206   3.468
 1250TIP3    H2 3694   8.015   0.240   3.544
 1251TIP3   OH2 3695   8.229   3.279   1.100
 1251TIP3    H1 3696   8.292   3.325   1.155
 1251TIP3    H2 3697   8.146   3.325   1.115
 1252TIP3   OH2 3698   1.883   2.113   2.835
 1252TIP3    H1 3699   1.818   2.173   2.800
 1252TIP3    H2 3700   1.835   2.060   2.898
 1253TIP3   OH2 3701   6.462   5.202   6.502
 1253TIP3    H1 3702   6.482   5.108   6.505
 1253TIP3    H2 3703   6.393   5.214   6.567
 1254TIP3   OH2 3704   7.963   3.354   1.131
 1254TIP3    H1 3705   7.893   3.318   1.077
 1254TIP3    H2 3706   7.941   3.329   1.220
 1255TIP3   OH2 3707   4.311   4.985   5.175
 1255TIP3    H1 3708   4.301   4.998   5.081
 1255TIP3    H2 3709   4.239   5.034   5.214
 1256TIP3   OH2 3710   3.028   0.432   4.308
 1256TIP3    H1 3711   2.980   0.355   4.278
 1256TIP3    H2 3712   3.055   0.476   4.227
 1257TIP3   OH2 3713   6.135   2.322   1.952
 1257TIP3    H1 3714   6.164   2.239   1.913
 1257TIP3    H2 3715   6.047   2.335   1.919
 1258TIP3   OH2 3716   0.549   3.358   3.243
 1258TIP3    H1 3717   0.538   3.440   3.195
 1258TIP3    H2 3718   0.638   3.330   3.221
 1259TIP3   OH2 3719   0.298   1.463   0.298
 1259TIP3    H1 3720   0.313   1.371   0.276
 1259TIP3    H2 3721   0.299   1.508   0.213
 1260TIP3   OH2 3722   0.989   6.520   4.366
 1260TIP3    H1 3723   0.945   6.438   4.387
 1260TIP3    H2 3724   1.081   6.495   4.354
 1261TIP3   OH2 3725   4.152   0.233   0.467
 1261TIP3    H1 3726   4.083   0.167   0.465
 1261TIP3    H2 3727   4.184   0.237   0.377
 1262TIP3   OH2 3728   4.827   0.543   4.617
 1262TIP3    H1 3729   4.887   0.567   4.547
 1262TIP3    H2 3730   4.880   0.549   4.697
 1263TIP3   OH2 3731   5.731   0.672   2.450
 1263TIP3    H1 3732   5.790   0.737   2.412
 1263TIP3    H2 3733   5.750   0.592   2.403
 1264TIP3   OH2 3734   4.203   7.520   3.270
 1264TIP3    H1 3735   4.145   7.461   3.319
 1264TIP3    H2 3736   4.162   7.529   3.184
 1265TIP3   OH2 3737   6.709   2.039   1.850
 1265TIP3    H1 3738   6.792   1.996   1.868
 1265TIP3    H2 3739   6.711   2.118   1.905
 1266TIP3   OH2 3740   3.988   4.157   6.193
 1266TIP3    H1 3741   3.943   4.162   6.277
 1266TIP3    H2 3742   3.949   4.228   6.141
 1267TIP3   OH2 3743   5.749   1.711   6.701
 1267TIP3    H1 3744   5.789   1.721   6.614
 1267TIP3    H2 3745   5.702   1.628   6.697
 1268TIP3   OH2 3746   0.980   0.680   2.690
 1268TIP3    H1 3747   0.948   0.765   2.661
 1268TIP3    H2 3748   1.069   0.674   2.655
 1269TIP3   OH2 3749   0.780   4.653   5.088
 1269TIP3    H1 3750   0.708   4.590   5.088
 1269TIP3    H2 3751   0.858   4.600   5.108
 1270TIP3   OH2 3752   4.513   2.906   2.342
 1270TIP3    H1 3753   4.427   2.864   2.352
 1270TIP3    H2 3754   4.574   2.833   2.335
 1271TIP3   OH2 3755   1.747   6.604   3.994
 1271TIP3    H1 3756   1.681   6.554   3.945
 1271TIP3    H2 3757   1.823   6.605   3.936
 1272TIP3   OH2 3758   4.361   0.055   0.175
 1272TIP3    H1 3759   4.405  -0.026   0.202
 1272TIP3    H2 3760   4.274   0.026   0.148
 1273TIP3   OH2 3761   0.393   4.546   2.826
 1273TIP3    H1 3762   0.331   4.508   2.889
 1273TIP3    H2 3763   0.460   4.479   2.814
 1274TIP3   OH2 3764   7.570   1.665   3.982
 1274TIP3    H1 3765   7.541   1.756   3.988
 1274TIP3    H2 3766   7.663   1.668   4.006
 1275TIP3   OH2 3767   6.380   7.236   4.645
 1275TIP3    H1 3768   6.466   7.206   4.675
 1275TIP3    H2 3769   6.398   7.315   4.594
 1276TIP3   OH2 3770   3.462   2.515   4.610
 1276TIP3    H1 3771   3.498   2.550   4.691
 1276TIP3    H2 3772   3.427   2.592   4.564
 1277TIP3   OH2 3773   7.785   4.348   4.127
 1277TIP3    H1 3774   7.812   4.380   4.214
 1277TIP3    H2 3775   7.776   4.428   4.075
 1278TIP3   OH2 3776   4.524   5.099   0.420
 1278TIP3    H1 3777   4.583   5.023   0.416
 1278TIP3    H2 3778   4.440   5.064   0.391
 1279TIP3   OH2 3779   7.253   3.036   4.255
 1279TIP3    H1 3780   7.319   2.979   4.294
 1279TIP3    H2 3781   7.172   3.014   4.302
 1280TIP3   OH2 3782   4.237   6.473   1.983
 1280TIP3    H1 3783   4.168   6.533   1.953
 1280TIP3    H2 3784   4.242   6.406   1.915
 1281TIP3   OH2 3785   3.569   0.008   3.400
 1281TIP3    H1 3786   3.516   0.049   3.468
 1281TIP3    H2 3787   3.558   0.065   3.324
 1282TIP3   OH2 3788   6.067   4.936   0.592
 1282TIP3    H1 3789   5.984   4.925   0.639
 1282TIP3    H2 3790   6.045   4.917   0.500
 1283TIP3   OH2 3791   0.078   4.752   2.098
 1283TIP3    H1 3792   0.002   4.708   2.061
 1283TIP3    H2 3793   0.152   4.722   2.045
 1284TIP3   OH2 3794   3.313   3.026   5.418
 1284TIP3    H1 3795   3.296   3.004   5.509
 1284TIP3    H2 3796   3.393   3.080   5.421
 1285TIP3   OH2 3797   4.704   3.124   5.681
 1285TIP3    H1 3798   4.646   3.082   5.744
 1285TIP3    H2 3799   4.672   3.094   5.596
 1286TIP3   OH2 3800   3.931   2.383   0.150
 1286TIP3    H1 3801   3.976   2.441   0.211
 1286TIP3    H2 3802   4.001   2.345   0.097
 1287TIP3   OH2 3803   5.080   5.780   0.779
 1287TIP3    H1 3804   5.052   5.824   0.859
 1287TIP3    H2 3805   5.058   5.688   0.793
 1288TIP3   OH2 3806   4.169   6.788   4.550
 1288TIP3    H1 3807   4.166   6.812   4.457
 1288TIP3    H2 3808   4.080   6.800   4.581
 1289TIP3   OH2 3809   7.047   6.018   6.141
 1289TIP3    H1 3810   7.054   6.033   6.235
 1289TIP3    H2 3811   7.138   6.004   6.112
 1290TIP3   OH2 3812   3.511   6.475   0.235
 1290TIP3    H1 3813   3.587   6.533   0.236
 1290TIP3    H2 3814   3.544   6.392   0.270
 1291TIP3   OH2 3815   1.306   7.520   0.565
 1291TIP3    H1 3816   1.236   7.579   0.590
 1291TIP3    H2 3817   1.295   7.444   0.623
 1292TIP3   OH2 3818   6.750   1.745   0.440
 1292TIP3    H1 3819   6.671   1.692   0.455
 1292TIP3    H2 3820   6.811   1.716   0.508
 1293TIP3   OH2 3821   0.487   0.699   1.096
 1293TIP3    H1 3822   0.430   0.767   1.058
 1293TIP3    H2 3823   0.556   0.748   1.140
 1294TIP3   OH2 3824   6.828   2.978   3.732
 1294TIP3    H1 3825   6.881   3.002   3.808
 1294TIP3    H2 3826   6.892   2.950   3.667
 1295TIP3   OH2 3827   2.588   5.162   1.143
 1295TIP3    H1 3828   2.573   5.103   1.217
 1295TIP3    H2 3829   2.502   5.168   1.100
 1296TIP3   OH2 3830   2.483   7.285   3.564
 1296TIP3    H1 3831   2.528   7.231   3.630
 1296TIP3    H2 3832   2.514   7.250   3.481
 1297TIP3   OH2 3833   3.257   6.462   4.403
 1297TIP3    H1 3834   3.341   6.508   4.408
 1297TIP3    H2 3835   3.237   6.440   4.494
 1298TIP3   OH2 3836   2.566   2.297   4.584
 1298TIP3    H1 3837   2.623   2.221   4.570
 1298TIP3    H2 3838   2.626   2.372   4.586
 1299TIP3   OH2 3839   4.783   1.794   4.275
 1299TIP3    H1 3840   4.725   1.864   4.245
 1299TIP3    H2 3841   4.865   1.839   4.296
 1300TIP3   OH2 3842   1.131   4.290   0.778
 1300TIP3    H1 3843   1.165   4.355   0.840
 1300TIP3    H2 3844   1.068   4.339   0.725
 1301TIP3   OH2 3845   7.524   0.111   3.519
 1301TIP3    H1 3846   7.584   0.184   3.531
 1301TIP3    H2 3847   7.515   0.072   3.606
 1302TIP3   OH2 3848   0.707   7.123   0.271
 1302TIP3    H1 3849   0.718   7.205   0.223
 1302TIP3    H2 3850   0.738   7.142   0.360
 1303TIP3   OH2 3851   1.369   1.775   4.793
 1303TIP3    H1 3852   1.434   1.764   4.863
 1303TIP3    H2 3853   1.352   1.685   4.763
 1304TIP3   OH2 3854   6.092   6.882   3.877
 1304TIP3    H1 3855   6.125   6.868   3.966
 1304TIP3    H2 3856   6.083   6.977   3.870
 1305TIP3   OH2 3857   0.967   6.416   4.958
 1305TIP3    H1 3858   0.944   6.447   5.046
 1305TIP3    H2 3859   0.943   6.323   4.958
 1306TIP3   OH2 3860   2.639   4.981   4.810
 1306TIP3    H1 3861   2.643   5.072   4.841
 1306TIP3    H2 3862   2.553   4.950   4.838
 1307TIP3   OH2 3863   6.148   7.448   6.388
 1307TIP3    H1 3864   6.101   7.497   6.320
 1307TIP3    H2 3865   6.096   7.460   6.467
 1308TIP3   OH2 3866   6.169   0.135   3.416
 1308TIP3    H1 3867   6.156   0.054   3.465
 1308TIP3    H2 3868   6.086   0.151   3.372
 1309TIP3   OH2 3869   4.864   5.027   6.491
 1309TIP3    H1 3870   4.897   5.061   6.409
 1309TIP3    H2 3871   4.892   5.091   6.557
 1310TIP3   OH2 3872   1.683   2.336   5.003
 1310TIP3    H1 3873   1.648   2.379   5.081
 1310TIP3    H2 3874   1.738   2.266   5.036
 1311TIP3   OH2 3875   3.530   1.917   3.733
 1311TIP3    H1 3876   3.452   1.915   3.677
 1311TIP3    H2 3877   3.497   1.903   3.821
 1312TIP3   OH2 3878   3.587   5.663   6.661
 1312TIP3    H1 3879   3.647   5.626   6.726
 1312TIP3    H2 3880   3.512   5.603   6.661
 1313TIP3   OH2 3881   5.816   5.856   4.129
 1313TIP3    H1 3882   5.762   5.806   4.190
 1313TIP3    H2 3883   5.903   5.816   4.136
 1314TIP3   OH2 3884   6.503   2.969   5.735
 1314TIP3    H1 3885   6.552   2.907   5.789
 1314TIP3    H2 3886   6.507   2.932   5.647
 1315TIP3   OH2 3887   5.497   5.320   0.404
 1315TIP3    H1 3888   5.515   5.370   0.325
 1315TIP3    H2 3889   5.561   5.352   0.468
 1316TIP3   OH2 3890   5.575   5.935   3.788
 1316TIP3    H1 3891   5.585   5.872   3.860
 1316TIP3    H2 3892   5.486   5.970   3.799
 1317TIP3   OH2 3893   0.349   1.255   2.854
 1317TIP3    H1 3894   0.429   1.276   2.903
 1317TIP3    H2 3895   0.362   1.164   2.827
 1318TIP3   OH2 3896   6.393   6.227   3.463
 1318TIP3    H1 3897   6.376   6.151   3.519
 1318TIP3    H2 3898   6.310   6.275   3.463
 1319TIP3   OH2 3899   2.153   7.048   3.625
 1319TIP3    H1 3900   2.108   7.021   3.546
 1319TIP3    H2 3901   2.084   7.079   3.684
 1320TIP3   OH2 3902   7.598   0.939   5.393
 1320TIP3    H1 3903   7.620   0.939   5.300
 1320TIP3    H2 3904   7.585   0.846   5.413
 1321TIP3   OH2 3905   3.178   3.604   2.724
 1321TIP3    H1 3906   3.196   3.677   2.665
 1321TIP3    H2 3907   3.258   3.551   2.722
 1322TIP3   OH2 3908   0.528   4.562   1.956
 1322TIP3    H1 3909   0.521   4.505   2.032
 1322TIP3    H2 3910   0.547   4.503   1.883
 1323TIP3   OH2 3911   3.077   6.900   0.889
 1323TIP3    H1 3912   3.097   6.993   0.899
 1323TIP3    H2 3913   2.985   6.898   0.860
 1324TIP3   OH2 3914   5.556   3.366   2.078
 1324TIP3    H1 3915   5.534   3.278   2.108
 1324TIP3    H2 3916   5.475   3.416   2.084
 1325TIP3   OH2 3917   5.141   7.494   4.532
 1325TIP3    H1 3918   5.178   7.428   4.590
 1325TIP3    H2 3919   5.054   7.462   4.511
 1326TIP3   OH2 3920   4.062   5.944   2.867
 1326TIP3    H1 3921   4.027   5.879   2.928
 1326TIP3    H2 3922   4.058   6.026   2.915
 1327TIP3   OH2 3923   3.511   3.182   1.500
 1327TIP3    H1 3924   3.514   3.255   1.438
 1327TIP3    H2 3925   3.421   3.150   1.496
 1328TIP3   OH2 3926   0.988   0.153   0.162
 1328TIP3    H1 3927   1.012   0.243   0.182
 1328TIP3    H2 3928   1.041   0.131   0.085
 1329TIP3   OH2 3929   7.942   4.520   1.785
 1329TIP3    H1 3930   7.943   4.560   1.698
 1329TIP3    H2 3931   7.880   4.572   1.836
 1330TIP3   OH2 3932   5.322   2.933   0.087
 1330TIP3    H1 3933   5.234   2.969   0.096
 1330TIP3    H2 3934   5.378   3.010   0.071
 1331TIP3   OH2 3935   2.135   4.238   0.179
 1331TIP3    H1 3936   2.162   4.216   0.268
 1331TIP3    H2 3937   2.212   4.281   0.141
 1332TIP3   OH2 3938   2.322   6.404   4.785
 1332TIP3    H1 3939   2.249   6.349   4.813
 1332TIP3    H2 3940   2.281   6.479   4.741
 1333TIP3   OH2 3941   5.089   2.880   0.710
 1333TIP3    H1 3942   5.096   2.786   0.695
 1333TIP3    H2 3943   5.087   2.889   0.805
 1334TIP3   OH2 3944   2.471   4.040   5.357
 1334TIP3    H1 3945   2.560   4.073   5.355
 1334TIP3    H2 3946   2.480   3.948   5.385
 1335TIP3   OH2 3947   0.767   1.889   2.194
 1335TIP3    H1 3948   0.829   1.824   2.160
 1335TIP3    H2 3949   0.789   1.896   2.287
 1336TIP3   OH2 3950   6.105   5.520   2.836
 1336TIP3    H1 3951   6.019   5.524   2.793
 1336TIP3    H2 3952   6.168   5.513   2.764
 1337TIP3   OH2 3953   1.934   7.112   3.762
 1337TIP3    H1 3954   1.938   7.097   3.857
 1337TIP3    H2 3955   1.888   7.196   3.754
 1338TIP3   OH2 3956   2.427   0.708   6.074
 1338TIP3    H1 3957   2.506   0.752   6.042
 1338TIP3    H2 3958   2.460   0.630   6.118
 1339TIP3   OH2 3959   6.723   5.463   4.736
 1339TIP3    H1 3960   6.658   5.521   4.776
 1339TIP3    H2 3961   6.673   5.389   4.702
 1340TIP3   OH2 3962   4.872   6.102   6.125
 1340TIP3    H1 3963   4.813   6.088   6.052
 1340TIP3    H2 3964   4.815   6.123   6.199
 1341TIP3   OH2 3965   5.825   6.875   3.998
 1341TIP3    H1 3966   5.900   6.886   3.939
 1341TIP3    H2 3967   5.845   6.932   4.072
 1342TIP3   OH2 3968   6.959   4.058   6.574
 1342TIP3    H1 3969   6.956   4.126   6.506
 1342TIP3    H2 3970   6.938   3.977   6.528
 1343TIP3   OH2 3971   0.063   6.636   4.937
 1343TIP3    H1 3972   0.074   6.662   5.029
 1343TIP3    H2 3973   0.144   6.664   4.894
 1344TIP3   OH2 3974   2.791   7.314   3.209
 1344TIP3    H1 3975   2.718   7.336   3.151
 1344TIP3    H2 3976   2.793   7.385   3.273
 1345TIP3   OH2 3977   4.531   0.040   5.827
 1345TIP3    H1 3978   4.595  -0.024   5.857
 1345TIP3    H2 3979   4.526   0.028   5.732
 1346TIP3   OH2 3980   3.852   1.113   2.566
 1346TIP3    H1 3981   3.854   1.018   2.565
 1346TIP3    H2 3982   3.801   1.137   2.489
 1347TIP3   OH2 3983   6.092   2.708   3.398
 1347TIP3    H1 3984   6.155   2.693   3.469
 1347TIP3    H2 3985   6.038   2.629   3.396
 1348TIP3   OH2 3986   0.963   5.005   3.267
 1348TIP3    H1 3987   0.941   4.961   3.348
 1348TIP3    H2 3988   0.883   5.002   3.215
 1349TIP3   OH2 3989   0.965   7.352   2.654
 1349TIP3    H1 3990   1.024   7.278   2.650
 1349TIP3    H2 3991   0.993   7.411   2.584
 1350TIP3   OH2 3992   3.039   3.258   5.086
 1350TIP3    H1 3993   2.952   3.224   5.065
 1350TIP3    H2 3994   3.069   3.202   5.159
 1351TIP3   OH2 3995   4.457   6.733   3.824
 1351TIP3    H1 3996   4.476   6.640   3.818
 1351TIP3    H2 3997   4.499   6.762   3.905
 1352TIP3   OH2 3998   6.676   0.326   5.575
 1352TIP3    H1 3999   6.704   0.288   5.492
 1352TIP3    H2 4000   6.758   0.337   5.625
 1353TIP3   OH2 4001   6.079   5.564   0.651
 1353TIP3    H1 4002   5.994   5.585   0.689
 1353TIP3    H2 4003   6.137   5.555   0.726
 1354TIP3   OH2 4004   1.644   4.950   2.576
 1354TIP3    H1 4005   1.583   5.015   2.610
 1354TIP3    H2 4006   1.592   4.870   2.568
 1355TIP3   OH2 4007   2.519   0.440   0.633
 1355TIP3    H1 4008   2.531   0.349   0.658
 1355TIP3    H2 4009   2.534   0.489   0.714
 1356TIP3   OH2 4010   7.874   5.777   0.207
 1356TIP3    H1 4011   7.843   5.792   0.296
 1356TIP3    H2 4012   7.970   5.785   0.213
 1357TIP3   OH2 4013   7.473   6.280   1.958
 1357TIP3    H1 4014   7.567   6.298   1.966
 1357TIP3    H2 4015   7.467   6.186   1.942
 1358TIP3   OH2 4016   0.016   7.263   0.657
 1358TIP3    H1 4017   0.025   7.314   0.576
 1358TIP3    H2 4018   0.037   7.325   0.726
 1359TIP3   OH2 4019   1.385   7.337   5.953
 1359TIP3    H1 4020   1.460   7.287   5.919
 1359TIP3    H2 4021   1.336   7.362   5.875
 1360TIP3   OH2 4022   0.582   3.034   2.003
 1360TIP3    H1 4023   0.519   3.011   2.071
 1360TIP3    H2 4024   0.625   3.113   2.036
 1361TIP3   OH2 4025   5.392   6.290   0.066
 1361TIP3    H1 4026   5.375   6.305   0.159
 1361TIP3    H2 4027   5.453   6.216   0.064
 1362TIP3   OH2 4028   1.184   6.550   5.584
 1362TIP3    H1 4029   1.245   6.513   5.521
 1362TIP3    H2 4030   1.205   6.643   5.585
 1363TIP3   OH2 4031   4.650   3.848   5.880
 1363TIP3    H1 4032   4.678   3.798   5.804
 1363TIP3    H2 4033   4.596   3.787   5.931
 1364TIP3   OH2 4034   8.136   5.287   3.320
 1364TIP3    H1 4035   8.125   5.210   3.375
 1364TIP3    H2 4036   8.049   5.303   3.284
 1365TIP3   OH2 4037   8.269   2.351   3.752
 1365TIP3    H1 4038   8.303   2.382   3.668
 1365TIP3    H2 4039   8.197   2.292   3.728
 1366TIP3   OH2 4040   3.831   7.497   5.139
 1366TIP3    H1 4041   3.898   7.494   5.071
 1366TIP3    H2 4042   3.848   7.579   5.185
 1367TIP3   OH2 4043   4.525   0.824   6.756
 1367TIP3    H1 4044   4.585   0.841   6.684
 1367TIP3    H2 4045   4.444   0.795   6.714
 1368TIP3   OH2 4046   1.749   5.335   5.487
 1368TIP3    H1 4047   1.680   5.309   5.549
 1368TIP3    H2 4048   1.712   5.315   5.401
 1369TIP3   OH2 4049   5.370   7.781   5.300
 1369TIP3    H1 4050   5.362   7.877   5.300
 1369TIP3    H2 4051   5.356   7.755   5.209
 1370TIP3   OH2 4052   3.355   3.350   3.805
 1370TIP3    H1 4053   3.350   3.276   3.866
 1370TIP3    H2 4054   3.284   3.334   3.742
 1371TIP3   OH2 4055   2.614   3.942   0.829
 1371TIP3    H1 4056   2.674   3.980   0.764
 1371TIP3    H2 4057   2.614   3.848   0.811
 1372TIP3   OH2 4058   5.224   4.757   0.866
 1372TIP3    H1 4059   5.166   4.689   0.901
 1372TIP3    H2 4060   5.183   4.840   0.893
 1373TIP3   OH2 4061   0.860   2.697   5.637
 1373TIP3    H1 4062   0.814   2.707   5.721
 1373TIP3    H2 4063   0.923   2.627   5.652
 1374TIP3   OH2 4064   5.943   6.727   0.564
 1374TIP3    H1 4065   5.958   6.776   0.483
 1374TIP3    H2 4066   5.873   6.665   0.542
 1375TIP3   OH2 4067   7.841   1.772   2.390
 1375TIP3    H1 4068   7.932   1.744   2.380
 1375TIP3    H2 4069   7.826   1.829   2.315
 1376TIP3   OH2 4070   3.795   5.403   4.356
 1376TIP3    H1 4071   3.814   5.312   4.378
 1376TIP3    H2 4072   3.759   5.441   4.436
 1377TIP3   OH2 4073   6.566   5.620   5.363
 1377TIP3    H1 4074   6.631   5.639   5.430
 1377TIP3    H2 4075   6.609   5.558   5.304
 1378TIP3   OH2 4076   5.949   7.667   4.510
 1378TIP3    H1 4077   5.988   7.742   4.555
 1378TIP3    H2 4078   5.883   7.705   4.453
 1379TIP3   OH2 4079   1.782   1.271   0.840
 1379TIP3    H1 4080   1.812   1.190   0.882
 1379TIP3    H2 4081   1.716   1.243   0.776
 1380TIP3   OH2 4082   1.194   1.686   5.871
 1380TIP3    H1 4083   1.215   1.606   5.920
 1380TIP3    H2 4084   1.279   1.725   5.852
 1381TIP3   OH2 4085   4.502   0.372   2.999
 1381TIP3    H1 4086   4.467   0.461   3.003
 1381TIP3    H2 4087   4.584   0.376   3.047
 1382TIP3   OH2 4088   7.896   0.445   5.701
 1382TIP3    H1 4089   7.884   0.468   5.793
 1382TIP3    H2 4090   7.860   0.519   5.652
 1383TIP3   OH2 4091   0.573   5.317   5.903
 1383TIP3    H1 4092   0.539   5.380   5.839
 1383TIP3    H2 4093   0.645   5.273   5.857
 1384TIP3   OH2 4094   4.116   0.253   4.992
 1384TIP3    H1 4095   4.134   0.203   5.072
 1384TIP3    H2 4096   4.024   0.234   4.972
 1385TIP3   OH2 4097   4.415   5.938   0.617
 1385TIP3    H1 4098   4.494   5.948   0.670
 1385TIP3    H2 4099   4.344   5.966   0.674
 1386TIP3   OH2 4100   8.072   1.142   1.901
 1386TIP3    H1 4101   8.018   1.064   1.888
 1386TIP3    H2 4102   8.038   1.205   1.838
 1387TIP3   OH2 4103   1.726   4.875   1.253
 1387TIP3    H1 4104   1.794   4.808   1.253
 1387TIP3    H2 4105   1.772   4.955   1.229
 1388TIP3   OH2 4106   1.841   1.042   1.002
 1388TIP3    H1 4107   1.869   0.983   1.072
 1388TIP3    H2 4108   1.757   1.007   0.973
 1389TIP3   OH2 4109   5.378   7.201   2.851
 1389TIP3    H1 4110   5.331   7.255   2.914
 1389TIP3    H2 4111   5.310   7.166   2.793
 1390TIP3   OH2 4112   0.512   5.237   4.044
 1390TIP3    H1 4113   0.497   5.143   4.033
 1390TIP3    H2 4114   0.593   5.243   4.094
 1391TIP3   OH2 4115   7.255   0.002   3.246
 1391TIP3    H1 4116   7.192   0.064   3.283
 1391TIP3    H2 4117   7.321   0.056   3.204
 1392TIP3   OH2 4118   2.542   1.878   4.010
 1392TIP3    H1 4119   2.508   1.940   3.946
 1392TIP3    H2 4120   2.534   1.793   3.968
 1393TIP3   OH2 4121   0.738   5.317   4.174
 1393TIP3    H1 4122   0.752   5.411   4.186
 1393TIP3    H2 4123   0.794   5.276   4.240
 1394TIP3   OH2 4124   7.453   5.479   5.874
 1394TIP3    H1 4125   7.397   5.406   5.899
 1394TIP3    H2 4126   7.451   5.479   5.778
 1395TIP3   OH2 4127   1.992   6.778   4.827
 1395TIP3    H1 4128   2.082   6.807   4.811
 1395TIP3    H2 4129   1.966   6.823   4.907
 1396TIP3   OH2 4130   2.047   2.923   2.242
 1396TIP3    H1 4131   2.091   2.937   2.159
 1396TIP3    H2 4132   1.962   2.885   2.219
 1397TIP3   OH2 4133   3.838   3.236   1.444
 1397TIP3    H1 4134   3.809   3.202   1.529
 1397TIP3    H2 4135   3.930   3.259   1.458
 1398TIP3   OH2 4136   3.665   2.442   1.781
 1398TIP3    H1 4137   3.695   2.456   1.871
 1398TIP3    H2 4138   3.743   2.453   1.727
 1399TIP3   OH2 4139   2.236   4.570   3.539
 1399TIP3    H1 4140   2.170   4.518   3.493
 1399TIP3    H2 4141   2.314   4.564   3.484
 1400TIP3   OH2 4142   0.145   3.757   5.643
 1400TIP3    H1 4143   0.072   3.779   5.585
 1400TIP3    H2 4144   0.129   3.665   5.668
 1401TIP3   OH2 4145   0.163   0.141   6.674
 1401TIP3    H1 4146   0.075   0.117   6.646
 1401TIP3    H2 4147   0.175   0.231   6.643
 1402TIP3   OH2 4148   4.280   2.455   1.232
 1402TIP3    H1 4149   4.298   2.365   1.257
 1402TIP3    H2 4150   4.186   2.466   1.246
 1403TIP3   OH2 4151   8.099   4.394   5.934
 1403TIP3    H1 4152   8.175   4.366   5.985
 1403TIP3    H2 4153   8.037   4.321   5.939
 1404TIP3   OH2 4154   5.318   2.114   1.526
 1404TIP3    H1 4155   5.304   2.147   1.615
 1404TIP3    H2 4156   5.397   2.061   1.533
 1405TIP3   OH2 4157   3.094   3.639   3.669
 1405TIP3    H1 4158   3.121   3.556   3.629
 1405TIP3    H2 4159   3.171   3.668   3.717
 1406TIP3   OH2 4160   6.423   6.840   6.401
 1406TIP3    H1 4161   6.351   6.779   6.410
 1406TIP3    H2 4162   6.434   6.877   6.489
 1407TIP3   OH2 4163   1.080   5.993   1.850
 1407TIP3    H1 4164   1.016   6.058   1.819
 1407TIP3    H2 4165   1.080   6.004   1.945
 1408TIP3   OH2 4166   3.669   6.987   2.811
 1408TIP3    H1 4167   3.746   6.940   2.778
 1408TIP3    H2 4168   3.601   6.920   2.819
 1409TIP3   OH2 4169   0.726   3.360   0.063
 1409TIP3    H1 4170   0.655   3.424   0.063
 1409TIP3    H2 4171   0.707   3.303  -0.011
 1410TIP3   OH2 4172   5.769   3.232   5.785
 1410TIP3    H1 4173   5.728   3.218   5.700
 1410TIP3    H2 4174   5.863   3.219   5.769
 1411TIP3   OH2 4175   5.589   1.768   1.393
 1411TIP3    H1 4176   5.530   1.743   1.322
 1411TIP3    H2 4177   5.629   1.685   1.421
 1412TIP3   OH2 4178   0.790   1.732   1.531
 1412TIP3    H1 4179   0.767   1.671   1.601
 1412TIP3    H2 4180   0.755   1.816   1.561
 1413TIP3   OH2 4181   2.088   0.697   5.864
 1413TIP3    H1 4182   2.134   0.618   5.894
 1413TIP3    H2 4183   1.999   0.666   5.846
 1414TIP3   OH2 4184   0.867   1.583   4.059
 1414TIP3    H1 4185   0.853   1.675   4.084
 1414TIP3    H2 4186   0.853   1.582   3.964
 1415TIP3   OH2 4187   0.941   3.190   5.138
 1415TIP3    H1 4188   0.855   3.227   5.156
 1415TIP3    H2 4189   0.938   3.101   5.173
 1416TIP3   OH2 4190   4.597   5.947   0.108
 1416TIP3    H1 4191   4.527   5.998   0.149
 1416TIP3    H2 4192   4.553   5.897   0.039
 1417TIP3   OH2 4193   6.024   1.678   0.959
 1417TIP3    H1 4194   6.026   1.591   0.921
 1417TIP3    H2 4195   5.947   1.677   1.017
 1418TIP3   OH2 4196   4.480   3.997   2.163
 1418TIP3    H1 4197   4.421   4.065   2.129
 1418TIP3    H2 4198   4.567   4.035   2.157
 1419TIP3   OH2 4199   6.124   2.067   3.042
 1419TIP3    H1 4200   6.105   2.085   2.950
 1419TIP3    H2 4201   6.110   1.973   3.052
 1420TIP3   OH2 4202   4.964   3.781   0.758
 1420TIP3    H1 4203   4.925   3.865   0.781
 1420TIP3    H2 4204   4.969   3.782   0.662
 1421TIP3   OH2 4205   6.329   7.680   3.969
 1421TIP3    H1 4206   6.409   7.729   3.990
 1421TIP3    H2 4207   6.264   7.747   3.949
 1422TIP3   OH2 4208   1.110   3.529   4.936
 1422TIP3    H1 4209   1.065   3.451   4.903
 1422TIP3    H2 4210   1.117   3.513   5.031
 1423TIP3   OH2 4211   3.588   2.295   0.056
 1423TIP3    H1 4212   3.519   2.353   0.088
 1423TIP3    H2 4213   3.561   2.272  -0.033
 1424TIP3   OH2 4214   8.284   7.659   3.990
 1424TIP3    H1 4215   8.353   7.646   3.926
 1424TIP3    H2 4216   8.223   7.587   3.975
 1425TIP3   OH2 4217   6.074   6.767   0.820
 1425TIP3    H1 4218   6.020   6.767   0.741
 1425TIP3    H2 4219   6.012   6.756   0.892
 1426TIP3   OH2 4220   0.450   5.138   1.380
 1426TIP3    H1 4221   0.487   5.113   1.295
 1426TIP3    H2 4222   0.470   5.232   1.387
 1427TIP3   OH2 4223   7.498   0.681   3.099
 1427TIP3    H1 4224   7.572   0.650   3.151
 1427TIP3    H2 4225   7.537   0.715   3.019
 1428TIP3   OH2 4226   0.602   0.146   6.456
 1428TIP3    H1 4227   0.521   0.103   6.484
 1428TIP3    H2 4228   0.671   0.104   6.508
 1429TIP3   OH2 4229   5.524   2.126   0.691
 1429TIP3    H1 4230   5.562   2.052   0.645
 1429TIP3    H2 4231   5.557   2.119   0.781
 1430TIP3   OH2 4232   1.060   3.209   1.056
 1430TIP3    H1 4233   1.038   3.158   1.135
 1430TIP3    H2 4234   0.981   3.261   1.039
 1431TIP3   OH2 4235   0.063   7.808   2.306
 1431TIP3    H1 4236   0.085   7.729   2.357
 1431TIP3    H2 4237   0.122   7.875   2.341
 1432TIP3   OH2 4238   5.540   6.867   3.493
 1432TIP3    H1 4239   5.577   6.848   3.579
 1432TIP3    H2 4240   5.533   6.962   3.490
 1433TIP3   OH2 4241   0.034   7.084   2.979
 1433TIP3    H1 4242   0.011   7.092   3.072
 1433TIP3    H2 4243   0.079   7.166   2.959
 1434TIP3   OH2 4244   4.067   6.570   3.273
 1434TIP3    H1 4245   4.017   6.490   3.287
 1434TIP3    H2 4246   4.123   6.550   3.198
 1435TIP3   OH2 4247   0.888   0.881   3.029
 1435TIP3    H1 4248   0.852   0.961   3.070
 1435TIP3    H2 4249   0.968   0.863   3.079
 1436TIP3   OH2 4250   6.579   6.391   3.758
 1436TIP3    H1 4251   6.517   6.463   3.750
 1436TIP3    H2 4252   6.537   6.318   3.712
 1437TIP3   OH2 4253   4.718   2.746   3.185
 1437TIP3    H1 4254   4.713   2.651   3.195
 1437TIP3    H2 4255   4.692   2.781   3.270
 1438TIP3   OH2 4256   5.342   1.925   3.084
 1438TIP3    H1 4257   5.249   1.905   3.074
 1438TIP3    H2 4258   5.383   1.841   3.105
 1439TIP3   OH2 4259   5.371   2.046   4.748
 1439TIP3    H1 4260   5.432   1.994   4.696
 1439TIP3    H2 4261   5.303   1.984   4.774
 1440TIP3   OH2 4262   8.149   7.120   5.865
 1440TIP3    H1 4263   8.216   7.166   5.814
 1440TIP3    H2 4264   8.107   7.188   5.917
 1441TIP3   OH2 4265   6.675   1.926   2.975
 1441TIP3    H1 4266   6.642   2.006   3.018
 1441TIP3    H2 4267   6.762   1.950   2.944
 1442TIP3   OH2 4268   6.243   3.534   3.785
 1442TIP3    H1 4269   6.330   3.561   3.814
 1442TIP3    H2 4270   6.224   3.456   3.836
 1443TIP3   OH2 4271   1.245   2.287   6.313
 1443TIP3    H1 4272   1.192   2.277   6.235
 1443TIP3    H2 4273   1.313   2.220   6.305
 1444TIP3   OH2 4274   2.521   2.906   1.450
 1444TIP3    H1 4275   2.575   2.827   1.453
 1444TIP3    H2 4276   2.512   2.925   1.357
 1445TIP3   OH2 4277   0.150   2.153   1.149
 1445TIP3    H1 4278   0.091   2.159   1.225
 1445TIP3    H2 4279   0.213   2.224   1.162
 1446TIP3   OH2 4280   4.195   6.781   2.706
 1446TIP3    H1 4281   4.158   6.703   2.665
 1446TIP3    H2 4282   4.285   6.785   2.674
 1447TIP3   OH2 4283   5.524   7.011   1.402
 1447TIP3    H1 4284   5.588   6.945   1.375
 1447TIP3    H2 4285   5.482   6.973   1.479
 1448TIP3   OH2 4286   6.617   7.156   4.743
 1448TIP3    H1 4287   6.688   7.103   4.707
 1448TIP3    H2 4288   6.651   7.187   4.827
 1449TIP3   OH2 4289   0.913   4.115   0.166
 1449TIP3    H1 4290   0.927   4.032   0.212
 1449TIP3    H2 4291   0.887   4.090   0.078
 1450TIP3   OH2 4292   4.881   1.708   6.620
 1450TIP3    H1 4293   4.902   1.679   6.709
 1450TIP3    H2 4294   4.789   1.732   6.624
 1451TIP3   OH2 4295   2.053   6.384   4.905
 1451TIP3    H1 4296   2.006   6.435   4.839
 1451TIP3    H2 4297   1.990   6.319   4.936
 1452TIP3   OH2 4298   1.517   3.895   4.226
 1452TIP3    H1 4299   1.517   3.842   4.305
 1452TIP3    H2 4300   1.432   3.939   4.227
 1453TIP3   OH2 4301   7.942   7.254   3.681
 1453TIP3    H1 4302   8.005   7.325   3.672
 1453TIP3    H2 4303   7.986   7.178   3.643
 1454TIP3   OH2 4304   2.699   1.535   1.600
 1454TIP3    H1 4305   2.643   1.470   1.557
 1454TIP3    H2 4306   2.725   1.492   1.682
 1455TIP3   OH2 4307   6.307   0.457   5.224
 1455TIP3    H1 4308   6.253   0.504   5.159
 1455TIP3    H2 4309   6.394   0.493   5.213
 1456TIP3   OH2 4310   0.755   1.692   3.831
 1456TIP3    H1 4311   0.664   1.708   3.856
 1456TIP3    H2 4312   0.786   1.776   3.795
 1457TIP3   OH2 4313   0.446   0.307   4.593
 1457TIP3    H1 4314   0.492   0.390   4.580
 1457TIP3    H2 4315   0.355   0.326   4.569
 1458TIP3   OH2 4316   4.245   4.790   1.448
 1458TIP3    H1 4317   4.337   4.816   1.447
 1458TIP3    H2 4318   4.198   4.870   1.425
 1459TIP3   OH2 4319   0.449   4.162   3.330
 1459TIP3    H1 4320   0.371   4.211   3.356
 1459TIP3    H2 4321   0.419   4.102   3.262
 1460TIP3   OH2 4322   1.881   6.909   3.588
 1460TIP3    H1 4323   1.833   6.951   3.516
 1460TIP3    H2 4324   1.893   6.979   3.652
 1461TIP3   OH2 4325   4.872   0.577   5.459
 1461TIP3    H1 4326   4.847   0.664   5.429
 1461TIP3    H2 4327   4.845   0.575   5.551
 1462TIP3   OH2 4328   7.726   1.009   0.928
 1462TIP3    H1 4329   7.805   0.978   0.883
 1462TIP3    H2 4330   7.746   1.100   0.950
 1463TIP3   OH2 4331   5.309   4.336   6.484
 1463TIP3    H1 4332   5.257   4.414   6.465
 1463TIP3    H2 4333   5.393   4.369   6.516
 1464TIP3   OH2 4334   6.260   7.198   2.746
 1464TIP3    H1 4335   6.336   7.229   2.797
 1464TIP3    H2 4336   6.281   7.106   2.728
 1465TIP3   OH2 4337   2.966   5.247   2.995
 1465TIP3    H1 4338   2.927   5.291   3.071
 1465TIP3    H2 4339   3.015   5.174   3.033
 1466TIP3   OH2 4340   1.867   3.881   1.942
 1466TIP3    H1 4341   1.847   3.974   1.955
 1466TIP3    H2 4342   1.901   3.853   2.027
 1467TIP3   OH2 4343   4.157   2.218   4.459
 1467TIP3    H1 4344   4.071   2.196   4.425
 1467TIP3    H2 4345   4.218   2.168   4.405
 1468TIP3   OH2 4346   7.336   0.878   4.165
 1468TIP3    H1 4347   7.338   0.861   4.260
 1468TIP3    H2 4348   7.415   0.836   4.132
 1469TIP3   OH2 4349   3.527   2.531   6.590
 1469TIP3    H1 4350   3.477   2.605   6.625
 1469TIP3    H2 4351   3.585   2.505   6.662
 1470TIP3   OH2 4352   4.741   6.618   2.244
 1470TIP3    H1 4353   4.655   6.608   2.285
 1470TIP3    H2 4354   4.756   6.713   2.245
 1471TIP3   OH2 4355   1.551   5.668   1.028
 1471TIP3    H1 4356   1.494   5.677   1.104
 1471TIP3    H2 4357   1.632   5.711   1.053
 1472TIP3   OH2 4358   7.071   6.069   2.772
 1472TIP3    H1 4359   7.072   6.112   2.857
 1472TIP3    H2 4360   6.979   6.067   2.747
 1473TIP3   OH2 4361   0.368   3.207   4.051
 1473TIP3    H1 4362   0.433   3.152   4.007
 1473TIP3    H2 4363   0.315   3.243   3.981
 1474TIP3   OH2 4364   4.877   1.789   3.466
 1474TIP3    H1 4365   4.822   1.781   3.387
 1474TIP3    H2 4366   4.908   1.880   3.464
 1475TIP3   OH2 4367   1.950   0.677   3.351
 1475TIP3    H1 4368   1.884   0.684   3.282
 1475TIP3    H2 4369   1.908   0.625   3.420
 1476TIP3   OH2 4370   5.720   5.523   5.659
 1476TIP3    H1 4371   5.764   5.535   5.743
 1476TIP3    H2 4372   5.685   5.610   5.637
 1477TIP3   OH2 4373   3.503   2.240   6.086
 1477TIP3    H1 4374   3.501   2.146   6.104
 1477TIP3    H2 4375   3.489   2.281   6.171
 1478TIP3   OH2 4376   2.695   6.531   5.851
 1478TIP3    H1 4377   2.637   6.517   5.776
 1478TIP3    H2 4378   2.757   6.597   5.822
 1479TIP3   OH2 4379   7.976   2.819   1.864
 1479TIP3    H1 4380   7.904   2.758   1.878
 1479TIP3    H2 4381   7.944   2.881   1.799
 1480TIP3   OH2 4382   2.721   4.114   6.260
 1480TIP3    H1 4383   2.764   4.079   6.338
 1480TIP3    H2 4384   2.647   4.164   6.293
 1481TIP3   OH2 4385   4.728   4.168   1.454
 1481TIP3    H1 4386   4.817   4.187   1.425
 1481TIP3    H2 4387   4.676   4.173   1.374
 1482TIP3   OH2 4388   0.238   2.245   0.803
 1482TIP3    H1 4389   0.258   2.290   0.885
 1482TIP3    H2 4390   0.143   2.250   0.795
 1483TIP3   OH2 4391   5.932   1.452   6.352
 1483TIP3    H1 4392   5.856   1.508   6.371
 1483TIP3    H2 4393   5.995   1.511   6.311
 1484TIP3   OH2 4394   4.781   0.886   4.770
 1484TIP3    H1 4395   4.719   0.851   4.705
 1484TIP3    H2 4396   4.740   0.867   4.855
 1485TIP3   OH2 4397   4.719   2.267   4.656
 1485TIP3    H1 4398   4.635   2.313   4.645
 1485TIP3    H2 4399   4.699   2.176   4.635
 1486TIP3   OH2 4400   1.299   3.467   0.936
 1486TIP3    H1 4401   1.356   3.464   0.859
 1486TIP3    H2 4402   1.316   3.552   0.975
 1487TIP3   OH2 4403   3.187   1.770   3.883
 1487TIP3    H1 4404   3.252   1.699   3.878
 1487TIP3    H2 4405   3.107   1.731   3.848
 1488TIP3   OH2 4406   7.216   1.446   5.781
 1488TIP3    H1 4407   7.300   1.448   5.827
 1488TIP3    H2 4408   7.150   1.455   5.850
 1489TIP3   OH2 4409   5.362   7.582   0.191
 1489TIP3    H1 4410   5.273   7.580   0.226
 1489TIP3    H2 4411   5.418   7.589   0.269
 1490TIP3   OH2 4412   5.243   5.118   5.973
 1490TIP3    H1 4413   5.304   5.104   6.045
 1490TIP3    H2 4414   5.162   5.146   6.015
 1491TIP3   OH2 4415   3.204   0.969   1.274
 1491TIP3    H1 4416   3.146   0.954   1.349
 1491TIP3    H2 4417   3.161   1.037   1.224
 1492TIP3   OH2 4418   5.801   2.714   3.735
 1492TIP3    H1 4419   5.832   2.701   3.645
 1492TIP3    H2 4420   5.837   2.640   3.784
 1493TIP3   OH2 4421   2.856   6.112   5.017
 1493TIP3    H1 4422   2.881   6.150   5.102
 1493TIP3    H2 4423   2.938   6.103   4.969
 1494TIP3   OH2 4424   6.015   2.076   1.369
 1494TIP3    H1 4425   5.975   2.153   1.409
 1494TIP3    H2 4426   6.027   2.014   1.441
 1495TIP3   OH2 4427   0.609   3.546   3.630
 1495TIP3    H1 4428   0.647   3.616   3.683
 1495TIP3    H2 4429   0.628   3.466   3.680
 1496TIP3   OH2 4430   5.039   3.500   2.063
 1496TIP3    H1 4431   4.960   3.512   2.116
 1496TIP3    H2 4432   5.040   3.576   2.005
 1497TIP3   OH2 4433   4.429   5.248   4.918
 1497TIP3    H1 4434   4.452   5.200   4.838
 1497TIP3    H2 4435   4.335   5.263   4.909
 1498TIP3   OH2 4436   5.301   4.441   0.929
 1498TIP3    H1 4437   5.360   4.366   0.930
 1498TIP3    H2 4438   5.339   4.500   0.863
 1499TIP3   OH2 4439   3.895   4.354   5.348
 1499TIP3    H1 4440   3.880   4.263   5.374
 1499TIP3    H2 4441   3.919   4.348   5.255
 1500TIP3   OH2 4442   0.297   6.634   6.513
 1500TIP3    H1 4443   0.392   6.627   6.505
 1500TIP3    H2 4444   0.283   6.676   6.598
 1501TIP3   OH2 4445   6.828   6.454   5.124
 1501TIP3    H1 4446   6.748   6.424   5.080
 1501TIP3    H2 4447   6.899   6.424   5.068
 1502TIP3   OH2 4448   4.269   6.009   3.453
 1502TIP3    H1 4449   4.234   6.083   3.404
 1502TIP3    H2 4450   4.359   6.001   3.423
 1503TIP3   OH2 4451   2.465   6.393   1.331
 1503TIP3    H1 4452   2.484   6.311   1.285
 1503TIP3    H2 4453   2.393   6.432   1.281
 1504TIP3   OH2 4454   4.791   0.573   0.969
 1504TIP3    H1 4455   4.742   0.491   0.977
 1504TIP3    H2 4456   4.825   0.572   0.879
 1505TIP3   OH2 4457   5.306   5.214   6.267
 1505TIP3    H1 4458   5.272   5.125   6.260
 1505TIP3    H2 4459   5.232   5.270   6.243
 1506TIP3   OH2 4460   3.474   2.769   5.824
 1506TIP3    H1 4461   3.426   2.744   5.745
 1506TIP3    H2 4462   3.512   2.687   5.856
 1507TIP3   OH2 4463   6.906   5.303   0.185
 1507TIP3    H1 4464   6.851   5.338   0.255
 1507TIP3    H2 4465   6.917   5.376   0.124
 1508TIP3   OH2 4466   2.315   0.043   0.163
 1508TIP3    H1 4467   2.343   0.018   0.251
 1508TIP3    H2 4468   2.227   0.079   0.175
 1509TIP3   OH2 4469   6.430   1.101   5.843
 1509TIP3    H1 4470   6.415   1.058   5.758
 1509TIP3    H2 4471   6.355   1.074   5.897
 1510TIP3   OH2 4472   0.634   4.676   1.644
 1510TIP3    H1 4473   0.661   4.666   1.553
 1510TIP3    H2 4474   0.640   4.588   1.681
 1511TIP3   OH2 4475   2.917   2.184   0.115
 1511TIP3    H1 4476   2.828   2.216   0.100
 1511TIP3    H2 4477   2.966   2.262   0.142
 1512TIP3   OH2 4478   0.557   3.807   1.198
 1512TIP3    H1 4479   0.506   3.885   1.217
 1512TIP3    H2 4480   0.630   3.811   1.261
 1513TIP3   OH2 4481   0.260   5.880   2.982
 1513TIP3    H1 4482   0.197   5.810   2.964
 1513TIP3    H2 4483   0.237   5.911   3.069
 1514TIP3   OH2 4484   1.320   6.727   3.761
 1514TIP3    H1 4485   1.275   6.775   3.830
 1514TIP3    H2 4486   1.329   6.790   3.689
 1515TIP3   OH2 4487   3.422   1.780   5.865
 1515TIP3    H1 4488   3.329   1.801   5.855
 1515TIP3    H2 4489   3.468   1.848   5.816
 1516TIP3   OH2 4490   2.904   6.989   4.206
 1516TIP3    H1 4491   2.900   7.026   4.118
 1516TIP3    H2 4492   2.863   7.054   4.262
 1517TIP3   OH2 4493   6.740   4.856   3.613
 1517TIP3    H1 4494   6.677   4.928   3.610
 1517TIP3    H2 4495   6.723   4.805   3.534
 1518TIP3   OH2 4496   8.219   6.898   4.021
 1518TIP3    H1 4497   8.191   6.877   3.931
 1518TIP3    H2 4498   8.233   6.813   4.062
 1519TIP3   OH2 4499   2.490   7.232   0.131
 1519TIP3    H1 4500   2.574   7.277   0.125
 1519TIP3    H2 4501   2.457   7.231   0.041
 1520TIP3   OH2 4502   1.679   3.371   4.869
 1520TIP3    H1 4503   1.773   3.360   4.855
 1520TIP3    H2 4504   1.659   3.319   4.946
 1521TIP3   OH2 4505   3.562   3.150   5.320
 1521TIP3    H1 4506   3.632   3.212   5.342
 1521TIP3    H2 4507   3.509   3.197   5.256
 1522TIP3   OH2 4508   5.214   2.273   0.626
 1522TIP3    H1 4509   5.299   2.272   0.584
 1522TIP3    H2 4510   5.221   2.210   0.698
 1523TIP3   OH2 4511   3.187   4.422   2.355
 1523TIP3    H1 4512   3.264   4.474   2.334
 1523TIP3    H2 4513   3.150   4.464   2.432
 1524TIP3   OH2 4514   7.151   3.373   0.656
 1524TIP3    H1 4515   7.137   3.387   0.750
 1524TIP3    H2 4516   7.149   3.461   0.619
 1525TIP3   OH2 4517   1.603   7.255   1.128
 1525TIP3    H1 4518   1.634   7.346   1.131
 1525TIP3    H2 4519   1.611   7.224   1.219
 1526TIP3   OH2 4520   1.325   2.838   6.333
 1526TIP3    H1 4521   1.421   2.838   6.333
 1526TIP3    H2 4522   1.302   2.746   6.342
 1527TIP3   OH2 4523   6.016   1.226   5.763
 1527TIP3    H1 4524   5.935   1.183   5.736
 1527TIP3    H2 4525   6.058   1.251   5.680
 1528TIP3   OH2 4526   0.137   2.418   6.445
 1528TIP3    H1 4527   0.222   2.461   6.456
 1528TIP3    H2 4528   0.143   2.340   6.499
 1529TIP3   OH2 4529   6.990   0.431   1.700
 1529TIP3    H1 4530   6.906   0.460   1.665
 1529TIP3    H2 4531   6.997   0.472   1.786
 1530TIP3   OH2 4532   7.992   1.685   1.348
 1530TIP3    H1 4533   7.987   1.742   1.425
 1530TIP3    H2 4534   8.006   1.744   1.275
 1531TIP3   OH2 4535   6.408   5.297   6.236
 1531TIP3    H1 4536   6.484   5.268   6.184
 1531TIP3    H2 4537   6.425   5.262   6.323
 1532TIP3   OH2 4538   5.825   2.353   4.877
 1532TIP3    H1 4539   5.860   2.371   4.790
 1532TIP3    H2 4540   5.738   2.393   4.876
 1533TIP3   OH2 4541   2.772   0.639   3.850
 1533TIP3    H1 4542   2.719   0.673   3.922
 1533TIP3    H2 4543   2.715   0.647   3.773
 1534TIP3   OH2 4544   0.722   6.367   5.891
 1534TIP3    H1 4545   0.632   6.357   5.920
 1534TIP3    H2 4546   0.724   6.327   5.804
 1535TIP3   OH2 4547   2.054   2.257   0.646
 1535TIP3    H1 4548   1.985   2.218   0.698
 1535TIP3    H2 4549   2.120   2.285   0.710
 1536TIP3   OH2 4550   5.873   5.211   6.668
 1536TIP3    H1 4551   5.779   5.193   6.658
 1536TIP3    H2 4552   5.915   5.149   6.608
 1537TIP3   OH2 4553   5.527   4.213   6.269
 1537TIP3    H1 4554   5.602   4.157   6.247
 1537TIP3    H2 4555   5.462   4.152   6.304
 1538TIP3   OH2 4556   4.894   6.808   4.526
 1538TIP3    H1 4557   4.942   6.886   4.553
 1538TIP3    H2 4558   4.818   6.841   4.478
 1539TIP3   OH2 4559   2.508   5.157   6.290
 1539TIP3    H1 4560   2.506   5.225   6.222
 1539TIP3    H2 4561   2.473   5.201   6.367
 1540TIP3   OH2 4562   8.285   6.258   5.492
 1540TIP3    H1 4563   8.351   6.275   5.559
 1540TIP3    H2 4564   8.202   6.279   5.536
 1541TIP3   OH2 4565   7.005   3.620   0.542
 1541TIP3    H1 4566   7.049   3.695   0.501
 1541TIP3    H2 4567   6.979   3.652   0.628
 1542TIP3   OH2 4568   1.923   3.552   2.669
 1542TIP3    H1 4569   1.908   3.526   2.578
 1542TIP3    H2 4570   1.836   3.556   2.708
 1543TIP3   OH2 4571   8.248   5.366   0.607
 1543TIP3    H1 4572   8.164   5.413   0.602
 1543TIP3    H2 4573   8.248   5.308   0.532
 1544TIP3   OH2 4574   7.437   6.453   0.918
 1544TIP3    H1 4575   7.498   6.510   0.871
 1544TIP3    H2 4576   7.351   6.489   0.898
 1545TIP3   OH2 4577   4.508   6.454   3.803
 1545TIP3    H1 4578   4.507   6.415   3.716
 1545TIP3    H2 4579   4.513   6.379   3.863
 1546TIP3   OH2 4580   4.478   7.312   3.351
 1546TIP3    H1 4581   4.512   7.304   3.261
 1546TIP3    H2 4582   4.392   7.272   3.348
 1547TIP3   OH2 4583   0.377   5.952   3.721
 1547TIP3    H1 4584   0.411   5.933   3.809
 1547TIP3    H2 4585   0.340   6.040   3.728
 1548TIP3   OH2 4586   2.437   3.738   5.056
 1548TIP3    H1 4587   2.420   3.748   5.149
 1548TIP3    H2 4588   2.495   3.811   5.034
 1549TIP3   OH2 4589   3.764   3.117   1.193
 1549TIP3    H1 4590   3.840   3.082   1.146
 1549TIP3    H2 4591   3.797   3.132   1.282
 1550TIP3   OH2 4592   7.442   1.324   3.368
 1550TIP3    H1 4593   7.526   1.369   3.376
 1550TIP3    H2 4594   7.409   1.317   3.458
 1551TIP3   OH2 4595   2.860   1.303   4.253
 1551TIP3    H1 4596   2.897   1.385   4.285
 1551TIP3    H2 4597   2.767   1.307   4.277
 1552TIP3   OH2 4598   2.826   1.135   5.566
 1552TIP3    H1 4599   2.867   1.131   5.480
 1552TIP3    H2 4600   2.733   1.118   5.549
 1553TIP3   OH2 4601   6.474   6.439   1.557
 1553TIP3    H1 4602   6.385   6.446   1.590
 1553TIP3    H2 4603   6.465   6.449   1.462
 1554TIP3   OH2 4604   3.172   5.380   2.860
 1554TIP3    H1 4605   3.167   5.333   2.776
 1554TIP3    H2 4606   3.113   5.332   2.917
 1555TIP3   OH2 4607   2.207   7.169   0.653
 1555TIP3    H1 4608   2.292   7.128   0.672
 1555TIP3    H2 4609   2.226   7.262   0.646
 1556TIP3   OH2 4610   5.137   6.414   0.043
 1556TIP3    H1 4611   5.065   6.380  -0.010
 1556TIP3    H2 4612   5.209   6.353   0.027
 1557TIP3   OH2 4613   6.524   6.785   4.304
 1557TIP3    H1 4614   6.459   6.734   4.256
 1557TIP3    H2 4615   6.480   6.868   4.324
 1558TIP3   OH2 4616   2.976   6.378   4.848
 1558TIP3    H1 4617   2.998   6.336   4.931
 1558TIP3    H2 4618   2.887   6.349   4.830
 1559TIP3   OH2 4619   0.602   1.589   0.236
 1559TIP3    H1 4620   0.527   1.644   0.257
 1559TIP3    H2 4621   0.614   1.599   0.142
 1560TIP3   OH2 4622   5.146   7.701   3.837
 1560TIP3    H1 4623   5.183   7.613   3.833
 1560TIP3    H2 4624   5.079   7.696   3.906
 1561TIP3   OH2 4625   3.307   6.114   3.405
 1561TIP3    H1 4626   3.332   6.206   3.414
 1561TIP3    H2 4627   3.239   6.101   3.471
 1562TIP3   OH2 4628   6.034   1.812   3.167
 1562TIP3    H1 4629   5.961   1.830   3.107
 1562TIP3    H2 4630   6.013   1.860   3.246
 1563TIP3   OH2 4631   4.433   4.247   5.361
 1563TIP3    H1 4632   4.390   4.186   5.422
 1563TIP3    H2 4633   4.448   4.326   5.413
 1564TIP3   OH2 4634   5.423   2.904   4.746
 1564TIP3    H1 4635   5.436   2.905   4.651
 1564TIP3    H2 4636   5.454   2.818   4.774
 1565TIP3   OH2 4637   7.899   0.960   2.400
 1565TIP3    H1 4638   7.805   0.977   2.388
 1565TIP3    H2 4639   7.941   1.000   2.324
 1566TIP3   OH2 4640   2.129   2.607   6.668
 1566TIP3    H1 4641   2.129   2.616   6.764
 1566TIP3    H2 4642   2.037   2.599   6.645
 1567TIP3   OH2 4643   2.149   3.927   5.226
 1567TIP3    H1 4644   2.207   3.878   5.284
 1567TIP3    H2 4645   2.137   4.011   5.270
 1568TIP3   OH2 4646   1.712   7.638   0.433
 1568TIP3    H1 4647   1.751   7.702   0.491
 1568TIP3    H2 4648   1.634   7.606   0.480
 1569TIP3   OH2 4649   5.333   2.741   6.710
 1569TIP3    H1 4650   5.418   2.784   6.708
 1569TIP3    H2 4651   5.311   2.733   6.802
 1570TIP3   OH2 4652   5.220   5.131   3.996
 1570TIP3    H1 4653   5.311   5.139   4.024
 1570TIP3    H2 4654   5.170   5.179   4.061
 1571TIP3   OH2 4655   5.612   7.653   3.453
 1571TIP3    H1 4656   5.599   7.638   3.546
 1571TIP3    H2 4657   5.687   7.598   3.430
 1572TIP3   OH2 4658   5.290   2.305   1.296
 1572TIP3    H1 4659   5.249   2.230   1.338
 1572TIP3    H2 4660   5.372   2.317   1.343
 1573TIP3   OH2 4661   5.273   7.097   0.875
 1573TIP3    H1 4662   5.347   7.065   0.926
 1573TIP3    H2 4663   5.222   7.018   0.856
 1574TIP3   OH2 4664   1.749   1.038   4.401
 1574TIP3    H1 4665   1.759   0.952   4.361
 1574TIP3    H2 4666   1.839   1.069   4.415
 1575TIP3   OH2 4667   1.449   6.406   3.989
 1575TIP3    H1 4668   1.485   6.484   3.946
 1575TIP3    H2 4669   1.515   6.339   3.974
 1576TIP3   OH2 4670   2.488   7.493   2.123
 1576TIP3    H1 4671   2.545   7.494   2.046
 1576TIP3    H2 4672   2.507   7.410   2.166
 1577TIP3   OH2 4673   2.525   1.174   0.968
 1577TIP3    H1 4674   2.552   1.179   0.877
 1577TIP3    H2 4675   2.597   1.129   1.012
 1578TIP3   OH2 4676   3.896   1.983   1.616
 1578TIP3    H1 4677   3.888   2.004   1.523
 1578TIP3    H2 4678   3.806   1.970   1.646
 1579TIP3   OH2 4679   4.587   2.732   5.509
 1579TIP3    H1 4680   4.518   2.692   5.456
 1579TIP3    H2 4681   4.602   2.670   5.580
 1580TIP3   OH2 4682   3.604   0.366   1.024
 1580TIP3    H1 4683   3.673   0.333   0.965
 1580TIP3    H2 4684   3.595   0.458   1.000
 1581TIP3   OH2 4685   2.515   3.790   0.211
 1581TIP3    H1 4686   2.566   3.719   0.250
 1581TIP3    H2 4687   2.520   3.775   0.117
 1582TIP3   OH2 4688   1.409   5.698   5.010
 1582TIP3    H1 4689   1.469   5.638   5.055
 1582TIP3    H2 4690   1.439   5.697   4.919
 1583TIP3   OH2 4691   8.284   6.232   2.327
 1583TIP3    H1 4692   8.192   6.251   2.310
 1583TIP3    H2 4693   8.282   6.171   2.401
 1584TIP3   OH2 4694   1.799   2.565   5.406
 1584TIP3    H1 4695   1.723   2.529   5.359
 1584TIP3    H2 4696   1.874   2.526   5.361
 1585TIP3   OH2 4697   3.498   0.096   3.977
 1585TIP3    H1 4698   3.482   0.019   3.922
 1585TIP3    H2 4699   3.593   0.097   3.991
 1586TIP3   OH2 4700   5.085   6.614   0.919
 1586TIP3    H1 4701   5.146   6.587   0.988
 1586TIP3    H2 4702   5.113   6.567   0.841
 1587TIP3   OH2 4703   0.883   7.741   3.757
 1587TIP3    H1 4704   0.893   7.832   3.727
 1587TIP3    H2 4705   0.880   7.690   3.676
 1588TIP3   OH2 4706   4.842   1.188   1.383
 1588TIP3    H1 4707   4.782   1.226   1.319
 1588TIP3    H2 4708   4.879   1.111   1.338
 1589TIP3   OH2 4709   2.135   3.834   3.475
 1589TIP3    H1 4710   2.073   3.838   3.402
 1589TIP3    H2 4711   2.199   3.903   3.456
 1590TIP3   OH2 4712   4.410   5.039   1.071
 1590TIP3    H1 4713   4.406   5.108   1.138
 1590TIP3    H2 4714   4.491   5.056   1.024
 1591TIP3   OH2 4715   2.557   5.727   1.887
 1591TIP3    H1 4716   2.648   5.755   1.876
 1591TIP3    H2 4717   2.521   5.728   1.799
 1592TIP3   OH2 4718   0.584   2.746   5.322
 1592TIP3    H1 4719   0.626   2.827   5.349
 1592TIP3    H2 4720   0.647   2.678   5.345
 1593TIP3   OH2 4721   1.809   7.488   3.192
 1593TIP3    H1 4722   1.790   7.493   3.285
 1593TIP3    H2 4723   1.849   7.403   3.179
 1594TIP3   OH2 4724   6.255   0.733   4.275
 1594TIP3    H1 4725   6.161   0.731   4.289
 1594TIP3    H2 4726   6.266   0.730   4.180
 1595TIP3   OH2 4727   6.843   4.274   4.638
 1595TIP3    H1 4728   6.793   4.307   4.713
 1595TIP3    H2 4729   6.934   4.282   4.664
 1596TIP3   OH2 4730   5.539   5.064   0.606
 1596TIP3    H1 4731   5.604   5.085   0.539
 1596TIP3    H2 4732   5.455   5.086   0.567
 1597TIP3   OH2 4733   6.691   6.663   1.555
 1597TIP3    H1 4734   6.603   6.628   1.570
 1597TIP3    H2 4735   6.679   6.731   1.490
 1598TIP3   OH2 4736   7.273   6.721   3.967
 1598TIP3    H1 4737   7.323   6.640   3.966
 1598TIP3    H2 4738   7.315   6.775   4.035
 1599TIP3   OH2 4739   1.545   6.587   3.811
 1599TIP3    H1 4740   1.602   6.603   3.736
 1599TIP3    H2 4741   1.464   6.634   3.791
 1600TIP3   OH2 4742   7.479   0.788   2.562
 1600TIP3    H1 4743   7.562   0.742   2.573
 1600TIP3    H2 4744   7.503   0.876   2.535
 1601TIP3   OH2 4745   0.728   2.929   6.439
 1601TIP3    H1 4746   0.693   2.993   6.376
 1601TIP3    H2 4747   0.706   2.844   6.401
 1602TIP3   OH2 4748   4.927   2.408   4.256
 1602TIP3    H1 4749   4.856   2.345   4.269
 1602TIP3    H2 4750   4.894   2.489   4.293
 1603TIP3   OH2 4751   1.383   6.775   0.512
 1603TIP3    H1 4752   1.356   6.807   0.599
 1603TIP3    H2 4753   1.423   6.690   0.530
 1604TIP3   OH2 4754   8.213   4.470   3.524
 1604TIP3    H1 4755   8.200   4.464   3.618
 1604TIP3    H2 4756   8.125   4.465   3.487
 1605TIP3   OH2 4757   2.565   4.161   3.417
 1605TIP3    H1 4758   2.598   4.147   3.329
 1605TIP3    H2 4759   2.588   4.252   3.437
 1606TIP3   OH2 4760   2.933   5.389   1.558
 1606TIP3    H1 4761   2.914   5.456   1.492
 1606TIP3    H2 4762   2.848   5.349   1.577
 1607TIP3   OH2 4763   0.433   2.887   1.798
 1607TIP3    H1 4764   0.357   2.906   1.854
 1607TIP3    H2 4765   0.507   2.924   1.846
 1608TIP3   OH2 4766   6.845   0.906   0.205
 1608TIP3    H1 4767   6.800   0.987   0.226
 1608TIP3    H2 4768   6.810   0.880   0.119
 1609TIP3   OH2 4769   4.396   5.236   2.809
 1609TIP3    H1 4770   4.470   5.257   2.752
 1609TIP3    H2 4771   4.437   5.212   2.893
 1610TIP3   OH2 4772   4.504   2.002   3.920
 1610TIP3    H1 4773   4.435   2.017   3.855
 1610TIP3    H2 4774   4.481   1.918   3.959
 1611TIP3   OH2 4775   5.939   4.995   3.686
 1611TIP3    H1 4776   5.910   4.937   3.757
 1611TIP3    H2 4777   5.975   4.935   3.620
 1612TIP3   OH2 4778   0.448   5.833   5.114
 1612TIP3    H1 4779   0.496   5.814   5.195
 1612TIP3    H2 4780   0.357   5.841   5.142
 1613TIP3   OH2 4781   1.232   6.325   0.130
 1613TIP3    H1 4782   1.327   6.332   0.123
 1613TIP3    H2 4783   1.198   6.397   0.077
 1614TIP3   OH2 4784   0.718   5.132   0.955
 1614TIP3    H1 4785   0.701   5.220   0.989
 1614TIP3    H2 4786   0.796   5.141   0.901
 1615TIP3   OH2 4787   1.975   2.117   1.408
 1615TIP3    H1 4788   1.959   2.171   1.486
 1615TIP3    H2 4789   1.923   2.160   1.339
 1616TIP3   OH2 4790   2.028   4.995   1.334
 1616TIP3    H1 4791   1.951   5.027   1.286
 1616TIP3    H2 4792   2.019   4.900   1.333
 1617TIP3   OH2 4793   5.237   4.189   0.625
 1617TIP3    H1 4794   5.272   4.222   0.542
 1617TIP3    H2 4795   5.143   4.207   0.619
 1618TIP3   OH2 4796   0.668   5.727   6.103
 1618TIP3    H1 4797   0.640   5.639   6.078
 1618TIP3    H2 4798   0.764   5.722   6.104
 1619TIP3   OH2 4799   4.245   6.894   5.074
 1619TIP3    H1 4800   4.338   6.874   5.086
 1619TIP3    H2 4801   4.212   6.824   5.018
 1620TIP3   OH2 4802   5.378   0.157   0.631
 1620TIP3    H1 4803   5.440   0.225   0.656
 1620TIP3    H2 4804   5.359   0.176   0.539
 1621TIP3   OH2 4805   6.606   3.045   5.458
 1621TIP3    H1 4806   6.673   2.979   5.474
 1621TIP3    H2 4807   6.649   3.129   5.477
 1622TIP3   OH2 4808   0.443   1.628   3.173
 1622TIP3    H1 4809   0.482   1.575   3.242
 1622TIP3    H2 4810   0.360   1.658   3.210
 1623TIP3   OH2 4811   1.169   1.164   5.856
 1623TIP3    H1 4812   1.201   1.137   5.770
 1623TIP3    H2 4813   1.215   1.246   5.874
 1624TIP3   OH2 4814   7.423   3.227   3.545
 1624TIP3    H1 4815   7.496   3.195   3.597
 1624TIP3    H2 4816   7.346   3.211   3.600
 1625TIP3   OH2 4817   6.726   6.011   1.070
 1625TIP3    H1 4818   6.759   5.926   1.099
 1625TIP3    H2 4819   6.752   6.017   0.978
 1626TIP3   OH2 4820   2.936   4.244   4.372
 1626TIP3    H1 4821   2.930   4.323   4.318
 1626TIP3    H2 4822   2.937   4.277   4.462
 1627TIP3   OH2 4823   6.308   1.354   6.239
 1627TIP3    H1 4824   6.290   1.303   6.318
 1627TIP3    H2 4825   6.261   1.309   6.169
 1628TIP3   OH2 4826   4.066   0.885   3.372
 1628TIP3    H1 4827   4.116   0.887   3.453
 1628TIP3    H2 4828   4.121   0.930   3.308
 1629TIP3   OH2 4829   0.715   1.596   4.761
 1629TIP3    H1 4830   0.680   1.674   4.717
 1629TIP3    H2 4831   0.666   1.523   4.722
 1630TIP3   OH2 4832   2.775   2.706   1.652
 1630TIP3    H1 4833   2.795   2.796   1.676
 1630TIP3    H2 4834   2.762   2.709   1.557
 1631TIP3   OH2 4835   0.095   1.750   1.782
 1631TIP3    H1 4836   0.128   1.819   1.724
 1631TIP3    H2 4837   0.147   1.759   1.862
 1632TIP3   OH2 4838   8.013   1.697   0.143
 1632TIP3    H1 4839   8.088   1.647   0.112
 1632TIP3    H2 4840   8.009   1.678   0.237
 1633TIP3   OH2 4841   2.337   6.798   0.552
 1633TIP3    H1 4842   2.273   6.803   0.481
 1633TIP3    H2 4843   2.373   6.887   0.558
 1634TIP3   OH2 4844   8.211   6.590   3.386
 1634TIP3    H1 4845   8.297   6.547   3.392
 1634TIP3    H2 4846   8.159   6.547   3.454
 1635TIP3   OH2 4847   4.065   2.158   1.384
 1635TIP3    H1 4848   4.003   2.098   1.343
 1635TIP3    H2 4849   4.062   2.236   1.327
 1636TIP3   OH2 4850   5.935   1.409   4.506
 1636TIP3    H1 4851   5.897   1.322   4.520
 1636TIP3    H2 4852   5.890   1.442   4.428
 1637TIP3   OH2 4853   0.194   5.758   3.498
 1637TIP3    H1 4854   0.259   5.770   3.566
 1637TIP3    H2 4855   0.169   5.666   3.504
 1638TIP3   OH2 4856   2.965   1.748   3.702
 1638TIP3    H1 4857   3.035   1.711   3.649
 1638TIP3    H2 4858   2.884   1.717   3.661
 1639TIP3   OH2 4859   6.280   4.379   6.729
 1639TIP3    H1 4860   6.339   4.446   6.694
 1639TIP3    H2 4861   6.230   4.350   6.653
 1640TIP3   OH2 4862   2.168   1.680   5.239
 1640TIP3    H1 4863   2.240   1.693   5.300
 1640TIP3    H2 4864   2.113   1.613   5.280
 1641TIP3   OH2 4865   1.357   7.743   4.409
 1641TIP3    H1 4866   1.417   7.775   4.476
 1641TIP3    H2 4867   1.402   7.760   4.327
 1642TIP3   OH2 4868   7.336   0.503   3.883
 1642TIP3    H1 4869   7.355   0.422   3.930
 1642TIP3    H2 4870   7.252   0.533   3.919
 1643TIP3   OH2 4871   3.661   2.143   0.938
 1643TIP3    H1 4872   3.600   2.129   0.865
 1643TIP3    H2 4873   3.605   2.154   1.015
 1644TIP3   OH2 4874   5.565   6.179   4.391
 1644TIP3    H1 4875   5.507   6.169   4.466
 1644TIP3    H2 4876   5.636   6.117   4.407
 1645TIP3   OH2 4877   2.019   1.003   4.307
 1645TIP3    H1 4878   2.066   0.924   4.336
 1645TIP3    H2 4879   2.034   1.066   4.378
 1646TIP3   OH2 4880   7.013   3.158   3.218
 1646TIP3    H1 4881   7.034   3.206   3.138
 1646TIP3    H2 4882   6.997   3.226   3.284
 1647TIP3   OH2 4883   6.652   1.637   2.387
 1647TIP3    H1 4884   6.556   1.644   2.390
 1647TIP3    H2 4885   6.683   1.708   2.444
 1648TIP3   OH2 4886   0.423   6.541   3.559
 1648TIP3    H1 4887   0.345   6.490   3.580
 1648TIP3    H2 4888   0.407   6.626   3.601
 1649TIP3   OH2 4889   8.018   6.025   1.846
 1649TIP3    H1 4890   7.938   6.009   1.898
 1649TIP3    H2 4891   8.073   5.949   1.864
 1650TIP3   OH2 4892   4.469   0.315   0.468
 1650TIP3    H1 4893   4.422   0.293   0.387
 1650TIP3    H2 4894   4.425   0.263   0.536
 1651TIP3   OH2 4895   8.208   0.301   4.343
 1651TIP3    H1 4896   8.280   0.332   4.399
 1651TIP3    H2 4897   8.156   0.245   4.401
 1652TIP3   OH2 4898   1.087   5.438   5.291
 1652TIP3    H1 4899   1.064   5.488   5.370
 1652TIP3    H2 4900   1.010   5.447   5.234
 1653TIP3   OH2 4901   6.839   3.308   0.535
 1653TIP3    H1 4902   6.754   3.338   0.566
 1653TIP3    H2 4903   6.894   3.386   0.535
 1654TIP3   OH2 4904   4.761   5.992   3.846
 1654TIP3    H1 4905   4.722   5.956   3.766
 1654TIP3    H2 4906   4.686   6.018   3.899
 1655TIP3   OH2 4907   7.159   6.278   5.608
 1655TIP3    H1 4908   7.140   6.195   5.653
 1655TIP3    H2 4909   7.073   6.309   5.579
 1656TIP3   OH2 4910   6.558   5.532   0.665
 1656TIP3    H1 4911   6.503   5.600   0.627
 1656TIP3    H2 4912   6.510   5.450   0.648
 1657TIP3   OH2 4913   4.117   5.784   0.965
 1657TIP3    H1 4914   4.066   5.777   1.046
 1657TIP3    H2 4915   4.093   5.707   0.914
 1658TIP3   OH2 4916   4.998   3.913   0.488
 1658TIP3    H1 4917   4.910   3.933   0.521
 1658TIP3    H2 4918   5.020   3.988   0.432
 1659TIP3   OH2 4919   7.618   5.962   5.526
 1659TIP3    H1 4920   7.652   5.905   5.595
 1659TIP3    H2 4921   7.583   6.038   5.572
 1660TIP3   OH2 4922   5.148   7.323   2.983
 1660TIP3    H1 4923   5.054   7.305   2.986
 1660TIP3    H2 4924   5.158   7.384   2.910
 1661TIP3   OH2 4925   2.214   1.143   5.728
 1661TIP3    H1 4926   2.159   1.068   5.704
 1661TIP3    H2 4927   2.203   1.205   5.657
 1662TIP3   OH2 4928   6.275   7.130   1.899
 1662TIP3    H1 4929   6.302   7.183   1.974
 1662TIP3    H2 4930   6.351   7.075   1.879
 1663TIP3   OH2 4931   3.914   4.205   3.192
 1663TIP3    H1 4932   3.855   4.207   3.116
 1663TIP3    H2 4933   3.948   4.115   3.194
 1664TIP3   OH2 4934   2.941   4.266   4.940
 1664TIP3    H1 4935   3.015   4.217   4.903
 1664TIP3    H2 4936   2.968   4.286   5.030
 1665TIP3   OH2 4937   8.049   5.497   4.547
 1665TIP3    H1 4938   8.027   5.446   4.469
 1665TIP3    H2 4939   8.144   5.501   4.547
 1666TIP3   OH2 4940   2.949   3.944   0.950
 1666TIP3    H1 4941   2.929   3.874   0.887
 1666TIP3    H2 4942   3.001   4.006   0.900
 1667TIP3   OH2 4943   4.515   2.631   6.395
 1667TIP3    H1 4944   4.425   2.599   6.402
 1667TIP3    H2 4945   4.568   2.553   6.381
 1668TIP3   OH2 4946   5.965   1.187   3.039
 1668TIP3    H1 4947   5.884   1.143   3.065
 1668TIP3    H2 4948   5.967   1.177   2.944
 1669TIP3   OH2 4949   1.787   6.236   6.076
 1669TIP3    H1 4950   1.719   6.255   6.140
 1669TIP3    H2 4951   1.814   6.322   6.043
 1670TIP3   OH2 4952   6.793   7.560   3.238
 1670TIP3    H1 4953   6.835   7.549   3.153
 1670TIP3    H2 4954   6.784   7.472   3.273
 1671TIP3   OH2 4955   3.476   7.042   4.896
 1671TIP3    H1 4956   3.554   7.096   4.884
 1671TIP3    H2 4957   3.409   7.085   4.844
 1672TIP3   OH2 4958   6.614   4.488   5.829
 1672TIP3    H1 4959   6.632   4.553   5.762
 1672TIP3    H2 4960   6.524   4.460   5.812
 1673TIP3   OH2 4961   0.061   2.924   5.365
 1673TIP3    H1 4962   0.132   2.979   5.400
 1673TIP3    H2 4963   0.011   2.983   5.309
 1674TIP3   OH2 4964   4.272   2.905   4.828
 1674TIP3    H1 4965   4.220   2.951   4.894
 1674TIP3    H2 4966   4.255   2.812   4.845
 1675TIP3   OH2 4967   2.392   7.077   3.781
 1675TIP3    H1 4968   2.347   7.077   3.697
 1675TIP3    H2 4969   2.329   7.116   3.842
 1676TIP3   OH2 4970   6.662   4.465   1.049
 1676TIP3    H1 4971   6.666   4.376   1.013
 1676TIP3    H2 4972   6.733   4.512   1.004
 1677TIP3   OH2 4973   5.992   3.281   0.548
 1677TIP3    H1 4974   5.924   3.261   0.612
 1677TIP3    H2 4975   6.037   3.357   0.584
 1678TIP3   OH2 4976   2.741   2.123   3.853
 1678TIP3    H1 4977   2.657   2.132   3.898
 1678TIP3    H2 4978   2.757   2.029   3.849
 1679TIP3   OH2 4979   2.795   7.227   4.807
 1679TIP3    H1 4980   2.750   7.152   4.770
 1679TIP3    H2 4981   2.801   7.290   4.735
 1680TIP3   OH2 4982   4.080   2.927   6.172
 1680TIP3    H1 4983   4.166   2.907   6.136
 1680TIP3    H2 4984   4.045   2.842   6.199
 1681TIP3   OH2 4985   1.701   0.742   1.478
 1681TIP3    H1 4986   1.691   0.777   1.566
 1681TIP3    H2 4987   1.710   0.820   1.422
 1682TIP3   OH2 4988   1.848   0.464   5.524
 1682TIP3    H1 4989   1.909   0.470   5.451
 1682TIP3    H2 4990   1.852   0.372   5.551
 1683TIP3   OH2 4991   1.218   2.839   5.256
 1683TIP3    H1 4992   1.208   2.920   5.207
 1683TIP3    H2 4993   1.289   2.857   5.318
 1684TIP3   OH2 4994   4.507   5.911   6.254
 1684TIP3    H1 4995   4.518   5.816   6.254
 1684TIP3    H2 4996   4.458   5.930   6.174
 1685TIP3   OH2 4997   5.156   4.744   1.235
 1685TIP3    H1 4998   5.171   4.658   1.274
 1685TIP3    H2 4999   5.242   4.773   1.206
 1686TIP3   OH2 5000   3.360   7.052   5.906
 1686TIP3    H1 5001   3.335   6.960   5.897
 1686TIP3    H2 5002   3.448   7.050   5.945
 1687TIP3   OH2 5003   6.344   0.650   3.764
 1687TIP3    H1 5004   6.384   0.563   3.767
 1687TIP3    H2 5005   6.266   0.639   3.710
 1688TIP3   OH2 5006   6.926   4.668   0.630
 1688TIP3    H1 5007   6.855   4.670   0.693
 1688TIP3    H2 5008   7.005   4.682   0.682
 1689TIP3   OH2 5009   2.553   4.032   3.944
 1689TIP3    H1 5010   2.590   4.078   3.868
 1689TIP3    H2 5011   2.569   4.091   4.017
 1690TIP3   OH2 5012   6.247   1.573   1.677
 1690TIP3    H1 5013   6.245   1.637   1.748
 1690TIP3    H2 5014   6.156   1.547   1.665
 1691TIP3   OH2 5015   6.964   6.726   0.704
 1691TIP3    H1 5016   6.987   6.744   0.613
 1691TIP3    H2 5017   6.975   6.810   0.748
 1692TIP3   OH2 5018   2.008   2.391   5.923
 1692TIP3    H1 5019   1.982   2.479   5.950
 1692TIP3    H2 5020   1.975   2.384   5.833
 1693TIP3   OH2 5021   5.026   1.592   0.085
 1693TIP3    H1 5022   5.006   1.653   0.157
 1693TIP3    H2 5023   5.066   1.517   0.127
 1694TIP3   OH2 5024   2.917   3.196   5.474
 1694TIP3    H1 5025   2.936   3.140   5.398
 1694TIP3    H2 5026   3.000   3.239   5.493
 1695TIP3   OH2 5027   8.027   4.799   5.653
 1695TIP3    H1 5028   7.950   4.762   5.696
 1695TIP3    H2 5029   8.094   4.732   5.664
 1696TIP3   OH2 5030   4.651   5.622   3.646
 1696TIP3    H1 5031   4.686   5.607   3.734
 1696TIP3    H2 5032   4.704   5.567   3.589
 1697TIP3   OH2 5033   3.412   2.131   6.371
 1697TIP3    H1 5034   3.440   2.071   6.302
 1697TIP3    H2 5035   3.469   2.111   6.445
 1698TIP3   OH2 5036   0.826   3.126   2.838
 1698TIP3    H1 5037   0.848   3.034   2.829
 1698TIP3    H2 5038   0.743   3.127   2.886
 1699TIP3   OH2 5039   8.075   0.206   2.591
 1699TIP3    H1 5040   8.123   0.177   2.668
 1699TIP3    H2 5041   8.136   0.196   2.519
 1700TIP3   OH2 5042   6.186   5.424   4.694
 1700TIP3    H1 5043   6.192   5.515   4.724
 1700TIP3    H2 5044   6.276   5.400   4.671
 1701TIP3   OH2 5045   5.186   4.965   6.221
 1701TIP3    H1 5046   5.210   4.879   6.256
 1701TIP3    H2 5047   5.114   4.947   6.161
 1702TIP3   OH2 5048   7.048   2.955   2.352
 1702TIP3    H1 5049   7.080   2.996   2.272
 1702TIP3    H2 5050   6.991   3.021   2.392
 1703TIP3   OH2 5051   3.442   4.026   1.951
 1703TIP3    H1 5052   3.474   4.035   1.862
 1703TIP3    H2 5053   3.414   4.115   1.976
 1704TIP3   OH2 5054   7.827   4.624   6.175
 1704TIP3    H1 5055   7.796   4.705   6.215
 1704TIP3    H2 5056   7.881   4.582   6.242
 1705TIP3   OH2 5057   2.488   7.726   2.359
 1705TIP3    H1 5058   2.521   7.775   2.283
 1705TIP3    H2 5059   2.483   7.636   2.328
 1706TIP3   OH2 5060   6.454   7.350   1.677
 1706TIP3    H1 5061   6.401   7.430   1.674
 1706TIP3    H2 5062   6.405   7.287   1.625
 1707TIP3   OH2 5063   6.091   1.021   6.273
 1707TIP3    H1 5064   6.094   1.066   6.188
 1707TIP3    H2 5065   6.085   1.091   6.337
 1708TIP3   OH2 5066   4.643   0.914   3.972
 1708TIP3    H1 5067   4.670   0.852   3.904
 1708TIP3    H2 5068   4.725   0.945   4.010
 1709TIP3   OH2 5069   7.308   5.920   6.029
 1709TIP3    H1 5070   7.306   5.957   5.941
 1709TIP3    H2 5071   7.387   5.956   6.068
 1710TIP3   OH2 5072   2.065   6.264   5.662
 1710TIP3    H1 5073   2.059   6.178   5.620
 1710TIP3    H2 5074   2.018   6.323   5.603
 1711TIP3   OH2 5075   4.942   6.616   2.922
 1711TIP3    H1 5076   4.978   6.626   3.011
 1711TIP3    H2 5077   4.972   6.693   2.875
 1712TIP3   OH2 5078   6.540   1.455   6.363
 1712TIP3    H1 5079   6.556   1.446   6.269
 1712TIP3    H2 5080   6.473   1.390   6.382
 1713TIP3   OH2 5081   2.450   1.332   1.883
 1713TIP3    H1 5082   2.543   1.342   1.863
 1713TIP3    H2 5083   2.416   1.277   1.813
 1714TIP3   OH2 5084   6.477   0.047   2.064
 1714TIP3    H1 5085   6.564   0.052   2.024
 1714TIP3    H2 5086   6.488   0.092   2.148
 1715TIP3   OH2 5087   4.816   2.893   2.586
 1715TIP3    H1 5088   4.870   2.946   2.528
 1715TIP3    H2 5089   4.796   2.951   2.660
 1716TIP3   OH2 5090   0.781   3.992   1.064
 1716TIP3    H1 5091   0.785   4.011   0.970
 1716TIP3    H2 5092   0.851   3.928   1.079
 1717TIP3   OH2 5093   2.278   2.536   4.073
 1717TIP3    H1 5094   2.221   2.531   3.996
 1717TIP3    H2 5095   2.365   2.548   4.037
 1718TIP3   OH2 5096   4.131   0.824   2.454
 1718TIP3    H1 5097   4.085   0.743   2.433
 1718TIP3    H2 5098   4.071   0.871   2.512
 1719TIP3   OH2 5099   2.283   0.763   2.660
 1719TIP3    H1 5100   2.326   0.831   2.712
 1719TIP3    H2 5101   2.311   0.779   2.570
 1720TIP3   OH2 5102   0.463   5.887   4.818
 1720TIP3    H1 5103   0.478   5.802   4.859
 1720TIP3    H2 5104   0.394   5.928   4.869
 1721TIP3   OH2 5105   2.325   3.889   4.742
 1721TIP3    H1 5106   2.290   3.881   4.831
 1721TIP3    H2 5107   2.272   3.957   4.701
 1722TIP3   OH2 5108   4.091   5.909   5.612
 1722TIP3    H1 5109   4.140   5.917   5.693
 1722TIP3    H2 5110   4.089   5.815   5.594
 1723TIP3   OH2 5111   5.965   5.737   2.658
 1723TIP3    H1 5112   5.935   5.801   2.723
 1723TIP3    H2 5113   5.892   5.730   2.596
 1724TIP3   OH2 5114   1.754   2.570   3.787
 1724TIP3    H1 5115   1.669   2.526   3.788
 1724TIP3    H2 5116   1.765   2.598   3.696
 1725TIP3   OH2 5117   6.773   0.595   1.343
 1725TIP3    H1 5118   6.705   0.627   1.283
 1725TIP3    H2 5119   6.840   0.558   1.285
 1726TIP3   OH2 5120   3.254   6.973   6.242
 1726TIP3    H1 5121   3.283   6.884   6.263
 1726TIP3    H2 5122   3.217   6.966   6.154
 1727TIP3   OH2 5123   3.739   4.729   1.862
 1727TIP3    H1 5124   3.765   4.717   1.953
 1727TIP3    H2 5125   3.756   4.822   1.845
 1728TIP3   OH2 5126   8.246   2.188   6.096
 1728TIP3    H1 5127   8.220   2.236   6.174
 1728TIP3    H2 5128   8.255   2.255   6.028
 1729TIP3   OH2 5129   5.745   0.464   3.107
 1729TIP3    H1 5130   5.745   0.369   3.110
 1729TIP3    H2 5131   5.662   0.489   3.147
 1730TIP3   OH2 5132   5.118   1.143   3.356
 1730TIP3    H1 5133   5.110   1.166   3.263
 1730TIP3    H2 5134   5.028   1.138   3.388
 1731TIP3   OH2 5135   2.728   2.442   6.331
 1731TIP3    H1 5136   2.754   2.463   6.421
 1731TIP3    H2 5137   2.670   2.513   6.305
 1732TIP3   OH2 5138   0.163   4.172   3.552
 1732TIP3    H1 5139   0.071   4.146   3.542
 1732TIP3    H2 5140   0.183   4.220   3.471
 1733TIP3   OH2 5141   0.718   3.265   2.039
 1733TIP3    H1 5142   0.801   3.266   1.992
 1733TIP3    H2 5143   0.667   3.337   1.999
 1734TIP3   OH2 5144   2.715   0.325   6.739
 1734TIP3    H1 5145   2.699   0.400   6.681
 1734TIP3    H2 5146   2.806   0.300   6.722
 1735TIP3   OH2 5147   5.002   5.320   0.681
 1735TIP3    H1 5148   5.075   5.265   0.709
 1735TIP3    H2 5149   4.931   5.257   0.663
 1736TIP3   OH2 5150   7.595   7.422   2.766
 1736TIP3    H1 5151   7.672   7.451   2.717
 1736TIP3    H2 5152   7.613   7.330   2.788
 1737TIP3   OH2 5153   6.201   5.455   1.649
 1737TIP3    H1 5154   6.246   5.375   1.621
 1737TIP3    H2 5155   6.168   5.435   1.736
 1738TIP3   OH2 5156   0.863   3.156   4.317
 1738TIP3    H1 5157   0.822   3.097   4.254
 1738TIP3    H2 5158   0.956   3.136   4.311
 1739TIP3   OH2 5159   2.753   7.321   2.068
 1739TIP3    H1 5160   2.818   7.379   2.107
 1739TIP3    H2 5161   2.700   7.290   2.142
 1740TIP3   OH2 5162   7.944   5.222   0.773
 1740TIP3    H1 5163   7.890   5.158   0.818
 1740TIP3    H2 5164   8.021   5.233   0.828
 1741TIP3   OH2 5165   5.162   7.751   2.012
 1741TIP3    H1 5166   5.196   7.693   1.944
 1741TIP3    H2 5167   5.142   7.833   1.967
 1742TIP3   OH2 5168   3.689   1.367   5.123
 1742TIP3    H1 5169   3.740   1.413   5.190
 1742TIP3    H2 5170   3.755   1.327   5.066
 1743TIP3   OH2 5171   8.009   5.281   5.972
 1743TIP3    H1 5172   8.046   5.357   5.928
 1743TIP3    H2 5173   7.921   5.309   5.997
 1744TIP3   OH2 5174   2.334   4.579   0.395
 1744TIP3    H1 5175   2.321   4.490   0.428
 1744TIP3    H2 5176   2.370   4.567   0.307
 1745TIP3   OH2 5177   3.586   7.453   3.608
 1745TIP3    H1 5178   3.601   7.418   3.521
 1745TIP3    H2 5179   3.492   7.473   3.610
 1746TIP3   OH2 5180   2.384   1.417   5.855
 1746TIP3    H1 5181   2.453   1.426   5.790
 1746TIP3    H2 5182   2.303   1.410   5.805
 1747TIP3   OH2 5183   0.825   0.575   1.008
 1747TIP3    H1 5184   0.743   0.551   1.052
 1747TIP3    H2 5185   0.835   0.511   0.939
 1748TIP3   OH2 5186   6.392   1.229   1.724
 1748TIP3    H1 5187   6.372   1.252   1.634
 1748TIP3    H2 5188   6.471   1.175   1.718
 1749TIP3   OH2 5189   4.296   5.385   4.196
 1749TIP3    H1 5190   4.230   5.370   4.263
 1749TIP3    H2 5191   4.293   5.480   4.181
 1750TIP3   OH2 5192   5.378   1.712   4.791
 1750TIP3    H1 5193   5.452   1.759   4.829
 1750TIP3    H2 5194   5.306   1.776   4.792
 1751TIP3   OH2 5195   4.878   2.708   3.701
 1751TIP3    H1 5196   4.791   2.714   3.740
 1751TIP3    H2 5197   4.930   2.773   3.748
 1752TIP3   OH2 5198   1.067   7.784   1.532
 1752TIP3    H1 5199   1.105   7.716   1.587
 1752TIP3    H2 5200   1.009   7.834   1.590
 1753TIP3   OH2 5201   7.111   5.320   1.724
 1753TIP3    H1 5202   7.207   5.316   1.722
 1753TIP3    H2 5203   7.090   5.397   1.670
 1754TIP3   OH2 5204   7.230   5.634   1.349
 1754TIP3    H1 5205   7.165   5.703   1.364
 1754TIP3    H2 5206   7.305   5.679   1.311
 1755TIP3   OH2 5207   1.232   1.376   6.625
 1755TIP3    H1 5208   1.257   1.409   6.539
 1755TIP3    H2 5209   1.276   1.434   6.687
 1756TIP3   OH2 5210   4.252   7.750   3.387
 1756TIP3    H1 5211   4.342   7.734   3.360
 1756TIP3    H2 5212   4.202   7.679   3.347
 1757TIP3   OH2 5213   0.946   4.720   1.463
 1757TIP3    H1 5214   0.941   4.625   1.452
 1757TIP3    H2 5215   0.974   4.733   1.553
 1758TIP3   OH2 5216   1.870   5.096   4.657
 1758TIP3    H1 5217   1.815   5.101   4.578
 1758TIP3    H2 5218   1.880   5.186   4.685
 1759TIP3   OH2 5219   1.741   5.067   0.521
 1759TIP3    H1 5220   1.736   5.055   0.427
 1759TIP3    H2 5221   1.782   4.987   0.553
 1760TIP3   OH2 5222   5.731   3.278   0.019
 1760TIP3    H1 5223   5.807   3.300  -0.035
 1760TIP3    H2 5224   5.748   3.321   0.103
 1761TIP3   OH2 5225   0.104   2.595   1.505
 1761TIP3    H1 5226   0.026   2.611   1.452
 1761TIP3    H2 5227   0.078   2.525   1.565
 1762TIP3   OH2 5228   5.912   7.707   1.912
 1762TIP3    H1 5229   5.866   7.636   1.867
 1762TIP3    H2 5230   5.965   7.663   1.978
 1763TIP3   OH2 5231   5.996   5.872   0.341
 1763TIP3    H1 5232   6.009   5.945   0.280
 1763TIP3    H2 5233   5.977   5.797   0.284
 1764TIP3   OH2 5234   4.552   0.826   4.633
 1764TIP3    H1 5235   4.478   0.853   4.578
 1764TIP3    H2 5236   4.524   0.742   4.671
 1765TIP3   OH2 5237   6.106   4.913   3.470
 1765TIP3    H1 5238   6.060   4.830   3.484
 1765TIP3    H2 5239   6.037   4.975   3.450
 1766TIP3   OH2 5240   4.401   6.418   4.339
 1766TIP3    H1 5241   4.406   6.367   4.259
 1766TIP3    H2 5242   4.309   6.444   4.346
 1767TIP3   OH2 5243   5.335   3.509   2.063
 1767TIP3    H1 5244   5.326   3.605   2.067
 1767TIP3    H2 5245   5.252   3.477   2.100
 1768TIP3   OH2 5246   4.978   7.064   1.122
 1768TIP3    H1 5247   5.064   7.032   1.149
 1768TIP3    H2 5248   4.997   7.129   1.054
 1769TIP3   OH2 5249   7.022   4.266   5.147
 1769TIP3    H1 5250   7.090   4.322   5.185
 1769TIP3    H2 5251   7.065   4.182   5.132
 1770TIP3   OH2 5252   7.790   4.362   2.055
 1770TIP3    H1 5253   7.790   4.270   2.030
 1770TIP3    H2 5254   7.710   4.373   2.107
 1771TIP3   OH2 5255   4.330   2.104   4.704
 1771TIP3    H1 5256   4.405   2.106   4.764
 1771TIP3    H2 5257   4.365   2.131   4.620
 1772TIP3   OH2 5258   5.348   2.594   1.978
 1772TIP3    H1 5259   5.275   2.552   2.024
 1772TIP3    H2 5260   5.424   2.580   2.036
 1773TIP3   OH2 5261   0.855   5.260   3.522
 1773TIP3    H1 5262   0.831   5.310   3.600
 1773TIP3    H2 5263   0.944   5.228   3.542
 1774TIP3   OH2 5264   3.883   1.900   6.210
 1774TIP3    H1 5265   3.876   1.810   6.242
 1774TIP3    H2 5266   3.854   1.954   6.283
 1775TIP3   OH2 5267   6.136   2.364   5.845
 1775TIP3    H1 5268   6.075   2.399   5.781
 1775TIP3    H2 5269   6.100   2.279   5.870
 1776TIP3   OH2 5270   3.922   6.861   4.664
 1776TIP3    H1 5271   3.857   6.885   4.598
 1776TIP3    H2 5272   3.892   6.776   4.697
 1777TIP3   OH2 5273   0.238   7.512   6.725
 1777TIP3    H1 5274   0.285   7.519   6.642
 1777TIP3    H2 5275   0.152   7.551   6.707
 1778TIP3   OH2 5276   7.036   0.755   6.153
 1778TIP3    H1 5277   7.054   0.717   6.067
 1778TIP3    H2 5278   7.005   0.681   6.206
 1779TIP3   OH2 5279   7.632   7.648   1.634
 1779TIP3    H1 5280   7.599   7.578   1.578
 1779TIP3    H2 5281   7.689   7.604   1.697
 1780TIP3   OH2 5282   5.787   4.013   0.205
 1780TIP3    H1 5283   5.784   3.920   0.184
 1780TIP3    H2 5284   5.880   4.033   0.214
 1781TIP3   OH2 5285   7.226   2.148   4.673
 1781TIP3    H1 5286   7.313   2.149   4.633
 1781TIP3    H2 5287   7.206   2.055   4.685
 1782TIP3   OH2 5288   5.703   1.860   0.582
 1782TIP3    H1 5289   5.746   1.784   0.620
 1782TIP3    H2 5290   5.610   1.845   0.596
 1783TIP3   OH2 5291   5.505   7.346   5.559
 1783TIP3    H1 5292   5.487   7.324   5.650
 1783TIP3    H2 5293   5.439   7.411   5.536
 1784TIP3   OH2 5294   2.000   3.364   1.582
 1784TIP3    H1 5295   2.016   3.277   1.545
 1784TIP3    H2 5296   1.932   3.350   1.648
 1785TIP3   OH2 5297   6.079   0.297   5.157
 1785TIP3    H1 5298   6.159   0.341   5.187
 1785TIP3    H2 5299   6.052   0.244   5.233
 1786TIP3   OH2 5300   7.044   3.915   0.529
 1786TIP3    H1 5301   7.105   3.976   0.572
 1786TIP3    H2 5302   7.076   3.909   0.439
 1787TIP3   OH2 5303   8.062   3.445   3.600
 1787TIP3    H1 5304   8.030   3.356   3.615
 1787TIP3    H2 5305   8.105   3.469   3.682
 1788TIP3   OH2 5306   7.565   1.474   5.409
 1788TIP3    H1 5307   7.527   1.406   5.354
 1788TIP3    H2 5308   7.571   1.434   5.496
 1789TIP3   OH2 5309   7.761   1.264   0.989
 1789TIP3    H1 5310   7.711   1.279   0.909
 1789TIP3    H2 5311   7.709   1.304   1.058
 1790TIP3   OH2 5312   4.917   5.720   6.451
 1790TIP3    H1 5313   4.846   5.656   6.446
 1790TIP3    H2 5314   4.975   5.688   6.519
 1791TIP3   OH2 5315   8.225   6.795   1.393
 1791TIP3    H1 5316   8.178   6.743   1.328
 1791TIP3    H2 5317   8.317   6.769   1.382
 1792TIP3   OH2 5318   4.143   2.383   3.702
 1792TIP3    H1 5319   4.190   2.382   3.786
 1792TIP3    H2 5320   4.086   2.307   3.705
 1793TIP3   OH2 5321   3.888   6.393   4.449
 1793TIP3    H1 5322   3.876   6.301   4.425
 1793TIP3    H2 5323   3.809   6.416   4.496
 1794TIP3   OH2 5324   0.564   2.294   3.462
 1794TIP3    H1 5325   0.617   2.373   3.451
 1794TIP3    H2 5326   0.609   2.228   3.410
 1795TIP3   OH2 5327   0.619   6.477   2.735
 1795TIP3    H1 5328   0.553   6.529   2.691
 1795TIP3    H2 5329   0.694   6.478   2.676
 1796TIP3   OH2 5330   3.847   2.469   6.698
 1796TIP3    H1 5331   3.935   2.484   6.733
 1796TIP3    H2 5332   3.845   2.519   6.617
 1797TIP3   OH2 5333   6.222   7.536   3.451
 1797TIP3    H1 5334   6.190   7.510   3.537
 1797TIP3    H2 5335   6.287   7.471   3.428
 1798TIP3   OH2 5336   0.729   4.910   3.097
 1798TIP3    H1 5337   0.651   4.877   3.142
 1798TIP3    H2 5338   0.695   4.961   3.024
 1799TIP3   OH2 5339   6.413   1.283   5.573
 1799TIP3    H1 5340   6.455   1.368   5.583
 1799TIP3    H2 5341   6.320   1.302   5.571
 1800TIP3   OH2 5342   6.359   6.950   4.556
 1800TIP3    H1 5343   6.363   6.873   4.612
 1800TIP3    H2 5344   6.348   7.023   4.617
 1801TIP3   OH2 5345   7.506   3.121   1.018
 1801TIP3    H1 5346   7.551   3.195   0.976
 1801TIP3    H2 5347   7.568   3.048   1.012
 1802TIP3   OH2 5348   2.918   4.749   0.070
 1802TIP3    H1 5349   2.928   4.789  -0.016
 1802TIP3    H2 5350   2.885   4.820   0.126
 1803TIP3   OH2 5351   6.634   0.433   3.024
 1803TIP3    H1 5352   6.557   0.377   3.029
 1803TIP3    H2 5353   6.657   0.434   2.931
 1804TIP3   OH2 5354   2.108   0.047   5.595
 1804TIP3    H1 5355   2.194   0.036   5.554
 1804TIP3    H2 5356   2.052  -0.018   5.552
 1805TIP3   OH2 5357   6.255   2.068   4.688
 1805TIP3    H1 5358   6.327   2.011   4.662
 1805TIP3    H2 5359   6.283   2.105   4.772
 1806TIP3   OH2 5360   7.069   3.456   6.014
 1806TIP3    H1 5361   7.063   3.527   5.952
 1806TIP3    H2 5362   7.092   3.379   5.961
 1807TIP3   OH2 5363   7.097   7.652   6.369
 1807TIP3    H1 5364   7.018   7.605   6.342
 1807TIP3    H2 5365   7.147   7.586   6.418
 1808TIP3   OH2 5366   2.671   3.975   1.105
 1808TIP3    H1 5367   2.625   3.932   1.033
 1808TIP3    H2 5368   2.762   3.979   1.076
 1809TIP3   OH2 5369   7.980   4.373   5.258
 1809TIP3    H1 5370   8.069   4.358   5.225
 1809TIP3    H2 5371   7.993   4.408   5.346
 1810TIP3   OH2 5372   7.535   0.682   5.473
 1810TIP3    H1 5373   7.456   0.702   5.524
 1810TIP3    H2 5374   7.512   0.603   5.424
 1811TIP3   OH2 5375   1.691   1.372   2.528
 1811TIP3    H1 5376   1.613   1.401   2.482
 1811TIP3    H2 5377   1.681   1.407   2.617
 1812TIP3   OH2 5378   3.272   0.214   0.617
 1812TIP3    H1 5379   3.311   0.286   0.566
 1812TIP3    H2 5380   3.314   0.220   0.703
 1813TIP3   OH2 5381   1.600   5.248   4.540
 1813TIP3    H1 5382   1.656   5.175   4.514
 1813TIP3    H2 5383   1.537   5.210   4.601
 1814TIP3   OH2 5384   5.444   6.435   3.143
 1814TIP3    H1 5385   5.537   6.443   3.121
 1814TIP3    H2 5386   5.406   6.520   3.120
 1815TIP3   OH2 5387   7.098   1.438   4.749
 1815TIP3    H1 5388   7.183   1.400   4.771
 1815TIP3    H2 5389   7.038   1.363   4.748
 1816TIP3   OH2 5390   2.129   1.489   4.203
 1816TIP3    H1 5391   2.045   1.443   4.200
 1816TIP3    H2 5392   2.109   1.574   4.243
 1817TIP3   OH2 5393   6.418   2.981   0.783
 1817TIP3    H1 5394   6.353   2.940   0.840
 1817TIP3    H2 5395   6.446   3.059   0.831
 1818TIP3   OH2 5396   7.076   6.864   3.391
 1818TIP3    H1 5397   7.002   6.923   3.398
 1818TIP3    H2 5398   7.058   6.795   3.455
 1819TIP3   OH2 5399   2.121   5.209   6.294
 1819TIP3    H1 5400   2.030   5.230   6.273
 1819TIP3    H2 5401   2.161   5.187   6.209
 1820TIP3   OH2 5402   7.931   4.297   1.550
 1820TIP3    H1 5403   7.975   4.215   1.529
 1820TIP3    H2 5404   7.972   4.326   1.632
 1821TIP3   OH2 5405   2.295   4.411   1.309
 1821TIP3    H1 5406   2.253   4.334   1.270
 1821TIP3    H2 5407   2.310   4.387   1.400
 1822TIP3   OH2 5408   6.806   7.479   5.233
 1822TIP3    H1 5409   6.756   7.555   5.204
 1822TIP3    H2 5410   6.897   7.511   5.237
 1823TIP3   OH2 5411   0.647   7.381   3.597
 1823TIP3    H1 5412   0.611   7.326   3.528
 1823TIP3    H2 5413   0.724   7.423   3.556
 1824TIP3   OH2 5414   3.567   6.885   1.524
 1824TIP3    H1 5415   3.539   6.822   1.590
 1824TIP3    H2 5416   3.548   6.971   1.563
 1825TIP3   OH2 5417   4.204   3.418   4.815
 1825TIP3    H1 5418   4.219   3.330   4.780
 1825TIP3    H2 5419   4.117   3.441   4.783
 1826TIP3   OH2 5420   2.522   5.758   4.116
 1826TIP3    H1 5421   2.462   5.685   4.105
 1826TIP3    H2 5422   2.569   5.739   4.197
 1827TIP3   OH2 5423   3.482   4.614   3.786
 1827TIP3    H1 5424   3.539   4.655   3.721
 1827TIP3    H2 5425   3.479   4.677   3.858
 1828TIP3   OH2 5426   1.141   5.601   0.279
 1828TIP3    H1 5427   1.234   5.593   0.259
 1828TIP3    H2 5428   1.104   5.516   0.255
 1829TIP3   OH2 5429   2.135   2.691   3.837
 1829TIP3    H1 5430   2.095   2.605   3.845
 1829TIP3    H2 5431   2.065   2.753   3.859
 1830TIP3   OH2 5432   0.199   5.866   3.995
 1830TIP3    H1 5433   0.168   5.836   3.909
 1830TIP3    H2 5434   0.155   5.950   4.009
 1831TIP3   OH2 5435   5.371   7.033   5.813
 1831TIP3    H1 5436   5.364   7.067   5.723
 1831TIP3    H2 5437   5.451   6.981   5.812
 1832TIP3   OH2 5438   2.044   3.072   3.591
 1832TIP3    H1 5439   2.132   3.040   3.610
 1832TIP3    H2 5440   2.009   3.011   3.526
 1833TIP3   OH2 5441   7.712   4.110   0.056
 1833TIP3    H1 5442   7.780   4.077   0.115
 1833TIP3    H2 5443   7.709   4.204   0.072
 1834TIP3   OH2 5444   4.746   1.890   2.490
 1834TIP3    H1 5445   4.697   1.822   2.535
 1834TIP3    H2 5446   4.692   1.910   2.413
 1835TIP3   OH2 5447   4.604   4.976   3.917
 1835TIP3    H1 5448   4.535   4.954   3.980
 1835TIP3    H2 5449   4.631   5.065   3.942
 1836TIP3   OH2 5450   3.471   5.003   4.412
 1836TIP3    H1 5451   3.469   5.096   4.435
 1836TIP3    H2 5452   3.553   4.992   4.364
 1837TIP3   OH2 5453   8.097   2.166   3.594
 1837TIP3    H1 5454   8.105   2.185   3.501
 1837TIP3    H2 5455   8.010   2.199   3.618
 1838TIP3   OH2 5456   1.247   7.408   3.693
 1838TIP3    H1 5457   1.193   7.477   3.732
 1838TIP3    H2 5458   1.325   7.453   3.661
 1839TIP3   OH2 5459   2.407   2.837   5.514
 1839TIP3    H1 5460   2.384   2.777   5.585
 1839TIP3    H2 5461   2.440   2.916   5.559
 1840TIP3   OH2 5462   7.805   7.454   2.311
 1840TIP3    H1 5463   7.725   7.415   2.349
 1840TIP3    H2 5464   7.778   7.542   2.286
 1841TIP3   OH2 5465   3.964   6.811   0.264
 1841TIP3    H1 5466   3.940   6.904   0.267
 1841TIP3    H2 5467   4.060   6.811   0.270
 1842TIP3   OH2 5468   0.394   5.812   5.521
 1842TIP3    H1 5469   0.390   5.756   5.599
 1842TIP3    H2 5470   0.310   5.800   5.478
 1843TIP3   OH2 5471   6.699   0.590   4.328
 1843TIP3    H1 5472   6.637   0.647   4.282
 1843TIP3    H2 5473   6.785   0.617   4.296
 1844TIP3   OH2 5474   0.410   4.318   2.462
 1844TIP3    H1 5475   0.405   4.414   2.468
 1844TIP3    H2 5476   0.496   4.296   2.499
 1845TIP3   OH2 5477   0.739   4.377   6.289
 1845TIP3    H1 5478   0.726   4.450   6.228
 1845TIP3    H2 5479   0.830   4.385   6.316
 1846TIP3   OH2 5480   5.865   1.429   5.271
 1846TIP3    H1 5481   5.825   1.391   5.192
 1846TIP3    H2 5482   5.943   1.376   5.286
 1847TIP3   OH2 5483   4.475   7.821   2.584
 1847TIP3    H1 5484   4.382   7.802   2.591
 1847TIP3    H2 5485   4.512   7.745   2.540
 1848TIP3   OH2 5486   7.181   7.378   3.254
 1848TIP3    H1 5487   7.229   7.298   3.232
 1848TIP3    H2 5488   7.109   7.348   3.310
 1849TIP3   OH2 5489   3.312   0.113   4.898
 1849TIP3    H1 5490   3.374   0.169   4.946
 1849TIP3    H2 5491   3.264   0.067   4.966
 1850TIP3   OH2 5492   6.134   6.546   4.432
 1850TIP3    H1 5493   6.153   6.479   4.367
 1850TIP3    H2 5494   6.181   6.518   4.511
 1851TIP3   OH2 5495   0.477   7.061   5.953
 1851TIP3    H1 5496   0.452   7.153   5.941
 1851TIP3    H2 5497   0.407   7.025   6.007
 1852TIP3   OH2 5498   5.475   0.663   3.789
 1852TIP3    H1 5499   5.508   0.639   3.702
 1852TIP3    H2 5500   5.382   0.641   3.786
 1853TIP3   OH2 5501   1.167   3.089   2.392
 1853TIP3    H1 5502   1.108   3.122   2.324
 1853TIP3    H2 5503   1.125   3.115   2.474
 1854TIP3   OH2 5504   5.972   6.178   2.929
 1854TIP3    H1 5505   6.054   6.137   2.901
 1854TIP3    H2 5506   5.954   6.140   3.015
 1855TIP3   OH2 5507   0.368   6.649   5.844
 1855TIP3    H1 5508   0.317   6.698   5.780
 1855TIP3    H2 5509   0.453   6.636   5.802
 1856TIP3   OH2 5510   5.271   1.206   1.800
 1856TIP3    H1 5511   5.178   1.211   1.780
 1856TIP3    H2 5512   5.275   1.198   1.896
 1857TIP3   OH2 5513   0.345   4.652   1.624
 1857TIP3    H1 5514   0.306   4.727   1.669
 1857TIP3    H2 5515   0.437   4.653   1.651
 1858TIP3   OH2 5516   0.600   5.175   0.478
 1858TIP3    H1 5517   0.676   5.126   0.446
 1858TIP3    H2 5518   0.595   5.252   0.421
 1859TIP3   OH2 5519   2.516   3.282   3.654
 1859TIP3    H1 5520   2.572   3.208   3.680
 1859TIP3    H2 5521   2.560   3.359   3.691
 1860TIP3   OH2 5522   2.319   5.985   5.966
 1860TIP3    H1 5523   2.252   5.999   6.032
 1860TIP3    H2 5524   2.306   6.054   5.902
 1861TIP3   OH2 5525   7.104   3.080   6.113
 1861TIP3    H1 5526   7.068   3.002   6.156
 1861TIP3    H2 5527   7.031   3.117   6.064
 1862TIP3   OH2 5528   7.550   3.473   1.429
 1862TIP3    H1 5529   7.576   3.396   1.379
 1862TIP3    H2 5530   7.497   3.438   1.501
 1863TIP3   OH2 5531   0.258   5.202   3.410
 1863TIP3    H1 5532   0.351   5.190   3.391
 1863TIP3    H2 5533   0.246   5.164   3.497
 1864TIP3   OH2 5534   0.848   3.747   4.678
 1864TIP3    H1 5535   0.859   3.707   4.764
 1864TIP3    H2 5536   0.756   3.773   4.675
 1865TIP3   OH2 5537   1.396   3.831   2.993
 1865TIP3    H1 5538   1.464   3.771   2.962
 1865TIP3    H2 5539   1.314   3.790   2.965
 1866TIP3   OH2 5540   6.056   3.482   2.685
 1866TIP3    H1 5541   6.141   3.470   2.644
 1866TIP3    H2 5542   5.992   3.462   2.616
 1867TIP3   OH2 5543   4.075   6.610   6.114
 1867TIP3    H1 5544   4.144   6.601   6.180
 1867TIP3    H2 5545   4.085   6.533   6.058
 1868TIP3   OH2 5546   5.917   5.467   6.135
 1868TIP3    H1 5547   5.938   5.424   6.218
 1868TIP3    H2 5548   5.998   5.512   6.111
 1869TIP3   OH2 5549   3.392   0.212   5.868
 1869TIP3    H1 5550   3.375   0.244   5.957
 1869TIP3    H2 5551   3.318   0.154   5.849
 1870TIP3   OH2 5552   4.231   6.718   1.681
 1870TIP3    H1 5553   4.247   6.763   1.598
 1870TIP3    H2 5554   4.189   6.636   1.656
 1871TIP3   OH2 5555   7.780   2.825   1.416
 1871TIP3    H1 5556   7.755   2.742   1.456
 1871TIP3    H2 5557   7.858   2.805   1.364
 1872TIP3   OH2 5558   1.221   3.583   3.407
 1872TIP3    H1 5559   1.167   3.577   3.329
 1872TIP3    H2 5560   1.221   3.676   3.430
 1873TIP3   OH2 5561   2.341   3.496   4.266
 1873TIP3    H1 5562   2.372   3.561   4.329
 1873TIP3    H2 5563   2.395   3.509   4.188
 1874TIP3   OH2 5564   4.266   7.301   0.050
 1874TIP3    H1 5565   4.172   7.311   0.033
 1874TIP3    H2 5566   4.300   7.390   0.057
 1875TIP3   OH2 5567   8.143   5.371   4.278
 1875TIP3    H1 5568   8.080   5.300   4.287
 1875TIP3    H2 5569   8.187   5.354   4.195
 1876TIP3   OH2 5570   6.082   2.864   5.738
 1876TIP3    H1 5571   6.129   2.785   5.763
 1876TIP3    H2 5572   5.991   2.846   5.759
 1877TIP3   OH2 5573   7.065   0.138   2.248
 1877TIP3    H1 5574   7.122   0.074   2.203
 1877TIP3    H2 5575   7.104   0.146   2.335
 1878TIP3   OH2 5576   4.189   0.688   4.380
 1878TIP3    H1 5577   4.128   0.739   4.434
 1878TIP3    H2 5578   4.182   0.599   4.415
 1879TIP3   OH2 5579   5.824   1.012   5.836
 1879TIP3    H1 5580   5.774   1.004   5.754
 1879TIP3    H2 5581   5.765   1.056   5.896
 1880TIP3   OH2 5582   2.666   1.849   2.713
 1880TIP3    H1 5583   2.702   1.895   2.789
 1880TIP3    H2 5584   2.629   1.769   2.749
 1881TIP3   OH2 5585   7.290   2.786   5.713
 1881TIP3    H1 5586   7.357   2.719   5.728
 1881TIP3    H2 5587   7.210   2.736   5.694
 1882TIP3   OH2 5588   7.156   7.227   0.989
 1882TIP3    H1 5589   7.116   7.284   1.054
 1882TIP3    H2 5590   7.238   7.269   0.966
 1883TIP3   OH2 5591   8.207   2.797   2.442
 1883TIP3    H1 5592   8.247   2.879   2.414
 1883TIP3    H2 5593   8.235   2.785   2.532
 1884TIP3   OH2 5594   0.690   4.646   1.395
 1884TIP3    H1 5595   0.743   4.725   1.386
 1884TIP3    H2 5596   0.752   4.574   1.386
 1885TIP3   OH2 5597   3.715   3.263   5.894
 1885TIP3    H1 5598   3.782   3.331   5.897
 1885TIP3    H2 5599   3.633   3.310   5.877
 1886TIP3   OH2 5600   0.864   0.526   3.152
 1886TIP3    H1 5601   0.945   0.517   3.100
 1886TIP3    H2 5602   0.798   0.553   3.089
 1887TIP3   OH2 5603   2.869   1.970   1.354
 1887TIP3    H1 5604   2.894   1.878   1.356
 1887TIP3    H2 5605   2.775   1.970   1.334
 1888TIP3   OH2 5606   5.902   6.906   6.091
 1888TIP3    H1 5607   5.817   6.913   6.134
 1888TIP3    H2 5608   5.961   6.872   6.158
 1889TIP3   OH2 5609   8.279   2.052   5.656
 1889TIP3    H1 5610   8.193   2.054   5.699
 1889TIP3    H2 5611   8.331   2.117   5.702
 1890TIP3   OH2 5612   5.850   0.309   3.362
 1890TIP3    H1 5613   5.842   0.221   3.400
 1890TIP3    H2 5614   5.900   0.297   3.282
 1891TIP3   OH2 5615   3.676   7.101   1.083
 1891TIP3    H1 5616   3.673   7.006   1.094
 1891TIP3    H2 5617   3.607   7.121   1.020
 1892TIP3   OH2 5618   8.189   7.511   1.178
 1892TIP3    H1 5619   8.182   7.420   1.208
 1892TIP3    H2 5620   8.263   7.547   1.228
 1893TIP3   OH2 5621   5.523   7.412   5.855
 1893TIP3    H1 5622   5.474   7.468   5.795
 1893TIP3    H2 5623   5.460   7.385   5.921
 1894TIP3   OH2 5624   1.737   3.572   3.541
 1894TIP3    H1 5625   1.808   3.520   3.579
 1894TIP3    H2 5626   1.657   3.527   3.566
 1895TIP3   OH2 5627   2.805   1.214   4.899
 1895TIP3    H1 5628   2.789   1.180   4.810
 1895TIP3    H2 5629   2.789   1.139   4.956
 1896TIP3   OH2 5630   7.135   5.306   1.988
 1896TIP3    H1 5631   7.229   5.318   1.997
 1896TIP3    H2 5632   7.120   5.305   1.894
 1897TIP3   OH2 5633   1.491   5.149   2.331
 1897TIP3    H1 5634   1.515   5.137   2.422
 1897TIP3    H2 5635   1.437   5.228   2.330
 1898TIP3   OH2 5636   4.194   0.763   0.102
 1898TIP3    H1 5637   4.238   0.752   0.018
 1898TIP3    H2 5638   4.221   0.850   0.132
 1899TIP3   OH2 5639   3.484   1.893   1.193
 1899TIP3    H1 5640   3.529   1.809   1.196
 1899TIP3    H2 5641   3.452   1.901   1.103
 1900TIP3   OH2 5642   6.966   4.935   5.555
 1900TIP3    H1 5643   6.915   5.010   5.525
 1900TIP3    H2 5644   6.926   4.859   5.513
 1901TIP3   OH2 5645   0.807   0.353   6.614
 1901TIP3    H1 5646   0.895   0.385   6.638
 1901TIP3    H2 5647   0.812   0.341   6.519
 1902TIP3   OH2 5648   4.723   2.406   3.945
 1902TIP3    H1 5649   4.686   2.490   3.921
 1902TIP3    H2 5650   4.734   2.359   3.862
 1903TIP3   OH2 5651   7.097   7.031   2.318
 1903TIP3    H1 5652   7.061   7.116   2.343
 1903TIP3    H2 5653   7.036   6.998   2.251
 1904TIP3   OH2 5654   7.213   0.252   4.290
 1904TIP3    H1 5655   7.133   0.246   4.237
 1904TIP3    H2 5656   7.259   0.170   4.272
 1905TIP3   OH2 5657   3.011   3.606   4.668
 1905TIP3    H1 5658   3.038   3.571   4.583
 1905TIP3    H2 5659   2.943   3.671   4.646
 1906TIP3   OH2 5660   0.762   0.207   1.060
 1906TIP3    H1 5661   0.836   0.248   1.105
 1906TIP3    H2 5662   0.801   0.133   1.014
 1907TIP3   OH2 5663   8.220   6.543   1.855
 1907TIP3    H1 5664   8.198   6.450   1.858
 1907TIP3    H2 5665   8.159   6.581   1.792
 1908TIP3   OH2 5666   0.413   7.275   0.478
 1908TIP3    H1 5667   0.505   7.281   0.452
 1908TIP3    H2 5668   0.409   7.197   0.533
 1909TIP3   OH2 5669   1.645   6.057   6.665
 1909TIP3    H1 5670   1.688   6.109   6.733
 1909TIP3    H2 5671   1.683   5.970   6.674
 1910TIP3   OH2 5672   5.119   2.505   4.542
 1910TIP3    H1 5673   5.212   2.490   4.524
 1910TIP3    H2 5674   5.117   2.594   4.578
 1911TIP3   OH2 5675   2.400   6.093   0.803
 1911TIP3    H1 5676   2.465   6.087   0.732
 1911TIP3    H2 5677   2.449   6.130   0.877
 1912TIP3   OH2 5678   0.222   2.907   2.567
 1912TIP3    H1 5679   0.303   2.947   2.534
 1912TIP3    H2 5680   0.165   2.981   2.586
 1913TIP3   OH2 5681   3.869   6.717   1.699
 1913TIP3    H1 5682   3.894   6.791   1.643
 1913TIP3    H2 5683   3.854   6.645   1.637
 1914TIP3   OH2 5684   6.262   6.577   0.886
 1914TIP3    H1 5685   6.192   6.640   0.870
 1914TIP3    H2 5686   6.291   6.551   0.799
 1915TIP3   OH2 5687   6.062   0.779   3.008
 1915TIP3    H1 5688   6.069   0.852   2.947
 1915TIP3    H2 5689   6.048   0.820   3.094
 1916TIP3   OH2 5690  -0.005   2.691   1.825
 1916TIP3    H1 5691   0.016   2.646   1.907
 1916TIP3    H2 5692   0.080   2.703   1.782
 1917TIP3   OH2 5693   2.270   3.076   1.099
 1917TIP3    H1 5694   2.256   3.165   1.131
 1917TIP3    H2 5695   2.211   3.068   1.024
 1918TIP3   OH2 5696   7.982   5.512   0.975
 1918TIP3    H1 5697   7.922   5.510   0.900
 1918TIP3    H2 5698   7.926   5.534   1.049
 1919TIP3   OH2 5699   0.330   3.645   4.914
 1919TIP3    H1 5700   0.356   3.586   4.843
 1919TIP3    H2 5701   0.324   3.731   4.872
 1920TIP3   OH2 5702   4.437   2.644   5.318
 1920TIP3    H1 5703   4.347   2.654   5.287
 1920TIP3    H2 5704   4.468   2.563   5.276
 1921TIP3   OH2 5705   4.324   0.309   0.236
 1921TIP3    H1 5706   4.336   0.221   0.201
 1921TIP3    H2 5707   4.322   0.366   0.159
 1922TIP3   OH2 5708   6.718   7.007   1.585
 1922TIP3    H1 5709   6.728   7.091   1.542
 1922TIP3    H2 5710   6.797   6.998   1.638
 1923TIP3   OH2 5711   1.938   7.021   1.693
 1923TIP3    H1 5712   1.890   7.073   1.628
 1923TIP3    H2 5713   1.915   7.060   1.777
 1924TIP3   OH2 5714   5.812   6.402   1.432
 1924TIP3    H1 5715   5.876   6.364   1.492
 1924TIP3    H2 5716   5.748   6.446   1.488
 1925TIP3   OH2 5717   8.105   2.861   4.602
 1925TIP3    H1 5718   8.173   2.794   4.595
 1925TIP3    H2 5719   8.107   2.889   4.693
 1926TIP3   OH2 5720   6.319   6.186   0.500
 1926TIP3    H1 5721   6.233   6.201   0.539
 1926TIP3    H2 5722   6.301   6.139   0.419
 1927TIP3   OH2 5723   0.785   7.510   6.247
 1927TIP3    H1 5724   0.759   7.600   6.266
 1927TIP3    H2 5725   0.863   7.495   6.299
 1928TIP3   OH2 5726   4.110   0.436   5.669
 1928TIP3    H1 5727   4.128   0.404   5.757
 1928TIP3    H2 5728   4.095   0.530   5.681
 1929TIP3   OH2 5729   3.208   0.601   1.628
 1929TIP3    H1 5730   3.274   0.545   1.670
 1929TIP3    H2 5731   3.248   0.628   1.546
 1930TIP3   OH2 5732   4.876   0.078   6.544
 1930TIP3    H1 5733   4.900  -0.012   6.567
 1930TIP3    H2 5734   4.840   0.114   6.624
 1931TIP3   OH2 5735   3.137   0.475   3.048
 1931TIP3    H1 5736   3.228   0.446   3.037
 1931TIP3    H2 5737   3.101   0.415   3.113
 1932TIP3   OH2 5738   1.362   7.184   4.166
 1932TIP3    H1 5739   1.382   7.129   4.090
 1932TIP3    H2 5740   1.380   7.127   4.242
 1933TIP3   OH2 5741   1.005   4.508   5.109
 1933TIP3    H1 5742   1.077   4.531   5.049
 1933TIP3    H2 5743   0.972   4.425   5.076
 1934TIP3   OH2 5744   2.578   0.093   1.109
 1934TIP3    H1 5745   2.522   0.147   1.054
 1934TIP3    H2 5746   2.523   0.073   1.186
 1935TIP3   OH2 5747   3.667   5.531   2.271
 1935TIP3    H1 5748   3.761   5.534   2.251
 1935TIP3    H2 5749   3.652   5.609   2.324
 1936TIP3   OH2 5750   0.439   5.649   6.483
 1936TIP3    H1 5751   0.479   5.725   6.524
 1936TIP3    H2 5752   0.511   5.585   6.475
 1937TIP3   OH2 5753   6.723   1.664   3.067
 1937TIP3    H1 5754   6.682   1.749   3.082
 1937TIP3    H2 5755   6.816   1.680   3.079
 1938TIP3   OH2 5756   6.892   3.166   2.450
 1938TIP3    H1 5757   6.824   3.231   2.428
 1938TIP3    H2 5758   6.963   3.218   2.488
 1939TIP3   OH2 5759   0.485   4.515   6.778
 1939TIP3    H1 5760   0.403   4.563   6.788
 1939TIP3    H2 5761   0.498   4.510   6.684
 1940TIP3   OH2 5762   1.320   2.115   4.228
 1940TIP3    H1 5763   1.306   2.021   4.227
 1940TIP3    H2 5764   1.397   2.129   4.172
 1941TIP3   OH2 5765   7.513   5.524   5.047
 1941TIP3    H1 5766   7.482   5.507   5.136
 1941TIP3    H2 5767   7.605   5.548   5.057
 1942TIP3   OH2 5768   3.633   6.663   1.886
 1942TIP3    H1 5769   3.564   6.693   1.827
 1942TIP3    H2 5770   3.714   6.696   1.848
 1943TIP3   OH2 5771   8.139   3.788   6.239
 1943TIP3    H1 5772   8.171   3.732   6.309
 1943TIP3    H2 5773   8.162   3.876   6.266
 1944TIP3   OH2 5774   3.179   3.081   2.240
 1944TIP3    H1 5775   3.146   3.039   2.319
 1944TIP3    H2 5776   3.102   3.119   2.198
 1945TIP3   OH2 5777   0.088   1.889   5.461
 1945TIP3    H1 5778   0.067   1.939   5.539
 1945TIP3    H2 5779   0.005   1.880   5.415
 1946TIP3   OH2 5780   3.605   7.317   3.365
 1946TIP3    H1 5781   3.668   7.245   3.357
 1946TIP3    H2 5782   3.519   7.274   3.361
 1947TIP3   OH2 5783   0.492   4.881   5.164
 1947TIP3    H1 5784   0.475   4.795   5.202
 1947TIP3    H2 5785   0.487   4.941   5.239
 1948TIP3   OH2 5786   4.294   4.755   2.798
 1948TIP3    H1 5787   4.318   4.837   2.754
 1948TIP3    H2 5788   4.330   4.765   2.887
 1949TIP3   OH2 5789   3.447   7.083   1.988
 1949TIP3    H1 5790   3.415   6.996   1.963
 1949TIP3    H2 5791   3.428   7.089   2.081
 1950TIP3   OH2 5792   0.091   2.087   3.742
 1950TIP3    H1 5793   0.055   2.051   3.661
 1950TIP3    H2 5794   0.062   2.178   3.742
 1951TIP3   OH2 5795   1.975   2.754   0.624
 1951TIP3    H1 5796   1.940   2.697   0.556
 1951TIP3    H2 5797   2.003   2.833   0.579
 1952TIP3   OH2 5798   7.137   0.252   3.309
 1952TIP3    H1 5799   7.165   0.297   3.230
 1952TIP3    H2 5800   7.054   0.294   3.333
 1953TIP3   OH2 5801   2.203   0.318   0.518
 1953TIP3    H1 5802   2.113   0.329   0.549
 1953TIP3    H2 5803   2.255   0.374   0.576
 1954TIP3   OH2 5804   7.900   3.813   2.096
 1954TIP3    H1 5805   7.923   3.854   2.013
 1954TIP3    H2 5806   7.874   3.724   2.072
 1955TIP3   OH2 5807   7.491   6.254   5.882
 1955TIP3    H1 5808   7.575   6.222   5.913
 1955TIP3    H2 5809   7.468   6.325   5.943
 1956TIP3   OH2 5810   0.030   2.437   5.230
 1956TIP3    H1 5811   0.108   2.441   5.285
 1956TIP3    H2 5812   0.004   2.528   5.217
 1957TIP3   OH2 5813   7.504   5.803   4.943
 1957TIP3    H1 5814   7.469   5.863   5.008
 1957TIP3    H2 5815   7.494   5.716   4.983
 1958TIP3   OH2 5816   6.275   6.793   5.697
 1958TIP3    H1 5817   6.243   6.787   5.607
 1958TIP3    H2 5818   6.364   6.757   5.693
 1959TIP3   OH2 5819   5.450   4.364   3.322
 1959TIP3    H1 5820   5.455   4.272   3.297
 1959TIP3    H2 5821   5.357   4.379   3.341
 1960TIP3   OH2 5822   6.358   0.810   4.515
 1960TIP3    H1 5823   6.328   0.803   4.425
 1960TIP3    H2 5824   6.348   0.722   4.551
 1961TIP3   OH2 5825   5.904   1.630   0.634
 1961TIP3    H1 5826   5.928   1.586   0.552
 1961TIP3    H2 5827   5.872   1.560   0.690
 1962TIP3   OH2 5828   7.511   3.784   5.051
 1962TIP3    H1 5829   7.468   3.830   4.980
 1962TIP3    H2 5830   7.593   3.752   5.012
 1963TIP3   OH2 5831   2.821   6.215   1.807
 1963TIP3    H1 5832   2.735   6.172   1.800
 1963TIP3    H2 5833   2.884   6.146   1.785
 1964TIP3   OH2 5834   3.784   1.200   5.372
 1964TIP3    H1 5835   3.816   1.195   5.462
 1964TIP3    H2 5836   3.692   1.175   5.379
 1965TIP3   OH2 5837   0.596   2.950   3.030
 1965TIP3    H1 5838   0.560   2.924   2.945
 1965TIP3    H2 5839   0.567   3.041   3.041
 1966TIP3   OH2 5840   2.567   6.733   1.828
 1966TIP3    H1 5841   2.474   6.754   1.819
 1966TIP3    H2 5842   2.571   6.676   1.905
 1967TIP3   OH2 5843   4.573   3.739   5.121
 1967TIP3    H1 5844   4.522   3.795   5.179
 1967TIP3    H2 5845   4.591   3.793   5.044
 1968TIP3   OH2 5846   8.210   2.364   0.097
 1968TIP3    H1 5847   8.225   2.276   0.060
 1968TIP3    H2 5848   8.116   2.379   0.087
 1969TIP3   OH2 5849   6.098   0.588   5.523
 1969TIP3    H1 5850   6.099   0.650   5.596
 1969TIP3    H2 5851   6.138   0.636   5.451
 1970TIP3   OH2 5852   7.608   1.657   3.633
 1970TIP3    H1 5853   7.553   1.702   3.697
 1970TIP3    H2 5854   7.686   1.632   3.682
 1971TIP3   OH2 5855   0.218   5.649   0.927
 1971TIP3    H1 5856   0.213   5.561   0.889
 1971TIP3    H2 5857   0.165   5.644   1.006
 1972TIP3   OH2 5858   6.675   3.894   1.534
 1972TIP3    H1 5859   6.671   3.907   1.439
 1972TIP3    H2 5860   6.686   3.982   1.570
 1973TIP3   OH2 5861   2.187   3.296   3.109
 1973TIP3    H1 5862   2.219   3.217   3.065
 1973TIP3    H2 5863   2.097   3.274   3.134
 1974TIP3   OH2 5864   0.961   3.151   1.890
 1974TIP3    H1 5865   1.008   3.068   1.901
 1974TIP3    H2 5866   1.027   3.213   1.859
 1975TIP3   OH2 5867   6.983   6.023   2.007
 1975TIP3    H1 5868   6.948   6.106   1.974
 1975TIP3    H2 5869   6.919   5.994   2.072
 1976TIP3   OH2 5870   4.543   1.056   1.997
 1976TIP3    H1 5871   4.602   1.030   1.926
 1976TIP3    H2 5872   4.595   1.114   2.052
 1977TIP3   OH2 5873   6.417   4.046   2.469
 1977TIP3    H1 5874   6.453   4.060   2.556
 1977TIP3    H2 5875   6.377   4.130   2.446
 1978TIP3   OH2 5876   1.642   7.257   3.054
 1978TIP3    H1 5877   1.737   7.267   3.068
 1978TIP3    H2 5878   1.635   7.210   2.971
 1979TIP3   OH2 5879   1.083   3.138   0.695
 1979TIP3    H1 5880   1.156   3.190   0.728
 1979TIP3    H2 5881   1.017   3.202   0.669
 1980TIP3   OH2 5882   1.926   2.465   1.920
 1980TIP3    H1 5883   1.978   2.540   1.892
 1980TIP3    H2 5884   1.841   2.502   1.943
 1981TIP3   OH2 5885   1.962   0.475   6.718
 1981TIP3    H1 5886   1.935   0.494   6.628
 1981TIP3    H2 5887   1.907   0.533   6.771
 1982TIP3   OH2 5888   7.315   0.928   3.123
 1982TIP3    H1 5889   7.368   0.871   3.067
 1982TIP3    H2 5890   7.233   0.880   3.135
 1983TIP3   OH2 5891   4.172   7.079   4.532
 1983TIP3    H1 5892   4.151   7.025   4.609
 1983TIP3    H2 5893   4.241   7.138   4.561
 1984TIP3   OH2 5894   5.060   1.679   2.175
 1984TIP3    H1 5895   5.143   1.716   2.145
 1984TIP3    H2 5896   5.032   1.738   2.245
 1985TIP3   OH2 5897   2.749   5.200   2.221
 1985TIP3    H1 5898   2.653   5.192   2.217
 1985TIP3    H2 5899   2.770   5.271   2.160
 1986TIP3   OH2 5900   7.516   5.146   0.414
 1986TIP3    H1 5901   7.483   5.205   0.346
 1986TIP3    H2 5902   7.571   5.203   0.469
 1987TIP3   OH2 5903   5.063   7.741   4.610
 1987TIP3    H1 5904   4.997   7.767   4.546
 1987TIP3    H2 5905   5.082   7.650   4.590
 1988TIP3   OH2 5906   4.916   0.460   2.311
 1988TIP3    H1 5907   4.823   0.480   2.299
 1988TIP3    H2 5908   4.917   0.379   2.362
 1989TIP3   OH2 5909   6.714   3.576   2.708
 1989TIP3    H1 5910   6.810   3.574   2.712
 1989TIP3    H2 5911   6.687   3.484   2.713
 1990TIP3   OH2 5912   0.795   7.488   3.245
 1990TIP3    H1 5913   0.865   7.535   3.200
 1990TIP3    H2 5914   0.720   7.547   3.242
 1991TIP3   OH2 5915   4.319   3.150   4.222
 1991TIP3    H1 5916   4.374   3.107   4.157
 1991TIP3    H2 5917   4.375   3.161   4.298
 1992TIP3   OH2 5918   3.168   3.893   4.620
 1992TIP3    H1 5919   3.221   3.961   4.662
 1992TIP3    H2 5920   3.091   3.939   4.587
 1993TIP3   OH2 5921   7.125   4.023   3.051
 1993TIP3    H1 5922   7.062   4.093   3.066
 1993TIP3    H2 5923   7.127   4.013   2.955
 1994TIP3   OH2 5924   4.517   6.200   5.593
 1994TIP3    H1 5925   4.460   6.124   5.608
 1994TIP3    H2 5926   4.542   6.194   5.501
 1995TIP3   OH2 5927   6.292   1.460   0.483
 1995TIP3    H1 5928   6.374   1.508   0.497
 1995TIP3    H2 5929   6.224   1.527   0.484
 1996TIP3   OH2 5930   7.167   5.924   0.177
 1996TIP3    H1 5931   7.142   5.834   0.199
 1996TIP3    H2 5932   7.241   5.943   0.236
 1997TIP3   OH2 5933   8.185   1.522   1.275
 1997TIP3    H1 5934   8.104   1.564   1.303
 1997TIP3    H2 5935   8.218   1.478   1.353
 1998TIP3   OH2 5936   2.836   6.742   5.253
 1998TIP3    H1 5937   2.835   6.719   5.160
 1998TIP3    H2 5938   2.929   6.744   5.276
 1999TIP3   OH2 5939   0.694   4.470   0.406
 1999TIP3    H1 5940   0.669   4.422   0.484
 1999TIP3    H2 5941   0.784   4.442   0.388
 2000TIP3   OH2 5942   6.104   5.302   0.044
 2000TIP3    H1 5943   6.151   5.286  -0.038
 2000TIP3    H2 5944   6.156   5.369   0.088
 2001TIP3   OH2 5945   4.295   5.010   2.637
 2001TIP3    H1 5946   4.248   5.044   2.561
 2001TIP3    H2 5947   4.304   5.085   2.695
 2002TIP3   OH2 5948   3.725   1.894   0.558
 2002TIP3    H1 5949   3.777   1.935   0.488
 2002TIP3    H2 5950   3.735   1.800   0.543
 2003TIP3   OH2 5951   8.041   6.276   5.601
 2003TIP3    H1 5952   8.056   6.214   5.672
 2003TIP3    H2 5953   7.962   6.244   5.557
 2004TIP3   OH2 5954   0.300   4.767   3.241
 2004TIP3    H1 5955   0.344   4.848   3.267
 2004TIP3    H2 5956   0.370   4.701   3.242
 2005TIP3   OH2 5957   7.269   2.999   0.203
 2005TIP3    H1 5958   7.212   3.048   0.261
 2005TIP3    H2 5959   7.297   3.063   0.137
 2006TIP3   OH2 5960   0.588   7.208   1.755
 2006TIP3    H1 5961   0.506   7.169   1.726
 2006TIP3    H2 5962   0.654   7.171   1.696
 2007TIP3   OH2 5963   0.932   0.171   2.250
 2007TIP3    H1 5964   1.016   0.188   2.209
 2007TIP3    H2 5965   0.952   0.160   2.343
 2008TIP3   OH2 5966   1.921   2.286   1.144
 2008TIP3    H1 5967   1.833   2.300   1.107
 2008TIP3    H2 5968   1.933   2.360   1.203
 2009TIP3   OH2 5969   7.693   3.980   1.733
 2009TIP3    H1 5970   7.782   3.973   1.698
 2009TIP3    H2 5971   7.692   3.919   1.807
 2010TIP3   OH2 5972   0.698   7.001   5.832
 2010TIP3    H1 5973   0.624   7.020   5.890
 2010TIP3    H2 5974   0.674   7.044   5.750
 2011TIP3   OH2 5975   4.262   2.176   2.594
 2011TIP3    H1 5976   4.283   2.252   2.648
 2011TIP3    H2 5977   4.173   2.152   2.620
 2012TIP3   OH2 5978   4.876   5.646   6.086
 2012TIP3    H1 5979   4.963   5.608   6.071
 2012TIP3    H2 5980   4.884   5.691   6.170
 2013TIP3   OH2 5981   5.277   2.439   0.305
 2013TIP3    H1 5982   5.234   2.523   0.323
 2013TIP3    H2 5983   5.370   2.461   0.299
 2014TIP3   OH2 5984   7.958   0.388   3.256
 2014TIP3    H1 5985   8.000   0.361   3.338
 2014TIP3    H2 5986   7.967   0.313   3.198
 2015TIP3   OH2 5987   6.643   2.777   1.278
 2015TIP3    H1 5988   6.690   2.822   1.208
 2015TIP3    H2 5989   6.675   2.818   1.358
 2016TIP3   OH2 5990   1.033   5.049   3.694
 2016TIP3    H1 5991   1.063   5.013   3.777
 2016TIP3    H2 5992   0.987   5.130   3.718
 2017TIP3   OH2 5993   0.508   3.602   6.406
 2017TIP3    H1 5994   0.603   3.602   6.415
 2017TIP3    H2 5995   0.482   3.692   6.425
 2018TIP3   OH2 5996   0.926   5.973   2.641
 2018TIP3    H1 5997   0.889   6.027   2.712
 2018TIP3    H2 5998   0.900   6.019   2.561
 2019TIP3   OH2 5999   5.279   7.737   5.038
 2019TIP3    H1 6000   5.201   7.736   4.982
 2019TIP3    H2 6001   5.352   7.744   4.977
 2020TIP3   OH2 6002   1.612   4.496   6.068
 2020TIP3    H1 6003   1.612   4.446   5.987
 2020TIP3    H2 6004   1.520   4.514   6.086
 2021TIP3   OH2 6005   6.269   6.647   2.145
 2021TIP3    H1 6006   6.361   6.628   2.124
 2021TIP3    H2 6007   6.271   6.731   2.190
 2022TIP3   OH2 6008   3.373   2.720   2.069
 2022TIP3    H1 6009   3.308   2.725   2.138
 2022TIP3    H2 6010   3.455   2.700   2.115
 2023TIP3   OH2 6011   6.321   5.661   5.945
 2023TIP3    H1 6012   6.269   5.588   5.979
 2023TIP3    H2 6013   6.335   5.640   5.852
 2024TIP3   OH2 6014   3.651   3.951   2.139
 2024TIP3    H1 6015   3.628   3.994   2.221
 2024TIP3    H2 6016   3.576   3.968   2.081
 2025TIP3   OH2 6017   5.096   7.222   0.663
 2025TIP3    H1 6018   5.185   7.246   0.637
 2025TIP3    H2 6019   5.041   7.252   0.590
 2026TIP3   OH2 6020   0.977   4.182   5.372
 2026TIP3    H1 6021   1.022   4.162   5.454
 2026TIP3    H2 6022   1.046   4.182   5.306
 2027TIP3   OH2 6023   4.722   7.680   0.900
 2027TIP3    H1 6024   4.780   7.662   0.825
 2027TIP3    H2 6025   4.657   7.609   0.897
 2028TIP3   OH2 6026   1.603   4.562   4.990
 2028TIP3    H1 6027   1.645   4.481   4.961
 2028TIP3    H2 6028   1.519   4.534   5.028
 2029TIP3   OH2 6029   6.857   6.361   0.053
 2029TIP3    H1 6030   6.928   6.370  -0.011
 2029TIP3    H2 6031   6.901   6.344   0.136
 2030TIP3   OH2 6032   6.181   0.726   0.213
 2030TIP3    H1 6033   6.114   0.715   0.146
 2030TIP3    H2 6034   6.250   0.777   0.171
 2031TIP3   OH2 6035   5.652   2.475   3.016
 2031TIP3    H1 6036   5.577   2.455   2.960
 2031TIP3    H2 6037   5.620   2.461   3.105
 2032TIP3   OH2 6038   5.832   1.959   5.544
 2032TIP3    H1 6039   5.774   1.905   5.490
 2032TIP3    H2 6040   5.833   2.045   5.501
 2033TIP3   OH2 6041   4.123   5.357   0.738
 2033TIP3    H1 6042   4.190   5.355   0.669
 2033TIP3    H2 6043   4.171   5.338   0.819
 2034TIP3   OH2 6044   1.164   4.148   5.589
 2034TIP3    H1 6045   1.167   4.218   5.655
 2034TIP3    H2 6046   1.149   4.068   5.641
 2035TIP3   OH2 6047   6.594   1.183   5.013
 2035TIP3    H1 6048   6.656   1.113   4.991
 2035TIP3    H2 6049   6.648   1.251   5.051
 2036TIP3   OH2 6050   0.188   2.906   1.970
 2036TIP3    H1 6051   0.211   2.977   1.909
 2036TIP3    H2 6052   0.101   2.931   2.003
 2037TIP3   OH2 6053   0.201   3.968   5.185
 2037TIP3    H1 6054   0.107   3.976   5.203
 2037TIP3    H2 6055   0.225   3.882   5.220
 2038TIP3   OH2 6056   2.749   4.576   6.418
 2038TIP3    H1 6057   2.828   4.530   6.392
 2038TIP3    H2 6058   2.683   4.550   6.353
 2039TIP3   OH2 6059   4.693   6.376   0.816
 2039TIP3    H1 6060   4.769   6.343   0.865
 2039TIP3    H2 6061   4.633   6.406   0.884
 2040TIP3   OH2 6062   3.534   4.137   0.323
 2040TIP3    H1 6063   3.564   4.063   0.272
 2040TIP3    H2 6064   3.441   4.145   0.303
 2041TIP3   OH2 6065   3.311   2.954   4.034
 2041TIP3    H1 6066   3.393   2.919   4.070
 2041TIP3    H2 6067   3.338   3.007   3.959
 2042TIP3   OH2 6068   7.877   2.135   1.531
 2042TIP3    H1 6069   7.898   2.196   1.602
 2042TIP3    H2 6070   7.782   2.125   1.535
 2043TIP3   OH2 6071   3.299   1.464   0.031
 2043TIP3    H1 6072   3.239   1.405  -0.015
 2043TIP3    H2 6073   3.322   1.416   0.111
 2044TIP3   OH2 6074   6.311   0.243   1.654
 2044TIP3    H1 6075   6.303   0.235   1.749
 2044TIP3    H2 6076   6.222   0.263   1.624
 2045TIP3   OH2 6077   7.694   2.434   4.872
 2045TIP3    H1 6078   7.741   2.513   4.847
 2045TIP3    H2 6079   7.743   2.400   4.947
 2046TIP3   OH2 6080   3.332   1.011   4.667
 2046TIP3    H1 6081   3.331   0.949   4.593
 2046TIP3    H2 6082   3.424   1.018   4.692
 2047TIP3   OH2 6083   3.601   2.372   2.883
 2047TIP3    H1 6084   3.515   2.413   2.893
 2047TIP3    H2 6085   3.623   2.383   2.791
 2048TIP3   OH2 6086   5.569   2.109   4.054
 2048TIP3    H1 6087   5.510   2.137   3.983
 2048TIP3    H2 6088   5.657   2.124   4.019
 2049TIP3   OH2 6089   3.394   5.569   5.764
 2049TIP3    H1 6090   3.373   5.489   5.716
 2049TIP3    H2 6091   3.310   5.599   5.799
 2050TIP3   OH2 6092   2.353   7.294   1.588
 2050TIP3    H1 6093   2.356   7.325   1.498
 2050TIP3    H2 6094   2.355   7.198   1.580
 2051TIP3   OH2 6095   3.661   2.181   3.722
 2051TIP3    H1 6096   3.599   2.244   3.759
 2051TIP3    H2 6097   3.606   2.105   3.701
 2052TIP3   OH2 6098   6.908   5.788   5.352
 2052TIP3    H1 6099   6.859   5.752   5.426
 2052TIP3    H2 6100   6.895   5.724   5.282
 2053TIP3   OH2 6101   3.981   5.584   0.453
 2053TIP3    H1 6102   4.040   5.646   0.409
 2053TIP3    H2 6103   4.028   5.501   0.453
 2054TIP3   OH2 6104   5.672   6.051   0.529
 2054TIP3    H1 6105   5.696   6.117   0.464
 2054TIP3    H2 6106   5.601   6.001   0.488
 2055TIP3   OH2 6107   6.049   6.604   1.774
 2055TIP3    H1 6108   6.101   6.671   1.818
 2055TIP3    H2 6109   6.109   6.529   1.765
 2056TIP3   OH2 6110   7.342   2.755   6.754
 2056TIP3    H1 6111   7.379   2.670   6.779
 2056TIP3    H2 6112   7.400   2.786   6.685
 2057TIP3   OH2 6113   7.993   4.141   4.617
 2057TIP3    H1 6114   7.927   4.152   4.548
 2057TIP3    H2 6115   8.056   4.079   4.579
 2058TIP3   OH2 6116   5.112   5.522   5.501
 2058TIP3    H1 6117   5.105   5.473   5.584
 2058TIP3    H2 6118   5.135   5.611   5.528
 2059TIP3   OH2 6119   2.821   0.566   6.102
 2059TIP3    H1 6120   2.886   0.615   6.152
 2059TIP3    H2 6121   2.872   0.518   6.036
 2060TIP3   OH2 6122   4.813   5.623   2.347
 2060TIP3    H1 6123   4.824   5.573   2.266
 2060TIP3    H2 6124   4.902   5.632   2.381
 2061TIP3   OH2 6125   3.172   4.088   3.479
 2061TIP3    H1 6126   3.213   4.115   3.397
 2061TIP3    H2 6127   3.167   3.992   3.472
 2062TIP3   OH2 6128   3.390   0.864   5.897
 2062TIP3    H1 6129   3.346   0.790   5.939
 2062TIP3    H2 6130   3.368   0.939   5.952
 2063TIP3   OH2 6131   0.664   5.721   0.708
 2063TIP3    H1 6132   0.743   5.774   0.719
 2063TIP3    H2 6133   0.594   5.775   0.746
 2064TIP3   OH2 6134   3.228   3.631   1.780
 2064TIP3    H1 6135   3.245   3.690   1.706
 2064TIP3    H2 6136   3.267   3.676   1.855
 2065TIP3   OH2 6137   1.207   3.330   2.735
 2065TIP3    H1 6138   1.117   3.359   2.746
 2065TIP3    H2 6139   1.203   3.235   2.735
 2066TIP3   OH2 6140   0.876   4.151   3.999
 2066TIP3    H1 6141   0.904   4.072   3.952
 2066TIP3    H2 6142   0.945   4.215   3.981
 2067TIP3   OH2 6143   0.537   7.307   5.338
 2067TIP3    H1 6144   0.471   7.248   5.374
 2067TIP3    H2 6145   0.612   7.252   5.319
 2068TIP3   OH2 6146   5.768   3.184   0.756
 2068TIP3    H1 6147   5.726   3.102   0.783
 2068TIP3    H2 6148   5.769   3.237   0.836
 2069TIP3   OH2 6149   4.689   5.262   3.272
 2069TIP3    H1 6150   4.759   5.276   3.208
 2069TIP3    H2 6151   4.726   5.293   3.355
 2070TIP3   OH2 6152   7.665   4.459   6.581
 2070TIP3    H1 6153   7.578   4.453   6.619
 2070TIP3    H2 6154   7.724   4.466   6.656
 2071TIP3   OH2 6155   5.310   1.197   2.720
 2071TIP3    H1 6156   5.381   1.185   2.657
 2071TIP3    H2 6157   5.327   1.132   2.788
 2072TIP3   OH2 6158   1.889   4.803   3.798
 2072TIP3    H1 6159   1.797   4.783   3.813
 2072TIP3    H2 6160   1.888   4.862   3.722
 2073TIP3   OH2 6161   2.617   5.213   0.234
 2073TIP3    H1 6162   2.684   5.203   0.302
 2073TIP3    H2 6163   2.666   5.224   0.153
 2074TIP3   OH2 6164   1.306   1.646   2.508
 2074TIP3    H1 6165   1.243   1.717   2.517
 2074TIP3    H2 6166   1.380   1.673   2.563
 2075TIP3   OH2 6167   2.383   7.195   4.088
 2075TIP3    H1 6168   2.310   7.215   4.030
 2075TIP3    H2 6169   2.389   7.099   4.086
 2076TIP3   OH2 6170   2.189   1.486   0.365
 2076TIP3    H1 6171   2.173   1.580   0.364
 2076TIP3    H2 6172   2.105   1.447   0.339
 2077TIP3   OH2 6173   6.833   2.660   4.913
 2077TIP3    H1 6174   6.835   2.591   4.848
 2077TIP3    H2 6175   6.874   2.622   4.991
 2078TIP3   OH2 6176   4.898   2.080   5.563
 2078TIP3    H1 6177   4.876   2.051   5.651
 2078TIP3    H2 6178   4.850   2.019   5.506
 2079TIP3   OH2 6179   6.740   6.150   2.223
 2079TIP3    H1 6180   6.645   6.151   2.234
 2079TIP3    H2 6181   6.761   6.239   2.195
 2080TIP3   OH2 6182   5.831   2.269   5.508
 2080TIP3    H1 6183   5.864   2.358   5.498
 2080TIP3    H2 6184   5.769   2.258   5.436
 2081TIP3   OH2 6185   3.629   5.898   2.749
 2081TIP3    H1 6186   3.703   5.837   2.744
 2081TIP3    H2 6187   3.670   5.983   2.768
 2082TIP3   OH2 6188   4.590   1.515   6.720
 2082TIP3    H1 6189   4.610   1.591   6.665
 2082TIP3    H2 6190   4.495   1.514   6.725
 2083TIP3   OH2 6191   8.094   2.513   1.689
 2083TIP3    H1 6192   8.108   2.607   1.702
 2083TIP3    H2 6193   8.175   2.472   1.719
 2084TIP3   OH2 6194   7.622   5.997   2.010
 2084TIP3    H1 6195   7.535   5.970   2.041
 2084TIP3    H2 6196   7.642   5.936   1.939
 2085TIP3   OH2 6197   7.605   6.483   3.797
 2085TIP3    H1 6198   7.553   6.487   3.877
 2085TIP3    H2 6199   7.695   6.499   3.826
 2086TIP3   OH2 6200   2.371   1.815   6.726
 2086TIP3    H1 6201   2.395   1.904   6.699
 2086TIP3    H2 6202   2.277   1.821   6.746
 2087TIP3   OH2 6203   2.565   4.957   5.466
 2087TIP3    H1 6204   2.550   4.952   5.372
 2087TIP3    H2 6205   2.503   4.895   5.504
 2088TIP3   OH2 6206   1.839   5.033   0.933
 2088TIP3    H1 6207   1.767   5.046   0.872
 2088TIP3    H2 6208   1.871   4.945   0.913
 2089TIP3   OH2 6209   5.809   6.786   4.626
 2089TIP3    H1 6210   5.724   6.828   4.636
 2089TIP3    H2 6211   5.871   6.852   4.658
 2090TIP3   OH2 6212   1.587   1.434   6.707
 2090TIP3    H1 6213   1.665   1.485   6.730
 2090TIP3    H2 6214   1.514   1.495   6.723
 2091TIP3   OH2 6215   7.568   0.390   5.102
 2091TIP3    H1 6216   7.616   0.395   5.020
 2091TIP3    H2 6217   7.506   0.463   5.098
 2092TIP3   OH2 6218   6.429   3.478   0.102
 2092TIP3    H1 6219   6.492   3.410   0.078
 2092TIP3    H2 6220   6.478   3.534   0.163
 2093TIP3   OH2 6221   2.504   6.328   2.338
 2093TIP3    H1 6222   2.540   6.291   2.419
 2093TIP3    H2 6223   2.559   6.291   2.269
 2094TIP3   OH2 6224   0.247   7.425   2.036
 2094TIP3    H1 6225   0.158   7.401   2.009
 2094TIP3    H2 6226   0.301   7.352   2.005
 2095TIP3   OH2 6227   3.535   6.111   5.779
 2095TIP3    H1 6228   3.627   6.129   5.801
 2095TIP3    H2 6229   3.512   6.036   5.833
 2096TIP3   OH2 6230   5.323   0.338   5.688
 2096TIP3    H1 6231   5.269   0.390   5.748
 2096TIP3    H2 6232   5.319   0.249   5.724
 2097TIP3   OH2 6233   5.975   0.701   6.601
 2097TIP3    H1 6234   5.911   0.662   6.542
 2097TIP3    H2 6235   5.939   0.688   6.689
 2098TIP3   OH2 6236   1.149   5.476   4.925
 2098TIP3    H1 6237   1.082   5.441   4.984
 2098TIP3    H2 6238   1.230   5.473   4.976
 2099TIP3   OH2 6239   6.619   6.222   5.697
 2099TIP3    H1 6240   6.652   6.132   5.694
 2099TIP3    H2 6241   6.544   6.219   5.756
 2100TIP3   OH2 6242   0.919   4.875   3.522
 2100TIP3    H1 6243   0.955   4.939   3.584
 2100TIP3    H2 6244   0.924   4.791   3.568
 2101TIP3   OH2 6245   0.298   0.930   4.566
 2101TIP3    H1 6246   0.281   0.906   4.657
 2101TIP3    H2 6247   0.382   0.977   4.570
 2102TIP3   OH2 6248   0.534   5.251   4.439
 2102TIP3    H1 6249   0.447   5.235   4.474
 2102TIP3    H2 6250   0.541   5.193   4.363
 2103TIP3   OH2 6251   1.393   4.267   2.979
 2103TIP3    H1 6252   1.411   4.360   2.989
 2103TIP3    H2 6253   1.358   4.258   2.891
 2104TIP3   OH2 6254   6.403   7.515   5.110
 2104TIP3    H1 6255   6.312   7.492   5.132
 2104TIP3    H2 6256   6.407   7.610   5.119
 2105TIP3   OH2 6257   8.190   6.702   3.114
 2105TIP3    H1 6258   8.195   6.677   3.206
 2105TIP3    H2 6259   8.129   6.776   3.112
 2106TIP3   OH2 6260   6.287   7.465   4.154
 2106TIP3    H1 6261   6.378   7.461   4.185
 2106TIP3    H2 6262   6.290   7.528   4.082
 2107TIP3   OH2 6263   3.174   0.043   5.903
 2107TIP3    H1 6264   3.152   0.009   5.816
 2107TIP3    H2 6265   3.096   0.028   5.956
 2108TIP3   OH2 6266   4.708   2.996   0.908
 2108TIP3    H1 6267   4.675   2.907   0.904
 2108TIP3    H2 6268   4.657   3.038   0.978
 2109TIP3   OH2 6269   3.638   5.707   0.186
 2109TIP3    H1 6270   3.708   5.755   0.230
 2109TIP3    H2 6271   3.641   5.620   0.224
 2110TIP3   OH2 6272   6.366   6.745   3.495
 2110TIP3    H1 6273   6.407   6.814   3.547
 2110TIP3    H2 6274   6.287   6.786   3.459
 2111TIP3   OH2 6275   8.133   3.098   2.077
 2111TIP3    H1 6276   8.142   3.189   2.047
 2111TIP3    H2 6277   8.147   3.046   1.998
 2112TIP3   OH2 6278   2.995   4.371   4.642
 2112TIP3    H1 6279   3.040   4.383   4.726
 2112TIP3    H2 6280   2.932   4.443   4.637
 2113TIP3   OH2 6281   6.462   4.290   1.262
 2113TIP3    H1 6282   6.426   4.372   1.294
 2113TIP3    H2 6283   6.502   4.312   1.178
 2114TIP3   OH2 6284   2.837   0.445   5.682
 2114TIP3    H1 6285   2.851   0.418   5.773
 2114TIP3    H2 6286   2.914   0.414   5.635
 2115TIP3   OH2 6287   0.695   4.604  -0.031
 2115TIP3    H1 6288   0.642   4.545   0.022
 2115TIP3    H2 6289   0.757   4.643   0.030
 2116TIP3   OH2 6290   7.901   2.273   1.772
 2116TIP3    H1 6291   7.917   2.192   1.820
 2116TIP3    H2 6292   7.978   2.327   1.789
 2117TIP3   OH2 6293   1.679   2.341   1.056
 2117TIP3    H1 6294   1.642   2.382   0.978
 2117TIP3    H2 6295   1.649   2.396   1.128
 2118TIP3   OH2 6296   1.969   1.201   0.006
 2118TIP3    H1 6297   2.021   1.273  -0.031
 2118TIP3    H2 6298   2.027   1.159   0.069
 2119TIP3   OH2 6299   6.941   7.490   4.281
 2119TIP3    H1 6300   6.900   7.434   4.348
 2119TIP3    H2 6301   6.990   7.555   4.332
 2120TIP3   OH2 6302   6.010   1.376   0.459
 2120TIP3    H1 6303   6.036   1.346   0.373
 2120TIP3    H2 6304   6.093   1.385   0.508
 2121TIP3   OH2 6305   3.839   0.129   5.780
 2121TIP3    H1 6306   3.797   0.120   5.694
 2121TIP3    H2 6307   3.930   0.150   5.760
 2122TIP3   OH2 6308   2.326   5.578   4.101
 2122TIP3    H1 6309   2.255   5.572   4.037
 2122TIP3    H2 6310   2.378   5.499   4.087
 2123TIP3   OH2 6311   3.775   3.157   1.684
 2123TIP3    H1 6312   3.691   3.111   1.678
 2123TIP3    H2 6313   3.824   3.109   1.750
 2124TIP3   OH2 6314   7.917   0.529   4.579
 2124TIP3    H1 6315   7.881   0.447   4.613
 2124TIP3    H2 6316   7.924   0.586   4.655
 2125TIP3   OH2 6317   4.835   2.740   0.047
 2125TIP3    H1 6318   4.922   2.705   0.032
 2125TIP3    H2 6319   4.789   2.728  -0.036
 2126TIP3   OH2 6320   1.869   2.948   4.579
 2126TIP3    H1 6321   1.957   2.986   4.590
 2126TIP3    H2 6322   1.851   2.904   4.662
 2127TIP3   OH2 6323   7.383   6.950   0.748
 2127TIP3    H1 6324   7.473   6.930   0.721
 2127TIP3    H2 6325   7.385   7.043   0.771
 2128TIP3   OH2 6326   6.428   0.403   3.692
 2128TIP3    H1 6327   6.523   0.409   3.699
 2128TIP3    H2 6328   6.412   0.370   3.603
 2129TIP3   OH2 6329   6.107   3.636   3.210
 2129TIP3    H1 6330   6.046   3.563   3.222
 2129TIP3    H2 6331   6.178   3.619   3.271
 2130TIP3   OH2 6332   6.189   3.022   5.134
 2130TIP3    H1 6333   6.245   2.992   5.206
 2130TIP3    H2 6334   6.110   3.054   5.177
 2131TIP3   OH2 6335   8.169   7.221   5.204
 2131TIP3    H1 6336   8.138   7.273   5.278
 2131TIP3    H2 6337   8.090   7.176   5.173
 2132TIP3   OH2 6338   7.458   2.066   4.404
 2132TIP3    H1 6339   7.519   2.026   4.466
 2132TIP3    H2 6340   7.510   2.132   4.359
 2133TIP3   OH2 6341   1.736   3.489   0.268
 2133TIP3    H1 6342   1.691   3.480   0.353
 2133TIP3    H2 6343   1.810   3.547   0.286
 2134TIP3   OH2 6344   6.220   6.591   1.535
 2134TIP3    H1 6345   6.205   6.591   1.440
 2134TIP3    H2 6346   6.135   6.612   1.573
 2135TIP3   OH2 6347   3.902   5.230   0.811
 2135TIP3    H1 6348   3.827   5.273   0.769
 2135TIP3    H2 6349   3.978   5.263   0.764
 2136TIP3   OH2 6350   0.952   3.552   3.757
 2136TIP3    H1 6351   0.991   3.639   3.768
 2136TIP3    H2 6352   0.883   3.549   3.822
 2137TIP3   OH2 6353   8.148   3.331   0.829
 2137TIP3    H1 6354   8.143   3.240   0.860
 2137TIP3    H2 6355   8.160   3.323   0.734
 2138TIP3   OH2 6356   4.238   7.655   6.700
 2138TIP3    H1 6357   4.326   7.652   6.663
 2138TIP3    H2 6358   4.200   7.736   6.668
 2139TIP3   OH2 6359   0.806   4.701   0.872
 2139TIP3    H1 6360   0.736   4.758   0.842
 2139TIP3    H2 6361   0.886   4.752   0.858
 2140TIP3   OH2 6362   6.017   4.143   0.158
 2140TIP3    H1 6363   6.013   4.225   0.109
 2140TIP3    H2 6364   6.070   4.084   0.103
 2141TIP3   OH2 6365   1.005   3.244   3.109
 2141TIP3    H1 6366   0.976   3.158   3.081
 2141TIP3    H2 6367   1.100   3.235   3.118
 2142TIP3   OH2 6368   1.399   4.294   6.704
 2142TIP3    H1 6369   1.445   4.251   6.632
 2142TIP3    H2 6370   1.337   4.353   6.660
 2143TIP3   OH2 6371   2.093   4.473   3.766
 2143TIP3    H1 6372   2.135   4.475   3.853
 2143TIP3    H2 6373   2.165   4.485   3.705
 2144TIP3   OH2 6374   6.529   1.027   3.067
 2144TIP3    H1 6375   6.574   0.961   3.014
 2144TIP3    H2 6376   6.447   0.984   3.092
 2145TIP3   OH2 6377   3.448   7.780   5.622
 2145TIP3    H1 6378   3.354   7.799   5.619
 2145TIP3    H2 6379   3.489   7.857   5.581
 2146TIP3   OH2 6380   3.251   3.385   1.412
 2146TIP3    H1 6381   3.195   3.308   1.398
 2146TIP3    H2 6382   3.221   3.449   1.348
 2147TIP3   OH2 6383   7.067   5.704   0.600
 2147TIP3    H1 6384   7.048   5.741   0.687
 2147TIP3    H2 6385   7.137   5.641   0.616
 2148TIP3   OH2 6386   4.945   3.048   5.232
 2148TIP3    H1 6387   4.976   2.997   5.157
 2148TIP3    H2 6388   4.998   3.017   5.306
 2149TIP3   OH2 6389   4.010   2.740   1.572
 2149TIP3    H1 6390   4.009   2.821   1.622
 2149TIP3    H2 6391   4.088   2.746   1.517
 2150TIP3   OH2 6392   6.476   7.687   3.030
 2150TIP3    H1 6393   6.458   7.770   2.986
 2150TIP3    H2 6394   6.390   7.655   3.059
 2151TIP3   OH2 6395   3.683   3.617   4.485
 2151TIP3    H1 6396   3.653   3.526   4.486
 2151TIP3    H2 6397   3.740   3.625   4.561
 2152TIP3   OH2 6398   7.624   0.042   0.339
 2152TIP3    H1 6399   7.649   0.042   0.247
 2152TIP3    H2 6400   7.535   0.008   0.340
 2153TIP3   OH2 6401   8.242   5.195   0.412
 2153TIP3    H1 6402   8.300   5.216   0.338
 2153TIP3    H2 6403   8.178   5.134   0.375
 2154TIP3   OH2 6404   4.067   3.694   5.888
 2154TIP3    H1 6405   4.025   3.762   5.940
 2154TIP3    H2 6406   4.160   3.700   5.911
 2155TIP3   OH2 6407   6.417   1.821   2.966
 2155TIP3    H1 6408   6.498   1.873   2.971
 2155TIP3    H2 6409   6.395   1.804   3.058
 2156TIP3   OH2 6410   0.520   7.249   5.061
 2156TIP3    H1 6411   0.508   7.298   5.142
 2156TIP3    H2 6412   0.595   7.192   5.078
 2157TIP3   OH2 6413   2.449   5.738   6.663
 2157TIP3    H1 6414   2.378   5.701   6.611
 2157TIP3    H2 6415   2.450   5.685   6.742
 2158TIP3   OH2 6416   5.603   3.340   4.484
 2158TIP3    H1 6417   5.632   3.412   4.428
 2158TIP3    H2 6418   5.683   3.294   4.508
 2159TIP3   OH2 6419   6.057   2.722   1.139
 2159TIP3    H1 6420   6.058   2.817   1.151
 2159TIP3    H2 6421   6.013   2.688   1.218
 2160TIP3   OH2 6422   7.761   1.312   4.344
 2160TIP3    H1 6423   7.700   1.352   4.405
 2160TIP3    H2 6424   7.814   1.253   4.397
 2161TIP3   OH2 6425   1.269   5.852   6.281
 2161TIP3    H1 6426   1.270   5.785   6.212
 2161TIP3    H2 6427   1.184   5.895   6.272
 2162TIP3   OH2 6428   4.403   3.368   2.837
 2162TIP3    H1 6429   4.451   3.294   2.874
 2162TIP3    H2 6430   4.419   3.364   2.743
 2163TIP3   OH2 6431   2.859   2.381   2.694
 2163TIP3    H1 6432   2.944   2.338   2.698
 2163TIP3    H2 6433   2.849   2.407   2.602
 2164TIP3   OH2 6434   7.426   1.979   3.688
 2164TIP3    H1 6435   7.374   1.919   3.742
 2164TIP3    H2 6436   7.500   2.004   3.744
 2165TIP3   OH2 6437   7.404   4.253   2.462
 2165TIP3    H1 6438   7.431   4.254   2.554
 2165TIP3    H2 6439   7.320   4.209   2.462
 2166TIP3   OH2 6440   2.654   6.070   0.671
 2166TIP3    H1 6441   2.700   6.024   0.601
 2166TIP3    H2 6442   2.724   6.112   0.721
 2167TIP3   OH2 6443   4.798   2.478   0.966
 2167TIP3    H1 6444   4.789   2.501   1.059
 2167TIP3    H2 6445   4.881   2.431   0.961
 2168TIP3   OH2 6446   1.538   4.176   0.381
 2168TIP3    H1 6447   1.538   4.245   0.447
 2168TIP3    H2 6448   1.629   4.146   0.377
 2169TIP3   OH2 6449   0.570   5.199   3.772
 2169TIP3    H1 6450   0.635   5.254   3.728
 2169TIP3    H2 6451   0.544   5.249   3.848
 2170TIP3   OH2 6452   5.815   0.922   4.419
 2170TIP3    H1 6453   5.789   0.846   4.368
 2170TIP3    H2 6454   5.907   0.906   4.441
 2171TIP3   OH2 6455   2.490   5.970   2.795
 2171TIP3    H1 6456   2.425   5.976   2.865
 2171TIP3    H2 6457   2.556   5.909   2.829
 2172TIP3   OH2 6458   4.955   0.912   6.340
 2172TIP3    H1 6459   4.966   0.905   6.435
 2172TIP3    H2 6460   4.975   1.003   6.320
 2173TIP3   OH2 6461   4.477   5.248   1.238
 2173TIP3    H1 6462   4.505   5.215   1.324
 2173TIP3    H2 6463   4.435   5.332   1.258
 2174TIP3   OH2 6464   2.280   3.926   3.875
 2174TIP3    H1 6465   2.375   3.923   3.870
 2174TIP3    H2 6466   2.253   3.970   3.794
 2175TIP3   OH2 6467   6.900   7.497   2.987
 2175TIP3    H1 6468   6.814   7.462   2.965
 2175TIP3    H2 6469   6.961   7.430   2.956
 2176TIP3   OH2 6470   3.937   7.584   0.060
 2176TIP3    H1 6471   3.985   7.663   0.033
 2176TIP3    H2 6472   3.991   7.546   0.129
 2177TIP3   OH2 6473   5.056   6.570   0.303
 2177TIP3    H1 6474   5.085   6.490   0.259
 2177TIP3    H2 6475   4.965   6.580   0.276
 2178TIP3   OH2 6476   0.245   0.037   1.087
 2178TIP3    H1 6477   0.240   0.034   1.182
 2178TIP3    H2 6478   0.337   0.019   1.067
 2179TIP3   OH2 6479   6.279   7.379   2.079
 2179TIP3    H1 6480   6.308   7.362   2.168
 2179TIP3    H2 6481   6.348   7.434   2.042
 2180TIP3   OH2 6482   4.634   1.272   0.872
 2180TIP3    H1 6483   4.620   1.364   0.896
 2180TIP3    H2 6484   4.702   1.274   0.805
 2181TIP3   OH2 6485   3.463   4.665   6.113
 2181TIP3    H1 6486   3.490   4.745   6.067
 2181TIP3    H2 6487   3.477   4.595   6.049
 2182TIP3   OH2 6488   5.486   7.492   3.271
 2182TIP3    H1 6489   5.546   7.536   3.330
 2182TIP3    H2 6490   5.523   7.404   3.259
 2183TIP3   OH2 6491   3.399   6.060   4.271
 2183TIP3    H1 6492   3.476   6.048   4.216
 2183TIP3    H2 6493   3.362   6.143   4.243
 2184TIP3   OH2 6494   7.595   3.466   5.186
 2184TIP3    H1 6495   7.644   3.539   5.224
 2184TIP3    H2 6496   7.661   3.412   5.143
 2185TIP3   OH2 6497   3.251   7.598   4.246
 2185TIP3    H1 6498   3.278   7.629   4.332
 2185TIP3    H2 6499   3.192   7.665   4.213
 2186TIP3   OH2 6500   7.404   5.041   2.810
 2186TIP3    H1 6501   7.367   5.090   2.736
 2186TIP3    H2 6502   7.489   5.012   2.778
 2187TIP3   OH2 6503   0.335   3.069   5.181
 2187TIP3    H1 6504   0.289   3.153   5.194
 2187TIP3    H2 6505   0.309   3.041   5.093
 2188TIP3   OH2 6506   5.811   5.860   5.184
 2188TIP3    H1 6507   5.820   5.769   5.210
 2188TIP3    H2 6508   5.866   5.868   5.105
 2189TIP3   OH2 6509   1.775   4.241   4.373
 2189TIP3    H1 6510   1.686   4.268   4.349
 2189TIP3    H2 6511   1.823   4.238   4.290
 2190TIP3   OH2 6512   2.240   2.694   3.408
 2190TIP3    H1 6513   2.216   2.613   3.363
 2190TIP3    H2 6514   2.295   2.740   3.345
 2191TIP3   OH2 6515   2.267   0.428   6.189
 2191TIP3    H1 6516   2.276   0.416   6.094
 2191TIP3    H2 6517   2.357   0.424   6.221
 2192TIP3   OH2 6518   5.542   7.149   6.324
 2192TIP3    H1 6519   5.541   7.096   6.404
 2192TIP3    H2 6520   5.450   7.155   6.298
 2193TIP3   OH2 6521   6.584   7.622   0.313
 2193TIP3    H1 6522   6.510   7.624   0.252
 2193TIP3    H2 6523   6.556   7.562   0.383
 2194TIP3   OH2 6524   2.693   5.846   3.552
 2194TIP3    H1 6525   2.666   5.809   3.468
 2194TIP3    H2 6526   2.756   5.914   3.529
 2195TIP3   OH2 6527   5.374   0.788   3.049
 2195TIP3    H1 6528   5.413   0.721   3.105
 2195TIP3    H2 6529   5.289   0.752   3.023
 2196TIP3   OH2 6530   3.221   0.690   1.107
 2196TIP3    H1 6531   3.222   0.713   1.014
 2196TIP3    H2 6532   3.261   0.603   1.111
 2197TIP3   OH2 6533   2.980   0.349   5.908
 2197TIP3    H1 6534   3.048   0.375   5.846
 2197TIP3    H2 6535   3.028   0.324   5.987
 2198TIP3   OH2 6536   3.058   0.722   6.190
 2198TIP3    H1 6537   3.088   0.750   6.277
 2198TIP3    H2 6538   3.138   0.719   6.137
 2199TIP3   OH2 6539   5.439   0.830   5.878
 2199TIP3    H1 6540   5.446   0.917   5.839
 2199TIP3    H2 6541   5.524   0.789   5.859
 2200TIP3   OH2 6542   0.641   0.175   1.646
 2200TIP3    H1 6543   0.570   0.115   1.625
 2200TIP3    H2 6544   0.682   0.195   1.562
 2201TIP3   OH2 6545   4.546   7.363   1.708
 2201TIP3    H1 6546   4.579   7.324   1.789
 2201TIP3    H2 6547   4.479   7.425   1.737
 2202TIP3   OH2 6548   8.232   5.277   0.874
 2202TIP3    H1 6549   8.251   5.305   0.785
 2202TIP3    H2 6550   8.217   5.358   0.923
 2203TIP3   OH2 6551   4.797   5.972   6.530
 2203TIP3    H1 6552   4.717   5.932   6.565
 2203TIP3    H2 6553   4.839   5.901   6.481
 2204TIP3   OH2 6554   3.641   4.203   0.578
 2204TIP3    H1 6555   3.554   4.206   0.618
 2204TIP3    H2 6556   3.626   4.181   0.487
 2205TIP3   OH2 6557   6.255   7.225   6.565
 2205TIP3    H1 6558   6.227   7.191   6.480
 2205TIP3    H2 6559   6.340   7.265   6.548
 2206TIP3   OH2 6560   6.654   5.162   1.205
 2206TIP3    H1 6561   6.595   5.230   1.237
 2206TIP3    H2 6562   6.595   5.094   1.171
 2207TIP3   OH2 6563   1.348   3.307   5.933
 2207TIP3    H1 6564   1.411   3.236   5.941
 2207TIP3    H2 6565   1.357   3.357   6.013
 2208TIP3   OH2 6566   5.774   5.772   3.722
 2208TIP3    H1 6567   5.693   5.822   3.731
 2208TIP3    H2 6568   5.747   5.690   3.680
 2209TIP3   OH2 6569   3.831   4.616   2.989
 2209TIP3    H1 6570   3.874   4.597   3.072
 2209TIP3    H2 6571   3.874   4.695   2.956
 2210TIP3   OH2 6572   2.809   6.275   1.367
 2210TIP3    H1 6573   2.837   6.364   1.347
 2210TIP3    H2 6574   2.889   6.232   1.399
 2211TIP3   OH2 6575   2.767   1.693   0.076
 2211TIP3    H1 6576   2.763   1.651   0.162
 2211TIP3    H2 6577   2.746   1.785   0.094
 2212TIP3   OH2 6578   6.485   4.908   2.030
 2212TIP3    H1 6579   6.571   4.926   2.066
 2212TIP3    H2 6580   6.502   4.871   1.943
 2213TIP3   OH2 6581   1.766   1.035   1.460
 2213TIP3    H1 6582   1.705   1.093   1.507
 2213TIP3    H2 6583   1.818   1.094   1.406
 2214TIP3   OH2 6584   5.881   0.920   2.395
 2214TIP3    H1 6585   5.970   0.946   2.418
 2214TIP3    H2 6586   5.877   0.928   2.299
 2215TIP3   OH2 6587   6.617   1.141   0.922
 2215TIP3    H1 6588   6.674   1.113   0.993
 2215TIP3    H2 6589   6.550   1.073   0.916
 2216TIP3   OH2 6590   0.783   4.847   5.504
 2216TIP3    H1 6591   0.826   4.874   5.423
 2216TIP3    H2 6592   0.741   4.764   5.483
 2217TIP3   OH2 6593   7.821   3.653   5.755
 2217TIP3    H1 6594   7.734   3.617   5.776
 2217TIP3    H2 6595   7.882   3.597   5.804
 2218TIP3   OH2 6596   5.087   2.455   4.016
 2218TIP3    H1 6597   5.080   2.424   3.925
 2218TIP3    H2 6598   5.017   2.410   4.062
 2219TIP3   OH2 6599   5.217   7.321   1.593
 2219TIP3    H1 6600   5.141   7.335   1.536
 2219TIP3    H2 6601   5.236   7.228   1.585
 2220TIP3   OH2 6602   3.545   0.778   0.143
 2220TIP3    H1 6603   3.585   0.736   0.219
 2220TIP3    H2 6604   3.451   0.773   0.159
 2221TIP3   OH2 6605   1.478   4.321   4.824
 2221TIP3    H1 6606   1.440   4.391   4.771
 2221TIP3    H2 6607   1.572   4.333   4.815
 2222TIP3   OH2 6608   0.454   3.452   2.664
 2222TIP3    H1 6609   0.488   3.535   2.631
 2222TIP3    H2 6610   0.403   3.475   2.741
 2223TIP3   OH2 6611   7.030   5.070   0.308
 2223TIP3    H1 6612   7.104   5.107   0.357
 2223TIP3    H2 6613   6.978   5.145   0.281
 2224TIP3   OH2 6614   4.555   1.835   5.640
 2224TIP3    H1 6615   4.460   1.844   5.646
 2224TIP3    H2 6616   4.590   1.922   5.659
 2225TIP3   OH2 6617   0.241   0.288   1.349
 2225TIP3    H1 6618   0.295   0.321   1.421
 2225TIP3    H2 6619   0.168   0.244   1.393
 2226TIP3   OH2 6620   5.266   1.608   6.681
 2226TIP3    H1 6621   5.180   1.570   6.661
 2226TIP3    H2 6622   5.285   1.663   6.605
 2227TIP3   OH2 6623   4.650   2.043   3.669
 2227TIP3    H1 6624   4.698   2.071   3.747
 2227TIP3    H2 6625   4.558   2.062   3.688
 2228TIP3   OH2 6626   6.147   4.304   4.583
 2228TIP3    H1 6627   6.173   4.222   4.540
 2228TIP3    H2 6628   6.078   4.277   4.644
 2229TIP3   OH2 6629   5.509   1.889   4.574
 2229TIP3    H1 6630   5.597   1.927   4.583
 2229TIP3    H2 6631   5.524   1.803   4.535
 2230TIP3   OH2 6632   5.598   0.951   3.682
 2230TIP3    H1 6633   5.563   1.010   3.748
 2230TIP3    H2 6634   5.578   0.864   3.714
 2231TIP3   OH2 6635   6.119   4.829   6.027
 2231TIP3    H1 6636   6.193   4.873   6.070
 2231TIP3    H2 6637   6.108   4.875   5.945
 2232TIP3   OH2 6638   5.207   2.043   5.146
 2232TIP3    H1 6639   5.178   2.061   5.235
 2232TIP3    H2 6640   5.141   1.981   5.112
 2233TIP3   OH2 6641   4.730   4.776   2.458
 2233TIP3    H1 6642   4.649   4.782   2.508
 2233TIP3    H2 6643   4.717   4.700   2.400
 2234TIP3   OH2 6644   5.798   4.009   3.159
 2234TIP3    H1 6645   5.811   4.035   3.068
 2234TIP3    H2 6646   5.841   4.078   3.209
 2235TIP3   OH2 6647   0.623   1.464   0.908
 2235TIP3    H1 6648   0.686   1.408   0.863
 2235TIP3    H2 6649   0.591   1.412   0.981
 2236TIP3   OH2 6650   6.567   2.511   0.161
 2236TIP3    H1 6651   6.647   2.458   0.160
 2236TIP3    H2 6652   6.596   2.596   0.195
 2237TIP3   OH2 6653   8.078   6.320   3.231
 2237TIP3    H1 6654   8.112   6.409   3.219
 2237TIP3    H2 6655   8.139   6.265   3.183
 2238TIP3   OH2 6656   7.513   6.379   2.235
 2238TIP3    H1 6657   7.521   6.420   2.148
 2238TIP3    H2 6658   7.487   6.450   2.293
 2239TIP3   OH2 6659   0.397   7.001   2.324
 2239TIP3    H1 6660   0.414   7.094   2.338
 2239TIP3    H2 6661   0.372   6.994   2.232
 2240TIP3   OH2 6662   4.497   4.731   4.997
 2240TIP3    H1 6663   4.576   4.717   5.049
 2240TIP3    H2 6664   4.426   4.733   5.061
 2241TIP3   OH2 6665   6.859   0.974   6.091
 2241TIP3    H1 6666   6.802   1.009   6.160
 2241TIP3    H2 6667   6.905   0.902   6.135
 2242TIP3   OH2 6668   1.113   5.130   3.005
 2242TIP3    H1 6669   1.206   5.123   3.023
 2242TIP3    H2 6670   1.071   5.073   3.070
 2243TIP3   OH2 6671   6.865   0.639   2.258
 2243TIP3    H1 6672   6.786   0.664   2.210
 2243TIP3    H2 6673   6.912   0.721   2.271
 2244TIP3   OH2 6674   2.181   3.328   2.158
 2244TIP3    H1 6675   2.193   3.347   2.251
 2244TIP3    H2 6676   2.149   3.410   2.121
 2245TIP3   OH2 6677   1.502   6.493   5.724
 2245TIP3    H1 6678   1.470   6.477   5.813
 2245TIP3    H2 6679   1.454   6.430   5.670
 2246TIP3   OH2 6680   1.779   5.671   2.893
 2246TIP3    H1 6681   1.748   5.658   2.982
 2246TIP3    H2 6682   1.852   5.611   2.883
 2247TIP3   OH2 6683   3.567   2.050   6.597
 2247TIP3    H1 6684   3.587   1.977   6.656
 2247TIP3    H2 6685   3.604   2.127   6.640
 2248TIP3   OH2 6686   7.064   4.869   4.670
 2248TIP3    H1 6687   7.005   4.943   4.663
 2248TIP3    H2 6688   7.131   4.897   4.733
 2249TIP3   OH2 6689   5.843   1.534   4.080
 2249TIP3    H1 6690   5.870   1.625   4.083
 2249TIP3    H2 6691   5.794   1.521   4.162
 2250TIP3   OH2 6692   7.920   4.626   5.914
 2250TIP3    H1 6693   7.993   4.565   5.903
 2250TIP3    H2 6694   7.880   4.601   5.998
 2251TIP3   OH2 6695   3.898   5.710   4.992
 2251TIP3    H1 6696   3.804   5.701   5.007
 2251TIP3    H2 6697   3.908   5.797   4.955
 2252TIP3   OH2 6698   2.679   3.012   3.681
 2252TIP3    H1 6699   2.750   3.027   3.743
 2252TIP3    H2 6700   2.601   3.004   3.737
 2253TIP3   OH2 6701   2.159   7.034   5.476
 2253TIP3    H1 6702   2.098   6.975   5.432
 2253TIP3    H2 6703   2.246   7.006   5.446
 2254TIP3   OH2 6704   1.477   4.197   6.416
 2254TIP3    H1 6705   1.555   4.220   6.366
 2254TIP3    H2 6706   1.475   4.101   6.416
 2255TIP3   OH2 6707   5.317   2.831   5.915
 2255TIP3    H1 6708   5.372   2.775   5.860
 2255TIP3    H2 6709   5.355   2.919   5.903
 2256TIP3   OH2 6710   3.443   4.043   6.419
 2256TIP3    H1 6711   3.463   4.005   6.504
 2256TIP3    H2 6712   3.358   4.005   6.395
 2257TIP3   OH2 6713   5.516   1.112   2.539
 2257TIP3    H1 6714   5.523   1.159   2.456
 2257TIP3    H2 6715   5.511   1.020   2.513
 2258TIP3   OH2 6716   7.484   0.395   1.382
 2258TIP3    H1 6717   7.501   0.379   1.474
 2258TIP3    H2 6718   7.565   0.433   1.348
 2259TIP3   OH2 6719   0.924   2.441   4.359
 2259TIP3    H1 6720   1.019   2.447   4.359
 2259TIP3    H2 6721   0.894   2.530   4.341
 2260TIP3   OH2 6722   0.654   5.407   6.525
 2260TIP3    H1 6723   0.624   5.392   6.614
 2260TIP3    H2 6724   0.634   5.325   6.479
 2261TIP3   OH2 6725   6.800   6.596   0.302
 2261TIP3    H1 6726   6.741   6.662   0.266
 2261TIP3    H2 6727   6.750   6.515   0.300
 2262TIP3   OH2 6728   7.430   3.655   0.267
 2262TIP3    H1 6729   7.463   3.569   0.242
 2262TIP3    H2 6730   7.500   3.716   0.243
 2263TIP3   OH2 6731   5.573   0.615   6.160
 2263TIP3    H1 6732   5.646   0.675   6.146
 2263TIP3    H2 6733   5.591   0.542   6.100
 2264TIP3   OH2 6734   5.225   0.551   2.825
 2264TIP3    H1 6735   5.175   0.527   2.903
 2264TIP3    H2 6736   5.163   0.597   2.769
 2265TIP3   OH2 6737   0.554   3.634   5.744
 2265TIP3    H1 6738   0.599   3.625   5.660
 2265TIP3    H2 6739   0.485   3.699   5.728
 2266TIP3   OH2 6740   7.671   7.160   2.858
 2266TIP3    H1 6741   7.698   7.073   2.887
 2266TIP3    H2 6742   7.726   7.220   2.909
 2267TIP3   OH2 6743   3.126   3.278   6.451
 2267TIP3    H1 6744   3.168   3.359   6.422
 2267TIP3    H2 6745   3.124   3.286   6.546
 2268TIP3   OH2 6746   2.207   4.539   6.369
 2268TIP3    H1 6747   2.239   4.450   6.367
 2268TIP3    H2 6748   2.283   4.593   6.389
 2269TIP3   OH2 6749   5.318   1.641   2.955
 2269TIP3    H1 6750   5.365   1.643   2.872
 2269TIP3    H2 6751   5.244   1.701   2.942
 2270TIP3   OH2 6752   4.930   4.432   4.832
 2270TIP3    H1 6753   4.837   4.453   4.829
 2270TIP3    H2 6754   4.951   4.426   4.925
 2271TIP3   OH2 6755   7.210   2.349   5.050
 2271TIP3    H1 6756   7.173   2.265   5.076
 2271TIP3    H2 6757   7.247   2.333   4.963
 2272TIP3   OH2 6758   5.248   0.523   6.217
 2272TIP3    H1 6759   5.163   0.502   6.255
 2272TIP3    H2 6760   5.227   0.573   6.137
 2273TIP3   OH2 6761   6.226   0.811   0.511
 2273TIP3    H1 6762   6.216   0.729   0.560
 2273TIP3    H2 6763   6.229   0.784   0.419
 2274TIP3   OH2 6764   0.981   7.277   3.754
 2274TIP3    H1 6765   0.957   7.317   3.837
 2274TIP3    H2 6766   1.012   7.349   3.700
 2275TIP3   OH2 6767   3.617   4.078   3.900
 2275TIP3    H1 6768   3.573   4.058   3.817
 2275TIP3    H2 6769   3.580   4.014   3.962
 2276TIP3   OH2 6770   8.174   7.220   2.011
 2276TIP3    H1 6771   8.199   7.152   2.073
 2276TIP3    H2 6772   8.160   7.298   2.065
 2277TIP3   OH2 6773   2.340   3.789   0.786
 2277TIP3    H1 6774   2.332   3.797   0.881
 2277TIP3    H2 6775   2.327   3.878   0.753
 2278TIP3   OH2 6776   5.736   6.493   0.882
 2278TIP3    H1 6777   5.763   6.415   0.833
 2278TIP3    H2 6778   5.645   6.506   0.858
 2279TIP3   OH2 6779   4.712   1.436   2.802
 2279TIP3    H1 6780   4.620   1.413   2.788
 2279TIP3    H2 6781   4.759   1.391   2.732
 2280TIP3   OH2 6782   7.286   7.386   1.630
 2280TIP3    H1 6783   7.249   7.364   1.544
 2280TIP3    H2 6784   7.371   7.342   1.632
 2281TIP3   OH2 6785   0.796   1.183   2.700
 2281TIP3    H1 6786   0.817   1.215   2.612
 2281TIP3    H2 6787   0.760   1.259   2.746
 2282TIP3   OH2 6788   0.323   2.665   3.832
 2282TIP3    H1 6789   0.332   2.745   3.884
 2282TIP3    H2 6790   0.229   2.652   3.824
 2283TIP3   OH2 6791   2.897   2.790   0.612
 2283TIP3    H1 6792   2.837   2.811   0.684
 2283TIP3    H2 6793   2.983   2.819   0.644
 2284TIP3   OH2 6794   3.062   1.065   5.681
 2284TIP3    H1 6795   3.029   1.030   5.764
 2284TIP3    H2 6796   2.984   1.100   5.638
 2285TIP3   OH2 6797   4.219   3.729   6.651
 2285TIP3    H1 6798   4.257   3.675   6.582
 2285TIP3    H2 6799   4.199   3.812   6.608
 2286TIP3   OH2 6800   6.926   5.823   3.760
 2286TIP3    H1 6801   7.013   5.813   3.721
 2286TIP3    H2 6802   6.943   5.826   3.854
 2287TIP3   OH2 6803   7.844   1.017   1.400
 2287TIP3    H1 6804   7.827   1.101   1.443
 2287TIP3    H2 6805   7.818   0.952   1.465
 2288TIP3   OH2 6806   0.298   3.834   4.682
 2288TIP3    H1 6807   0.281   3.928   4.674
 2288TIP3    H2 6808   0.226   3.792   4.636
 2289TIP3   OH2 6809   4.883   2.659   6.544
 2289TIP3    H1 6810   4.974   2.686   6.535
 2289TIP3    H2 6811   4.857   2.689   6.631
 2290TIP3   OH2 6812   5.967   7.015   0.056
 2290TIP3    H1 6813   5.952   6.933   0.009
 2290TIP3    H2 6814   6.061   7.015   0.075
 2291TIP3   OH2 6815   5.374   3.626   1.308
 2291TIP3    H1 6816   5.333   3.660   1.387
 2291TIP3    H2 6817   5.465   3.655   1.314
 2292TIP3   OH2 6818   2.524   5.267   2.479
 2292TIP3    H1 6819   2.532   5.361   2.462
 2292TIP3    H2 6820   2.470   5.261   2.557
 2293TIP3   OH2 6821   6.845   5.579   1.784
 2293TIP3    H1 6822   6.841   5.675   1.788
 2293TIP3    H2 6823   6.859   5.559   1.692
 2294TIP3   OH2 6824   0.188   1.317   3.840
 2294TIP3    H1 6825   0.240   1.318   3.921
 2294TIP3    H2 6826   0.199   1.404   3.802
 2295TIP3   OH2 6827   0.363   2.775   4.756
 2295TIP3    H1 6828   0.316   2.855   4.733
 2295TIP3    H2 6829   0.338   2.758   4.847
 2296TIP3   OH2 6830   7.307   6.959   6.115
 2296TIP3    H1 6831   7.218   6.954   6.082
 2296TIP3    H2 6832   7.304   7.026   6.183
 2297TIP3   OH2 6833   6.332   6.687   6.728
 2297TIP3    H1 6834   6.362   6.713   6.815
 2297TIP3    H2 6835   6.411   6.659   6.682
 2298TIP3   OH2 6836   7.191   1.141   2.182
 2298TIP3    H1 6837   7.226   1.230   2.176
 2298TIP3    H2 6838   7.103   1.153   2.218
 2299TIP3   OH2 6839   4.956   4.095   2.241
 2299TIP3    H1 6840   5.006   4.151   2.300
 2299TIP3    H2 6841   4.958   4.009   2.282
 2300TIP3   OH2 6842   5.239   2.525   2.986
 2300TIP3    H1 6843   5.156   2.564   3.014
 2300TIP3    H2 6844   5.249   2.554   2.895
 2301TIP3   OH2 6845   0.005   3.408   0.514
 2301TIP3    H1 6846   0.027   3.492   0.472
 2301TIP3    H2 6847   0.089   3.363   0.522
 2302TIP3   OH2 6848   4.894   7.695   6.642
 2302TIP3    H1 6849   4.920   7.603   6.636
 2302TIP3    H2 6850   4.972   7.740   6.672
 2303TIP3   OH2 6851   3.763   2.747   5.472
 2303TIP3    H1 6852   3.771   2.842   5.481
 2303TIP3    H2 6853   3.670   2.731   5.461
 2304TIP3   OH2 6854   3.208   1.379   1.374
 2304TIP3    H1 6855   3.228   1.449   1.311
 2304TIP3    H2 6856   3.192   1.302   1.320
 2305TIP3   OH2 6857   5.701   3.589   2.035
 2305TIP3    H1 6858   5.650   3.508   2.035
 2305TIP3    H2 6859   5.778   3.569   1.982
 2306TIP3   OH2 6860   0.368   1.917   1.698
 2306TIP3    H1 6861   0.300   1.925   1.631
 2306TIP3    H2 6862   0.441   1.970   1.666
 2307TIP3   OH2 6863   5.513   7.733   4.872
 2307TIP3    H1 6864   5.592   7.712   4.823
 2307TIP3    H2 6865   5.541   7.802   4.933
 2308TIP3   OH2 6866   7.893   4.958   3.569
 2308TIP3    H1 6867   7.897   4.958   3.665
 2308TIP3    H2 6868   7.812   4.912   3.549
 2309TIP3   OH2 6869   2.236   3.686   3.084
 2309TIP3    H1 6870   2.194   3.643   3.158
 2309TIP3    H2 6871   2.175   3.674   3.011
 2310TIP3   OH2 6872   0.937   6.971   3.294
 2310TIP3    H1 6873   0.910   6.963   3.386
 2310TIP3    H2 6874   0.923   7.063   3.273
 2311TIP3   OH2 6875   4.885   4.500   6.518
 2311TIP3    H1 6876   4.850   4.589   6.510
 2311TIP3    H2 6877   4.954   4.508   6.583
 2312TIP3   OH2 6878   6.724   3.871   0.978
 2312TIP3    H1 6879   6.687   3.804   0.921
 2312TIP3    H2 6880   6.765   3.934   0.918
 2313TIP3   OH2 6881   1.259   0.833   5.286
 2313TIP3    H1 6882   1.280   0.784   5.365
 2313TIP3    H2 6883   1.172   0.804   5.261
 2314TIP3   OH2 6884   4.168   7.725   3.702
 2314TIP3    H1 6885   4.154   7.716   3.608
 2314TIP3    H2 6886   4.192   7.817   3.714
 2315TIP3   OH2 6887   7.493   0.124   5.014
 2315TIP3    H1 6888   7.542   0.206   5.021
 2315TIP3    H2 6889   7.403   0.152   4.997
 2316TIP3   OH2 6890   5.544   2.708   1.783
 2316TIP3    H1 6891   5.620   2.762   1.761
 2316TIP3    H2 6892   5.538   2.645   1.711
 2317TIP3   OH2 6893   7.486   1.600   5.061
 2317TIP3    H1 6894   7.405   1.577   5.105
 2317TIP3    H2 6895   7.474   1.571   4.971
 2318TIP3   OH2 6896   1.544   6.961   1.636
 2318TIP3    H1 6897   1.524   6.945   1.544
 2318TIP3    H2 6898   1.605   6.891   1.660
 2319TIP3   OH2 6899   4.976   4.584   3.957
 2319TIP3    H1 6900   4.905   4.643   3.930
 2319TIP3    H2 6901   5.055   4.635   3.944
 2320TIP3   OH2 6902   5.307   0.998   0.744
 2320TIP3    H1 6903   5.253   0.943   0.687
 2320TIP3    H2 6904   5.364   0.936   0.791
 2321TIP3   OH2 6905   2.738   0.310   0.402
 2321TIP3    H1 6906   2.660   0.323   0.456
 2321TIP3    H2 6907   2.808   0.296   0.466
 2322TIP3   OH2 6908   1.473   4.797   5.167
 2322TIP3    H1 6909   1.526   4.787   5.087
 2322TIP3    H2 6910   1.454   4.708   5.194
 2323TIP3   OH2 6911   3.885   4.539   4.421
 2323TIP3    H1 6912   3.912   4.625   4.454
 2323TIP3    H2 6913   3.826   4.505   4.489
 2324TIP3   OH2 6914   1.074   3.890   1.004
 2324TIP3    H1 6915   1.157   3.851   1.033
 2324TIP3    H2 6916   1.084   3.899   0.909
 2325TIP3   OH2 6917   0.562   0.699   5.084
 2325TIP3    H1 6918   0.568   0.672   4.992
 2325TIP3    H2 6919   0.559   0.794   5.081
 2326TIP3   OH2 6920   2.421   7.373   5.281
 2326TIP3    H1 6921   2.444   7.405   5.194
 2326TIP3    H2 6922   2.454   7.439   5.341
 2327TIP3   OH2 6923   7.414   4.362   3.052
 2327TIP3    H1 6924   7.396   4.287   3.108
 2327TIP3    H2 6925   7.330   4.409   3.047
 2328TIP3   OH2 6926   8.089   6.424   5.866
 2328TIP3    H1 6927   8.080   6.451   5.775
 2328TIP3    H2 6928   8.181   6.400   5.875
 2329TIP3   OH2 6929   3.652   5.021   5.685
 2329TIP3    H1 6930   3.680   5.096   5.632
 2329TIP3    H2 6931   3.571   4.991   5.644
 2330TIP3   OH2 6932   7.317   3.497   5.112
 2330TIP3    H1 6933   7.406   3.482   5.145
 2330TIP3    H2 6934   7.330   3.544   5.029
 2331TIP3   OH2 6935   4.932   5.408   6.367
 2331TIP3    H1 6936   4.950   5.316   6.348
 2331TIP3    H2 6937   5.016   5.442   6.398
 2332TIP3   OH2 6938   3.600   4.042   4.549
 2332TIP3    H1 6939   3.511   4.070   4.527
 2332TIP3    H2 6940   3.588   3.972   4.613
 2333TIP3   OH2 6941   3.990   4.926   2.135
 2333TIP3    H1 6942   3.938   4.965   2.205
 2333TIP3    H2 6943   4.052   4.994   2.109
 2334TIP3   OH2 6944   7.116   0.910   5.918
 2334TIP3    H1 6945   7.208   0.920   5.940
 2334TIP3    H2 6946   7.070   0.951   5.991
 2335TIP3   OH2 6947   1.595   4.806   1.722
 2335TIP3    H1 6948   1.550   4.826   1.640
 2335TIP3    H2 6949   1.606   4.891   1.765
 2336TIP3   OH2 6950   0.238   3.346   1.504
 2336TIP3    H1 6951   0.326   3.320   1.534
 2336TIP3    H2 6952   0.186   3.266   1.511
 2337TIP3   OH2 6953   2.683   0.494   4.427
 2337TIP3    H1 6954   2.732   0.568   4.461
 2337TIP3    H2 6955   2.628   0.532   4.358
 2338TIP3   OH2 6956   3.355   7.464   5.899
 2338TIP3    H1 6957   3.430   7.430   5.947
 2338TIP3    H2 6958   3.383   7.463   5.807
 2339TIP3   OH2 6959   4.636   6.863   3.348
 2339TIP3    H1 6960   4.727   6.838   3.362
 2339TIP3    H2 6961   4.586   6.784   3.367
 2340TIP3   OH2 6962   1.528   3.557   5.558
 2340TIP3    H1 6963   1.508   3.601   5.640
 2340TIP3    H2 6964   1.450   3.569   5.504
 2341TIP3   OH2 6965   6.052   7.263   4.957
 2341TIP3    H1 6966   5.991   7.209   5.008
 2341TIP3    H2 6967   6.072   7.337   5.014
 2342TIP3   OH2 6968   2.454   0.576   4.774
 2342TIP3    H1 6969   2.451   0.551   4.681
 2342TIP3    H2 6970   2.546   0.595   4.790
 2343TIP3   OH2 6971   0.851   2.957   5.271
 2343TIP3    H1 6972   0.769   2.966   5.222
 2343TIP3    H2 6973   0.823   2.941   5.361
 2344TIP3   OH2 6974   1.243   5.010   2.331
 2344TIP3    H1 6975   1.328   5.055   2.336
 2344TIP3    H2 6976   1.184   5.062   2.385
 2345TIP3   OH2 6977   4.098   0.776   1.264
 2345TIP3    H1 6978   4.017   0.814   1.299
 2345TIP3    H2 6979   4.102   0.688   1.302
 2346TIP3   OH2 6980   6.240   3.676   2.182
 2346TIP3    H1 6981   6.218   3.705   2.094
 2346TIP3    H2 6982   6.311   3.733   2.210
 2347TIP3   OH2 6983   0.969   6.449   1.677
 2347TIP3    H1 6984   1.049   6.490   1.645
 2347TIP3    H2 6985   0.940   6.394   1.604
 2348TIP3   OH2 6986   3.964   5.423   3.174
 2348TIP3    H1 6987   3.948   5.510   3.211
 2348TIP3    H2 6988   4.007   5.440   3.090
 2349TIP3   OH2 6989   7.648   5.435   1.689
 2349TIP3    H1 6990   7.722   5.490   1.712
 2349TIP3    H2 6991   7.688   5.355   1.654
 2350TIP3   OH2 6992   5.815   0.797   5.478
 2350TIP3    H1 6993   5.848   0.753   5.399
 2350TIP3    H2 6994   5.803   0.888   5.451
 2351TIP3   OH2 6995   0.882   3.350   3.577
 2351TIP3    H1 6996   0.918   3.420   3.632
 2351TIP3    H2 6997   0.790   3.343   3.604
 2352TIP3   OH2 6998   0.618   4.912   0.788
 2352TIP3    H1 6999   0.548   4.956   0.740
 2352TIP3    H2 7000   0.640   4.971   0.859
 2353TIP3   OH2 7001   6.411   2.290   3.295
 2353TIP3    H1 7002   6.463   2.355   3.341
 2353TIP3    H2 7003   6.366   2.339   3.227
 2354TIP3   OH2 7004   2.386   2.351   4.390
 2354TIP3    H1 7005   2.436   2.318   4.464
 2354TIP3    H2 7006   2.313   2.289   4.381
 2355TIP3   OH2 7007   3.373   4.276   2.045
 2355TIP3    H1 7008   3.336   4.301   1.961
 2355TIP3    H2 7009   3.426   4.351   2.072
 2356TIP3   OH2 7010   3.252   2.351   6.306
 2356TIP3    H1 7011   3.294   2.273   6.342
 2356TIP3    H2 7012   3.161   2.344   6.334
 2357TIP3   OH2 7013   8.052   4.641   4.609
 2357TIP3    H1 7014   8.037   4.717   4.666
 2357TIP3    H2 7015   7.979   4.582   4.629
 2358TIP3   OH2 7016   0.639   4.022   4.183
 2358TIP3    H1 7017   0.633   3.937   4.140
 2358TIP3    H2 7018   0.681   4.079   4.118
 2359TIP3   OH2 7019   6.363   7.072   4.882
 2359TIP3    H1 7020   6.445   7.025   4.893
 2359TIP3    H2 7021   6.379   7.133   4.810
 2360TIP3   OH2 7022   3.007   6.648   4.466
 2360TIP3    H1 7023   3.080   6.608   4.420
 2360TIP3    H2 7024   3.047   6.697   4.538
 2361TIP3   OH2 7025   7.984   0.421   6.473
 2361TIP3    H1 7026   7.975   0.327   6.493
 2361TIP3    H2 7027   7.921   0.437   6.403
 2362TIP3   OH2 7028   0.136   3.667   1.626
 2362TIP3    H1 7029   0.177   3.731   1.568
 2362TIP3    H2 7030   0.208   3.637   1.683
 2363TIP3   OH2 7031   4.412   3.871   2.934
 2363TIP3    H1 7032   4.494   3.878   2.884
 2363TIP3    H2 7033   4.352   3.827   2.875
 2364TIP3   OH2 7034   7.886   7.234   2.662
 2364TIP3    H1 7035   7.914   7.208   2.574
 2364TIP3    H2 7036   7.933   7.315   2.679
 2365TIP3   OH2 7037   5.386   0.128   4.536
 2365TIP3    H1 7038   5.454   0.183   4.498
 2365TIP3    H2 7039   5.380   0.157   4.627
 2366TIP3   OH2 7040   7.632   5.723   5.705
 2366TIP3    H1 7041   7.649   5.645   5.651
 2366TIP3    H2 7042   7.710   5.731   5.760
 2367TIP3   OH2 7043   4.153   6.188   5.704
 2367TIP3    H1 7044   4.138   6.250   5.633
 2367TIP3    H2 7045   4.175   6.106   5.659
 2368TIP3   OH2 7046   2.126   1.480   2.134
 2368TIP3    H1 7047   2.055   1.459   2.073
 2368TIP3    H2 7048   2.189   1.410   2.122
 2369TIP3   OH2 7049   1.278   4.667   3.428
 2369TIP3    H1 7050   1.209   4.604   3.451
 2369TIP3    H2 7051   1.239   4.721   3.359
 2370TIP3   OH2 7052   5.619   7.061   6.556
 2370TIP3    H1 7053   5.649   7.030   6.641
 2370TIP3    H2 7054   5.698   7.064   6.502
 2371TIP3   OH2 7055   4.958   3.753   5.504
 2371TIP3    H1 7056   4.979   3.718   5.418
 2371TIP3    H2 7057   4.863   3.747   5.510
 2372TIP3   OH2 7058   0.037   3.073   0.043
 2372TIP3    H1 7059  -0.046   3.103   0.004
 2372TIP3    H2 7060   0.097   3.067  -0.031
 2373TIP3   OH2 7061   6.394   1.753   4.793
 2373TIP3    H1 7062   6.412   1.847   4.781
 2373TIP3    H2 7063   6.303   1.743   4.766
 2374TIP3   OH2 7064   0.498   1.390   5.676
 2374TIP3    H1 7065   0.440   1.433   5.613
 2374TIP3    H2 7066   0.585   1.426   5.656
 2375TIP3   OH2 7067   5.394   2.822   0.711
 2375TIP3    H1 7068   5.342   2.790   0.785
 2375TIP3    H2 7069   5.419   2.742   0.664
 2376TIP3   OH2 7070   1.181   5.416   2.556
 2376TIP3    H1 7071   1.168   5.322   2.567
 2376TIP3    H2 7072   1.152   5.454   2.639
 2377TIP3   OH2 7073   2.969   6.352   5.538
 2377TIP3    H1 7074   3.033   6.400   5.591
 2377TIP3    H2 7075   2.885   6.391   5.562
 2378TIP3   OH2 7076   7.297   3.253   6.017
 2378TIP3    H1 7077   7.360   3.181   6.018
 2378TIP3    H2 7078   7.225   3.223   6.071
 2379TIP3   OH2 7079   4.235   1.232   0.514
 2379TIP3    H1 7080   4.212   1.140   0.504
 2379TIP3    H2 7081   4.280   1.237   0.598
 2380TIP3   OH2 7082   0.698   0.324   5.466
 2380TIP3    H1 7083   0.688   0.350   5.558
 2380TIP3    H2 7084   0.769   0.260   5.468
 2381TIP3   OH2 7085   5.847   7.100   1.624
 2381TIP3    H1 7086   5.795   7.161   1.572
 2381TIP3    H2 7087   5.784   7.059   1.684
 2382TIP3   OH2 7088   4.176   5.024   4.416
 2382TIP3    H1 7089   4.154   5.087   4.485
 2382TIP3    H2 7090   4.100   5.024   4.358
 2383TIP3   OH2 7091   7.807   7.539   5.590
 2383TIP3    H1 7092   7.804   7.616   5.533
 2383TIP3    H2 7093   7.889   7.549   5.639
 2384TIP3   OH2 7094   3.154   7.088   6.707
 2384TIP3    H1 7095   3.084   7.033   6.674
 2384TIP3    H2 7096   3.159   7.068   6.801
 2385TIP3   OH2 7097   5.003   6.880   2.804
 2385TIP3    H1 7098   4.928   6.896   2.747
 2385TIP3    H2 7099   5.080   6.890   2.748
 2386TIP3   OH2 7100   3.872   4.784   5.732
 2386TIP3    H1 7101   3.790   4.761   5.689
 2386TIP3    H2 7102   3.926   4.705   5.727
 2387TIP3   OH2 7103   3.023   7.630   3.208
 2387TIP3    H1 7104   3.035   7.552   3.263
 2387TIP3    H2 7105   2.929   7.629   3.187
 2388TIP3   OH2 7106   2.021   1.913   2.716
 2388TIP3    H1 7107   1.970   1.980   2.760
 2388TIP3    H2 7108   2.112   1.936   2.734
 2389TIP3   OH2 7109   4.327   2.459   1.951
 2389TIP3    H1 7110   4.240   2.482   1.983
 2389TIP3    H2 7111   4.388   2.507   2.007
 2390TIP3   OH2 7112   6.283   2.146   1.361
 2390TIP3    H1 7113   6.190   2.152   1.381
 2390TIP3    H2 7114   6.304   2.230   1.320
 2391TIP3   OH2 7115   1.617   3.789   0.462
 2391TIP3    H1 7116   1.595   3.744   0.381
 2391TIP3    H2 7117   1.544   3.849   0.478
 2392TIP3   OH2 7118   3.800   5.879   5.248
 2392TIP3    H1 7119   3.712   5.886   5.284
 2392TIP3    H2 7120   3.848   5.826   5.312
 2393TIP3   OH2 7121   6.285   7.135   5.793
 2393TIP3    H1 7122   6.256   7.210   5.742
 2393TIP3    H2 7123   6.368   7.163   5.832
 2394TIP3   OH2 7124   6.128   0.827   4.721
 2394TIP3    H1 7125   6.062   0.890   4.694
 2394TIP3    H2 7126   6.208   0.854   4.675
 2395TIP3   OH2 7127   1.883   3.021   1.098
 2395TIP3    H1 7128   1.924   3.067   1.024
 2395TIP3    H2 7129   1.926   3.056   1.175
 2396TIP3   OH2 7130   7.615   4.304   3.888
 2396TIP3    H1 7131   7.674   4.303   3.963
 2396TIP3    H2 7132   7.554   4.376   3.906
 2397TIP3   OH2 7133   2.112   3.298   6.576
 2397TIP3    H1 7134   2.043   3.349   6.533
 2397TIP3    H2 7135   2.124   3.341   6.661
 2398TIP3   OH2 7136   0.165   2.222   5.794
 2398TIP3    H1 7137   0.121   2.304   5.819
 2398TIP3    H2 7138   0.220   2.200   5.870
 2399TIP3   OH2 7139   2.010   4.212   5.883
 2399TIP3    H1 7140   2.092   4.203   5.931
 2399TIP3    H2 7141   1.965   4.284   5.927
 2400TIP3   OH2 7142   7.889   0.966   3.935
 2400TIP3    H1 7143   7.832   0.931   3.868
 2400TIP3    H2 7144   7.945   1.028   3.889
 2401TIP3   OH2 7145   7.216   7.025   2.776
 2401TIP3    H1 7146   7.149   7.002   2.711
 2401TIP3    H2 7147   7.172   7.084   2.837
 2402TIP3   OH2 7148   7.328   1.466   2.647
 2402TIP3    H1 7149   7.252   1.424   2.686
 2402TIP3    H2 7150   7.401   1.441   2.704
 2403TIP3   OH2 7151   4.248   7.140   3.340
 2403TIP3    H1 7152   4.276   7.130   3.432
 2403TIP3    H2 7153   4.154   7.126   3.342
 2404TIP3   OH2 7154   1.871   2.476   6.321
 2404TIP3    H1 7155   1.925   2.410   6.277
 2404TIP3    H2 7156   1.830   2.525   6.250
 2405TIP3   OH2 7157   4.813   2.141   6.315
 2405TIP3    H1 7158   4.866   2.178   6.385
 2405TIP3    H2 7159   4.752   2.083   6.359
 2406TIP3   OH2 7160   7.753   0.122   1.382
 2406TIP3    H1 7161   7.658   0.121   1.373
 2406TIP3    H2 7162   7.784   0.057   1.319
 2407TIP3   OH2 7163   1.307   6.318   1.002
 2407TIP3    H1 7164   1.370   6.363   1.058
 2407TIP3    H2 7165   1.299   6.231   1.040
 2408TIP3   OH2 7166   0.567   2.360   5.316
 2408TIP3    H1 7167   0.655   2.397   5.316
 2408TIP3    H2 7168   0.560   2.316   5.231
 2409TIP3   OH2 7169   1.897   7.578   5.049
 2409TIP3    H1 7170   1.927   7.537   5.130
 2409TIP3    H2 7171   1.911   7.672   5.062
 2410TIP3   OH2 7172   6.500   6.534   5.172
 2410TIP3    H1 7173   6.454   6.615   5.147
 2410TIP3    H2 7174   6.592   6.561   5.179
 2411TIP3   OH2 7175   0.885   1.966   3.929
 2411TIP3    H1 7176   0.797   2.001   3.915
 2411TIP3    H2 7177   0.940   2.013   3.868
 2412TIP3   OH2 7178   1.937   2.806   6.012
 2412TIP3    H1 7179   1.945   2.815   5.917
 2412TIP3    H2 7180   1.899   2.889   6.041
 2413TIP3   OH2 7181   0.322   2.768   2.864
 2413TIP3    H1 7182   0.407   2.800   2.836
 2413TIP3    H2 7183   0.267   2.846   2.869
 2414TIP3   OH2 7184   5.700   2.526   5.755
 2414TIP3    H1 7185   5.747   2.451   5.792
 2414TIP3    H2 7186   5.720   2.524   5.661
 2415TIP3   OH2 7187   7.859   4.344   1.285
 2415TIP3    H1 7188   7.932   4.283   1.294
 2415TIP3    H2 7189   7.841   4.374   1.374
 2416TIP3   OH2 7190   1.171   2.238   4.652
 2416TIP3    H1 7191   1.247   2.180   4.658
 2416TIP3    H2 7192   1.098   2.185   4.684
 2417TIP3   OH2 7193   4.369   2.261   0.186
 2417TIP3    H1 7194   4.412   2.331   0.137
 2417TIP3    H2 7195   4.307   2.222   0.125
 2418TIP3   OH2 7196   5.420   5.462   1.465
 2418TIP3    H1 7197   5.498   5.495   1.420
 2418TIP3    H2 7198   5.417   5.512   1.547
 2419TIP3   OH2 7199   7.462   5.094   2.356
 2419TIP3    H1 7200   7.383   5.125   2.312
 2419TIP3    H2 7201   7.480   5.009   2.316
 2420TIP3   OH2 7202   6.396   0.183   2.823
 2420TIP3    H1 7203   6.377   0.273   2.850
 2420TIP3    H2 7204   6.463   0.153   2.885
 2421TIP3   OH2 7205   2.557   6.221   1.058
 2421TIP3    H1 7206   2.645   6.184   1.058
 2421TIP3    H2 7207   2.507   6.165   1.118
 2422TIP3   OH2 7208   3.680   6.543   0.584
 2422TIP3    H1 7209   3.726   6.612   0.536
 2422TIP3    H2 7210   3.635   6.590   0.655
 2423TIP3   OH2 7211   2.268   3.286   1.508
 2423TIP3    H1 7212   2.346   3.315   1.554
 2423TIP3    H2 7213   2.262   3.342   1.431
 2424TIP3   OH2 7214   3.034   0.088   1.624
 2424TIP3    H1 7215   3.083   0.096   1.706
 2424TIP3    H2 7216   2.942   0.095   1.650
 2425TIP3   OH2 7217   6.116   6.831   3.407
 2425TIP3    H1 7218   6.077   6.918   3.398
 2425TIP3    H2 7219   6.063   6.774   3.351
 2426TIP3   OH2 7220   4.042   0.070   2.094
 2426TIP3    H1 7221   3.981   0.042   2.162
 2426TIP3    H2 7222   4.034   0.003   2.026
 2427TIP3   OH2 7223   0.940   4.284   4.239
 2427TIP3    H1 7224   0.885   4.233   4.180
 2427TIP3    H2 7225   0.970   4.357   4.186
 2428TIP3   OH2 7226   4.286   0.938   3.601
 2428TIP3    H1 7227   4.286   1.012   3.541
 2428TIP3    H2 7228   4.364   0.951   3.655
 2429TIP3   OH2 7229   0.778   5.147   1.399
 2429TIP3    H1 7230   0.710   5.085   1.374
 2429TIP3    H2 7231   0.774   5.214   1.330
 2430TIP3   OH2 7232   5.440   0.021   3.870
 2430TIP3    H1 7233   5.509   0.044   3.808
 2430TIP3    H2 7234   5.478   0.038   3.956
 2431TIP3   OH2 7235   1.737   3.355   2.077
 2431TIP3    H1 7236   1.799   3.283   2.075
 2431TIP3    H2 7237   1.667   3.329   2.017
 2432TIP3   OH2 7238   4.624   7.494   3.833
 2432TIP3    H1 7239   4.537   7.516   3.867
 2432TIP3    H2 7240   4.606   7.455   3.747
 2433TIP3   OH2 7241   4.965   7.245   4.965
 2433TIP3    H1 7242   5.011   7.165   4.993
 2433TIP3    H2 7243   4.949   7.293   5.047
 2434TIP3   OH2 7244   8.141   6.023   5.067
 2434TIP3    H1 7245   8.218   6.080   5.059
 2434TIP3    H2 7246   8.128   5.989   4.979
 2435TIP3   OH2 7247   1.275   4.539   0.009
 2435TIP3    H1 7248   1.184   4.555  -0.014
 2435TIP3    H2 7249   1.275   4.453   0.051
 2436TIP3   OH2 7250   5.597   6.155   1.471
 2436TIP3    H1 7251   5.630   6.167   1.561
 2436TIP3    H2 7252   5.670   6.113   1.425
 2437TIP3   OH2 7253   8.210   3.093   5.192
 2437TIP3    H1 7254   8.183   3.183   5.207
 2437TIP3    H2 7255   8.134   3.040   5.216
 2438TIP3   OH2 7256   6.776   0.228   3.425
 2438TIP3    H1 7257   6.756   0.166   3.355
 2438TIP3    H2 7258   6.815   0.303   3.381
 2439TIP3   OH2 7259   7.238   6.947   1.747
 2439TIP3    H1 7260   7.324   6.981   1.721
 2439TIP3    H2 7261   7.176   6.991   1.688
 2440TIP3   OH2 7262   5.013   1.190   6.341
 2440TIP3    H1 7263   5.003   1.229   6.428
 2440TIP3    H2 7264   4.933   1.216   6.295
 2441TIP3   OH2 7265   3.707   2.818   3.125
 2441TIP3    H1 7266   3.732   2.874   3.199
 2441TIP3    H2 7267   3.679   2.880   3.057
 2442TIP3   OH2 7268   5.021   5.672   3.064
 2442TIP3    H1 7269   5.086   5.660   2.996
 2442TIP3    H2 7270   4.938   5.680   3.017
 2443TIP3   OH2 7271   4.558   7.012   0.588
 2443TIP3    H1 7272   4.585   6.931   0.543
 2443TIP3    H2 7273   4.585   7.082   0.529
 2444TIP3   OH2 7274   2.955   6.941   6.585
 2444TIP3    H1 7275   2.894   6.974   6.519
 2444TIP3    H2 7276   2.972   6.851   6.560
 2445TIP3   OH2 7277   7.167   1.352   4.101
 2445TIP3    H1 7278   7.143   1.394   4.184
 2445TIP3    H2 7279   7.202   1.267   4.127
 2446TIP3   OH2 7280   2.888   4.625   1.328
 2446TIP3    H1 7281   2.813   4.622   1.388
 2446TIP3    H2 7282   2.940   4.549   1.352
 2447TIP3   OH2 7283   7.783   7.292   0.525
 2447TIP3    H1 7284   7.874   7.275   0.500
 2447TIP3    H2 7285   7.774   7.252   0.611
 2448TIP3   OH2 7286   6.457   6.393   2.317
 2448TIP3    H1 7287   6.363   6.406   2.333
 2448TIP3    H2 7288   6.468   6.298   2.317
 2449TIP3   OH2 7289   0.880   5.952   1.428
 2449TIP3    H1 7290   0.960   5.982   1.471
 2449TIP3    H2 7291   0.875   6.003   1.347
 2450TIP3   OH2 7292   5.495   4.400   5.861
 2450TIP3    H1 7293   5.533   4.383   5.775
 2450TIP3    H2 7294   5.563   4.373   5.923
 2451TIP3   OH2 7295   1.534   0.806   2.935
 2451TIP3    H1 7296   1.497   0.860   3.006
 2451TIP3    H2 7297   1.555   0.723   2.977
 2452TIP3   OH2 7298   3.426   4.283   2.624
 2452TIP3    H1 7299   3.405   4.191   2.609
 2452TIP3    H2 7300   3.418   4.323   2.537
 2453TIP3   OH2 7301   4.114   1.370   5.067
 2453TIP3    H1 7302   4.081   1.417   5.143
 2453TIP3    H2 7303   4.093   1.427   4.993
 2454TIP3   OH2 7304   7.254   2.725   4.751
 2454TIP3    H1 7305   7.288   2.637   4.768
 2454TIP3    H2 7306   7.243   2.763   4.839
 2455TIP3   OH2 7307   4.253   1.593   5.923
 2455TIP3    H1 7308   4.203   1.593   5.841
 2455TIP3    H2 7309   4.330   1.539   5.904
 2456TIP3   OH2 7310   7.979   5.543   5.700
 2456TIP3    H1 7311   8.000   5.633   5.675
 2456TIP3    H2 7312   8.041   5.522   5.770
 2457TIP3   OH2 7313   4.934   7.742   6.292
 2457TIP3    H1 7314   4.929   7.812   6.357
 2457TIP3    H2 7315   4.847   7.702   6.294
 2458TIP3   OH2 7316   2.438   6.909   4.103
 2458TIP3    H1 7317   2.462   6.862   4.023
 2458TIP3    H2 7318   2.414   6.840   4.165
 2459TIP3   OH2 7319   3.209   7.832   4.915
 2459TIP3    H1 7320   3.194   7.744   4.881
 2459TIP3    H2 7321   3.187   7.826   5.008
 2460TIP3   OH2 7322   3.620   6.979   3.120
 2460TIP3    H1 7323   3.545   7.038   3.133
 2460TIP3    H2 7324   3.655   7.003   3.034
 2461TIP3   OH2 7325   0.963   7.240   3.235
 2461TIP3    H1 7326   0.930   7.326   3.263
 2461TIP3    H2 7327   0.935   7.231   3.144
 2462TIP3   OH2 7328   2.057   1.939   5.708
 2462TIP3    H1 7329   2.120   1.870   5.689
 2462TIP3    H2 7330   2.005   1.905   5.780
 2463TIP3   OH2 7331   6.570   3.599   2.194
 2463TIP3    H1 7332   6.633   3.609   2.122
 2463TIP3    H2 7333   6.564   3.686   2.233
 2464TIP3   OH2 7334   4.245   4.468   1.721
 2464TIP3    H1 7335   4.226   4.375   1.707
 2464TIP3    H2 7336   4.335   4.469   1.753
 2465TIP3   OH2 7337   7.460   0.288   6.671
 2465TIP3    H1 7338   7.434   0.286   6.579
 2465TIP3    H2 7339   7.536   0.346   6.673
 2466TIP3   OH2 7340   3.692   2.977   4.639
 2466TIP3    H1 7341   3.673   3.015   4.725
 2466TIP3    H2 7342   3.764   3.029   4.605
 2467TIP3   OH2 7343   6.656   0.219   4.663
 2467TIP3    H1 7344   6.627   0.162   4.592
 2467TIP3    H2 7345   6.577   0.264   4.692
 2468TIP3   OH2 7346   0.845   5.348   1.215
 2468TIP3    H1 7347   0.815   5.384   1.132
 2468TIP3    H2 7348   0.940   5.342   1.205
 2469TIP3   OH2 7349   2.682   4.436   3.571
 2469TIP3    H1 7350   2.618   4.492   3.526
 2469TIP3    H2 7351   2.644   4.421   3.657
 2470TIP3   OH2 7352   4.050   1.470   5.306
 2470TIP3    H1 7353   4.107   1.461   5.383
 2470TIP3    H2 7354   3.964   1.492   5.343
 2471TIP3   OH2 7355   7.798   5.234   0.548
 2471TIP3    H1 7356   7.824   5.300   0.483
 2471TIP3    H2 7357   7.871   5.230   0.609
 2472TIP3   OH2 7358   0.088   3.506   2.956
 2472TIP3    H1 7359   0.061   3.522   3.046
 2472TIP3    H2 7360   0.028   3.437   2.925
 2473TIP3   OH2 7361   6.016   4.106   3.556
 2473TIP3    H1 7362   5.940   4.060   3.594
 2473TIP3    H2 7363   6.076   4.036   3.530
 2474TIP3   OH2 7364   6.069   1.240   6.453
 2474TIP3    H1 7365   6.026   1.324   6.438
 2474TIP3    H2 7366   5.999   1.183   6.486
 2475TIP3   OH2 7367   5.824   2.803   2.764
 2475TIP3    H1 7368   5.759   2.831   2.828
 2475TIP3    H2 7369   5.899   2.861   2.779
 2476TIP3   OH2 7370   5.283   1.538   5.767
 2476TIP3    H1 7371   5.250   1.451   5.743
 2476TIP3    H2 7372   5.206   1.594   5.768
 2477TIP3   OH2 7373   2.855   7.112   1.725
 2477TIP3    H1 7374   2.923   7.073   1.780
 2477TIP3    H2 7375   2.791   7.041   1.712
 2478TIP3   OH2 7376   6.995   1.506   5.126
 2478TIP3    H1 7377   6.990   1.575   5.059
 2478TIP3    H2 7378   7.088   1.497   5.145
 2479TIP3   OH2 7379   3.954   3.393   5.223
 2479TIP3    H1 7380   3.919   3.381   5.135
 2479TIP3    H2 7381   4.024   3.327   5.229
 2480TIP3   OH2 7382   5.982   2.988   0.407
 2480TIP3    H1 7383   5.966   3.081   0.424
 2480TIP3    H2 7384   6.051   2.964   0.469
 2481TIP3   OH2 7385   0.798   1.977   5.402
 2481TIP3    H1 7386   0.775   2.052   5.456
 2481TIP3    H2 7387   0.725   1.967   5.342
 2482TIP3   OH2 7388   7.397   2.101   5.695
 2482TIP3    H1 7389   7.304   2.100   5.716
 2482TIP3    H2 7390   7.439   2.057   5.769
 2483TIP3   OH2 7391   5.557   0.776   1.638
 2483TIP3    H1 7392   5.597   0.823   1.565
 2483TIP3    H2 7393   5.615   0.701   1.652
 2484TIP3   OH2 7394   5.602   2.821   6.753
 2484TIP3    H1 7395   5.677   2.830   6.694
 2484TIP3    H2 7396   5.637   2.777   6.830
 2485TIP3   OH2 7397   7.689   4.646   2.261
 2485TIP3    H1 7398   7.777   4.641   2.298
 2485TIP3    H2 7399   7.633   4.608   2.329
 2486TIP3   OH2 7400   3.219   3.017   3.463
 2486TIP3    H1 7401   3.143   3.075   3.453
 2486TIP3    H2 7402   3.291   3.076   3.485
 2487TIP3   OH2 7403   4.042   4.288   2.029
 2487TIP3    H1 7404   4.016   4.221   2.092
 2487TIP3    H2 7405   3.960   4.316   1.988
 2488TIP3   OH2 7406   2.756   6.227   6.151
 2488TIP3    H1 7407   2.796   6.193   6.071
 2488TIP3    H2 7408   2.736   6.149   6.202
 2489TIP3   OH2 7409   5.638   0.055   4.858
 2489TIP3    H1 7410   5.556   0.009   4.841
 2489TIP3    H2 7411   5.695  -0.012   4.896
 2490TIP3   OH2 7412   1.409   0.810   0.477
 2490TIP3    H1 7413   1.453   0.740   0.524
 2490TIP3    H2 7414   1.418   0.787   0.385
 2491TIP3   OH2 7415   0.794   2.032   0.181
 2491TIP3    H1 7416   0.760   1.980   0.254
 2491TIP3    H2 7417   0.740   2.111   0.181
 2492TIP3   OH2 7418   0.642   3.504   1.905
 2492TIP3    H1 7419   0.601   3.585   1.934
 2492TIP3    H2 7420   0.627   3.502   1.810
 2493TIP3   OH2 7421   4.521   6.728   2.687
 2493TIP3    H1 7422   4.503   6.637   2.661
 2493TIP3    H2 7423   4.597   6.753   2.635
 2494TIP3   OH2 7424   7.825   7.020   5.433
 2494TIP3    H1 7425   7.734   6.995   5.420
 2494TIP3    H2 7426   7.823   7.116   5.438
 2495TIP3   OH2 7427   6.807   6.258   4.484
 2495TIP3    H1 7428   6.766   6.176   4.510
 2495TIP3    H2 7429   6.767   6.324   4.541
 2496TIP3   OH2 7430   6.222   1.168   3.168
 2496TIP3    H1 7431   6.303   1.173   3.117
 2496TIP3    H2 7432   6.157   1.212   3.113
 2497TIP3   OH2 7433   7.260   3.187   6.414
 2497TIP3    H1 7434   7.189   3.207   6.354
 2497TIP3    H2 7435   7.317   3.264   6.411
 2498TIP3   OH2 7436   7.190   7.346   1.902
 2498TIP3    H1 7437   7.231   7.384   1.824
 2498TIP3    H2 7438   7.242   7.381   1.975
 2499TIP3   OH2 7439   8.039   0.428   1.128
 2499TIP3    H1 7440   8.068   0.373   1.056
 2499TIP3    H2 7441   8.008   0.508   1.086
 2500TIP3   OH2 7442   1.430   3.647   6.512
 2500TIP3    H1 7443   1.504   3.596   6.479
 2500TIP3    H2 7444   1.377   3.584   6.560
 2501TIP3   OH2 7445   4.441   2.218   2.027
 2501TIP3    H1 7446   4.532   2.188   2.025
 2501TIP3    H2 7447   4.437   2.288   1.962
 2502TIP3   OH2 7448   7.509   6.132   5.236
 2502TIP3    H1 7449   7.580   6.153   5.175
 2502TIP3    H2 7450   7.477   6.047   5.206
 2503TIP3   OH2 7451   5.354   3.994   4.904
 2503TIP3    H1 7452   5.329   3.914   4.949
 2503TIP3    H2 7453   5.320   3.983   4.815
 2504TIP3   OH2 7454   0.513   7.411   0.795
 2504TIP3    H1 7455   0.482   7.497   0.767
 2504TIP3    H2 7456   0.439   7.373   0.842
 2505TIP3   OH2 7457   1.130   3.861   5.285
 2505TIP3    H1 7458   1.176   3.944   5.273
 2505TIP3    H2 7459   1.130   3.821   5.198
 2506TIP3   OH2 7460   2.315   3.911   2.941
 2506TIP3    H1 7461   2.343   3.883   2.854
 2506TIP3    H2 7462   2.314   3.831   2.994
 2507TIP3   OH2 7463   1.438   3.374   4.410
 2507TIP3    H1 7464   1.421   3.428   4.333
 2507TIP3    H2 7465   1.518   3.411   4.447
 2508TIP3   OH2 7466   0.313   7.529   0.415
 2508TIP3    H1 7467   0.320   7.438   0.444
 2508TIP3    H2 7468   0.348   7.580   0.488
 2509TIP3   OH2 7469   8.280   3.173   3.894
 2509TIP3    H1 7470   8.224   3.214   3.961
 2509TIP3    H2 7471   8.265   3.079   3.904
 2510TIP3   OH2 7472   1.362   0.919   1.597
 2510TIP3    H1 7473   1.269   0.910   1.620
 2510TIP3    H2 7474   1.365   0.903   1.503
 2511TIP3   OH2 7475   5.678   3.232   3.890
 2511TIP3    H1 7476   5.685   3.154   3.835
 2511TIP3    H2 7477   5.679   3.305   3.828
 2512TIP3   OH2 7478   5.368   5.577   3.232
 2512TIP3    H1 7479   5.383   5.485   3.253
 2512TIP3    H2 7480   5.434   5.624   3.283
 2513TIP3   OH2 7481   2.041   5.428   4.571
 2513TIP3    H1 7482   1.964   5.409   4.625
 2513TIP3    H2 7483   2.021   5.387   4.486
 2514TIP3   OH2 7484   5.374   2.614   4.521
 2514TIP3    H1 7485   5.361   2.708   4.532
 2514TIP3    H2 7486   5.451   2.606   4.465
 2515TIP3   OH2 7487   2.270   2.262   5.004
 2515TIP3    H1 7488   2.337   2.316   5.046
 2515TIP3    H2 7489   2.283   2.275   4.910
 2516TIP3   OH2 7490   0.387   2.049   0.260
 2516TIP3    H1 7491   0.436   2.061   0.342
 2516TIP3    H2 7492   0.296   2.070   0.284
 2517TIP3   OH2 7493   6.696   2.585   2.525
 2517TIP3    H1 7494   6.630   2.517   2.512
 2517TIP3    H2 7495   6.647   2.665   2.541
 2518TIP3   OH2 7496   3.817   1.718   6.676
 2518TIP3    H1 7497   3.791   1.717   6.769
 2518TIP3    H2 7498   3.866   1.637   6.665
 2519TIP3   OH2 7499   6.072   5.833   3.736
 2519TIP3    H1 7500   5.982   5.805   3.723
 2519TIP3    H2 7501   6.102   5.860   3.648
 2520TIP3   OH2 7502   6.454   5.623   3.333
 2520TIP3    H1 7503   6.467   5.675   3.412
 2520TIP3    H2 7504   6.430   5.536   3.365
 2521TIP3   OH2 7505   4.761   5.178   6.020
 2521TIP3    H1 7506   4.724   5.110   5.963
 2521TIP3    H2 7507   4.689   5.240   6.032
 2522TIP3   OH2 7508   7.607   3.156   0.178
 2522TIP3    H1 7509   7.534   3.179   0.120
 2522TIP3    H2 7510   7.680   3.139   0.118
 2523TIP3   OH2 7511   0.298   0.135   0.604
 2523TIP3    H1 7512   0.266   0.134   0.695
 2523TIP3    H2 7513   0.377   0.082   0.607
 2524TIP3   OH2 7514   7.430   3.723   5.534
 2524TIP3    H1 7515   7.344   3.761   5.553
 2524TIP3    H2 7516   7.464   3.695   5.619
 2525TIP3   OH2 7517   1.068   4.327   4.525
 2525TIP3    H1 7518   1.018   4.319   4.444
 2525TIP3    H2 7519   1.028   4.264   4.585
 2526TIP3   OH2 7520   2.825   2.956   3.242
 2526TIP3    H1 7521   2.903   2.959   3.187
 2526TIP3    H2 7522   2.844   3.015   3.315
 2527TIP3   OH2 7523   7.166   6.637   5.834
 2527TIP3    H1 7524   7.232   6.586   5.787
 2527TIP3    H2 7525   7.207   6.658   5.917
 2528TIP3   OH2 7526   0.049   6.119   4.551
 2528TIP3    H1 7527   0.124   6.059   4.556
 2528TIP3    H2 7528   0.088   6.206   4.558
 2529TIP3   OH2 7529   7.880   3.949   3.294
 2529TIP3    H1 7530   7.826   4.028   3.287
 2529TIP3    H2 7531   7.888   3.934   3.388
 2530TIP3   OH2 7532   4.065   0.400   4.036
 2530TIP3    H1 7533   4.053   0.376   4.128
 2530TIP3    H2 7534   4.075   0.495   4.038
 2531TIP3   OH2 7535   6.799   7.631   1.917
 2531TIP3    H1 7536   6.800   7.543   1.879
 2531TIP3    H2 7537   6.756   7.685   1.850
 2532TIP3   OH2 7538   1.128   2.578   2.667
 2532TIP3    H1 7539   1.145   2.668   2.640
 2532TIP3    H2 7540   1.168   2.570   2.754
 2533TIP3   OH2 7541   3.269   0.575   0.108
 2533TIP3    H1 7542   3.354   0.534   0.091
 2533TIP3    H2 7543   3.284   0.630   0.185
 2534TIP3   OH2 7544   4.545   2.494   0.154
 2534TIP3    H1 7545   4.476   2.555   0.128
 2534TIP3    H2 7546   4.543   2.493   0.249
 2535TIP3   OH2 7547   7.191   1.918   0.231
 2535TIP3    H1 7548   7.152   1.947   0.148
 2535TIP3    H2 7549   7.168   1.826   0.237
 2536TIP3   OH2 7550   3.888   0.685   5.427
 2536TIP3    H1 7551   3.805   0.638   5.433
 2536TIP3    H2 7552   3.921   0.664   5.339
 2537TIP3   OH2 7553   5.835   2.771   5.798
 2537TIP3    H1 7554   5.776   2.825   5.851
 2537TIP3    H2 7555   5.784   2.692   5.779
 2538TIP3   OH2 7556   3.775   4.718   6.751
 2538TIP3    H1 7557   3.712   4.709   6.680
 2538TIP3    H2 7558   3.802   4.809   6.748
 2539TIP3   OH2 7559   7.606   4.857   3.591
 2539TIP3    H1 7560   7.581   4.805   3.515
 2539TIP3    H2 7561   7.544   4.931   3.590
 2540TIP3   OH2 7562   2.957   3.556   3.915
 2540TIP3    H1 7563   2.985   3.632   3.864
 2540TIP3    H2 7564   2.989   3.574   4.003
 2541TIP3   OH2 7565   6.368   2.190   1.079
 2541TIP3    H1 7566   6.285   2.170   1.036
 2541TIP3    H2 7567   6.399   2.269   1.035
 2542TIP3   OH2 7568   5.587   6.856   2.364
 2542TIP3    H1 7569   5.635   6.906   2.431
 2542TIP3    H2 7570   5.503   6.838   2.405
 2543TIP3   OH2 7571   7.247   3.515   1.716
 2543TIP3    H1 7572   7.157   3.534   1.690
 2543TIP3    H2 7573   7.248   3.532   1.811
 2544TIP3   OH2 7574   0.917   5.737   6.710
 2544TIP3    H1 7575   0.891   5.674   6.643
 2544TIP3    H2 7576   0.900   5.692   6.793
 2545TIP3   OH2 7577   5.862   7.090   6.424
 2545TIP3    H1 7578   5.896   7.002   6.407
 2545TIP3    H2 7579   5.924   7.148   6.380
 2546TIP3   OH2 7580   3.207   1.917   0.389
 2546TIP3    H1 7581   3.245   1.830   0.373
 2546TIP3    H2 7582   3.220   1.965   0.307
 2547TIP3   OH2 7583   6.111   3.843   3.505
 2547TIP3    H1 7584   6.184   3.788   3.477
 2547TIP3    H2 7585   6.052   3.846   3.429
 2548TIP3   OH2 7586   6.081   4.449   4.110
 2548TIP3    H1 7587   6.069   4.528   4.057
 2548TIP3    H2 7588   6.034   4.380   4.062
 2549TIP3   OH2 7589   6.285   6.228   4.798
 2549TIP3    H1 7590   6.301   6.212   4.892
 2549TIP3    H2 7591   6.203   6.277   4.796
 2550TIP3   OH2 7592   1.487   4.565   3.992
 2550TIP3    H1 7593   1.508   4.485   3.944
 2550TIP3    H2 7594   1.412   4.541   4.047
 2551TIP3   OH2 7595   7.800   3.536   2.044
 2551TIP3    H1 7596   7.715   3.507   2.075
 2551TIP3    H2 7597   7.845   3.455   2.020
 2552TIP3   OH2 7598   6.499   3.944   3.128
 2552TIP3    H1 7599   6.520   3.903   3.212
 2552TIP3    H2 7600   6.425   3.893   3.095
 2553TIP3   OH2 7601   1.014   0.270   4.295
 2553TIP3    H1 7602   0.955   0.298   4.225
 2553TIP3    H2 7603   1.101   0.297   4.266
 2554TIP3   OH2 7604   0.992   3.834   2.474
 2554TIP3    H1 7605   1.065   3.772   2.474
 2554TIP3    H2 7606   1.033   3.919   2.459
 2555TIP3   OH2 7607   6.885   6.266   1.258
 2555TIP3    H1 7608   6.862   6.331   1.324
 2555TIP3    H2 7609   6.954   6.214   1.299
 2556TIP3   OH2 7610   2.180   4.778   4.496
 2556TIP3    H1 7611   2.114   4.713   4.474
 2556TIP3    H2 7612   2.167   4.848   4.432
 2557TIP3   OH2 7613   1.727   0.415   5.187
 2557TIP3    H1 7614   1.668   0.363   5.241
 2557TIP3    H2 7615   1.805   0.360   5.177
 2558TIP3   OH2 7616   0.525   3.955   1.500
 2558TIP3    H1 7617   0.569   4.027   1.455
 2558TIP3    H2 7618   0.586   3.928   1.568
 2559TIP3   OH2 7619   4.296   2.618   4.315
 2559TIP3    H1 7620   4.336   2.542   4.357
 2559TIP3    H2 7621   4.313   2.690   4.376
 2560TIP3   OH2 7622   3.983   1.514   4.176
 2560TIP3    H1 7623   3.961   1.599   4.213
 2560TIP3    H2 7624   4.052   1.481   4.232
 2561TIP3   OH2 7625   0.299   1.808   1.964
 2561TIP3    H1 7626   0.376   1.760   1.994
 2561TIP3    H2 7627   0.330   1.857   1.887
 2562TIP3   OH2 7628   7.235   4.704   1.084
 2562TIP3    H1 7629   7.208   4.625   1.132
 2562TIP3    H2 7630   7.326   4.687   1.059
 2563TIP3   OH2 7631   2.723   4.250   3.897
 2563TIP3    H1 7632   2.664   4.323   3.880
 2563TIP3    H2 7633   2.733   4.207   3.812
 2564TIP3   OH2 7634   6.058   6.341   1.976
 2564TIP3    H1 7635   6.044   6.311   2.065
 2564TIP3    H2 7636   6.135   6.397   1.980
 2565TIP3   OH2 7637   8.068   3.257   3.005
 2565TIP3    H1 7638   8.059   3.342   3.048
 2565TIP3    H2 7639   8.000   3.203   3.045
 2566TIP3   OH2 7640   0.432   6.255   0.088
 2566TIP3    H1 7641   0.444   6.345   0.058
 2566TIP3    H2 7642   0.380   6.263   0.168
 2567TIP3   OH2 7643   3.775   1.512   5.365
 2567TIP3    H1 7644   3.690   1.545   5.336
 2567TIP3    H2 7645   3.753   1.447   5.433
 2568TIP3   OH2 7646   3.553   2.838   4.107
 2568TIP3    H1 7647   3.553   2.772   4.038
 2568TIP3    H2 7648   3.613   2.803   4.173
 2569TIP3   OH2 7649   6.702   5.270   4.947
 2569TIP3    H1 7650   6.662   5.263   4.860
 2569TIP3    H2 7651   6.636   5.317   4.999
 2570TIP3   OH2 7652   4.899   5.990   3.558
 2570TIP3    H1 7653   4.878   5.897   3.551
 2570TIP3    H2 7654   4.821   6.030   3.595
 2571TIP3   OH2 7655   6.246   4.918   6.485
 2571TIP3    H1 7656   6.262   4.837   6.534
 2571TIP3    H2 7657   6.324   4.929   6.432
 2572TIP3   OH2 7658   2.098   3.291   5.701
 2572TIP3    H1 7659   2.121   3.200   5.678
 2572TIP3    H2 7660   2.120   3.341   5.623
 2573TIP3   OH2 7661   6.677   3.790   5.613
 2573TIP3    H1 7662   6.715   3.732   5.547
 2573TIP3    H2 7663   6.583   3.779   5.603
 2574TIP3   OH2 7664   4.383   0.643   1.714
 2574TIP3    H1 7665   4.308   0.595   1.749
 2574TIP3    H2 7666   4.456   0.581   1.724
 2575TIP3   OH2 7667   0.836   6.132   2.835
 2575TIP3    H1 7668   0.747   6.104   2.856
 2575TIP3    H2 7669   0.853   6.205   2.895
 2576TIP3   OH2 7670   1.243   6.812   1.665
 2576TIP3    H1 7671   1.279   6.884   1.614
 2576TIP3    H2 7672   1.276   6.826   1.753
 2577TIP3   OH2 7673   7.118   2.607   5.527
 2577TIP3    H1 7674   7.167   2.550   5.586
 2577TIP3    H2 7675   7.027   2.592   5.549
 2578TIP3   OH2 7676   2.145   6.938   4.492
 2578TIP3    H1 7677   2.054   6.945   4.521
 2578TIP3    H2 7678   2.142   6.959   4.398
 2579TIP3   OH2 7679   5.473   3.064   6.655
 2579TIP3    H1 7680   5.537   3.041   6.723
 2579TIP3    H2 7681   5.476   2.992   6.593
 2580TIP3   OH2 7682   3.763   7.151   1.375
 2580TIP3    H1 7683   3.711   7.117   1.303
 2580TIP3    H2 7684   3.854   7.145   1.345
 2581TIP3   OH2 7685   7.939   0.230   3.010
 2581TIP3    H1 7686   7.863   0.227   2.951
 2581TIP3    H2 7687   8.015   0.225   2.952
 2582TIP3   OH2 7688   6.601   3.390   4.426
 2582TIP3    H1 7689   6.563   3.380   4.514
 2582TIP3    H2 7690   6.577   3.479   4.399
 2583TIP3   OH2 7691   1.167   7.810   3.506
 2583TIP3    H1 7692   1.092   7.856   3.468
 2583TIP3    H2 7693   1.212   7.773   3.430
 2584TIP3   OH2 7694   2.168   7.704   5.358
 2584TIP3    H1 7695   2.115   7.640   5.312
 2584TIP3    H2 7696   2.105   7.760   5.403
 2585TIP3   OH2 7697   1.931   5.881   6.743
 2585TIP3    H1 7698   2.016   5.893   6.785
 2585TIP3    H2 7699   1.898   5.798   6.780
 2586TIP3   OH2 7700   6.205   0.228   3.723
 2586TIP3    H1 7701   6.211   0.193   3.634
 2586TIP3    H2 7702   6.289   0.273   3.736
 2587TIP3   OH2 7703   0.007   2.918   6.439
 2587TIP3    H1 7704   0.076   2.970   6.399
 2587TIP3    H2 7705  -0.010   2.960   6.523
 2588TIP3   OH2 7706   3.159   6.843   5.981
 2588TIP3    H1 7707   3.072   6.803   5.974
 2588TIP3    H2 7708   3.219   6.773   5.956
 2589TIP3   OH2 7709   6.525   1.121   0.632
 2589TIP3    H1 7710   6.597   1.161   0.680
 2589TIP3    H2 7711   6.564   1.093   0.549
 2590TIP3   OH2 7712   5.935   2.154   0.872
 2590TIP3    H1 7713   5.922   2.089   0.941
 2590TIP3    H2 7714   5.917   2.107   0.791
 2591TIP3   OH2 7715   6.852   4.168   3.366
 2591TIP3    H1 7716   6.846   4.100   3.434
 2591TIP3    H2 7717   6.762   4.200   3.357
 2592TIP3   OH2 7718   4.850   7.787   5.207
 2592TIP3    H1 7719   4.842   7.709   5.152
 2592TIP3    H2 7720   4.800   7.854   5.161
 2593TIP3   OH2 7721   4.457   5.908   2.923
 2593TIP3    H1 7722   4.518   5.967   2.879
 2593TIP3    H2 7723   4.469   5.824   2.880
 2594TIP3   OH2 7724   2.357   6.349   0.155
 2594TIP3    H1 7725   2.265   6.370   0.173
 2594TIP3    H2 7726   2.382   6.289   0.225
 2595TIP3   OH2 7727   5.018   6.530   6.166
 2595TIP3    H1 7728   5.019   6.482   6.083
 2595TIP3    H2 7729   4.943   6.494   6.214
 2596TIP3   OH2 7730   4.208   0.739   5.112
 2596TIP3    H1 7731   4.197   0.679   5.186
 2596TIP3    H2 7732   4.233   0.683   5.039
 2597TIP3   OH2 7733   4.702   2.777   2.858
 2597TIP3    H1 7734   4.611   2.749   2.867
 2597TIP3    H2 7735   4.731   2.793   2.948
 2598TIP3   OH2 7736   4.205   2.258   5.307
 2598TIP3    H1 7737   4.213   2.164   5.288
 2598TIP3    H2 7738   4.276   2.276   5.369
 2599TIP3   OH2 7739   3.650   3.026   0.132
 2599TIP3    H1 7740   3.560   3.047   0.159
 2599TIP3    H2 7741   3.702   3.098   0.167
 2600TIP3   OH2 7742   0.535   6.953   2.785
 2600TIP3    H1 7743   0.449   6.986   2.809
 2600TIP3    H2 7744   0.576   7.026   2.738
 2601TIP3   OH2 7745   7.522   4.984   4.377
 2601TIP3    H1 7746   7.481   5.039   4.444
 2601TIP3    H2 7747   7.466   4.906   4.373
 2602TIP3   OH2 7748   5.957   1.933   1.116
 2602TIP3    H1 7749   6.015   1.861   1.092
 2602TIP3    H2 7750   5.995   1.969   1.196
 2603TIP3   OH2 7751   0.547   4.783   2.866
 2603TIP3    H1 7752   0.586   4.735   2.939
 2603TIP3    H2 7753   0.471   4.730   2.841
 2604TIP3   OH2 7754   6.823   4.776   4.522
 2604TIP3    H1 7755   6.879   4.852   4.508
 2604TIP3    H2 7756   6.857   4.735   4.602
 2605TIP3   OH2 7757   0.932   6.878   0.671
 2605TIP3    H1 7758   0.946   6.812   0.739
 2605TIP3    H2 7759   0.927   6.827   0.590
 2606TIP3   OH2 7760   3.855   1.955   1.337
 2606TIP3    H1 7761   3.834   1.864   1.319
 2606TIP3    H2 7762   3.858   1.996   1.250
 2607TIP3   OH2 7763   1.378   3.895   1.657
 2607TIP3    H1 7764   1.342   3.820   1.610
 2607TIP3    H2 7765   1.398   3.862   1.745
 2608TIP3   OH2 7766   4.528   4.935   3.623
 2608TIP3    H1 7767   4.535   5.020   3.668
 2608TIP3    H2 7768   4.513   4.872   3.693
 2609TIP3   OH2 7769   0.242   6.760   4.589
 2609TIP3    H1 7770   0.266   6.800   4.505
 2609TIP3    H2 7771   0.313   6.785   4.648
 2610TIP3   OH2 7772   7.002   3.848   6.422
 2610TIP3    H1 7773   7.041   3.791   6.488
 2610TIP3    H2 7774   6.999   3.794   6.343
 2611TIP3   OH2 7775   5.198   4.792   4.166
 2611TIP3    H1 7776   5.217   4.699   4.152
 2611TIP3    H2 7777   5.278   4.837   4.142
 2612TIP3   OH2 7778   4.911   5.175   4.931
 2612TIP3    H1 7779   4.851   5.105   4.907
 2612TIP3    H2 7780   4.995   5.147   4.895
 2613TIP3   OH2 7781   1.848   4.203   5.248
 2613TIP3    H1 7782   1.827   4.188   5.341
 2613TIP3    H2 7783   1.765   4.191   5.202
 2614TIP3   OH2 7784   1.678   5.840   4.874
 2614TIP3    H1 7785   1.675   5.884   4.959
 2614TIP3    H2 7786   1.658   5.909   4.811
 2615TIP3   OH2 7787   1.530   0.884   2.507
 2615TIP3    H1 7788   1.532   0.972   2.471
 2615TIP3    H2 7789   1.622   0.859   2.514
 2616TIP3   OH2 7790   6.755   5.785   4.042
 2616TIP3    H1 7791   6.775   5.795   4.135
 2616TIP3    H2 7792   6.659   5.791   4.037
 2617TIP3   OH2 7793   4.161   6.432   5.591
 2617TIP3    H1 7794   4.245   6.424   5.637
 2617TIP3    H2 7795   4.177   6.497   5.523
 2618TIP3   OH2 7796   3.551   4.548   3.516
 2618TIP3    H1 7797   3.631   4.507   3.483
 2618TIP3    H2 7798   3.524   4.493   3.589
 2619TIP3   OH2 7799   5.747   7.361   2.677
 2619TIP3    H1 7800   5.718   7.423   2.744
 2619TIP3    H2 7801   5.749   7.276   2.721
 2620TIP3   OH2 7802   8.004   7.652   6.727
 2620TIP3    H1 7803   7.979   7.562   6.708
 2620TIP3    H2 7804   7.993   7.698   6.644
 2621TIP3   OH2 7805   0.578   2.166   2.497
 2621TIP3    H1 7806   0.611   2.127   2.578
 2621TIP3    H2 7807   0.574   2.092   2.435
 2622TIP3   OH2 7808   1.614   0.872   0.956
 2622TIP3    H1 7809   1.534   0.921   0.975
 2622TIP3    H2 7810   1.588   0.810   0.887
 2623TIP3   OH2 7811   7.555   3.784   4.187
 2623TIP3    H1 7812   7.575   3.693   4.209
 2623TIP3    H2 7813   7.465   3.782   4.156
 2624TIP3   OH2 7814   2.832   6.217   5.285
 2624TIP3    H1 7815   2.777   6.295   5.274
 2624TIP3    H2 7816   2.874   6.230   5.370
 2625TIP3   OH2 7817   6.520   0.817   5.452
 2625TIP3    H1 7818   6.457   0.798   5.382
 2625TIP3    H2 7819   6.533   0.733   5.496
 2626TIP3   OH2 7820   0.271   6.828   1.760
 2626TIP3    H1 7821   0.248   6.771   1.833
 2626TIP3    H2 7822   0.365   6.841   1.768
 2627TIP3   OH2 7823   6.930   1.580   4.121
 2627TIP3    H1 7824   6.949   1.503   4.068
 2627TIP3    H2 7825   7.015   1.623   4.133
 2628TIP3   OH2 7826   5.025   1.145   1.093
 2628TIP3    H1 7827   5.073   1.069   1.060
 2628TIP3    H2 7828   4.933   1.123   1.080
 2629TIP3   OH2 7829   3.574   4.623   4.450
 2629TIP3    H1 7830   3.590   4.716   4.465
 2629TIP3    H2 7831   3.582   4.582   4.536
 2630TIP3   OH2 7832   4.579   6.539   0.080
 2630TIP3    H1 7833   4.581   6.506  -0.010
 2630TIP3    H2 7834   4.495   6.584   0.087
 2631TIP3   OH2 7835   2.389   6.156   0.351
 2631TIP3    H1 7836   2.340   6.171   0.432
 2631TIP3    H2 7837   2.464   6.215   0.358
 2632TIP3   OH2 7838   7.598   1.257   1.693
 2632TIP3    H1 7839   7.646   1.268   1.775
 2632TIP3    H2 7840   7.575   1.164   1.692
 2633TIP3   OH2 7841   2.149   5.140   4.637
 2633TIP3    H1 7842   2.065   5.097   4.617
 2633TIP3    H2 7843   2.145   5.157   4.731
 2634TIP3   OH2 7844   2.789   5.803   5.397
 2634TIP3    H1 7845   2.702   5.801   5.436
 2634TIP3    H2 7846   2.776   5.840   5.310
 2635TIP3   OH2 7847   6.899   3.311   4.474
 2635TIP3    H1 7848   6.817   3.358   4.458
 2635TIP3    H2 7849   6.872   3.222   4.496
 2636TIP3   OH2 7850   6.365   7.263   0.714
 2636TIP3    H1 7851   6.358   7.211   0.794
 2636TIP3    H2 7852   6.338   7.204   0.644
 2637TIP3   OH2 7853   3.324   5.621   4.743
 2637TIP3    H1 7854   3.418   5.619   4.725
 2637TIP3    H2 7855   3.319   5.647   4.835
 2638TIP3   OH2 7856   0.447   1.596   4.173
 2638TIP3    H1 7857   0.375   1.635   4.222
 2638TIP3    H2 7858   0.458   1.654   4.097
 2639TIP3   OH2 7859   7.458   7.771   6.741
 2639TIP3    H1 7860   7.505   7.717   6.805
 2639TIP3    H2 7861   7.527   7.806   6.684
 2640TIP3   OH2 7862   4.836   4.598   0.763
 2640TIP3    H1 7863   4.781   4.671   0.791
 2640TIP3    H2 7864   4.918   4.610   0.811
 2641TIP3   OH2 7865   3.146   4.789   3.920
 2641TIP3    H1 7866   3.205   4.714   3.928
 2641TIP3    H2 7867   3.137   4.822   4.009
 2642TIP3   OH2 7868   6.640   6.365   2.069
 2642TIP3    H1 7869   6.582   6.426   2.114
 2642TIP3    H2 7870   6.676   6.415   1.996
 2643TIP3   OH2 7871   4.471   5.540   3.064
 2643TIP3    H1 7872   4.566   5.543   3.058
 2643TIP3    H2 7873   4.449   5.607   3.129
 2644TIP3   OH2 7874   3.545   7.058   6.124
 2644TIP3    H1 7875   3.489   7.006   6.182
 2644TIP3    H2 7876   3.515   7.148   6.137
 2645TIP3   OH2 7877   4.961   3.802   6.614
 2645TIP3    H1 7878   4.935   3.854   6.538
 2645TIP3    H2 7879   4.918   3.845   6.688
 2646TIP3   OH2 7880   3.940   4.640   0.943
 2646TIP3    H1 7881   3.864   4.685   0.906
 2646TIP3    H2 7882   3.985   4.707   0.995
 2647TIP3   OH2 7883   6.392   3.486   6.217
 2647TIP3    H1 7884   6.361   3.412   6.165
 2647TIP3    H2 7885   6.467   3.519   6.169
 2648TIP3   OH2 7886   4.025   6.299   3.315
 2648TIP3    H1 7887   3.995   6.212   3.288
 2648TIP3    H2 7888   3.983   6.314   3.400
 2649TIP3   OH2 7889   5.931   2.471   3.316
 2649TIP3    H1 7890   5.861   2.430   3.367
 2649TIP3    H2 7891   5.978   2.397   3.277
 2650TIP3   OH2 7892   1.692   3.343   3.817
 2650TIP3    H1 7893   1.773   3.339   3.868
 2650TIP3    H2 7894   1.623   3.328   3.882
 2651TIP3   OH2 7895   1.686   1.354   5.143
 2651TIP3    H1 7896   1.659   1.404   5.066
 2651TIP3    H2 7897   1.732   1.278   5.107
 2652TIP3   OH2 7898   2.132   2.552   5.142
 2652TIP3    H1 7899   2.172   2.558   5.229
 2652TIP3    H2 7900   2.187   2.608   5.087
 2653TIP3   OH2 7901   0.780   0.585   5.242
 2653TIP3    H1 7902   0.722   0.535   5.299
 2653TIP3    H2 7903   0.720   0.635   5.186
 2654TIP3   OH2 7904   4.891   1.797   3.910
 2654TIP3    H1 7905   4.925   1.717   3.951
 2654TIP3    H2 7906   4.797   1.780   3.899
 2655TIP3   OH2 7907   1.635   4.677   2.343
 2655TIP3    H1 7908   1.614   4.612   2.276
 2655TIP3    H2 7909   1.706   4.638   2.394
 2656TIP3   OH2 7910   2.645   1.623   3.923
 2656TIP3    H1 7911   2.568   1.590   3.970
 2656TIP3    H2 7912   2.719   1.590   3.974
 2657TIP3   OH2 7913   1.584   7.773   0.870
 2657TIP3    H1 7914   1.538   7.729   0.798
 2657TIP3    H2 7915   1.676   7.764   0.849
 2658TIP3   OH2 7916   8.085   5.168   1.092
 2658TIP3    H1 7917   8.088   5.073   1.078
 2658TIP3    H2 7918   8.169   5.199   1.058
 2659TIP3   OH2 7919   0.805   6.027   5.461
 2659TIP3    H1 7920   0.750   5.956   5.426
 2659TIP3    H2 7921   0.767   6.048   5.546
 2660TIP3   OH2 7922   6.154   5.032   4.647
 2660TIP3    H1 7923   6.074   4.978   4.645
 2660TIP3    H2 7924   6.225   4.968   4.660
 2661TIP3   OH2 7925   0.009   5.344   1.242
 2661TIP3    H1 7926   0.053   5.422   1.277
 2661TIP3    H2 7927  -0.025   5.299   1.319
 2662TIP3   OH2 7928   4.132   5.551   4.973
 2662TIP3    H1 7929   4.050   5.596   4.953
 2662TIP3    H2 7930   4.164   5.592   5.053
 2663TIP3   OH2 7931   4.197   6.991   4.282
 2663TIP3    H1 7932   4.201   7.046   4.361
 2663TIP3    H2 7933   4.103   6.982   4.263
 2664TIP3   OH2 7934   3.541   7.228   4.361
 2664TIP3    H1 7935   3.630   7.214   4.393
 2664TIP3    H2 7936   3.537   7.180   4.278
 2665TIP3   OH2 7937   2.604   2.631   5.365
 2665TIP3    H1 7938   2.584   2.561   5.428
 2665TIP3    H2 7939   2.696   2.651   5.381
 2666TIP3   OH2 7940   7.762   1.911   5.927
 2666TIP3    H1 7941   7.832   1.859   5.887
 2666TIP3    H2 7942   7.703   1.846   5.965
 2667TIP3   OH2 7943   1.317   1.327   4.921
 2667TIP3    H1 7944   1.322   1.314   5.015
 2667TIP3    H2 7945   1.362   1.252   4.883
 2668TIP3   OH2 7946   0.642   7.482   1.777
 2668TIP3    H1 7947   0.569   7.544   1.777
 2668TIP3    H2 7948   0.602   7.398   1.757
 2669TIP3   OH2 7949   0.576   3.639   0.385
 2669TIP3    H1 7950   0.495   3.621   0.433
 2669TIP3    H2 7951   0.557   3.615   0.295
 2670TIP3   OH2 7952   7.462   0.989   0.984
 2670TIP3    H1 7953   7.465   0.922   1.052
 2670TIP3    H2 7954   7.553   1.014   0.971
 2671TIP3   OH2 7955   4.881   0.148   5.895
 2671TIP3    H1 7956   4.820   0.162   5.967
 2671TIP3    H2 7957   4.963   0.121   5.938
 2672TIP3   OH2 7958   7.292   5.607   2.132
 2672TIP3    H1 7959   7.214   5.663   2.139
 2672TIP3    H2 7960   7.340   5.624   2.213
 2673TIP3   OH2 7961   8.189   0.043   6.140
 2673TIP3    H1 7962   8.218   0.055   6.231
 2673TIP3    H2 7963   8.131   0.117   6.124
 2674TIP3   OH2 7964   4.210   2.506   6.354
 2674TIP3    H1 7965   4.200   2.437   6.419
 2674TIP3    H2 7966   4.215   2.459   6.270
 2675TIP3   OH2 7967   1.666   5.732   6.667
 2675TIP3    H1 7968   1.720   5.698   6.738
 2675TIP3    H2 7969   1.705   5.696   6.587
 2676TIP3   OH2 7970   7.172   2.162   1.284
 2676TIP3    H1 7971   7.141   2.158   1.194
 2676TIP3    H2 7972   7.093   2.176   1.336
 2677TIP3   OH2 7973   4.924   7.721   4.007
 2677TIP3    H1 7974   4.875   7.641   4.025
 2677TIP3    H2 7975   4.870   7.791   4.043
 2678TIP3   OH2 7976   7.376   2.359   6.237
 2678TIP3    H1 7977   7.452   2.360   6.180
 2678TIP3    H2 7978   7.347   2.268   6.238
 2679TIP3   OH2 7979   4.268   1.019   1.997
 2679TIP3    H1 7980   4.362   1.031   1.984
 2679TIP3    H2 7981   4.255   1.029   2.091
 2680TIP3   OH2 7982   2.432   0.904   2.910
 2680TIP3    H1 7983   2.527   0.898   2.910
 2680TIP3    H2 7984   2.403   0.822   2.949
 2681TIP3   OH2 7985   5.013   2.329   0.232
 2681TIP3    H1 7986   5.100   2.369   0.235
 2681TIP3    H2 7987   4.984   2.329   0.324
 2682TIP3   OH2 7988   7.309   4.974   0.122
 2682TIP3    H1 7989   7.315   4.891   0.075
 2682TIP3    H2 7990   7.316   4.950   0.214
 2683TIP3   OH2 7991   7.302   0.746   1.539
 2683TIP3    H1 7992   7.314   0.698   1.621
 2683TIP3    H2 7993   7.209   0.736   1.519
 2684TIP3   OH2 7994   4.058   6.528   0.808
 2684TIP3    H1 7995   4.152   6.509   0.812
 2684TIP3    H2 7996   4.053   6.623   0.799
 2685TIP3   OH2 7997   3.572   0.658   6.104
 2685TIP3    H1 7998   3.486   0.694   6.125
 2685TIP3    H2 7999   3.590   0.688   6.015
 2686TIP3   OH2 8000   3.816   5.861   3.960
 2686TIP3    H1 8001   3.905   5.890   3.983
 2686TIP3    H2 8002   3.823   5.836   3.868
 2687TIP3   OH2 8003   0.193   2.070   5.280
 2687TIP3    H1 8004   0.148   2.008   5.338
 2687TIP3    H2 8005   0.267   2.102   5.331
 2688TIP3   OH2 8006   2.173   0.172   3.371
 2688TIP3    H1 8007   2.194   0.161   3.464
 2688TIP3    H2 8008   2.146   0.084   3.342
 2689TIP3   OH2 8009   2.616   7.243   6.184
 2689TIP3    H1 8010   2.574   7.296   6.116
 2689TIP3    H2 8011   2.693   7.293   6.210
 2690TIP3   OH2 8012   1.453   3.294   3.967
 2690TIP3    H1 8013   1.446   3.203   3.997
 2690TIP3    H2 8014   1.368   3.311   3.925
 2691TIP3   OH2 8015   3.676   2.455   5.102
 2691TIP3    H1 8016   3.687   2.436   5.009
 2691TIP3    H2 8017   3.731   2.532   5.117
 2692TIP3   OH2 8018   7.066   7.696   5.503
 2692TIP3    H1 8019   7.102   7.769   5.451
 2692TIP3    H2 8020   7.138   7.671   5.561
 2693TIP3   OH2 8021   0.849   5.841   3.492
 2693TIP3    H1 8022   0.896   5.880   3.418
 2693TIP3    H2 8023   0.823   5.754   3.460
 2694TIP3   OH2 8024   0.864   3.606   2.058
 2694TIP3    H1 8025   0.890   3.557   1.980
 2694TIP3    H2 8026   0.771   3.625   2.045
 2695TIP3   OH2 8027   5.425   1.200   3.171
 2695TIP3    H1 8028   5.495   1.208   3.107
 2695TIP3    H2 8029   5.348   1.237   3.128
 2696TIP3   OH2 8030   3.085   4.145   0.216
 2696TIP3    H1 8031   3.021   4.186   0.158
 2696TIP3    H2 8032   3.152   4.213   0.230
 2697TIP3   OH2 8033   2.962   0.093   6.322
 2697TIP3    H1 8034   2.981   0.028   6.255
 2697TIP3    H2 8035   2.968   0.177   6.277
 2698TIP3   OH2 8036   4.275   6.449   1.141
 2698TIP3    H1 8037   4.324   6.376   1.180
 2698TIP3    H2 8038   4.256   6.419   1.052
 2699TIP3   OH2 8039   7.240   1.989   4.258
 2699TIP3    H1 8040   7.320   2.011   4.304
 2699TIP3    H2 8041   7.227   1.896   4.274
 2700TIP3   OH2 8042   0.852   4.761   2.072
 2700TIP3    H1 8043   0.789   4.732   2.139
 2700TIP3    H2 8044   0.927   4.793   2.122
 2701TIP3   OH2 8045   7.522   1.964   3.436
 2701TIP3    H1 8046   7.600   2.010   3.468
 2701TIP3    H2 8047   7.478   1.933   3.515
 2702TIP3   OH2 8048   5.013   1.940   6.104
 2702TIP3    H1 8049   5.015   1.956   6.198
 2702TIP3    H2 8050   5.099   1.902   6.085
 2703TIP3   OH2 8051   2.180   3.650   2.572
 2703TIP3    H1 8052   2.105   3.616   2.621
 2703TIP3    H2 8053   2.183   3.743   2.594
 2704TIP3   OH2 8054   5.570   7.512   0.010
 2704TIP3    H1 8055   5.557   7.561  -0.072
 2704TIP3    H2 8056   5.515   7.558   0.074
 2705TIP3   OH2 8057   7.034   3.046   1.187
 2705TIP3    H1 8058   6.967   3.113   1.175
 2705TIP3    H2 8059   7.099   3.065   1.119
 2706TIP3   OH2 8060   4.679   0.912   5.032
 2706TIP3    H1 8061   4.585   0.928   5.043
 2706TIP3    H2 8062   4.716   0.998   5.014
 2707TIP3   OH2 8063   0.739   2.804   4.877
 2707TIP3    H1 8064   0.802   2.793   4.806
 2707TIP3    H2 8065   0.710   2.895   4.868
 2708TIP3   OH2 8066   1.582   1.052   1.705
 2708TIP3    H1 8067   1.502   1.017   1.665
 2708TIP3    H2 8068   1.558   1.068   1.796
 2709TIP3   OH2 8069   4.608   3.628   0.573
 2709TIP3    H1 8070   4.668   3.619   0.647
 2709TIP3    H2 8071   4.530   3.669   0.611
 2710TIP3   OH2 8072   3.231   4.916   3.546
 2710TIP3    H1 8073   3.211   4.826   3.522
 2710TIP3    H2 8074   3.300   4.908   3.613
 2711TIP3   OH2 8075   4.382   7.212   0.276
 2711TIP3    H1 8076   4.340   7.262   0.206
 2711TIP3    H2 8077   4.312   7.198   0.341
 2712TIP3   OH2 8078   3.805   1.264   4.650
 2712TIP3    H1 8079   3.870   1.277   4.582
 2712TIP3    H2 8080   3.730   1.317   4.623
 2713TIP3   OH2 8081   1.103   0.414   0.545
 2713TIP3    H1 8082   1.186   0.421   0.593
 2713TIP3    H2 8083   1.112   0.335   0.493
 2714TIP3   OH2 8084   2.479   4.558   3.439
 2714TIP3    H1 8085   2.507   4.631   3.494
 2714TIP3    H2 8086   2.468   4.596   3.352
 2715TIP3   OH2 8087   1.987   4.681   1.265
 2715TIP3    H1 8088   1.996   4.632   1.183
 2715TIP3    H2 8089   1.998   4.616   1.334
 2716TIP3   OH2 8090   2.236   3.687   0.254
 2716TIP3    H1 8091   2.263   3.717   0.341
 2716TIP3    H2 8092   2.293   3.736   0.194
 2717TIP3   OH2 8093   1.826   7.423   1.112
 2717TIP3    H1 8094   1.874   7.343   1.089
 2717TIP3    H2 8095   1.855   7.487   1.047
 2718TIP3   OH2 8096   7.879   6.100   0.853
 2718TIP3    H1 8097   7.804   6.124   0.908
 2718TIP3    H2 8098   7.900   6.180   0.806
 2719TIP3   OH2 8099   3.260   0.083   4.218
 2719TIP3    H1 8100   3.207   0.058   4.142
 2719TIP3    H2 8101   3.213   0.046   4.293
 2720TIP3   OH2 8102   6.378   7.758   5.688
 2720TIP3    H1 8103   6.412   7.670   5.670
 2720TIP3    H2 8104   6.373   7.762   5.784
 2721TIP3   OH2 8105   1.878   4.666   4.087
 2721TIP3    H1 8106   1.816   4.601   4.054
 2721TIP3    H2 8107   1.949   4.667   4.023
 2722TIP3   OH2 8108   0.214   2.956   5.687
 2722TIP3    H1 8109   0.236   2.875   5.641
 2722TIP3    H2 8110   0.208   3.022   5.618
 2723TIP3   OH2 8111   1.591   1.769   1.847
 2723TIP3    H1 8112   1.654   1.719   1.795
 2723TIP3    H2 8113   1.557   1.835   1.788
 2724TIP3   OH2 8114   7.553   5.322   1.284
 2724TIP3    H1 8115   7.480   5.278   1.329
 2724TIP3    H2 8116   7.528   5.414   1.283
 2725TIP3   OH2 8117   5.024   2.749   4.023
 2725TIP3    H1 8118   5.007   2.713   4.111
 2725TIP3    H2 8119   5.087   2.689   3.984
 2726TIP3   OH2 8120   7.480   1.132   2.527
 2726TIP3    H1 8121   7.467   1.225   2.507
 2726TIP3    H2 8122   7.394   1.102   2.557
 2727TIP3   OH2 8123   7.246   2.691   4.025
 2727TIP3    H1 8124   7.320   2.663   4.079
 2727TIP3    H2 8125   7.196   2.750   4.082
 2728TIP3   OH2 8126   8.045   3.667   4.500
 2728TIP3    H1 8127   8.005   3.674   4.413
 2728TIP3    H2 8128   7.997   3.597   4.543
 2729TIP3   OH2 8129   4.025   2.398   1.246
 2729TIP3    H1 8130   4.019   2.375   1.154
 2729TIP3    H2 8131   3.934   2.409   1.274
 2730TIP3   OH2 8132   6.373   2.248   5.937
 2730TIP3    H1 8133   6.296   2.300   5.916
 2730TIP3    H2 8134   6.357   2.163   5.896
 2731TIP3   OH2 8135   7.471   7.688   1.911
 2731TIP3    H1 8136   7.461   7.774   1.869
 2731TIP3    H2 8137   7.530   7.640   1.853
 2732TIP3   OH2 8138   7.691   5.302   3.537
 2732TIP3    H1 8139   7.772   5.272   3.495
 2732TIP3    H2 8140   7.637   5.333   3.464
 2733TIP3   OH2 8141   7.084   5.107   4.107
 2733TIP3    H1 8142   7.086   5.116   4.203
 2733TIP3    H2 8143   7.001   5.148   4.082
 2734TIP3   OH2 8144   7.286   4.474   0.727
 2734TIP3    H1 8145   7.312   4.541   0.663
 2734TIP3    H2 8146   7.196   4.452   0.704
 2735TIP3   OH2 8147   7.348   1.069   6.528
 2735TIP3    H1 8148   7.292   0.999   6.496
 2735TIP3    H2 8149   7.379   1.112   6.448
 2736TIP3   OH2 8150   0.840   2.721   0.170
 2736TIP3    H1 8151   0.929   2.743   0.199
 2736TIP3    H2 8152   0.830   2.629   0.194
 2737TIP3   OH2 8153   5.503   4.381   5.277
 2737TIP3    H1 8154   5.504   4.296   5.233
 2737TIP3    H2 8155   5.411   4.409   5.272
 2738TIP3   OH2 8156   6.067   2.755   5.345
 2738TIP3    H1 8157   6.103   2.819   5.407
 2738TIP3    H2 8158   6.050   2.806   5.266
 2739TIP3   OH2 8159   1.320   0.308   4.491
 2739TIP3    H1 8160   1.381   0.338   4.424
 2739TIP3    H2 8161   1.272   0.386   4.519
 2740TIP3   OH2 8162   6.552   4.120   6.453
 2740TIP3    H1 8163   6.601   4.126   6.371
 2740TIP3    H2 8164   6.562   4.029   6.481
 2741TIP3   OH2 8165   7.479   5.849   0.200
 2741TIP3    H1 8166   7.558   5.902   0.188
 2741TIP3    H2 8167   7.430   5.895   0.268
 2742TIP3   OH2 8168   6.851   2.656   4.159
 2742TIP3    H1 8169   6.778   2.713   4.185
 2742TIP3    H2 8170   6.811   2.592   4.101
 2743TIP3   OH2 8171   1.907   5.232   5.061
 2743TIP3    H1 8172   1.959   5.305   5.026
 2743TIP3    H2 8173   1.942   5.219   5.149
 2744TIP3   OH2 8174   6.522   1.211   3.294
 2744TIP3    H1 8175   6.516   1.292   3.243
 2744TIP3    H2 8176   6.538   1.143   3.229
 2745TIP3   OH2 8177   0.651   2.530   0.446
 2745TIP3    H1 8178   0.571   2.519   0.498
 2745TIP3    H2 8179   0.707   2.587   0.500
 2746TIP3   OH2 8180   7.559   0.535   1.621
 2746TIP3    H1 8181   7.637   0.533   1.677
 2746TIP3    H2 8182   7.488   0.505   1.678
 2747TIP3   OH2 8183   0.712   3.654   0.961
 2747TIP3    H1 8184   0.655   3.598   1.014
 2747TIP3    H2 8185   0.715   3.737   1.008
 2748TIP3   OH2 8186   1.785   7.187   1.830
 2748TIP3    H1 8187   1.728   7.156   1.900
 2748TIP3    H2 8188   1.726   7.225   1.765
 2749TIP3   OH2 8189   5.079   6.403   6.639
 2749TIP3    H1 8190   4.999   6.353   6.625
 2749TIP3    H2 8191   5.134   6.346   6.693
 2750TIP3   OH2 8192   7.007   0.245   4.615
 2750TIP3    H1 8193   7.004   0.168   4.559
 2750TIP3    H2 8194   7.099   0.252   4.642
 2751TIP3   OH2 8195   7.568   2.979   1.324
 2751TIP3    H1 8196   7.651   2.939   1.353
 2751TIP3    H2 8197   7.515   2.904   1.296
 2752TIP3   OH2 8198   5.662   3.800   5.036
 2752TIP3    H1 8199   5.651   3.863   5.107
 2752TIP3    H2 8200   5.712   3.848   4.970
 2753TIP3   OH2 8201   8.100   1.788   5.633
 2753TIP3    H1 8202   8.066   1.802   5.722
 2753TIP3    H2 8203   8.169   1.853   5.624
 2754TIP3   OH2 8204   4.135   7.042   2.287
 2754TIP3    H1 8205   4.106   7.073   2.201
 2754TIP3    H2 8206   4.222   7.006   2.270
 2755TIP3   OH2 8207   1.760   0.024   3.549
 2755TIP3    H1 8208   1.832   0.055   3.495
 2755TIP3    H2 8209   1.751   0.091   3.618
 2756TIP3   OH2 8210   5.853   5.315   2.520
 2756TIP3    H1 8211   5.934   5.360   2.495
 2756TIP3    H2 8212   5.784   5.366   2.478
 2757TIP3   OH2 8213   3.534   1.959   5.703
 2757TIP3    H1 8214   3.626   1.934   5.707
 2757TIP3    H2 8215   3.534   2.045   5.661
 2758TIP3   OH2 8216   4.614   4.743   6.623
 2758TIP3    H1 8217   4.694   4.725   6.574
 2758TIP3    H2 8218   4.600   4.837   6.615
 2759TIP3   OH2 8219   5.701   2.063   5.130
 2759TIP3    H1 8220   5.659   1.978   5.121
 2759TIP3    H2 8221   5.672   2.113   5.054
 2760TIP3   OH2 8222   4.705   7.432   2.956
 2760TIP3    H1 8223   4.768   7.393   3.016
 2760TIP3    H2 8224   4.651   7.488   3.011
 2761TIP3   OH2 8225   8.266   1.385   2.767
 2761TIP3    H1 8226   8.242   1.476   2.751
 2761TIP3    H2 8227   8.184   1.337   2.763
 2762TIP3   OH2 8228   5.363   1.236   4.801
 2762TIP3    H1 8229   5.364   1.255   4.894
 2762TIP3    H2 8230   5.417   1.157   4.792
 2763TIP3   OH2 8231   5.597   0.250   4.409
 2763TIP3    H1 8232   5.617   0.270   4.317
 2763TIP3    H2 8233   5.664   0.297   4.459
 2764TIP3   OH2 8234   2.421   1.828   0.138
 2764TIP3    H1 8235   2.419   1.754   0.199
 2764TIP3    H2 8236   2.511   1.863   0.145
 2765TIP3   OH2 8237   7.948   4.621   3.502
 2765TIP3    H1 8238   7.882   4.553   3.516
 2765TIP3    H2 8239   7.958   4.662   3.588
 2766TIP3   OH2 8240   6.991   3.428   0.052
 2766TIP3    H1 8241   6.915   3.397   0.002
 2766TIP3    H2 8242   6.954   3.461   0.134
 2767TIP3   OH2 8243   3.961   0.427   0.689
 2767TIP3    H1 8244   3.891   0.396   0.632
 2767TIP3    H2 8245   4.041   0.403   0.643
 2768TIP3   OH2 8246   7.525   0.443   0.681
 2768TIP3    H1 8247   7.611   0.478   0.658
 2768TIP3    H2 8248   7.541   0.385   0.755
 2769TIP3   OH2 8249   3.346   4.356   0.656
 2769TIP3    H1 8250   3.343   4.262   0.676
 2769TIP3    H2 8251   3.286   4.396   0.719
 2770TIP3   OH2 8252   6.149   4.765   5.680
 2770TIP3    H1 8253   6.170   4.697   5.616
 2770TIP3    H2 8254   6.071   4.733   5.724
 2771TIP3   OH2 8255   5.598   6.351   2.874
 2771TIP3    H1 8256   5.576   6.289   2.943
 2771TIP3    H2 8257   5.539   6.328   2.802
 2772TIP3   OH2 8258   8.102   6.153   4.022
 2772TIP3    H1 8259   8.114   6.099   3.943
 2772TIP3    H2 8260   8.140   6.101   4.093
 2773TIP3   OH2 8261   6.875   3.525   4.132
 2773TIP3    H1 8262   6.938   3.567   4.190
 2773TIP3    H2 8263   6.801   3.585   4.129
 2774TIP3   OH2 8264   0.827   6.198   4.586
 2774TIP3    H1 8265   0.787   6.276   4.625
 2774TIP3    H2 8266   0.767   6.127   4.606
 2775TIP3   OH2 8267   1.140   3.476   5.282
 2775TIP3    H1 8268   1.140   3.417   5.358
 2775TIP3    H2 8269   1.213   3.446   5.228
 2776TIP3   OH2 8270   3.403   3.428   6.143
 2776TIP3    H1 8271   3.352   3.456   6.219
 2776TIP3    H2 8272   3.360   3.348   6.112
 2777TIP3   OH2 8273   5.602   3.301   1.496
 2777TIP3    H1 8274   5.624   3.277   1.587
 2777TIP3    H2 8275   5.510   3.279   1.486
 2778TIP3   OH2 8276   2.151   2.991   4.194
 2778TIP3    H1 8277   2.182   2.907   4.229
 2778TIP3    H2 8278   2.173   2.987   4.101
 2779TIP3   OH2 8279   0.734   2.220   2.177
 2779TIP3    H1 8280   0.639   2.221   2.190
 2779TIP3    H2 8281   0.763   2.141   2.223
 2780TIP3   OH2 8282   5.897   1.741   2.826
 2780TIP3    H1 8283   5.992   1.731   2.835
 2780TIP3    H2 8284   5.873   1.682   2.755
 2781TIP3   OH2 8285   5.798   4.415   4.697
 2781TIP3    H1 8286   5.712   4.428   4.738
 2781TIP3    H2 8287   5.841   4.500   4.706
 2782TIP3   OH2 8288   6.250   4.451   6.109
 2782TIP3    H1 8289   6.170   4.464   6.159
 2782TIP3    H2 8290   6.315   4.505   6.154
 2783TIP3   OH2 8291   6.210   2.519   0.952
 2783TIP3    H1 8292   6.280   2.480   0.900
 2783TIP3    H2 8293   6.255   2.557   1.028
 2784TIP3   OH2 8294   2.417   5.884   3.884
 2784TIP3    H1 8295   2.457   5.877   3.971
 2784TIP3    H2 8296   2.414   5.978   3.866
 2785TIP3   OH2 8297   4.742   6.891   3.684
 2785TIP3    H1 8298   4.791   6.953   3.631
 2785TIP3    H2 8299   4.737   6.811   3.631
 2786TIP3   OH2 8300   6.378   1.392   3.510
 2786TIP3    H1 8301   6.386   1.302   3.479
 2786TIP3    H2 8302   6.454   1.437   3.474
 2787TIP3   OH2 8303   4.801   4.308   5.310
 2787TIP3    H1 8304   4.726   4.365   5.294
 2787TIP3    H2 8305   4.781   4.229   5.260
 2788TIP3   OH2 8306   5.737   6.250   1.980
 2788TIP3    H1 8307   5.681   6.288   2.048
 2788TIP3    H2 8308   5.780   6.176   2.022
 2789TIP3   OH2 8309   4.669   1.202   3.765
 2789TIP3    H1 8310   4.716   1.246   3.836
 2789TIP3    H2 8311   4.733   1.193   3.695
 2790TIP3   OH2 8312   1.413   5.738   3.337
 2790TIP3    H1 8313   1.386   5.690   3.259
 2790TIP3    H2 8314   1.331   5.768   3.377
 2791TIP3   OH2 8315   6.333   6.411   6.478
 2791TIP3    H1 8316   6.325   6.359   6.398
 2791TIP3    H2 8317   6.423   6.397   6.507
 2792TIP3   OH2 8318   1.134   7.089   2.859
 2792TIP3    H1 8319   1.161   7.130   2.777
 2792TIP3    H2 8320   1.168   7.000   2.854
 2793TIP3   OH2 8321   2.529   2.027   5.669
 2793TIP3    H1 8322   2.468   2.089   5.707
 2793TIP3    H2 8323   2.616   2.061   5.693
 2794TIP3   OH2 8324   5.728   1.539   4.675
 2794TIP3    H1 8325   5.798   1.498   4.624
 2794TIP3    H2 8326   5.648   1.520   4.626
 2795TIP3   OH2 8327   4.455   0.217   1.719
 2795TIP3    H1 8328   4.531   0.243   1.668
 2795TIP3    H2 8329   4.385   0.206   1.655
 2796TIP3   OH2 8330   7.488   3.000   6.033
 2796TIP3    H1 8331   7.528   3.079   6.070
 2796TIP3    H2 8332   7.523   2.928   6.085
 2797TIP3   OH2 8333   4.235   0.472   2.280
 2797TIP3    H1 8334   4.284   0.494   2.201
 2797TIP3    H2 8335   4.252   0.543   2.340
 2798TIP3   OH2 8336   2.147   4.619   3.010
 2798TIP3    H1 8337   2.154   4.646   3.102
 2798TIP3    H2 8338   2.075   4.557   3.008
 2799TIP3   OH2 8339   8.257   3.615   1.375
 2799TIP3    H1 8340   8.281   3.603   1.467
 2799TIP3    H2 8341   8.332   3.581   1.326
 2800TIP3   OH2 8342   1.574   2.261   0.686
 2800TIP3    H1 8343   1.560   2.339   0.739
 2800TIP3    H2 8344   1.547   2.287   0.598
 2801TIP3   OH2 8345   0.211   6.441   4.179
 2801TIP3    H1 8346   0.228   6.535   4.181
 2801TIP3    H2 8347   0.184   6.420   4.269
 2802TIP3   OH2 8348   2.859   4.276   1.617
 2802TIP3    H1 8349   2.821   4.244   1.699
 2802TIP3    H2 8350   2.903   4.199   1.580
 2803TIP3   OH2 8351   0.973   2.521   3.654
 2803TIP3    H1 8352   0.947   2.476   3.573
 2803TIP3    H2 8353   0.937   2.609   3.644
 2804TIP3   OH2 8354   1.870   3.039   3.329
 2804TIP3    H1 8355   1.916   2.955   3.319
 2804TIP3    H2 8356   1.900   3.092   3.255
 2805TIP3   OH2 8357   0.670   4.114   1.278
 2805TIP3    H1 8358   0.599   4.161   1.234
 2805TIP3    H2 8359   0.716   4.069   1.207
 2806TIP3   OH2 8360   6.262   2.375   6.662
 2806TIP3    H1 8361   6.191   2.348   6.603
 2806TIP3    H2 8362   6.297   2.454   6.622
 2807TIP3   OH2 8363   4.448   3.913   1.542
 2807TIP3    H1 8364   4.526   3.944   1.587
 2807TIP3    H2 8365   4.458   3.817   1.541
 2808TIP3   OH2 8366   7.549   1.752   5.386
 2808TIP3    H1 8367   7.580   1.663   5.369
 2808TIP3    H2 8368   7.477   1.741   5.448
 2809TIP3   OH2 8369   5.754   3.499   5.315
 2809TIP3    H1 8370   5.735   3.405   5.307
 2809TIP3    H2 8371   5.760   3.530   5.224
 2810TIP3   OH2 8372   6.435   6.441   4.322
 2810TIP3    H1 8373   6.495   6.409   4.255
 2810TIP3    H2 8374   6.488   6.504   4.372
 2811TIP3   OH2 8375   4.759   6.369   3.458
 2811TIP3    H1 8376   4.743   6.457   3.491
 2811TIP3    H2 8377   4.784   6.380   3.367
 2812TIP3   OH2 8378   2.476   3.163   4.198
 2812TIP3    H1 8379   2.536   3.212   4.254
 2812TIP3    H2 8380   2.465   3.219   4.121
 2813TIP3   OH2 8381   0.060   0.775   4.496
 2813TIP3    H1 8382   0.140   0.755   4.543
 2813TIP3    H2 8383   0.089   0.797   4.407
 2814TIP3   OH2 8384   6.473   7.036   2.305
 2814TIP3    H1 8385   6.417   6.986   2.246
 2814TIP3    H2 8386   6.434   7.123   2.309
 2815TIP3   OH2 8387   5.235   1.724   1.041
 2815TIP3    H1 8388   5.187   1.662   0.987
 2815TIP3    H2 8389   5.167   1.776   1.084
 2816TIP3   OH2 8390   5.725   7.596   5.121
 2816TIP3    H1 8391   5.756   7.552   5.042
 2816TIP3    H2 8392   5.645   7.550   5.144
 2817TIP3   OH2 8393   0.378   4.968   6.231
 2817TIP3    H1 8394   0.391   5.020   6.152
 2817TIP3    H2 8395   0.431   4.890   6.218
 2818TIP3   OH2 8396   7.659   2.653   1.215
 2818TIP3    H1 8397   7.754   2.661   1.223
 2818TIP3    H2 8398   7.629   2.625   1.301
 2819TIP3   OH2 8399   2.606   2.882   0.587
 2819TIP3    H1 8400   2.647   2.856   0.670
 2819TIP3    H2 8401   2.662   2.844   0.519
 2820TIP3   OH2 8402   7.709   1.413   6.064
 2820TIP3    H1 8403   7.737   1.373   5.981
 2820TIP3    H2 8404   7.676   1.340   6.116
 2821TIP3   OH2 8405   5.808   4.263   4.469
 2821TIP3    H1 8406   5.764   4.296   4.547
 2821TIP3    H2 8407   5.866   4.334   4.441
 2822TIP3   OH2 8408   7.508   7.685   4.261
 2822TIP3    H1 8409   7.556   7.648   4.335
 2822TIP3    H2 8410   7.547   7.643   4.184
 2823TIP3   OH2 8411   3.188   3.617   6.643
 2823TIP3    H1 8412   3.129   3.547   6.672
 2823TIP3    H2 8413   3.152   3.696   6.682
 2824TIP3   OH2 8414   6.695   4.736   1.501
 2824TIP3    H1 8415   6.737   4.811   1.543
 2824TIP3    H2 8416   6.753   4.662   1.518
 2825TIP3   OH2 8417   0.660   7.177   2.687
 2825TIP3    H1 8418   0.684   7.186   2.595
 2825TIP3    H2 8419   0.740   7.195   2.736
 2826TIP3   OH2 8420   4.404   1.326   3.661
 2826TIP3    H1 8421   4.349   1.255   3.628
 2826TIP3    H2 8422   4.484   1.283   3.691
 2827TIP3   OH2 8423   3.459   1.955   6.166
 2827TIP3    H1 8424   3.418   1.871   6.186
 2827TIP3    H2 8425   3.526   1.934   6.101
 2828TIP3   OH2 8426   1.524   3.058   6.307
 2828TIP3    H1 8427   1.613   3.059   6.342
 2828TIP3    H2 8428   1.469   3.083   6.381
 2829TIP3   OH2 8429   4.289   1.282   5.801
 2829TIP3    H1 8430   4.344   1.360   5.800
 2829TIP3    H2 8431   4.209   1.308   5.756
 2830TIP3   OH2 8432   0.191   5.514   3.885
 2830TIP3    H1 8433   0.241   5.594   3.901
 2830TIP3    H2 8434   0.217   5.487   3.797
 2831TIP3   OH2 8435   7.188   5.012   3.584
 2831TIP3    H1 8436   7.278   4.981   3.577
 2831TIP3    H2 8437   7.196   5.101   3.620
 2832TIP3   OH2 8438   3.835   3.572   1.410
 2832TIP3    H1 8439   3.744   3.543   1.400
 2832TIP3    H2 8440   3.831   3.667   1.402
 2833TIP3   OH2 8441   2.723   0.767   2.634
 2833TIP3    H1 8442   2.812   0.734   2.642
 2833TIP3    H2 8443   2.715   0.833   2.703
 2834TIP3   OH2 8444  -0.023   3.750   0.111
 2834TIP3    H1 8445  -0.016   3.844   0.128
 2834TIP3    H2 8446   0.060   3.727   0.069
 2835TIP3   OH2 8447   6.516   5.046   3.099
 2835TIP3    H1 8448   6.471   4.995   3.032
 2835TIP3    H2 8449   6.509   5.137   3.070
 2836TIP3   OH2 8450   7.527   6.958   3.492
 2836TIP3    H1 8451   7.526   6.893   3.562
 2836TIP3    H2 8452   7.493   7.038   3.533
 2837TIP3   OH2 8453   8.111   2.404   4.720
 2837TIP3    H1 8454   8.045   2.348   4.679
 2837TIP3    H2 8455   8.165   2.343   4.772
 2838TIP3   OH2 8456   1.710   0.843   5.813
 2838TIP3    H1 8457   1.735   0.930   5.845
 2838TIP3    H2 8458   1.705   0.853   5.718
 2839TIP3   OH2 8459   2.912   4.950   0.268
 2839TIP3    H1 8460   2.979   5.007   0.231
 2839TIP3    H2 8461   2.866   5.004   0.333
 2840TIP3   OH2 8462   0.411   6.055   1.521
 2840TIP3    H1 8463   0.439   5.964   1.527
 2840TIP3    H2 8464   0.466   6.091   1.451
 2841TIP3   OH2 8465   1.922   0.105   1.286
 2841TIP3    H1 8466   1.892   0.108   1.377
 2841TIP3    H2 8467   2.018   0.107   1.292
 2842TIP3   OH2 8468   7.716   6.461   5.703
 2842TIP3    H1 8469   7.694   6.517   5.778
 2842TIP3    H2 8470   7.658   6.490   5.633
 2843TIP3   OH2 8471   2.672   4.395   3.228
 2843TIP3    H1 8472   2.684   4.484   3.260
 2843TIP3    H2 8473   2.584   4.395   3.190
 2844TIP3   OH2 8474   5.076   1.823   3.057
 2844TIP3    H1 8475   5.022   1.893   3.094
 2844TIP3    H2 8476   5.053   1.746   3.109
 2845TIP3   OH2 8477   2.499   0.286   1.965
 2845TIP3    H1 8478   2.565   0.339   1.919
 2845TIP3    H2 8479   2.544   0.257   2.045
 2846TIP3   OH2 8480   3.140   7.316   2.714
 2846TIP3    H1 8481   3.229   7.328   2.745
 2846TIP3    H2 8482   3.100   7.403   2.722
 2847TIP3   OH2 8483   2.879   6.061   2.937
 2847TIP3    H1 8484   2.922   5.987   2.893
 2847TIP3    H2 8485   2.934   6.136   2.915
 2848TIP3   OH2 8486   0.075   3.075   1.374
 2848TIP3    H1 8487   0.070   3.098   1.281
 2848TIP3    H2 8488  -0.016   3.070   1.402
 2849TIP3   OH2 8489   0.358   1.817   1.299
 2849TIP3    H1 8490   0.368   1.842   1.208
 2849TIP3    H2 8491   0.404   1.733   1.306
 2850TIP3   OH2 8492   8.076   4.629   0.402
 2850TIP3    H1 8493   8.130   4.702   0.433
 2850TIP3    H2 8494   8.021   4.607   0.476
 2851TIP3   OH2 8495   7.960   4.195   5.594
 2851TIP3    H1 8496   7.953   4.288   5.571
 2851TIP3    H2 8497   7.870   4.168   5.612
 2852TIP3   OH2 8498   5.307   6.893   2.000
 2852TIP3    H1 8499   5.321   6.988   1.998
 2852TIP3    H2 8500   5.395   6.856   2.007
 2853TIP3   OH2 8501   6.367   1.723   3.862
 2853TIP3    H1 8502   6.362   1.791   3.930
 2853TIP3    H2 8503   6.310   1.653   3.895
 2854TIP3   OH2 8504   4.504   3.303   1.373
 2854TIP3    H1 8505   4.460   3.371   1.321
 2854TIP3    H2 8506   4.457   3.302   1.456
 2855TIP3   OH2 8507   6.730   6.757   3.537
 2855TIP3    H1 8508   6.711   6.756   3.443
 2855TIP3    H2 8509   6.767   6.670   3.554
 2856TIP3   OH2 8510   1.086   6.814   3.960
 2856TIP3    H1 8511   1.106   6.908   3.955
 2856TIP3    H2 8512   1.116   6.788   4.047
 2857TIP3   OH2 8513   4.309   2.589   4.649
 2857TIP3    H1 8514   4.251   2.638   4.708
 2857TIP3    H2 8515   4.275   2.500   4.651
 2858TIP3   OH2 8516   2.358   1.623   0.938
 2858TIP3    H1 8517   2.375   1.556   0.871
 2858TIP3    H2 8518   2.285   1.674   0.903
 2859TIP3   OH2 8519   6.990   5.415   2.789
 2859TIP3    H1 8520   6.962   5.506   2.788
 2859TIP3    H2 8521   6.996   5.390   2.697
 2860TIP3   OH2 8522   6.131   0.177   0.362
 2860TIP3    H1 8523   6.051   0.214   0.399
 2860TIP3    H2 8524   6.174   0.252   0.320
 2861TIP3   OH2 8525   3.232   1.594   3.130
 2861TIP3    H1 8526   3.316   1.584   3.085
 2861TIP3    H2 8527   3.167   1.560   3.069
 2862TIP3   OH2 8528   5.255   6.645   5.555
 2862TIP3    H1 8529   5.236   6.640   5.462
 2862TIP3    H2 8530   5.202   6.576   5.595
 2863TIP3   OH2 8531   1.448   3.684   4.410
 2863TIP3    H1 8532   1.362   3.643   4.405
 2863TIP3    H2 8533   1.510   3.610   4.413
 2864TIP3   OH2 8534   6.180   0.644   5.065
 2864TIP3    H1 8535   6.133   0.616   4.987
 2864TIP3    H2 8536   6.196   0.738   5.051
 2865TIP3   OH2 8537   8.215   1.432   3.559
 2865TIP3    H1 8538   8.187   1.502   3.617
 2865TIP3    H2 8539   8.310   1.442   3.553
 2866TIP3   OH2 8540   3.948   5.404   6.511
 2866TIP3    H1 8541   3.855   5.380   6.503
 2866TIP3    H2 8542   3.955   5.441   6.599
 2867TIP3   OH2 8543   5.563   3.418   0.391
 2867TIP3    H1 8544   5.570   3.502   0.437
 2867TIP3    H2 8545   5.622   3.360   0.438
 2868TIP3   OH2 8546   0.432   5.429   2.485
 2868TIP3    H1 8547   0.370   5.470   2.425
 2868TIP3    H2 8548   0.506   5.490   2.488
 2869TIP3   OH2 8549   3.762   3.703   3.129
 2869TIP3    H1 8550   3.854   3.714   3.103
 2869TIP3    H2 8551   3.737   3.617   3.096
 2870TIP3   OH2 8552   3.392   1.328   2.223
 2870TIP3    H1 8553   3.305   1.316   2.260
 2870TIP3    H2 8554   3.412   1.245   2.179
 2871TIP3   OH2 8555   4.424   6.203   4.518
 2871TIP3    H1 8556   4.464   6.258   4.585
 2871TIP3    H2 8557   4.392   6.266   4.452
 2872TIP3   OH2 8558   2.057   0.877   2.022
 2872TIP3    H1 8559   2.079   0.939   2.092
 2872TIP3    H2 8560   2.111   0.800   2.040
 2873TIP3   OH2 8561   3.765   7.108   3.396
 2873TIP3    H1 8562   3.850   7.101   3.438
 2873TIP3    H2 8563   3.744   7.018   3.370
 2874TIP3   OH2 8564   4.117   0.274   2.419
 2874TIP3    H1 8565   4.049   0.333   2.452
 2874TIP3    H2 8566   4.190   0.332   2.397
 2875TIP3   OH2 8567   8.045   5.021   1.931
 2875TIP3    H1 8568   7.983   4.950   1.915
 2875TIP3    H2 8569   8.116   4.980   1.981
 2876TIP3   OH2 8570   6.153   3.409   1.248
 2876TIP3    H1 8571   6.153   3.323   1.206
 2876TIP3    H2 8572   6.245   3.438   1.244
 2877TIP3   OH2 8573   4.525   6.560   0.669
 2877TIP3    H1 8574   4.526   6.512   0.586
 2877TIP3    H2 8575   4.600   6.525   0.717
 2878TIP3   OH2 8576   6.584   5.405   3.680
 2878TIP3    H1 8577   6.521   5.440   3.743
 2878TIP3    H2 8578   6.560   5.312   3.671
 2879TIP3   OH2 8579   3.517   4.120   3.635
 2879TIP3    H1 8580   3.583   4.101   3.568
 2879TIP3    H2 8581   3.461   4.043   3.636
 2880TIP3   OH2 8582   3.324   5.859   6.453
 2880TIP3    H1 8583   3.380   5.905   6.515
 2880TIP3    H2 8584   3.271   5.801   6.507
 2881TIP3   OH2 8585   4.429   2.804   2.651
 2881TIP3    H1 8586   4.433   2.767   2.740
 2881TIP3    H2 8587   4.488   2.748   2.600
 2882TIP3   OH2 8588   4.108   0.661   4.115
 2882TIP3    H1 8589   4.185   0.694   4.069
 2882TIP3    H2 8590   4.135   0.657   4.207
 2883TIP3   OH2 8591   1.719   2.753   2.525
 2883TIP3    H1 8592   1.793   2.693   2.535
 2883TIP3    H2 8593   1.654   2.723   2.589
 2884TIP3   OH2 8594   3.971   5.235   0.136
 2884TIP3    H1 8595   3.974   5.329   0.155
 2884TIP3    H2 8596   4.061   5.211   0.115
 2885TIP3   OH2 8597   0.857   7.658   4.608
 2885TIP3    H1 8598   0.806   7.718   4.553
 2885TIP3    H2 8599   0.878   7.585   4.550
 2886TIP3   OH2 8600   2.642   3.975   6.763
 2886TIP3    H1 8601   2.675   3.897   6.718
 2886TIP3    H2 8602   2.548   3.959   6.773
 2887TIP3   OH2 8603   0.095   7.420   5.717
 2887TIP3    H1 8604   0.066   7.499   5.672
 2887TIP3    H2 8605   0.103   7.445   5.809
 2888TIP3   OH2 8606   7.084   5.796   4.398
 2888TIP3    H1 8607   7.158   5.824   4.343
 2888TIP3    H2 8608   7.117   5.721   4.446
 2889TIP3   OH2 8609   0.188   6.574   1.848
 2889TIP3    H1 8610   0.094   6.564   1.865
 2889TIP3    H2 8611   0.225   6.488   1.870
 2890TIP3   OH2 8612   3.616   1.294   2.737
 2890TIP3    H1 8613   3.655   1.211   2.709
 2890TIP3    H2 8614   3.655   1.359   2.678
 2891TIP3   OH2 8615   6.700   1.504   3.740
 2891TIP3    H1 8616   6.616   1.464   3.764
 2891TIP3    H2 8617   6.748   1.435   3.695
 2892TIP3   OH2 8618   5.403   2.919   3.927
 2892TIP3    H1 8619   5.491   2.932   3.964
 2892TIP3    H2 8620   5.346   2.908   4.003
 2893TIP3   OH2 8621   7.859   1.278   1.544
 2893TIP3    H1 8622   7.878   1.331   1.466
 2893TIP3    H2 8623   7.765   1.285   1.556
 2894TIP3   OH2 8624   4.934   7.696   2.930
 2894TIP3    H1 8625   4.922   7.658   3.017
 2894TIP3    H2 8626   5.025   7.676   2.907
 2895TIP3   OH2 8627   4.886   3.031   1.415
 2895TIP3    H1 8628   4.976   3.043   1.384
 2895TIP3    H2 8629   4.849   3.119   1.415
 2896TIP3   OH2 8630   1.845   0.036   0.334
 2896TIP3    H1 8631   1.802   0.108   0.288
 2896TIP3    H2 8632   1.782  -0.036   0.331
 2897TIP3   OH2 8633   6.014   6.408   4.007
 2897TIP3    H1 8634   5.948   6.467   4.043
 2897TIP3    H2 8635   6.067   6.383   4.082
 2898TIP3   OH2 8636   7.155   1.501   5.467
 2898TIP3    H1 8637   7.193   1.469   5.548
 2898TIP3    H2 8638   7.082   1.441   5.449
 2899TIP3   OH2 8639   2.756   6.012   5.608
 2899TIP3    H1 8640   2.686   6.075   5.591
 2899TIP3    H2 8641   2.816   6.022   5.534
 2900TIP3   OH2 8642   7.107   0.680   5.422
 2900TIP3    H1 8643   7.165   0.741   5.377
 2900TIP3    H2 8644   7.141   0.674   5.511
 2901TIP3   OH2 8645   0.339   0.931   0.673
 2901TIP3    H1 8646   0.270   0.937   0.607
 2901TIP3    H2 8647   0.369   0.840   0.669
 2902TIP3   OH2 8648   4.927   3.874   1.010
 2902TIP3    H1 8649   4.990   3.943   0.988
 2902TIP3    H2 8650   4.959   3.796   0.963
 2903TIP3   OH2 8651   3.825   6.500   5.677
 2903TIP3    H1 8652   3.803   6.416   5.637
 2903TIP3    H2 8653   3.825   6.482   5.771
 2904TIP3   OH2 8654   0.559   6.149   2.903
 2904TIP3    H1 8655   0.511   6.100   2.836
 2904TIP3    H2 8656   0.503   6.144   2.981
 2905TIP3   OH2 8657   0.736   3.101   4.907
 2905TIP3    H1 8658   0.828   3.128   4.910
 2905TIP3    H2 8659   0.689   3.180   4.878
 2906TIP3   OH2 8660   1.140   5.284   1.790
 2906TIP3    H1 8661   1.163   5.322   1.875
 2906TIP3    H2 8662   1.047   5.266   1.797
 2907TIP3   OH2 8663   2.622   6.854   5.928
 2907TIP3    H1 8664   2.607   6.817   5.841
 2907TIP3    H2 8665   2.678   6.930   5.912
 2908TIP3   OH2 8666   5.365   1.336   3.472
 2908TIP3    H1 8667   5.452   1.352   3.509
 2908TIP3    H2 8668   5.360   1.241   3.463
 2909TIP3   OH2 8669   4.067   5.608   5.670
 2909TIP3    H1 8670   4.000   5.541   5.686
 2909TIP3    H2 8671   4.138   5.562   5.627
 2910TIP3   OH2 8672   4.094   7.162   5.874
 2910TIP3    H1 8673   4.031   7.213   5.925
 2910TIP3    H2 8674   4.173   7.216   5.871
 2911TIP3   OH2 8675   5.629   1.170   0.840
 2911TIP3    H1 8676   5.637   1.097   0.901
 2911TIP3    H2 8677   5.719   1.196   0.821
 2912TIP3   OH2 8678   1.561   5.884   4.614
 2912TIP3    H1 8679   1.606   5.964   4.588
 2912TIP3    H2 8680   1.469   5.909   4.620
 2913TIP3   OH2 8681   0.575   1.060   0.702
 2913TIP3    H1 8682   0.502   0.998   0.702
 2913TIP3    H2 8683   0.554   1.121   0.631
 2914TIP3   OH2 8684   0.429   3.240   5.553
 2914TIP3    H1 8685   0.480   3.168   5.517
 2914TIP3    H2 8686   0.435   3.309   5.487
 2915TIP3   OH2 8687   0.810   2.902   1.561
 2915TIP3    H1 8688   0.780   2.964   1.628
 2915TIP3    H2 8689   0.855   2.834   1.610
 2916TIP3   OH2 8690   0.502   3.548   4.454
 2916TIP3    H1 8691   0.581   3.588   4.492
 2916TIP3    H2 8692   0.533   3.468   4.412
 2917TIP3   OH2 8693   4.404   0.516   2.060
 2917TIP3    H1 8694   4.415   0.431   2.017
 2917TIP3    H2 8695   4.472   0.518   2.127
 2918TIP3   OH2 8696   1.837   0.203   5.477
 2918TIP3    H1 8697   1.746   0.207   5.448
 2918TIP3    H2 8698   1.836   0.143   5.552
 2919TIP3   OH2 8699   4.028   0.787   4.578
 2919TIP3    H1 8700   3.937   0.812   4.561
 2919TIP3    H2 8701   4.064   0.862   4.626
 2920TIP3   OH2 8702   7.637   2.202   2.244
 2920TIP3    H1 8703   7.587   2.177   2.322
 2920TIP3    H2 8704   7.707   2.258   2.277
 2921TIP3   OH2 8705   2.790   4.053   0.637
 2921TIP3    H1 8706   2.841   3.997   0.579
 2921TIP3    H2 8707   2.812   4.142   0.609
 2922TIP3   OH2 8708   0.379   3.655   3.571
 2922TIP3    H1 8709   0.465   3.619   3.551
 2922TIP3    H2 8710   0.343   3.681   3.487
 2923TIP3   OH2 8711   1.594   7.355   4.674
 2923TIP3    H1 8712   1.676   7.326   4.716
 2923TIP3    H2 8713   1.585   7.446   4.700
 2924TIP3   OH2 8714   1.260   0.254   0.904
 2924TIP3    H1 8715   1.348   0.223   0.884
 2924TIP3    H2 8716   1.260   0.270   0.998
 2925TIP3   OH2 8717   3.311   7.626   3.283
 2925TIP3    H1 8718   3.315   7.708   3.234
 2925TIP3    H2 8719   3.231   7.583   3.252
 2926TIP3   OH2 8720   2.272   1.431   1.167
 2926TIP3    H1 8721   2.226   1.468   1.242
 2926TIP3    H2 8722   2.276   1.502   1.103
 2927TIP3   OH2 8723   7.935   0.262   0.015
 2927TIP3    H1 8724   7.855   0.210   0.022
 2927TIP3    H2 8725   7.904   0.351  -0.001
 2928TIP3   OH2 8726   0.932   7.634   3.010
 2928TIP3    H1 8727   0.880   7.713   2.996
 2928TIP3    H2 8728   0.870   7.562   2.994
 2929TIP3   OH2 8729   5.261   6.048   3.055
 2929TIP3    H1 8730   5.262   6.086   2.967
 2929TIP3    H2 8731   5.307   5.965   3.046
 2930TIP3   OH2 8732   2.464   3.772   5.807
 2930TIP3    H1 8733   2.556   3.776   5.779
 2930TIP3    H2 8734   2.450   3.679   5.827
 2931TIP3   OH2 8735   8.057   3.256   4.909
 2931TIP3    H1 8736   8.127   3.295   4.961
 2931TIP3    H2 8737   8.084   3.269   4.818
 2932TIP3   OH2 8738   7.289   7.185   4.941
 2932TIP3    H1 8739   7.333   7.100   4.939
 2932TIP3    H2 8740   7.333   7.236   4.872
 2933TIP3   OH2 8741   2.474   3.852   4.226
 2933TIP3    H1 8742   2.522   3.776   4.196
 2933TIP3    H2 8743   2.434   3.824   4.309
 2934TIP3   OH2 8744   7.287   7.834   3.868
 2934TIP3    H1 8745   7.310   7.842   3.960
 2934TIP3    H2 8746   7.226   7.760   3.865
 2935TIP3   OH2 8747   2.265   2.924   3.950
 2935TIP3    H1 8748   2.245   2.848   3.895
 2935TIP3    H2 8749   2.356   2.945   3.930
 2936TIP3   OH2 8750   3.758   0.447   4.623
 2936TIP3    H1 8751   3.778   0.522   4.567
 2936TIP3    H2 8752   3.664   0.453   4.638
 2937TIP3   OH2 8753   3.763   0.421   3.943
 2937TIP3    H1 8754   3.836   0.394   3.999
 2937TIP3    H2 8755   3.763   0.517   3.949
 2938TIP3   OH2 8756   7.831   3.079   0.577
 2938TIP3    H1 8757   7.909   3.024   0.575
 2938TIP3    H2 8758   7.776   3.044   0.507
 2939TIP3   OH2 8759   1.663   5.204   1.534
 2939TIP3    H1 8760   1.574   5.211   1.568
 2939TIP3    H2 8761   1.658   5.136   1.467
 2940TIP3   OH2 8762   0.767   3.363   5.453
 2940TIP3    H1 8763   0.728   3.443   5.489
 2940TIP3    H2 8764   0.731   3.357   5.364
 2941TIP3   OH2 8765   6.267   3.798   3.036
 2941TIP3    H1 8766   6.200   3.758   3.091
 2941TIP3    H2 8767   6.286   3.732   2.969
 2942TIP3   OH2 8768   2.679   1.962   3.473
 2942TIP3    H1 8769   2.742   2.034   3.479
 2942TIP3    H2 8770   2.595   2.002   3.495
 2943TIP3   OH2 8771   2.974   0.228   6.719
 2943TIP3    H1 8772   2.975   0.223   6.815
 2943TIP3    H2 8773   3.027   0.306   6.699
 2944TIP3   OH2 8774   7.756   6.650   3.081
 2944TIP3    H1 8775   7.764   6.599   3.162
 2944TIP3    H2 8776   7.699   6.597   3.025
 2945TIP3   OH2 8777   5.057   6.553   3.178
 2945TIP3    H1 8778   5.094   6.468   3.157
 2945TIP3    H2 8779   5.110   6.585   3.250
 2946TIP3   OH2 8780   1.051   7.601   5.198
 2946TIP3    H1 8781   1.134   7.629   5.235
 2946TIP3    H2 8782   1.060   7.507   5.185
 2947TIP3   OH2 8783   6.244   6.670   5.933
 2947TIP3    H1 8784   6.157   6.708   5.920
 2947TIP3    H2 8785   6.274   6.649   5.845
 2948TIP3   OH2 8786   4.377   6.712   1.153
 2948TIP3    H1 8787   4.433   6.736   1.226
 2948TIP3    H2 8788   4.352   6.621   1.170
 2949TIP3   OH2 8789   5.133   6.079   1.896
 2949TIP3    H1 8790   5.164   6.165   1.870
 2949TIP3    H2 8791   5.129   6.030   1.814
 2950TIP3   OH2 8792   0.676   6.639   6.194
 2950TIP3    H1 8793   0.666   6.544   6.191
 2950TIP3    H2 8794   0.759   6.656   6.149
 2951TIP3   OH2 8795   6.485   0.591   1.567
 2951TIP3    H1 8796   6.488   0.523   1.634
 2951TIP3    H2 8797   6.460   0.544   1.487
 2952TIP3   OH2 8798   3.006   6.510   4.003
 2952TIP3    H1 8799   2.999   6.572   3.931
 2952TIP3    H2 8800   3.047   6.559   4.074
 2953TIP3   OH2 8801   1.760   5.086   4.389
 2953TIP3    H1 8802   1.695   5.026   4.353
 2953TIP3    H2 8803   1.827   5.094   4.321
 2954TIP3   OH2 8804   3.971   2.350   4.896
 2954TIP3    H1 8805   4.020   2.364   4.816
 2954TIP3    H2 8806   3.881   2.373   4.873
 2955TIP3   OH2 8807   2.662   5.068   5.705
 2955TIP3    H1 8808   2.669   5.161   5.683
 2955TIP3    H2 8809   2.620   5.028   5.629
 2956TIP3   OH2 8810   6.624   2.706   3.843
 2956TIP3    H1 8811   6.702   2.721   3.896
 2956TIP3    H2 8812   6.648   2.739   3.756
 2957TIP3   OH2 8813   1.396   3.430   2.559
 2957TIP3    H1 8814   1.451   3.358   2.528
 2957TIP3    H2 8815   1.320   3.387   2.597
 2958TIP3   OH2 8816   7.971   6.278   0.689
 2958TIP3    H1 8817   8.009   6.318   0.766
 2958TIP3    H2 8818   8.020   6.315   0.616
 2959TIP3   OH2 8819   7.076   7.429   5.877
 2959TIP3    H1 8820   7.154   7.470   5.839
 2959TIP3    H2 8821   7.065   7.473   5.961
 2960TIP3   OH2 8822   4.156   0.564   4.711
 2960TIP3    H1 8823   4.116   0.510   4.642
 2960TIP3    H2 8824   4.138   0.654   4.683
 2961TIP3   OH2 8825   2.660   7.831   1.228
 2961TIP3    H1 8826   2.619   7.783   1.300
 2961TIP3    H2 8827   2.625   7.790   1.149
 2962TIP3   OH2 8828   3.136   6.107   4.965
 2962TIP3    H1 8829   3.226   6.099   4.934
 2962TIP3    H2 8830   3.087   6.042   4.914
 2963TIP3   OH2 8831   3.569   5.773   5.316
 2963TIP3    H1 8832   3.507   5.837   5.281
 2963TIP3    H2 8833   3.515   5.708   5.360
 2964TIP3   OH2 8834   2.426   0.149   4.726
 2964TIP3    H1 8835   2.353   0.194   4.684
 2964TIP3    H2 8836   2.497   0.213   4.726
 2965TIP3   OH2 8837   7.808   0.648   5.217
 2965TIP3    H1 8838   7.861   0.660   5.296
 2965TIP3    H2 8839   7.842   0.567   5.178
 2966TIP3   OH2 8840   8.150   1.055   0.976
 2966TIP3    H1 8841   8.139   1.150   0.985
 2966TIP3    H2 8842   8.212   1.031   1.044
 2967TIP3   OH2 8843   1.047   0.114   6.651
 2967TIP3    H1 8844   1.078   0.138   6.564
 2967TIP3    H2 8845   0.964   0.068   6.635
 2968TIP3   OH2 8846   2.240   1.737   2.093
 2968TIP3    H1 8847   2.177   1.805   2.116
 2968TIP3    H2 8848   2.191   1.655   2.101
 2969TIP3   OH2 8849   1.014   3.205   2.182
 2969TIP3    H1 8850   0.933   3.177   2.224
 2969TIP3    H2 8851   0.990   3.220   2.091
 2970TIP3   OH2 8852   3.567   7.426   4.692
 2970TIP3    H1 8853   3.515   7.409   4.613
 2970TIP3    H2 8854   3.644   7.473   4.660
 2971TIP3   OH2 8855   7.644   2.809   3.556
 2971TIP3    H1 8856   7.717   2.779   3.610
 2971TIP3    H2 8857   7.675   2.800   3.466
 2972TIP3   OH2 8858   6.826   2.466   4.693
 2972TIP3    H1 8859   6.833   2.504   4.606
 2972TIP3    H2 8860   6.867   2.380   4.685
 2973TIP3   OH2 8861   2.491   3.550   2.056
 2973TIP3    H1 8862   2.435   3.626   2.042
 2973TIP3    H2 8863   2.472   3.492   1.982
 2974TIP3   OH2 8864   5.536   5.372   2.918
 2974TIP3    H1 8865   5.554   5.436   2.986
 2974TIP3    H2 8866   5.462   5.322   2.951
 2975TIP3   OH2 8867   0.931   6.887   2.495
 2975TIP3    H1 8868   0.881   6.969   2.490
 2975TIP3    H2 8869   0.867   6.819   2.476
 2976TIP3   OH2 8870   1.710   0.500   2.561
 2976TIP3    H1 8871   1.691   0.474   2.651
 2976TIP3    H2 8872   1.789   0.553   2.568
 2977TIP3   OH2 8873   7.965   5.020   5.991
 2977TIP3    H1 8874   7.977   5.114   6.001
 2977TIP3    H2 8875   8.020   4.981   6.058
 2978TIP3   OH2 8876   4.414   5.170   1.740
 2978TIP3    H1 8877   4.328   5.131   1.753
 2978TIP3    H2 8878   4.468   5.135   1.811
 2979TIP3   OH2 8879   6.011   0.426   1.904
 2979TIP3    H1 8880   5.987   0.334   1.914
 2979TIP3    H2 8881   6.098   0.433   1.945
 2980TIP3   OH2 8882   7.247   0.910   2.311
 2980TIP3    H1 8883   7.326   0.870   2.276
 2980TIP3    H2 8884   7.247   1.000   2.276
 2981TIP3   OH2 8885   1.888   4.254   6.517
 2981TIP3    H1 8886   1.865   4.310   6.591
 2981TIP3    H2 8887   1.820   4.272   6.452
 2982TIP3   OH2 8888   4.656   4.229   1.180
 2982TIP3    H1 8889   4.674   4.178   1.101
 2982TIP3    H2 8890   4.647   4.319   1.150
 2983TIP3   OH2 8891   2.480   2.044   6.234
 2983TIP3    H1 8892   2.472   2.023   6.141
 2983TIP3    H2 8893   2.427   2.123   6.246
 2984TIP3   OH2 8894   5.505   0.290   2.732
 2984TIP3    H1 8895   5.535   0.380   2.728
 2984TIP3    H2 8896   5.585   0.238   2.729
 2985TIP3   OH2 8897   3.441   1.549   0.794
 2985TIP3    H1 8898   3.393   1.627   0.769
 2985TIP3    H2 8899   3.530   1.580   0.814
 2986TIP3   OH2 8900   1.860   7.296   4.750
 2986TIP3    H1 8901   1.913   7.375   4.760
 2986TIP3    H2 8902   1.892   7.256   4.669
 2987TIP3   OH2 8903   7.351   5.602   4.010
 2987TIP3    H1 8904   7.268   5.568   3.978
 2987TIP3    H2 8905   7.382   5.535   4.071
 2988TIP3   OH2 8906   5.067   6.931   0.759
 2988TIP3    H1 8907   4.980   6.945   0.796
 2988TIP3    H2 8908   5.062   6.845   0.718
 2989TIP3   OH2 8909   2.617   3.905   1.575
 2989TIP3    H1 8910   2.610   3.883   1.668
 2989TIP3    H2 8911   2.530   3.937   1.551
 2990TIP3   OH2 8912   1.672   3.249   1.350
 2990TIP3    H1 8913   1.640   3.329   1.392
 2990TIP3    H2 8914   1.619   3.240   1.272
 2991TIP3   OH2 8915   4.803   0.049   1.752
 2991TIP3    H1 8916   4.746   0.013   1.683
 2991TIP3    H2 8917   4.887   0.005   1.739
 2992TIP3   OH2 8918   5.537   5.360   6.223
 2992TIP3    H1 8919   5.452   5.336   6.260
 2992TIP3    H2 8920   5.525   5.349   6.128
 2993TIP3   OH2 8921   7.282   2.977   3.319
 2993TIP3    H1 8922   7.216   3.046   3.310
 2993TIP3    H2 8923   7.276   2.949   3.410
 2994TIP3   OH2 8924   4.249   5.951   4.877
 2994TIP3    H1 8925   4.251   5.986   4.966
 2994TIP3    H2 8926   4.321   5.995   4.832
 2995TIP3   OH2 8927   6.755   4.366   4.390
 2995TIP3    H1 8928   6.782   4.340   4.478
 2995TIP3    H2 8929   6.679   4.422   4.403
 2996TIP3   OH2 8930   2.129   0.470   4.040
 2996TIP3    H1 8931   2.092   0.382   4.036
 2996TIP3    H2 8932   2.153   0.483   4.131
 2997TIP3   OH2 8933   5.807   0.833   1.416
 2997TIP3    H1 8934   5.735   0.896   1.407
 2997TIP3    H2 8935   5.870   0.877   1.473
 2998TIP3   OH2 8936   4.148   4.493   5.438
 2998TIP3    H1 8937   4.089   4.454   5.375
 2998TIP3    H2 8938   4.205   4.421   5.466
 2999TIP3   OH2 8939   6.094   4.728   2.227
 2999TIP3    H1 8940   6.154   4.761   2.160
 2999TIP3    H2 8941   6.059   4.806   2.269
 3000TIP3   OH2 8942   3.515   1.010   6.237
 3000TIP3    H1 8943   3.453   1.026   6.166
 3000TIP3    H2 8944   3.595   0.981   6.194
 3001TIP3   OH2 8945   1.860   0.807   3.613
 3001TIP3    H1 8946   1.902   0.872   3.669
 3001TIP3    H2 8947   1.882   0.835   3.524
 3002TIP3   OH2 8948   2.148   2.162   2.962
 3002TIP3    H1 8949   2.127   2.195   3.050
 3002TIP3    H2 8950   2.063   2.143   2.923
 3003TIP3   OH2 8951   0.590   6.374   4.385
 3003TIP3    H1 8952   0.605   6.468   4.390
 3003TIP3    H2 8953   0.659   6.342   4.327
 3004TIP3   OH2 8954   4.613   3.545   0.099
 3004TIP3    H1 8955   4.635   3.613   0.164
 3004TIP3    H2 8956   4.573   3.475   0.151
 3005TIP3   OH2 8957   2.286   3.321   4.990
 3005TIP3    H1 8958   2.364   3.372   5.015
 3005TIP3    H2 8959   2.214   3.382   4.999
 3006TIP3   OH2 8960   6.664   4.084   1.841
 3006TIP3    H1 8961   6.674   4.129   1.757
 3006TIP3    H2 8962   6.703   3.998   1.827
 3007TIP3   OH2 8963   0.179   0.431   4.007
 3007TIP3    H1 8964   0.159   0.483   3.929
 3007TIP3    H2 8965   0.096   0.390   4.030
 3008TIP3   OH2 8966   3.843   2.279   2.678
 3008TIP3    H1 8967   3.862   2.186   2.665
 3008TIP3    H2 8968   3.884   2.300   2.762
 3009TIP3   OH2 8969   2.491   6.005   6.775
 3009TIP3    H1 8970   2.482   5.916   6.741
 3009TIP3    H2 8971   2.406   6.045   6.762
 3010TIP3   OH2 8972   1.021   7.651   5.741
 3010TIP3    H1 8973   1.084   7.623   5.808
 3010TIP3    H2 8974   1.075   7.670   5.664
 3011TIP3   OH2 8975   7.319   3.953   6.618
 3011TIP3    H1 8976   7.285   3.996   6.540
 3011TIP3    H2 8977   7.398   3.909   6.588
 3012TIP3   OH2 8978   8.178   0.832   6.591
 3012TIP3    H1 8979   8.258   0.879   6.615
 3012TIP3    H2 8980   8.140   0.886   6.522
 3013TIP3   OH2 8981   6.848   0.955   3.850
 3013TIP3    H1 8982   6.867   0.868   3.814
 3013TIP3    H2 8983   6.918   1.011   3.816
 3014TIP3   OH2 8984   6.130   2.780  -0.022
 3014TIP3    H1 8985   6.175   2.806   0.058
 3014TIP3    H2 8986   6.062   2.720   0.007
 3015TIP3   OH2 8987   0.387   7.070   0.704
 3015TIP3    H1 8988   0.380   7.091   0.797
 3015TIP3    H2 8989   0.318   7.006   0.688
 3016TIP3   OH2 8990   1.482   3.601   3.832
 3016TIP3    H1 8991   1.520   3.538   3.770
 3016TIP3    H2 8992   1.392   3.572   3.843
 3017TIP3   OH2 8993   7.219   3.243   5.041
 3017TIP3    H1 8994   7.128   3.240   5.011
 3017TIP3    H2 8995   7.237   3.337   5.052
 3018TIP3   OH2 8996   1.922   4.765   2.796
 3018TIP3    H1 8997   2.000   4.819   2.804
 3018TIP3    H2 8998   1.955   4.676   2.783
 3019TIP3   OH2 8999   6.066   4.225   1.789
 3019TIP3    H1 9000   6.077   4.183   1.874
 3019TIP3    H2 9001   6.070   4.319   1.808
 3020TIP3   OH2 9002   6.794   0.416   6.289
 3020TIP3    H1 9003   6.708   0.388   6.322
 3020TIP3    H2 9004   6.844   0.436   6.368
 3021TIP3   OH2 9005   3.885   0.660   3.223
 3021TIP3    H1 9006   3.832   0.699   3.292
 3021TIP3    H2 9007   3.918   0.579   3.261
 3022TIP3   OH2 9008   4.359   6.490   5.923
 3022TIP3    H1 9009   4.344   6.584   5.937
 3022TIP3    H2 9010   4.272   6.451   5.932
 3023TIP3   OH2 9011   5.474   6.674   2.206
 3023TIP3    H1 9012   5.388   6.656   2.244
 3023TIP3    H2 9013   5.508   6.748   2.258
 3024TIP3   OH2 9014   1.281   3.560   5.833
 3024TIP3    H1 9015   1.195   3.590   5.864
 3024TIP3    H2 9016   1.292   3.473   5.871
 3025TIP3   OH2 9017   3.327   7.460   3.686
 3025TIP3    H1 9018   3.303   7.545   3.648
 3025TIP3    H2 9019   3.245   7.425   3.719
 3026TIP3   OH2 9020   2.384   2.470   3.062
 3026TIP3    H1 9021   2.472   2.458   3.097
 3026TIP3    H2 9022   2.391   2.545   3.003
 3027TIP3   OH2 9023   7.048   5.069   2.924
 3027TIP3    H1 9024   7.034   5.018   2.844
 3027TIP3    H2 9025   6.968   5.056   2.974
 3028TIP3   OH2 9026   7.799   5.954   5.776
 3028TIP3    H1 9027   7.833   5.914   5.856
 3028TIP3    H2 9028   7.809   6.048   5.790
 3029TIP3   OH2 9029   3.168   2.227   4.202
 3029TIP3    H1 9030   3.135   2.269   4.281
 3029TIP3    H2 9031   3.106   2.254   4.134
 3030TIP3   OH2 9032   6.900   1.168   2.260
 3030TIP3    H1 9033   6.824   1.223   2.277
 3030TIP3    H2 9034   6.870   1.106   2.193
 3031TIP3   OH2 9035   3.490   3.496   5.312
 3031TIP3    H1 9036   3.444   3.445   5.245
 3031TIP3    H2 9037   3.582   3.473   5.300
 3032TIP3   OH2 9038   8.098   3.221   6.569
 3032TIP3    H1 9039   8.137   3.219   6.482
 3032TIP3    H2 9040   8.172   3.208   6.629
 3033TIP3   OH2 9041   6.165   4.200   3.209
 3033TIP3    H1 9042   6.171   4.108   3.185
 3033TIP3    H2 9043   6.071   4.215   3.222
 3034TIP3   OH2 9044   3.456   4.563   0.199
 3034TIP3    H1 9045   3.523   4.519   0.147
 3034TIP3    H2 9046   3.387   4.584   0.137
 3035TIP3   OH2 9047   7.743   5.206   1.958
 3035TIP3    H1 9048   7.728   5.211   1.863
 3035TIP3    H2 9049   7.837   5.193   1.967
 3036TIP3   OH2 9050   0.586   2.621   2.165
 3036TIP3    H1 9051   0.644   2.557   2.125
 3036TIP3    H2 9052   0.498   2.589   2.145
 3037TIP3   OH2 9053   1.520   3.835   1.878
 3037TIP3    H1 9054   1.548   3.758   1.928
 3037TIP3    H2 9055   1.504   3.902   1.944
 3038TIP3   OH2 9056   0.886   2.563   4.705
 3038TIP3    H1 9057   0.793   2.559   4.684
 3038TIP3    H2 9058   0.928   2.586   4.623
 3039TIP3   OH2 9059   4.645   6.035   0.367
 3039TIP3    H1 9060   4.657   6.002   0.278
 3039TIP3    H2 9061   4.553   6.061   0.370
 3040TIP3   OH2 9062   7.807   4.988   2.456
 3040TIP3    H1 9063   7.773   5.002   2.367
 3040TIP3    H2 9064   7.812   5.076   2.494
 3041TIP3   OH2 9065   2.717   0.295   2.399
 3041TIP3    H1 9066   2.736   0.271   2.490
 3041TIP3    H2 9067   2.686   0.385   2.404
 3042TIP3   OH2 9068   6.895   5.934   0.161
 3042TIP3    H1 9069   6.857   6.005   0.213
 3042TIP3    H2 9070   6.989   5.943   0.173
 3043TIP3   OH2 9071   4.808   6.618   0.223
 3043TIP3    H1 9072   4.837   6.702   0.186
 3043TIP3    H2 9073   4.736   6.591   0.166
 3044TIP3   OH2 9074   7.678   5.494   5.515
 3044TIP3    H1 9075   7.666   5.444   5.435
 3044TIP3    H2 9076   7.721   5.434   5.575
 3045TIP3   OH2 9077   0.814   6.464   2.545
 3045TIP3    H1 9078   0.776   6.536   2.494
 3045TIP3    H2 9079   0.904   6.493   2.562
 3046TIP3   OH2 9080   7.385   5.217   1.722
 3046TIP3    H1 9081   7.473   5.240   1.690
 3046TIP3    H2 9082   7.398   5.135   1.768
 3047TIP3   OH2 9083   5.973   7.294   0.368
 3047TIP3    H1 9084   5.891   7.336   0.343
 3047TIP3    H2 9085   6.040   7.361   0.354
 3048TIP3   OH2 9086   4.976   5.866   2.013
 3048TIP3    H1 9087   5.029   5.937   1.976
 3048TIP3    H2 9088   4.926   5.907   2.083
 3049TIP3   OH2 9089   6.562   1.055   0.020
 3049TIP3    H1 9090   6.606   1.104   0.090
 3049TIP3    H2 9091   6.631   1.040  -0.045
 3050TIP3   OH2 9092   6.432   6.115   2.275
 3050TIP3    H1 9093   6.426   6.020   2.280
 3050TIP3    H2 9094   6.346   6.146   2.303
 3051TIP3   OH2 9095   1.254   6.021   5.416
 3051TIP3    H1 9096   1.209   5.974   5.345
 3051TIP3    H2 9097   1.194   6.091   5.441
 3052TIP3   OH2 9098   5.758   1.161   4.525
 3052TIP3    H1 9099   5.766   1.082   4.472
 3052TIP3    H2 9100   5.671   1.195   4.506
 3053TIP3   OH2 9101   4.168   5.902   5.209
 3053TIP3    H1 9102   4.087   5.921   5.162
 3053TIP3    H2 9103   4.196   5.987   5.244
 3054TIP3   OH2 9104   1.938   3.476   1.275
 3054TIP3    H1 9105   1.959   3.397   1.226
 3054TIP3    H2 9106   1.941   3.450   1.366
 3055TIP3   OH2 9107   4.338   1.382   6.515
 3055TIP3    H1 9108   4.365   1.302   6.560
 3055TIP3    H2 9109   4.260   1.357   6.466
 3056TIP3   OH2 9110   4.922   0.217   4.469
 3056TIP3    H1 9111   4.987   0.238   4.536
 3056TIP3    H2 9112   4.838   0.237   4.510
 3057TIP3   OH2 9113   0.627   6.279   3.758
 3057TIP3    H1 9114   0.643   6.218   3.686
 3057TIP3    H2 9115   0.532   6.286   3.762
 3058TIP3   OH2 9116   1.369   1.454   5.402
 3058TIP3    H1 9117   1.437   1.520   5.418
 3058TIP3    H2 9118   1.318   1.489   5.329
 3059TIP3   OH2 9119   7.778   7.480   0.087
 3059TIP3    H1 9120   7.699   7.511   0.131
 3059TIP3    H2 9121   7.850   7.519   0.135
 3060TIP3   OH2 9122   2.049   0.930   6.677
 3060TIP3    H1 9123   2.011   0.842   6.679
 3060TIP3    H2 9124   2.089   0.941   6.764
 3061TIP3   OH2 9125   5.497   5.362   5.592
 3061TIP3    H1 9126   5.570   5.422   5.604
 3061TIP3    H2 9127   5.537   5.275   5.593
 3062TIP3   OH2 9128   3.792   3.420   0.635
 3062TIP3    H1 9129   3.866   3.476   0.660
 3062TIP3    H2 9130   3.719   3.481   0.622
 3063TIP3   OH2 9131   0.102   7.726   0.492
 3063TIP3    H1 9132   0.134   7.732   0.582
 3063TIP3    H2 9133   0.006   7.732   0.501
 3064TIP3   OH2 9134   2.486   2.078   5.379
 3064TIP3    H1 9135   2.507   2.050   5.468
 3064TIP3    H2 9136   2.415   2.142   5.389
 3065TIP3   OH2 9137   4.924   5.706   1.464
 3065TIP3    H1 9138   5.001   5.651   1.470
 3065TIP3    H2 9139   4.861   5.655   1.413
 3066TIP3   OH2 9140   3.826   5.712   5.486
 3066TIP3    H1 9141   3.844   5.650   5.556
 3066TIP3    H2 9142   3.750   5.676   5.440
 3067TIP3   OH2 9143   2.356   3.086   3.024
 3067TIP3    H1 9144   2.441   3.083   3.068
 3067TIP3    H2 9145   2.378   3.085   2.931
 3068TIP3   OH2 9146   5.347   3.283   6.478
 3068TIP3    H1 9147   5.326   3.326   6.562
 3068TIP3    H2 9148   5.431   3.240   6.494
 3069TIP3   OH2 9149   8.011   4.227   2.998
 3069TIP3    H1 9150   7.924   4.223   3.038
 3069TIP3    H2 9151   7.999   4.284   2.921
 3070TIP3   OH2 9152   7.469   6.447   2.626
 3070TIP3    H1 9153   7.420   6.364   2.630
 3070TIP3    H2 9154   7.560   6.420   2.615
 3071TIP3   OH2 9155   2.852   7.301   1.348
 3071TIP3    H1 9156   2.769   7.269   1.313
 3071TIP3    H2 9157   2.827   7.361   1.418
 3072TIP3   OH2 9158   0.469   3.013   2.441
 3072TIP3    H1 9159   0.528   3.081   2.471
 3072TIP3    H2 9160   0.524   2.934   2.437
 3073TIP3   OH2 9161   7.388   1.150   0.297
 3073TIP3    H1 9162   7.391   1.090   0.372
 3073TIP3    H2 9163   7.359   1.233   0.334
 3074TIP3   OH2 9164   3.720   4.963   3.642
 3074TIP3    H1 9165   3.745   4.934   3.730
 3074TIP3    H2 9166   3.625   4.966   3.644
 3075TIP3   OH2 9167   0.706   1.006   6.276
 3075TIP3    H1 9168   0.758   1.007   6.357
 3075TIP3    H2 9169   0.738   0.930   6.228
 3076TIP3   OH2 9170   0.583   2.580   4.720
 3076TIP3    H1 9171   0.508   2.572   4.662
 3076TIP3    H2 9172   0.551   2.631   4.794
 3077TIP3   OH2 9173   1.928   6.118   4.973
 3077TIP3    H1 9174   1.956   6.107   4.883
 3077TIP3    H2 9175   1.835   6.140   4.966
 3078TIP3   OH2 9176   5.132   0.080   0.770
 3078TIP3    H1 9177   5.187   0.059   0.694
 3078TIP3    H2 9178   5.055   0.024   0.759
 3079TIP3   OH2 9179   4.517   4.065   0.833
 3079TIP3    H1 9180   4.496   4.158   0.842
 3079TIP3    H2 9181   4.578   4.046   0.904
 3080TIP3   OH2 9182   6.331   6.456   4.602
 3080TIP3    H1 9183   6.351   6.399   4.527
 3080TIP3    H2 9184   6.328   6.397   4.677
 3081TIP3   OH2 9185   8.065   1.175   4.920
 3081TIP3    H1 9186   7.971   1.178   4.904
 3081TIP3    H2 9187   8.103   1.220   4.844
 3082TIP3   OH2 9188   2.667   7.346   2.904
 3082TIP3    H1 9189   2.578   7.312   2.902
 3082TIP3    H2 9190   2.671   7.398   2.984
 3083TIP3   OH2 9191   5.966   5.260   1.678
 3083TIP3    H1 9192   6.024   5.288   1.607
 3083TIP3    H2 9193   5.891   5.220   1.634
 3084TIP3   OH2 9194   1.327   6.242   1.967
 3084TIP3    H1 9195   1.331   6.183   1.892
 3084TIP3    H2 9196   1.395   6.308   1.950
 3085TIP3   OH2 9197   8.130   6.451   0.529
 3085TIP3    H1 9198   8.170   6.523   0.481
 3085TIP3    H2 9199   8.093   6.394   0.461
 3086TIP3   OH2 9200   6.346   2.446   3.063
 3086TIP3    H1 9201   6.253   2.463   3.046
 3086TIP3    H2 9202   6.381   2.532   3.086
 3087TIP3   OH2 9203   2.867   7.527   4.152
 3087TIP3    H1 9204   2.946   7.484   4.120
 3087TIP3    H2 9205   2.881   7.535   4.247
 3088TIP3   OH2 9206   5.042   4.267   1.242
 3088TIP3    H1 9207   4.983   4.280   1.168
 3088TIP3    H2 9208   5.059   4.172   1.244
 3089TIP3   OH2 9209   6.184   2.657   5.864
 3089TIP3    H1 9210   6.168   2.571   5.825
 3089TIP3    H2 9211   6.227   2.638   5.947
 3090TIP3   OH2 9212   7.144   2.275   0.245
 3090TIP3    H1 9213   7.142   2.302   0.337
 3090TIP3    H2 9214   7.102   2.346   0.198
 3091TIP3   OH2 9215   7.980   4.262   1.835
 3091TIP3    H1 9216   7.971   4.357   1.828
 3091TIP3    H2 9217   7.967   4.243   1.928
 3092TIP3   OH2 9218   1.670   5.606   5.074
 3092TIP3    H1 9219   1.709   5.683   5.033
 3092TIP3    H2 9220   1.727   5.533   5.048
 3093TIP3   OH2 9221   2.110   0.768   2.904
 3093TIP3    H1 9222   2.126   0.789   2.812
 3093TIP3    H2 9223   2.030   0.715   2.902
 3094TIP3   OH2 9224   1.881   1.915   2.465
 3094TIP3    H1 9225   1.923   1.895   2.549
 3094TIP3    H2 9226   1.931   1.988   2.430
 3095TIP3   OH2 9227   0.279   7.049   2.807
 3095TIP3    H1 9228   0.224   7.016   2.879
 3095TIP3    H2 9229   0.268   7.144   2.811
 3096TIP3   OH2 9230   6.117   6.222   6.247
 3096TIP3    H1 9231   6.146   6.141   6.204
 3096TIP3    H2 9232   6.182   6.288   6.221
 3097TIP3   OH2 9233   5.929   3.919   6.192
 3097TIP3    H1 9234   5.854   3.974   6.170
 3097TIP3    H2 9235   6.004   3.965   6.154
 3098TIP3   OH2 9236   3.711   4.102   1.203
 3098TIP3    H1 9237   3.677   4.023   1.245
 3098TIP3    H2 9238   3.652   4.116   1.129
 3099TIP3   OH2 9239   8.273   3.111   2.906
 3099TIP3    H1 9240   8.182   3.137   2.922
 3099TIP3    H2 9241   8.306   3.084   2.991
 3100TIP3   OH2 9242   7.864   5.995   4.158
 3100TIP3    H1 9243   7.877   5.919   4.101
 3100TIP3    H2 9244   7.834   6.064   4.098
 3101TIP3   OH2 9245   1.586   2.409   5.262
 3101TIP3    H1 9246   1.522   2.480   5.262
 3101TIP3    H2 9247   1.535   2.330   5.280
 3102TIP3   OH2 9248   6.171   3.252   6.236
 3102TIP3    H1 9249   6.141   3.333   6.195
 3102TIP3    H2 9250   6.138   3.258   6.326
 3103TIP3   OH2 9251   1.897   5.759   0.807
 3103TIP3    H1 9252   1.936   5.672   0.818
 3103TIP3    H2 9253   1.966   5.813   0.770
 3104TIP3   OH2 9254   2.933   3.447   5.314
 3104TIP3    H1 9255   2.908   3.432   5.224
 3104TIP3    H2 9256   3.002   3.382   5.331
 3105TIP3   OH2 9257   1.369   2.686   1.862
 3105TIP3    H1 9258   1.331   2.625   1.800
 3105TIP3    H2 9259   1.351   2.773   1.825
 3106TIP3   OH2 9260   1.897   1.904   6.059
 3106TIP3    H1 9261   1.861   1.949   6.136
 3106TIP3    H2 9262   1.874   1.960   5.985
 3107TIP3   OH2 9263   2.839   3.721   0.036
 3107TIP3    H1 9264   2.891   3.789   0.078
 3107TIP3    H2 9265   2.859   3.641   0.084
 3108TIP3   OH2 9266   0.713   6.906   4.698
 3108TIP3    H1 9267   0.732   6.999   4.709
 3108TIP3    H2 9268   0.791   6.870   4.657
 3109TIP3   OH2 9269   2.688   3.111   3.049
 3109TIP3    H1 9270   2.747   3.081   3.118
 3109TIP3    H2 9271   2.668   3.033   2.998
 3110TIP3   OH2 9272   4.229   5.129   6.278
 3110TIP3    H1 9273   4.316   5.165   6.295
 3110TIP3    H2 9274   4.236   5.036   6.299
 3111TIP3   OH2 9275   0.569   1.987   5.240
 3111TIP3    H1 9276   0.533   2.070   5.209
 3111TIP3    H2 9277   0.585   1.936   5.160
 3112TIP3   OH2 9278   5.871   4.938   2.417
 3112TIP3    H1 9279   5.857   5.015   2.362
 3112TIP3    H2 9280   5.809   4.873   2.383
 3113TIP3   OH2 9281   6.659   2.843   3.569
 3113TIP3    H1 9282   6.715   2.850   3.491
 3113TIP3    H2 9283   6.697   2.906   3.631
 3114TIP3   OH2 9284   1.429   5.671   4.735
 3114TIP3    H1 9285   1.465   5.737   4.675
 3114TIP3    H2 9286   1.339   5.659   4.706
 3115TIP3   OH2 9287   2.216   5.392   4.801
 3115TIP3    H1 9288   2.189   5.309   4.840
 3115TIP3    H2 9289   2.194   5.383   4.708
 3116TIP3   OH2 9290   5.044   0.585   2.101
 3116TIP3    H1 9291   4.996   0.502   2.104
 3116TIP3    H2 9292   5.040   0.619   2.190
 3117TIP3   OH2 9293   2.644   7.644   6.083
 3117TIP3    H1 9294   2.644   7.628   6.177
 3117TIP3    H2 9295   2.603   7.566   6.045
 3118TIP3   OH2 9296   2.074   2.807   4.955
 3118TIP3    H1 9297   2.110   2.885   4.998
 3118TIP3    H2 9298   2.146   2.774   4.902
 3119TIP3   OH2 9299   5.306   2.439   4.809
 3119TIP3    H1 9300   5.238   2.441   4.742
 3119TIP3    H2 9301   5.269   2.386   4.879
 3120TIP3   OH2 9302   1.445   5.456   3.829
 3120TIP3    H1 9303   1.540   5.456   3.813
 3120TIP3    H2 9304   1.424   5.547   3.849
 3121TIP3   OH2 9305   0.592   0.923   3.127
 3121TIP3    H1 9306   0.504   0.956   3.150
 3121TIP3    H2 9307   0.576   0.859   3.058
 3122TIP3   OH2 9308   7.316   6.153   4.653
 3122TIP3    H1 9309   7.328   6.078   4.710
 3122TIP3    H2 9310   7.402   6.168   4.614
 3123TIP3   OH2 9311   0.202   6.492   4.656
 3123TIP3    H1 9312   0.237   6.473   4.743
 3123TIP3    H2 9313   0.226   6.584   4.641
 3124TIP3   OH2 9314   3.941   2.598   0.923
 3124TIP3    H1 9315   3.877   2.601   0.852
 3124TIP3    H2 9316   3.889   2.599   1.003
 3125TIP3   OH2 9317   5.984   7.549   6.597
 3125TIP3    H1 9318   5.977   7.642   6.619
 3125TIP3    H2 9319   5.893   7.520   6.588
 3126TIP3   OH2 9320   5.798   0.633   2.886
 3126TIP3    H1 9321   5.834   0.575   2.819
 3126TIP3    H2 9322   5.783   0.576   2.962
 3127TIP3   OH2 9323   7.979   7.309   5.937
 3127TIP3    H1 9324   7.983   7.382   5.875
 3127TIP3    H2 9325   7.890   7.274   5.927
 3128TIP3   OH2 9326   1.561   4.057   3.788
 3128TIP3    H1 9327   1.592   3.974   3.753
 3128TIP3    H2 9328   1.606   4.123   3.735
 3129TIP3   OH2 9329   5.980   2.146   6.689
 3129TIP3    H1 9330   6.009   2.193   6.611
 3129TIP3    H2 9331   5.977   2.213   6.758
 3130TIP3   OH2 9332   4.057   7.631   4.401
 3130TIP3    H1 9333   4.103   7.551   4.428
 3130TIP3    H2 9334   3.985   7.599   4.347
 3131TIP3   OH2 9335   6.291   2.418   4.101
 3131TIP3    H1 9336   6.316   2.381   4.016
 3131TIP3    H2 9337   6.348   2.494   4.112
 3132TIP3   OH2 9338   2.740   1.995   2.928
 3132TIP3    H1 9339   2.816   2.020   2.980
 3132TIP3    H2 9340   2.669   2.051   2.959
 3133TIP3   OH2 9341   7.388   1.217   6.305
 3133TIP3    H1 9342   7.379   1.277   6.231
 3133TIP3    H2 9343   7.462   1.162   6.283
 3134TIP3   OH2 9344   0.991   6.093   4.974
 3134TIP3    H1 9345   1.064   6.057   5.024
 3134TIP3    H2 9346   0.920   6.100   5.038
 3135TIP3   OH2 9347   0.638   0.066   3.900
 3135TIP3    H1 9348   0.687   0.107   3.829
 3135TIP3    H2 9349   0.617   0.138   3.959
 3136TIP3   OH2 9350   3.197   3.763   1.283
 3136TIP3    H1 9351   3.214   3.672   1.257
 3136TIP3    H2 9352   3.223   3.815   1.207
 3137TIP3   OH2 9353   0.462   2.943   0.142
 3137TIP3    H1 9354   0.468   2.883   0.068
 3137TIP3    H2 9355   0.421   2.892   0.211
 3138TIP3   OH2 9356   2.684   2.320   0.064
 3138TIP3    H1 9357   2.652   2.387   0.125
 3138TIP3    H2 9358   2.714   2.369  -0.012
 3139TIP3   OH2 9359   2.177   4.088   1.554
 3139TIP3    H1 9360   2.086   4.090   1.524
 3139TIP3    H2 9361   2.174   4.040   1.636
 3140TIP3   OH2 9362   1.317   4.323   3.721
 3140TIP3    H1 9363   1.227   4.292   3.709
 3140TIP3    H2 9364   1.308   4.416   3.742
 3141TIP3   OH2 9365   1.372   0.915   2.718
 3141TIP3    H1 9366   1.442   0.900   2.781
 3141TIP3    H2 9367   1.408   0.886   2.634
 3142TIP3   OH2 9368   4.113   4.788   0.450
 3142TIP3    H1 9369   4.174   4.825   0.514
 3142TIP3    H2 9370   4.104   4.697   0.476
 3143TIP3   OH2 9371   6.802   2.884   2.049
 3143TIP3    H1 9372   6.745   2.827   2.101
 3143TIP3    H2 9373   6.757   2.890   1.964
 3144TIP3   OH2 9374   5.472   5.265   5.960
 3144TIP3    H1 9375   5.379   5.279   5.943
 3144TIP3    H2 9376   5.513   5.271   5.874
 3145TIP3   OH2 9377   5.327   6.882   5.253
 3145TIP3    H1 9378   5.289   6.947   5.194
 3145TIP3    H2 9379   5.254   6.825   5.278
 3146TIP3   OH2 9380   3.348   4.296   3.739
 3146TIP3    H1 9381   3.393   4.224   3.695
 3146TIP3    H2 9382   3.257   4.268   3.744
 3147TIP3   OH2 9383   5.287   1.034   5.695
 3147TIP3    H1 9384   5.200   1.008   5.667
 3147TIP3    H2 9385   5.346   0.998   5.629
 3148TIP3   OH2 9386   6.931   0.433   3.337
 3148TIP3    H1 9387   6.988   0.474   3.273
 3148TIP3    H2 9388   6.913   0.501   3.401
 3149TIP3   OH2 9389   8.172   1.938   5.286
 3149TIP3    H1 9390   8.181   2.033   5.292
 3149TIP3    H2 9391   8.107   1.916   5.353
 3150TIP3   OH2 9392   1.728   2.156   5.591
 3150TIP3    H1 9393   1.821   2.159   5.569
 3150TIP3    H2 9394   1.690   2.096   5.527
 3151TIP3   OH2 9395   1.024   2.495   1.193
 3151TIP3    H1 9396   1.112   2.486   1.157
 3151TIP3    H2 9397   1.024   2.442   1.273
 3152TIP3   OH2 9398   1.778   4.685   6.292
 3152TIP3    H1 9399   1.811   4.609   6.243
 3152TIP3    H2 9400   1.755   4.749   6.225
 3153TIP3   OH2 9401   7.256   6.245   5.315
 3153TIP3    H1 9402   7.302   6.161   5.315
 3153TIP3    H2 9403   7.249   6.269   5.407
 3154TIP3   OH2 9404   4.106   1.598   4.926
 3154TIP3    H1 9405   4.047   1.653   4.977
 3154TIP3    H2 9406   4.185   1.651   4.915
 3155TIP3   OH2 9407   6.969   2.805   6.599
 3155TIP3    H1 9408   7.011   2.854   6.527
 3155TIP3    H2 9409   7.006   2.717   6.593
 3156TIP3   OH2 9410   7.794   6.492   6.223
 3156TIP3    H1 9411   7.810   6.555   6.153
 3156TIP3    H2 9412   7.729   6.534   6.279
 3157TIP3   OH2 9413   7.455   0.420   0.297
 3157TIP3    H1 9414   7.468   0.337   0.343
 3157TIP3    H2 9415   7.538   0.467   0.309
 3158TIP3   OH2 9416   2.918   3.746   0.783
 3158TIP3    H1 9417   2.827   3.720   0.768
 3158TIP3    H2 9418   2.966   3.711   0.708
 3159TIP3   OH2 9419   4.815   6.521   4.608
 3159TIP3    H1 9420   4.869   6.600   4.597
 3159TIP3    H2 9421   4.729   6.546   4.572
 3160TIP3   OH2 9422   3.875   4.601   0.212
 3160TIP3    H1 9423   3.870   4.687   0.253
 3160TIP3    H2 9424   3.843   4.540   0.279
 3161TIP3   OH2 9425   8.013   3.948   1.879
 3161TIP3    H1 9426   8.074   3.949   1.806
 3161TIP3    H2 9427   8.050   4.009   1.943
 3162TIP3   OH2 9428   4.947   3.245   1.053
 3162TIP3    H1 9429   4.896   3.325   1.070
 3162TIP3    H2 9430   4.956   3.242   0.958
 3163TIP3   OH2 9431   5.894   6.062   0.966
 3163TIP3    H1 9432   5.883   6.110   0.884
 3163TIP3    H2 9433   5.805   6.048   0.998
 3164TIP3   OH2 9434   4.495   4.393   6.137
 3164TIP3    H1 9435   4.445   4.474   6.147
 3164TIP3    H2 9436   4.526   4.395   6.046
 3165TIP3   OH2 9437   4.273   0.227   1.525
 3165TIP3    H1 9438   4.217   0.201   1.598
 3165TIP3    H2 9439   4.266   0.156   1.461
 3166TIP3   OH2 9440   4.773   2.427   6.413
 3166TIP3    H1 9441   4.805   2.510   6.377
 3166TIP3    H2 9442   4.849   2.391   6.460
 3167TIP3   OH2 9443   5.267   5.152   5.579
 3167TIP3    H1 9444   5.278   5.075   5.635
 3167TIP3    H2 9445   5.355   5.167   5.543
 3168TIP3   OH2 9446   8.129   0.915   3.691
 3168TIP3    H1 9447   8.181   0.854   3.743
 3168TIP3    H2 9448   8.156   1.001   3.721
 3169TIP3   OH2 9449   6.504   3.511   5.375
 3169TIP3    H1 9450   6.533   3.430   5.332
 3169TIP3    H2 9451   6.580   3.542   5.422
 3170TIP3   OH2 9452   6.689   3.812   6.324
 3170TIP3    H1 9453   6.757   3.769   6.271
 3170TIP3    H2 9454   6.663   3.888   6.272
 3171TIP3   OH2 9455   5.298   5.460   6.712
 3171TIP3    H1 9456   5.383   5.490   6.745
 3171TIP3    H2 9457   5.240   5.467   6.788
 3172TIP3   OH2 9458   1.315   7.059   1.112
 3172TIP3    H1 9459   1.237   7.042   1.058
 3172TIP3    H2 9460   1.377   7.100   1.052
 3173TIP3   OH2 9461   1.320   4.738   2.352
 3173TIP3    H1 9462   1.357   4.730   2.440
 3173TIP3    H2 9463   1.299   4.831   2.342
 3174TIP3   OH2 9464   7.750   7.588   6.059
 3174TIP3    H1 9465   7.796   7.554   6.136
 3174TIP3    H2 9466   7.661   7.553   6.067
 3175TIP3   OH2 9467   8.114   1.580   0.771
 3175TIP3    H1 9468   8.082   1.499   0.812
 3175TIP3    H2 9469   8.046   1.644   0.789
 3176TIP3   OH2 9470   6.934   3.142   1.994
 3176TIP3    H1 9471   6.882   3.067   2.021
 3176TIP3    H2 9472   6.890   3.217   2.034
 3177TIP3   OH2 9473   4.372   1.951   2.809
 3177TIP3    H1 9474   4.326   2.026   2.773
 3177TIP3    H2 9475   4.305   1.883   2.817
 3178TIP3   OH2 9476   2.644   6.757   6.192
 3178TIP3    H1 9477   2.645   6.796   6.105
 3178TIP3    H2 9478   2.576   6.689   6.187
 3179TIP3   OH2 9479   7.156   7.336   3.901
 3179TIP3    H1 9480   7.102   7.291   3.965
 3179TIP3    H2 9481   7.132   7.428   3.908
 3180TIP3   OH2 9482   6.202   0.157   4.285
 3180TIP3    H1 9483   6.116   0.120   4.305
 3180TIP3    H2 9484   6.183   0.241   4.242
 3181TIP3   OH2 9485   4.514   1.592   5.547
 3181TIP3    H1 9486   4.601   1.563   5.519
 3181TIP3    H2 9487   4.529   1.677   5.588
 3182TIP3   OH2 9488   0.264   3.310   0.529
 3182TIP3    H1 9489   0.307   3.269   0.604
 3182TIP3    H2 9490   0.311   3.277   0.453
 3183TIP3   OH2 9491   2.547   6.336   2.816
 3183TIP3    H1 9492   2.454   6.352   2.824
 3183TIP3    H2 9493   2.557   6.295   2.730
 3184TIP3   OH2 9494   2.718   5.984   2.066
 3184TIP3    H1 9495   2.714   6.029   2.150
 3184TIP3    H2 9496   2.810   5.985   2.043
 3185TIP3   OH2 9497   6.661   5.858   3.279
 3185TIP3    H1 9498   6.695   5.859   3.368
 3185TIP3    H2 9499   6.567   5.873   3.289
 3186TIP3   OH2 9500   4.712   1.900   0.020
 3186TIP3    H1 9501   4.666   1.838   0.077
 3186TIP3    H2 9502   4.646   1.926  -0.045
 3187TIP3   OH2 9503   6.063   6.770   1.170
 3187TIP3    H1 9504   5.988   6.766   1.112
 3187TIP3    H2 9505   6.026   6.784   1.257
 3188TIP3   OH2 9506   5.100   3.494   4.454
 3188TIP3    H1 9507   5.122   3.552   4.381
 3188TIP3    H2 9508   5.170   3.428   4.455
 3189TIP3   OH2 9509   3.804   7.251   0.245
 3189TIP3    H1 9510   3.769   7.270   0.158
 3189TIP3    H2 9511   3.754   7.307   0.304
 3190TIP3   OH2 9512   1.074   0.376   6.737
 3190TIP3    H1 9513   1.164   0.391   6.766
 3190TIP3    H2 9514   1.073   0.286   6.706
 3191TIP3   OH2 9515   3.049   5.186   5.647
 3191TIP3    H1 9516   2.959   5.177   5.617
 3191TIP3    H2 9517   3.090   5.102   5.625
 3192TIP3   OH2 9518   6.282   2.623   3.645
 3192TIP3    H1 9519   6.232   2.605   3.724
 3192TIP3    H2 9520   6.286   2.539   3.599
 3193TIP3   OH2 9521   2.629   2.863   2.494
 3193TIP3    H1 9522   2.648   2.954   2.514
 3193TIP3    H2 9523   2.534   2.855   2.505
 3194TIP3   OH2 9524   4.409   4.061   4.659
 3194TIP3    H1 9525   4.504   4.063   4.650
 3194TIP3    H2 9526   4.391   3.983   4.711
 3195TIP3   OH2 9527   7.870   7.752   0.398
 3195TIP3    H1 9528   7.828   7.722   0.478
 3195TIP3    H2 9529   7.898   7.673   0.354
 3196TIP3   OH2 9530   0.227   4.463   1.890
 3196TIP3    H1 9531   0.237   4.548   1.849
 3196TIP3    H2 9532   0.139   4.465   1.927
 3197TIP3   OH2 9533   6.392   5.953   3.295
 3197TIP3    H1 9534   6.343   5.895   3.353
 3197TIP3    H2 9535   6.432   6.017   3.353
 3198TIP3   OH2 9536   2.601   7.286   5.008
 3198TIP3    H1 9537   2.678   7.273   4.953
 3198TIP3    H2 9538   2.590   7.381   5.014
 3199TIP3   OH2 9539   6.454   3.670   5.117
 3199TIP3    H1 9540   6.358   3.670   5.115
 3199TIP3    H2 9541   6.476   3.632   5.202
 3200TIP3   OH2 9542   0.076   4.483   0.326
 3200TIP3    H1 9543   0.064   4.573   0.294
 3200TIP3    H2 9544   0.062   4.428   0.249
 3201TIP3   OH2 9545   6.752   5.199   0.469
 3201TIP3    H1 9546   6.826   5.257   0.487
 3201TIP3    H2 9547   6.780   5.113   0.500
 3202TIP3   OH2 9548   7.353   5.758   5.742
 3202TIP3    H1 9549   7.448   5.745   5.735
 3202TIP3    H2 9550   7.343   5.853   5.743
 3203TIP3   OH2 9551   1.379   2.055   0.692
 3203TIP3    H1 9552   1.448   1.998   0.659
 3203TIP3    H2 9553   1.413   2.144   0.681
 3204TIP3   OH2 9554   6.283   4.263   2.433
 3204TIP3    H1 9555   6.233   4.341   2.411
 3204TIP3    H2 9556   6.222   4.208   2.483
 3205TIP3   OH2 9557   6.414   2.972   3.976
 3205TIP3    H1 9558   6.404   3.062   4.007
 3205TIP3    H2 9559   6.343   2.960   3.914
 3206TIP3   OH2 9560   3.614   6.242   6.660
 3206TIP3    H1 9561   3.643   6.153   6.681
 3206TIP3    H2 9562   3.681   6.298   6.698
 3207TIP3   OH2 9563   7.400   6.606   1.480
 3207TIP3    H1 9564   7.448   6.677   1.437
 3207TIP3    H2 9565   7.316   6.603   1.435
 3208TIP3   OH2 9566   3.779   1.881   3.316
 3208TIP3    H1 9567   3.778   1.789   3.290
 3208TIP3    H2 9568   3.870   1.897   3.343
 3209TIP3   OH2 9569   0.139   1.679   0.081
 3209TIP3    H1 9570   0.065   1.620   0.071
 3209TIP3    H2 9571   0.102   1.767   0.073
 3210TIP3   OH2 9572   5.107   6.140   0.434
 3210TIP3    H1 9573   5.051   6.132   0.512
 3210TIP3    H2 9574   5.068   6.081   0.370
 3211TIP3   OH2 9575   4.601   4.137   6.192
 3211TIP3    H1 9576   4.669   4.133   6.125
 3211TIP3    H2 9577   4.557   4.220   6.176
 3212TIP3   OH2 9578   0.412   2.581   0.952
 3212TIP3    H1 9579   0.455   2.666   0.954
 3212TIP3    H2 9580   0.331   2.595   0.904
 3213TIP3   OH2 9581   7.900   2.828   5.746
 3213TIP3    H1 9582   7.920   2.765   5.816
 3213TIP3    H2 9583   7.815   2.799   5.712
 3214TIP3   OH2 9584   2.464   0.564   0.904
 3214TIP3    H1 9585   2.484   0.656   0.889
 3214TIP3    H2 9586   2.480   0.551   0.997
 3215TIP3   OH2 9587   6.562   5.530   6.178
 3215TIP3    H1 9588   6.639   5.476   6.198
 3215TIP3    H2 9589   6.490   5.467   6.173
 3216TIP3   OH2 9590   3.138   6.842   4.940
 3216TIP3    H1 9591   3.209   6.845   5.004
 3216TIP3    H2 9592   3.088   6.765   4.963
 3217TIP3   OH2 9593   7.160   1.835   0.504
 3217TIP3    H1 9594   7.188   1.749   0.474
 3217TIP3    H2 9595   7.110   1.818   0.584
 3218TIP3   OH2 9596   3.693   0.428   6.222
 3218TIP3    H1 9597   3.729   0.384   6.144
 3218TIP3    H2 9598   3.636   0.496   6.187
 3219TIP3   OH2 9599   2.266   4.786   0.132
 3219TIP3    H1 9600   2.293   4.872   0.165
 3219TIP3    H2 9601   2.335   4.761   0.070
 3220TIP3   OH2 9602   4.797   1.812   1.320
 3220TIP3    H1 9603   4.768   1.734   1.271
 3220TIP3    H2 9604   4.883   1.832   1.284
 3221TIP3   OH2 9605   2.135   2.905   2.848
 3221TIP3    H1 9606   2.085   2.966   2.794
 3221TIP3    H2 9607   2.156   2.955   2.927
 3222TIP3   OH2 9608   4.181   0.544   1.878
 3222TIP3    H1 9609   4.137   0.468   1.916
 3222TIP3    H2 9610   4.249   0.567   1.941
 3223TIP3   OH2 9611   7.082   3.393   4.695
 3223TIP3    H1 9612   7.085   3.298   4.700
 3223TIP3    H2 9613   7.015   3.412   4.629
 3224TIP3   OH2 9614   5.955   7.742   5.203
 3224TIP3    H1 9615   5.885   7.677   5.210
 3224TIP3    H2 9616   5.933   7.808   5.267
 3225TIP3   OH2 9617   6.665   4.594   2.317
 3225TIP3    H1 9618   6.753   4.564   2.296
 3225TIP3    H2 9619   6.642   4.546   2.397
 3226TIP3   OH2 9620   4.370   0.253   1.977
 3226TIP3    H1 9621   4.394   0.250   1.885
 3226TIP3    H2 9622   4.436   0.200   2.022
 3227TIP3   OH2 9623   8.036   6.473   2.892
 3227TIP3    H1 9624   7.956   6.469   2.944
 3227TIP3    H2 9625   8.044   6.565   2.866
 3228TIP3   OH2 9626   8.280   1.970   2.283
 3228TIP3    H1 9627   8.303   2.027   2.356
 3228TIP3    H2 9628   8.228   1.900   2.324
 3229TIP3   OH2 9629   2.004   7.574   1.810
 3229TIP3    H1 9630   2.054   7.560   1.729
 3229TIP3    H2 9631   2.015   7.492   1.859
 3230TIP3   OH2 9632   0.736   7.732   2.645
 3230TIP3    H1 9633   0.712   7.657   2.591
 3230TIP3    H2 9634   0.831   7.739   2.636
 3231TIP3   OH2 9635   6.938   1.531   2.160
 3231TIP3    H1 9636   6.922   1.502   2.070
 3231TIP3    H2 9637   7.019   1.488   2.186
 3232TIP3   OH2 9638   2.938   4.920   4.756
 3232TIP3    H1 9639   2.959   4.958   4.841
 3232TIP3    H2 9640   3.016   4.870   4.732
 3233TIP3   OH2 9641   6.063   5.192   5.637
 3233TIP3    H1 9642   6.022   5.106   5.624
 3233TIP3    H2 9643   6.007   5.253   5.589
 3234TIP3   OH2 9644   5.428   3.929   6.408
 3234TIP3    H1 9645   5.374   3.850   6.404
 3234TIP3    H2 9646   5.420   3.959   6.498
 3235TIP3   OH2 9647   4.035   2.857   3.304
 3235TIP3    H1 9648   4.119   2.861   3.351
 3235TIP3    H2 9649   3.989   2.784   3.346
 3236TIP3   OH2 9650   3.852   6.100   3.455
 3236TIP3    H1 9651   3.767   6.143   3.445
 3236TIP3    H2 9652   3.839   6.038   3.527
 3237TIP3   OH2 9653   5.592   6.690   4.977
 3237TIP3    H1 9654   5.519   6.627   4.971
 3237TIP3    H2 9655   5.670   6.636   4.966
 3238TIP3   OH2 9656   1.522   6.063   3.391
 3238TIP3    H1 9657   1.435   6.030   3.413
 3238TIP3    H2 9658   1.514   6.094   3.301
 3239TIP3   OH2 9659   1.526   0.095   3.289
 3239TIP3    H1 9660   1.518   0.008   3.328
 3239TIP3    H2 9661   1.617   0.121   3.306
 3240TIP3   OH2 9662   2.636   1.421   0.326
 3240TIP3    H1 9663   2.600   1.378   0.405
 3240TIP3    H2 9664   2.661   1.508   0.356
 3241TIP3   OH2 9665   2.523   5.884   2.542
 3241TIP3    H1 9666   2.508   5.790   2.526
 3241TIP3    H2 9667   2.486   5.900   2.629
 3242TIP3   OH2 9668   2.999   2.651   2.872
 3242TIP3    H1 9669   3.034   2.603   2.797
 3242TIP3    H2 9670   3.072   2.654   2.935
 3243TIP3   OH2 9671   1.219   7.117   3.415
 3243TIP3    H1 9672   1.169   7.145   3.338
 3243TIP3    H2 9673   1.156   7.071   3.470
 3244TIP3   OH2 9674   6.602   2.465   4.264
 3244TIP3    H1 9675   6.663   2.398   4.232
 3244TIP3    H2 9676   6.581   2.517   4.186
 3245TIP3   OH2 9677   4.653   5.657   0.840
 3245TIP3    H1 9678   4.668   5.620   0.927
 3245TIP3    H2 9679   4.648   5.751   0.854
 3246TIP3   OH2 9680   3.186   6.752   2.249
 3246TIP3    H1 9681   3.207   6.660   2.267
 3246TIP3    H2 9682   3.219   6.799   2.325
 3247TIP3   OH2 9683   2.168   7.247   5.297
 3247TIP3    H1 9684   2.247   7.299   5.312
 3247TIP3    H2 9685   2.156   7.198   5.378
 3248TIP3   OH2 9686   6.825   6.735   5.034
 3248TIP3    H1 9687   6.784   6.794   5.098
 3248TIP3    H2 9688   6.824   6.649   5.076
 3249TIP3   OH2 9689   4.709   4.878   6.220
 3249TIP3    H1 9690   4.662   4.961   6.215
 3249TIP3    H2 9691   4.675   4.826   6.147
 3250TIP3   OH2 9692   3.257   6.380   3.608
 3250TIP3    H1 9693   3.216   6.430   3.679
 3250TIP3    H2 9694   3.207   6.403   3.530
 3251TIP3   OH2 9695   2.977   6.572   0.912
 3251TIP3    H1 9696   3.031   6.642   0.874
 3251TIP3    H2 9697   2.889   6.590   0.880
 3252TIP3   OH2 9698   1.476   1.720   5.054
 3252TIP3    H1 9699   1.384   1.710   5.079
 3252TIP3    H2 9700   1.520   1.743   5.136
 3253TIP3   OH2 9701   3.383   2.419   3.768
 3253TIP3    H1 9702   3.327   2.405   3.691
 3253TIP3    H2 9703   3.323   2.453   3.835
 3254TIP3   OH2 9704   3.880   4.356   0.893
 3254TIP3    H1 9705   3.802   4.410   0.887
 3254TIP3    H2 9706   3.861   4.279   0.839
 3255TIP3   OH2 9707   0.437   0.621   2.705
 3255TIP3    H1 9708   0.363   0.562   2.719
 3255TIP3    H2 9709   0.433   0.642   2.612
 3256TIP3   OH2 9710   4.677   4.513   4.861
 3256TIP3    H1 9711   4.608   4.532   4.924
 3256TIP3    H2 9712   4.662   4.572   4.788
 3257TIP3   OH2 9713   6.710   1.743   6.099
 3257TIP3    H1 9714   6.645   1.813   6.098
 3257TIP3    H2 9715   6.791   1.785   6.070
 3258TIP3   OH2 9716   1.055   4.311   3.659
 3258TIP3    H1 9717   1.007   4.232   3.634
 3258TIP3    H2 9718   1.019   4.334   3.745
 3259TIP3   OH2 9719   2.750   2.194   3.252
 3259TIP3    H1 9720   2.799   2.252   3.310
 3259TIP3    H2 9721   2.671   2.244   3.230
 3260TIP3   OH2 9722   3.967   5.754   3.039
 3260TIP3    H1 9723   3.891   5.707   3.004
 3260TIP3    H2 9724   3.961   5.741   3.134
 3261TIP3   OH2 9725   4.020   2.416   5.917
 3261TIP3    H1 9726   4.022   2.346   5.852
 3261TIP3    H2 9727   4.025   2.497   5.866
 3262TIP3   OH2 9728   1.161   3.206   5.759
 3262TIP3    H1 9729   1.231   3.256   5.801
 3262TIP3    H2 9730   1.172   3.223   5.666
 3263TIP3   OH2 9731   0.373   5.202   2.607
 3263TIP3    H1 9732   0.400   5.279   2.557
 3263TIP3    H2 9733   0.302   5.163   2.556
 3264TIP3   OH2 9734   7.405   7.497   3.352
 3264TIP3    H1 9735   7.319   7.484   3.312
 3264TIP3    H2 9736   7.387   7.505   3.446
 3265TIP3   OH2 9737   0.323   2.168   0.556
 3265TIP3    H1 9738   0.288   2.232   0.494
 3265TIP3    H2 9739   0.282   2.191   0.640
 3266TIP3   OH2 9740   3.677   4.183   5.895
 3266TIP3    H1 9741   3.622   4.125   5.842
 3266TIP3    H2 9742   3.672   4.146   5.983
 3267TIP3   OH2 9743   3.520   0.117   0.151
 3267TIP3    H1 9744   3.435   0.072   0.149
 3267TIP3    H2 9745   3.580   0.057   0.107
 3268TIP3   OH2 9746   4.296   4.140   3.312
 3268TIP3    H1 9747   4.267   4.058   3.272
 3268TIP3    H2 9748   4.391   4.138   3.306
 3269TIP3   OH2 9749   6.326   0.879   3.170
 3269TIP3    H1 9750   6.255   0.918   3.220
 3269TIP3    H2 9751   6.391   0.853   3.235
 3270TIP3   OH2 9752   0.436   0.893   4.812
 3270TIP3    H1 9753   0.492   0.942   4.872
 3270TIP3    H2 9754   0.486   0.814   4.791
 3271TIP3   OH2 9755   5.631   4.356   1.495
 3271TIP3    H1 9756   5.596   4.306   1.422
 3271TIP3    H2 9757   5.587   4.319   1.572
 3272TIP3   OH2 9758   7.005   6.872   2.717
 3272TIP3    H1 9759   7.006   6.792   2.770
 3272TIP3    H2 9760   6.976   6.940   2.777
 3273TIP3   OH2 9761   5.334   4.518   4.497
 3273TIP3    H1 9762   5.286   4.437   4.510
 3273TIP3    H2 9763   5.426   4.491   4.491
 3274TIP3   OH2 9764   7.580   6.042   3.782
 3274TIP3    H1 9765   7.577   5.980   3.709
 3274TIP3    H2 9766   7.661   6.091   3.769
 3275TIP3   OH2 9767   3.677   5.475   0.334
 3275TIP3    H1 9768   3.705   5.477   0.425
 3275TIP3    H2 9769   3.631   5.392   0.324
 3276TIP3   OH2 9770   7.884   0.818   3.580
 3276TIP3    H1 9771   7.843   0.898   3.548
 3276TIP3    H2 9772   7.954   0.848   3.638
 3277TIP3   OH2 9773   1.421   3.298   3.380
 3277TIP3    H1 9774   1.334   3.263   3.397
 3277TIP3    H2 9775   1.462   3.235   3.321
 3278TIP3   OH2 9776   4.908   1.046   2.934
 3278TIP3    H1 9777   4.924   1.081   2.847
 3278TIP3    H2 9778   4.846   0.975   2.921
 3279TIP3   OH2 9779   7.872   0.773   3.144
 3279TIP3    H1 9780   7.819   0.816   3.211
 3279TIP3    H2 9781   7.845   0.681   3.147
 3280TIP3   OH2 9782   6.516   4.103   2.723
 3280TIP3    H1 9783   6.469   4.149   2.792
 3280TIP3    H2 9784   6.589   4.060   2.767
 3281TIP3   OH2 9785   4.202   5.933   6.548
 3281TIP3    H1 9786   4.228   5.842   6.544
 3281TIP3    H2 9787   4.113   5.934   6.513
 3282TIP3   OH2 9788   2.474   2.826   5.138
 3282TIP3    H1 9789   2.489   2.756   5.201
 3282TIP3    H2 9790   2.560   2.846   5.103
 3283TIP3   OH2 9791   3.530   0.088   4.277
 3283TIP3    H1 9792   3.451   0.106   4.225
 3283TIP3    H2 9793   3.505   0.109   4.367
 3284TIP3   OH2 9794   2.288   3.147   5.365
 3284TIP3    H1 9795   2.256   3.107   5.284
 3284TIP3    H2 9796   2.251   3.092   5.435
 3285TIP3   OH2 9797   1.719   6.500   6.470
 3285TIP3    H1 9798   1.724   6.404   6.479
 3285TIP3    H2 9799   1.625   6.519   6.474
 3286TIP3   OH2 9800   4.658   6.603   6.413
 3286TIP3    H1 9801   4.683   6.520   6.372
 3286TIP3    H2 9802   4.576   6.583   6.458
 3287TIP3   OH2 9803   1.908   2.215   3.891
 3287TIP3    H1 9804   1.983   2.155   3.887
 3287TIP3    H2 9805   1.867   2.196   3.975
 3288TIP3   OH2 9806   7.551   0.611   6.365
 3288TIP3    H1 9807   7.456   0.613   6.380
 3288TIP3    H2 9808   7.561   0.566   6.281
 3289TIP3   OH2 9809   5.193   0.446   6.503
 3289TIP3    H1 9810   5.210   0.358   6.469
 3289TIP3    H2 9811   5.098   0.454   6.502
 3290TIP3   OH2 9812   3.878   2.754   5.776
 3290TIP3    H1 9813   3.864   2.832   5.830
 3290TIP3    H2 9814   3.829   2.772   5.696
 3291TIP3   OH2 9815   7.764   2.078   3.529
 3291TIP3    H1 9816   7.790   2.144   3.593
 3291TIP3    H2 9817   7.793   1.995   3.567
 3292TIP3   OH2 9818   6.106   1.951   4.464
 3292TIP3    H1 9819   6.127   2.021   4.526
 3292TIP3    H2 9820   6.190   1.910   4.444
 3293TIP3   OH2 9821   5.245   5.294   0.262
 3293TIP3    H1 9822   5.311   5.289   0.332
 3293TIP3    H2 9823   5.292   5.266   0.183
 3294TIP3   OH2 9824   6.974   6.422   4.807
 3294TIP3    H1 9825   6.895   6.462   4.771
 3294TIP3    H2 9826   7.020   6.386   4.730
 3295TIP3   OH2 9827   2.652   5.692   3.295
 3295TIP3    H1 9828   2.635   5.598   3.299
 3295TIP3    H2 9829   2.737   5.699   3.251
 3296TIP3   OH2 9830   6.837   1.811   4.787
 3296TIP3    H1 9831   6.831   1.845   4.698
 3296TIP3    H2 9832   6.748   1.783   4.809
 3297TIP3   OH2 9833   6.117   3.104   3.941
 3297TIP3    H1 9834   6.094   3.026   3.891
 3297TIP3    H2 9835   6.130   3.172   3.875
 3298TIP3   OH2 9836   0.554   2.258   1.920
 3298TIP3    H1 9837   0.633   2.309   1.938
 3298TIP3    H2 9838   0.521   2.234   2.006
 3299TIP3   OH2 9839   5.174   3.052   3.499
 3299TIP3    H1 9840   5.235   3.086   3.564
 3299TIP3    H2 9841   5.115   3.125   3.481
 3300TIP3   OH2 9842   5.762   1.987   6.457
 3300TIP3    H1 9843   5.683   1.953   6.499
 3300TIP3    H2 9844   5.731   2.058   6.402
 3301TIP3   OH2 9845   4.375   0.766   3.821
 3301TIP3    H1 9846   4.293   0.815   3.824
 3301TIP3    H2 9847   4.436   0.823   3.774
 3302TIP3   OH2 9848   0.950   5.305   2.852
 3302TIP3    H1 9849   0.999   5.258   2.920
 3302TIP3    H2 9850   0.893   5.239   2.814
 3303TIP3   OH2 9851   2.276   3.963   0.034
 3303TIP3    H1 9852   2.249   4.033  -0.025
 3303TIP3    H2 9853   2.371   3.974   0.041
 3304TIP3   OH2 9854   6.418   6.778   1.594
 3304TIP3    H1 9855   6.427   6.772   1.499
 3304TIP3    H2 9856   6.352   6.712   1.616
 3305TIP3   OH2 9857   4.829   7.483   4.555
 3305TIP3    H1 9858   4.864   7.496   4.467
 3305TIP3    H2 9859   4.815   7.388   4.562
 3306TIP3   OH2 9860   7.818   2.683   4.800
 3306TIP3    H1 9861   7.751   2.745   4.830
 3306TIP3    H2 9862   7.814   2.687   4.705
 3307TIP3   OH2 9863   1.158   6.727   2.437
 3307TIP3    H1 9864   1.087   6.779   2.476
 3307TIP3    H2 9865   1.238   6.767   2.471
 3308TIP3   OH2 9866   7.706   0.306   3.536
 3308TIP3    H1 9867   7.766   0.380   3.549
 3308TIP3    H2 9868   7.763   0.231   3.517
 3309TIP3   OH2 9869   7.604   1.513   1.943
 3309TIP3    H1 9870   7.531   1.484   1.888
 3309TIP3    H2 9871   7.667   1.550   1.882
 3310TIP3   OH2 9872   7.464   2.213   5.043
 3310TIP3    H1 9873   7.473   2.128   5.000
 3310TIP3    H2 9874   7.377   2.210   5.083
 3311TIP3   OH2 9875   5.108   1.126   2.236
 3311TIP3    H1 9876   5.074   1.070   2.305
 3311TIP3    H2 9877   5.092   1.078   2.155
 3312TIP3   OH2 9878   5.966   4.194   4.759
 3312TIP3    H1 9879   5.904   4.122   4.750
 3312TIP3    H2 9880   5.916   4.272   4.735
 3313TIP3   OH2 9881   7.159   2.407   4.050
 3313TIP3    H1 9882   7.188   2.497   4.032
 3313TIP3    H2 9883   7.155   2.366   3.964
 3314TIP3   OH2 9884   2.970   2.915   2.770
 3314TIP3    H1 9885   2.998   2.976   2.838
 3314TIP3    H2 9886   2.969   2.830   2.813
 3315TIP3   OH2 9887   2.260   0.392   3.277
 3315TIP3    H1 9888   2.237   0.304   3.305
 3315TIP3    H2 9889   2.242   0.394   3.184
 3316TIP3   OH2 9890   7.782   7.613   3.099
 3316TIP3    H1 9891   7.792   7.661   3.018
 3316TIP3    H2 9892   7.811   7.673   3.167
 3317TIP3   OH2 9893   3.682   0.354   1.304
 3317TIP3    H1 9894   3.706   0.374   1.214
 3317TIP3    H2 9895   3.606   0.297   1.297
 3318TIP3   OH2 9896   4.333   3.340   2.119
 3318TIP3    H1 9897   4.385   3.260   2.128
 3318TIP3    H2 9898   4.307   3.362   2.208
 3319TIP3   OH2 9899   7.240   5.605   1.638
 3319TIP3    H1 9900   7.217   5.563   1.555
 3319TIP3    H2 9901   7.196   5.690   1.635
 3320TIP3   OH2 9902   7.021   2.817   0.106
 3320TIP3    H1 9903   6.990   2.771   0.028
 3320TIP3    H2 9904   7.099   2.864   0.076
 3321TIP3   OH2 9905   3.381   6.325   1.874
 3321TIP3    H1 9906   3.393   6.288   1.786
 3321TIP3    H2 9907   3.316   6.394   1.861
 3322TIP3   OH2 9908   1.889   1.545   0.568
 3322TIP3    H1 9909   1.795   1.528   0.580
 3322TIP3    H2 9910   1.909   1.617   0.627
 3323TIP3   OH2 9911   3.257   2.615   6.325
 3323TIP3    H1 9912   3.266   2.528   6.286
 3323TIP3    H2 9913   3.332   2.664   6.292
 3324TIP3   OH2 9914   5.650   7.768   1.758
 3324TIP3    H1 9915   5.722   7.710   1.785
 3324TIP3    H2 9916   5.573   7.732   1.802
 3325TIP3   OH2 9917   0.298   2.268   1.812
 3325TIP3    H1 9918   0.391   2.267   1.832
 3325TIP3    H2 9919   0.255   2.262   1.897
 3326TIP3   OH2 9920   1.668   7.104   6.340
 3326TIP3    H1 9921   1.585   7.146   6.316
 3326TIP3    H2 9922   1.678   7.033   6.277
 3327TIP3   OH2 9923   5.864   0.070   5.952
 3327TIP3    H1 9924   5.926   0.006   5.918
 3327TIP3    H2 9925   5.813   0.021   6.018
 3328TIP3   OH2 9926   2.675   0.939   6.184
 3328TIP3    H1 9927   2.624   1.018   6.168
 3328TIP3    H2 9928   2.678   0.894   6.099
 3329TIP3   OH2 9929   1.779   1.754   2.207
 3329TIP3    H1 9930   1.800   1.801   2.288
 3329TIP3    H2 9931   1.704   1.800   2.171
 3330TIP3   OH2 9932   4.969   3.658   2.538
 3330TIP3    H1 9933   4.945   3.649   2.630
 3330TIP3    H2 9934   5.049   3.710   2.539
 3331TIP3   OH2 9935   2.267   4.615   6.105
 3331TIP3    H1 9936   2.276   4.530   6.061
 3331TIP3    H2 9937   2.237   4.593   6.193
 3332TIP3   OH2 9938   5.249   6.750   4.037
 3332TIP3    H1 9939   5.185   6.761   3.967
 3332TIP3    H2 9940   5.334   6.765   3.995
 3333TIP3   OH2 9941   7.480   2.002   5.916
 3333TIP3    H1 9942   7.439   1.924   5.953
 3333TIP3    H2 9943   7.574   1.984   5.919
 3334TIP3   OH2 9944   7.712   2.229   4.404
 3334TIP3    H1 9945   7.732   2.268   4.319
 3334TIP3    H2 9946   7.789   2.176   4.425
 3335TIP3   OH2 9947   0.696   1.271   3.201
 3335TIP3    H1 9948   0.687   1.179   3.226
 3335TIP3    H2 9949   0.791   1.284   3.193
 3336TIP3   OH2 9950   6.774   6.491   1.862
 3336TIP3    H1 9951   6.711   6.497   1.791
 3336TIP3    H2 9952   6.820   6.575   1.861
 3337TIP3   OH2 9953   5.087   5.670   2.163
 3337TIP3    H1 9954   5.164   5.725   2.181
 3337TIP3    H2 9955   5.030   5.726   2.110
 3338TIP3   OH2 9956   2.517   7.070   3.030
 3338TIP3    H1 9957   2.511   7.087   2.936
 3338TIP3    H2 9958   2.572   6.992   3.037
 3339TIP3   OH2 9959   3.198   0.429   5.295
 3339TIP3    H1 9960   3.125   0.476   5.254
 3339TIP3    H2 9961   3.179   0.337   5.279
 3340TIP3   OH2 9962   0.175   5.902   5.105
 3340TIP3    H1 9963   0.175   5.991   5.070
 3340TIP3    H2 9964   0.136   5.912   5.193
 3341TIP3   OH2 9965   2.986   4.982   5.017
 3341TIP3    H1 9966   2.995   5.059   5.072
 3341TIP3    H2 9967   2.923   4.927   5.063
 3342TIP3   OH2 9968   6.344   2.133   5.200
 3342TIP3    H1 9969   6.290   2.147   5.278
 3342TIP3    H2 9970   6.434   2.143   5.231
 3343TIP3   OH2 9971   3.012   3.872   1.903
 3343TIP3    H1 9972   2.935   3.817   1.917
 3343TIP3    H2 9973   3.039   3.855   1.813
 3344TIP3   OH2 9974   2.771   3.790   6.605
 3344TIP3    H1 9975   2.756   3.722   6.540
 3344TIP3    H2 9976   2.822   3.857   6.559
 3345TIP3   OH2 9977   2.502   6.412   1.615
 3345TIP3    H1 9978   2.532   6.364   1.538
 3345TIP3    H2 9979   2.509   6.504   1.589
 3346TIP3   OH2 9980   4.927   6.353   0.938
 3346TIP3    H1 9981   4.996   6.288   0.951
 3346TIP3    H2 9982   4.974   6.433   0.914
 3347TIP3   OH2 9983   1.650   1.918   6.674
 3347TIP3    H1 9984   1.651   1.894   6.581
 3347TIP3    H2 9985   1.569   1.968   6.685
 3348TIP3   OH2 9986   7.648   4.064   6.036
 3348TIP3    H1 9987   7.722   4.004   6.031
 3348TIP3    H2 9988   7.686   4.151   6.029
 3349TIP3   OH2 9989   5.684   5.763   5.923
 3349TIP3    H1 9990   5.664   5.805   6.007
 3349TIP3    H2 9991   5.639   5.678   5.928
 3350TIP3   OH2 9992   2.275   7.204   4.576
 3350TIP3    H1 9993   2.259   7.178   4.667
 3350TIP3    H2 9994   2.315   7.127   4.537
 3351TIP3   OH2 9995   0.916   1.374   0.358
 3351TIP3    H1 9996   0.862   1.351   0.282
 3351TIP3    H2 9997   0.985   1.308   0.359
 3352TIP3   OH2 9998   2.777   6.522   4.588
 3352TIP3    H1 9999   2.726   6.602   4.603
 3352TIP3    H210000   2.858   6.553   4.545
 3353TIP3   OH210001   1.368   1.026   4.754
 3353TIP3    H110002   1.309   1.070   4.693
 3353TIP3    H210003   1.311   0.971   4.808
 3354TIP3   OH210004   1.048   4.170   1.770
 3354TIP3    H110005   1.065   4.079   1.794
 3354TIP3    H210006   1.063   4.173   1.675
 3355TIP3   OH210007   1.286   5.647   5.247
 3355TIP3    H110008   1.254   5.557   5.255
 3355TIP3    H210009   1.333   5.648   5.164
 3356TIP3   OH210010   6.824   5.886   2.197
 3356TIP3    H110011   6.772   5.812   2.228
 3356TIP3    H210012   6.790   5.961   2.245
 3357TIP3   OH210013   7.934   5.002   1.525
 3357TIP3    H110014   7.944   5.080   1.580
 3357TIP3    H210015   8.024   4.973   1.508
 3358TIP3   OH210016   7.784   3.271   3.363
 3358TIP3    H110017   7.808   3.346   3.309
 3358TIP3    H210018   7.804   3.194   3.310
 3359TIP3   OH210019   7.902   3.896   0.145
 3359TIP3    H110020   7.922   3.969   0.205
 3359TIP3    H210021   7.913   3.818   0.199
 3360TIP3   OH210022   4.742   1.468   5.878
 3360TIP3    H110023   4.795   1.539   5.844
 3360TIP3    H210024   4.803   1.395   5.889
 3361TIP3   OH210025   0.473   7.083   6.358
 3361TIP3    H110026   0.446   7.171   6.335
 3361TIP3    H210027   0.502   7.044   6.275
 3362TIP3   OH210028   5.063   2.829   6.022
 3362TIP3    H110029   5.057   2.913   5.976
 3362TIP3    H210030   5.154   2.801   6.010
 3363TIP3   OH210031   3.379   4.200   4.495
 3363TIP3    H110032   3.390   4.215   4.401
 3363TIP3    H210033   3.408   4.282   4.536
 3364TIP3   OH210034   3.124   0.879   2.011
 3364TIP3    H110035   3.135   0.932   1.932
 3364TIP3    H210036   3.035   0.843   2.003
 3365TIP3   OH210037   4.506   3.675   3.512
 3365TIP3    H110038   4.448   3.607   3.547
 3365TIP3    H210039   4.456   3.756   3.523
 3366TIP3   OH210040   6.411   6.201   5.885
 3366TIP3    H110041   6.375   6.116   5.912
 3366TIP3    H210042   6.472   6.225   5.954
 3367TIP3   OH210043   1.040   0.027   4.881
 3367TIP3    H110044   0.976  -0.032   4.842
 3367TIP3    H210045   1.042   0.103   4.822
 3368TIP3   OH210046   4.532   5.215   5.158
 3368TIP3    H110047   4.492   5.245   5.076
 3368TIP3    H210048   4.478   5.142   5.186
 3369TIP3   OH210049   5.745   5.577   1.025
 3369TIP3    H110050   5.772   5.642   1.090
 3369TIP3    H210051   5.740   5.495   1.073
 3370TIP3   OH210052   3.653   6.612   3.006
 3370TIP3    H110053   3.721   6.631   2.941
 3370TIP3    H210054   3.585   6.566   2.957
 3371TIP3   OH210055   5.203   4.843   2.012
 3371TIP3    H110056   5.227   4.935   2.000
 3371TIP3    H210057   5.258   4.795   1.949
 3372TIP3   OH210058   1.961   4.463   6.240
 3372TIP3    H110059   2.019   4.393   6.212
 3372TIP3    H210060   2.017   4.523   6.289
 3373TIP3   OH210061   7.733   0.067   6.065
 3373TIP3    H110062   7.645   0.102   6.084
 3373TIP3    H210063   7.739  -0.013   6.117
 3374TIP3   OH210064   4.168   3.000   5.441
 3374TIP3    H110065   4.242   2.997   5.501
 3374TIP3    H210066   4.093   2.970   5.493
 3375TIP3   OH210067   4.505   5.196   6.320
 3375TIP3    H110068   4.530   5.226   6.233
 3375TIP3    H210069   4.527   5.268   6.378
 3376TIP3   OH210070   6.356   6.675   0.184
 3376TIP3    H110071   6.413   6.751   0.190
 3376TIP3    H210072   6.319   6.664   0.271
 3377TIP3   OH210073   7.360   6.163   0.824
 3377TIP3    H110074   7.370   6.114   0.743
 3377TIP3    H210075   7.333   6.251   0.795
 3378TIP3   OH210076   0.215   0.577   1.280
 3378TIP3    H110077   0.296   0.617   1.312
 3378TIP3    H210078   0.222   0.485   1.305
 3379TIP3   OH210079   5.202   4.715   2.375
 3379TIP3    H110080   5.157   4.679   2.298
 3379TIP3    H210081   5.285   4.749   2.341
 3380TIP3   OH210082   0.622   4.243   0.619
 3380TIP3    H110083   0.626   4.300   0.697
 3380TIP3    H210084   0.534   4.205   0.621
 3381TIP3   OH210085   5.948   3.485   1.905
 3381TIP3    H110086   6.019   3.549   1.911
 3381TIP3    H210087   5.992   3.400   1.911
 3382TIP3   OH210088   3.839   4.971   0.610
 3382TIP3    H110089   3.778   5.028   0.656
 3382TIP3    H210090   3.784   4.906   0.567
 3383TIP3   OH210091   3.468   6.446   5.436
 3383TIP3    H110092   3.535   6.514   5.436
 3383TIP3    H210093   3.443   6.438   5.528
 3384TIP3   OH210094   0.937   0.365   0.841
 3384TIP3    H110095   0.999   0.369   0.767
 3384TIP3    H210096   0.938   0.273   0.868
 3385TIP3   OH210097   1.635   7.814   5.341
 3385TIP3    H110098   1.581   7.873   5.393
 3385TIP3    H210099   1.684   7.762   5.406
 3386TIP3   OH210100   3.455   0.424   3.472
 3386TIP3    H110101   3.390   0.477   3.425
 3386TIP3    H210102   3.533   0.480   3.475
 3387TIP3   OH210103   6.905   4.716   6.020
 3387TIP3    H110104   6.916   4.652   5.950
 3387TIP3    H210105   6.866   4.792   5.977
 3388TIP3   OH210106   1.407   2.006   1.244
 3388TIP3    H110107   1.408   1.930   1.186
 3388TIP3    H210108   1.355   2.071   1.196
 3389TIP3   OH210109   6.144   1.213   4.090
 3389TIP3    H110110   6.186   1.150   4.031
 3389TIP3    H210111   6.053   1.217   4.061
 3390TIP3   OH210112   0.946   2.177   4.433
 3390TIP3    H110113   0.920   2.258   4.389
 3390TIP3    H210114   1.006   2.134   4.372
 3391TIP3   OH210115   3.982   0.901   5.541
 3391TIP3    H110116   4.070   0.933   5.520
 3391TIP3    H210117   3.963   0.836   5.473
 3392TIP3   OH210118   0.838   0.096   0.670
 3392TIP3    H110119   0.807   0.034   0.736
 3392TIP3    H210120   0.759   0.125   0.625
 3393TIP3   OH210121   3.389   1.294   5.871
 3393TIP3    H110122   3.408   1.384   5.900
 3393TIP3    H210123   3.474   1.258   5.848
 3394TIP3   OH210124   7.308   0.641   3.291
 3394TIP3    H110125   7.364   0.654   3.215
 3394TIP3    H210126   7.223   0.678   3.265
 3395TIP3   OH210127   3.668   5.643   3.197
 3395TIP3    H110128   3.730   5.656   3.269
 3395TIP3    H210129   3.636   5.553   3.210
 3396TIP3   OH210130   5.242   7.171   2.185
 3396TIP3    H110131   5.226   7.121   2.265
 3396TIP3    H210132   5.299   7.243   2.213
 3397TIP3   OH210133   6.206   3.454   1.547
 3397TIP3    H110134   6.291   3.417   1.524
 3397TIP3    H210135   6.145   3.417   1.483
 3398TIP3   OH210136   3.924   5.664   3.307
 3398TIP3    H110137   3.893   5.632   3.392
 3398TIP3    H210138   3.984   5.736   3.329
 3399TIP3   OH210139   1.064   4.924   4.533
 3399TIP3    H110140   1.146   4.876   4.542
 3399TIP3    H210141   1.004   4.883   4.595
 3400TIP3   OH210142   1.959   7.465   0.069
 3400TIP3    H110143   2.042   7.475   0.115
 3400TIP3    H210144   1.973   7.508  -0.015
 3401TIP3   OH210145   4.375   4.911   4.801
 3401TIP3    H110146   4.413   4.850   4.864
 3401TIP3    H210147   4.450   4.960   4.767
 3402TIP3   OH210148   5.322   1.221   2.084
 3402TIP3    H110149   5.277   1.276   2.147
 3402TIP3    H210150   5.295   1.132   2.107
 3403TIP3   OH210151   0.092   1.606   4.135
 3403TIP3    H110152   0.128   1.656   4.062
 3403TIP3    H210153   0.004   1.580   4.106
 3404TIP3   OH210154   0.102   4.515   2.514
 3404TIP3    H110155   0.179   4.561   2.548
 3404TIP3    H210156   0.127   4.487   2.426
 3405TIP3   OH210157   5.112   6.101   5.046
 3405TIP3    H110158   5.101   6.097   5.141
 3405TIP3    H210159   5.037   6.052   5.011
 3406TIP3   OH210160   5.955   4.947   5.619
 3406TIP3    H110161   5.907   4.889   5.560
 3406TIP3    H210162   6.036   4.899   5.640
 3407TIP3   OH210163   4.022   5.397   6.007
 3407TIP3    H110164   3.989   5.484   6.024
 3407TIP3    H210165   4.012   5.350   6.090
 3408TIP3   OH210166   0.735   3.984   2.200
 3408TIP3    H110167   0.724   4.020   2.288
 3408TIP3    H210168   0.663   4.022   2.149
 3409TIP3   OH210169   4.360   0.195   1.049
 3409TIP3    H110170   4.346   0.290   1.050
 3409TIP3    H210171   4.322   0.166   0.966
 3410TIP3   OH210172   7.729   3.852   1.089
 3410TIP3    H110173   7.704   3.885   1.003
 3410TIP3    H210174   7.800   3.791   1.072
 3411TIP3   OH210175   6.611   2.557   6.332
 3411TIP3    H110176   6.697   2.557   6.290
 3411TIP3    H210177   6.556   2.503   6.275
 3412TIP3   OH210178   3.550   0.368   0.225
 3412TIP3    H110179   3.534   0.414   0.142
 3412TIP3    H210180   3.525   0.277   0.206
 3413TIP3   OH210181   0.443   7.800   1.997
 3413TIP3    H110182   0.489   7.716   1.997
 3413TIP3    H210183   0.430   7.820   2.090
 3414TIP3   OH210184   2.342   3.877   6.194
 3414TIP3    H110185   2.402   3.828   6.250
 3414TIP3    H210186   2.271   3.903   6.252
 3415TIP3   OH210187   4.897   6.423   0.576
 3415TIP3    H110188   4.845   6.386   0.505
 3415TIP3    H210189   4.833   6.446   0.644
 3416TIP3   OH210190   4.496   5.669   1.971
 3416TIP3    H110191   4.426   5.706   1.917
 3416TIP3    H210192   4.576   5.692   1.924
 3417TIP3   OH210193   2.999   1.640   4.819
 3417TIP3    H110194   2.932   1.626   4.886
 3417TIP3    H210195   2.963   1.601   4.740
 3418TIP3   OH210196   6.122   4.452   3.535
 3418TIP3    H110197   6.176   4.429   3.459
 3418TIP3    H210198   6.035   4.421   3.512
 3419TIP3   OH210199   5.628   2.519   6.478
 3419TIP3    H110200   5.680   2.444   6.506
 3419TIP3    H210201   5.685   2.569   6.420
 3420TIP3   OH210202   5.665   6.628   1.174
 3420TIP3    H110203   5.672   6.685   1.097
 3420TIP3    H210204   5.638   6.543   1.139
 3421TIP3   OH210205   3.808   6.023   5.650
 3421TIP3    H110206   3.893   5.980   5.646
 3421TIP3    H210207   3.757   5.983   5.580
 3422TIP3   OH210208   1.337   6.468   2.538
 3422TIP3    H110209   1.323   6.427   2.452
 3422TIP3    H210210   1.418   6.517   2.528
 3423TIP3   OH210211   6.383   7.428   2.608
 3423TIP3    H110212   6.292   7.453   2.594
 3423TIP3    H210213   6.382   7.378   2.690
 3424TIP3   OH210214   2.114   5.892   2.510
 3424TIP3    H110215   2.144   5.891   2.419
 3424TIP3    H210216   2.184   5.850   2.559
 3425TIP3   OH210217   2.251   2.277   2.186
 3425TIP3    H110218   2.328   2.224   2.164
 3425TIP3    H210219   2.268   2.309   2.274
 3426TIP3   OH210220   5.443   2.587   5.835
 3426TIP3    H110221   5.478   2.615   5.919
 3426TIP3    H210222   5.521   2.566   5.783
 3427TIP3   OH210223   0.531   0.770   2.893
 3427TIP3    H110224   0.622   0.741   2.895
 3427TIP3    H210225   0.489   0.714   2.827
 3428TIP3   OH210226   0.074   1.195   1.596
 3428TIP3    H110227   0.004   1.132   1.575
 3428TIP3    H210228   0.084   1.188   1.691
 3429TIP3   OH210229   8.090   3.669   2.495
 3429TIP3    H110230   8.099   3.711   2.581
 3429TIP3    H210231   8.035   3.728   2.445
 3430TIP3   OH210232   5.733   1.676   5.613
 3430TIP3    H110233   5.652   1.644   5.653
 3430TIP3    H210234   5.751   1.759   5.657
 3431TIP3   OH210235   4.146   1.596   6.785
 3431TIP3    H110236   4.229   1.604   6.737
 3431TIP3    H210237   4.089   1.547   6.726
 3432TIP3   OH210238   3.629   6.770   5.216
 3432TIP3    H110239   3.679   6.788   5.137
 3432TIP3    H210240   3.659   6.684   5.244
 3433TIP3   OH210241   7.508   4.986   4.885
 3433TIP3    H110242   7.534   5.037   4.962
 3433TIP3    H210243   7.585   4.932   4.866
 3434TIP3   OH210244   1.578   4.584   0.361
 3434TIP3    H110245   1.656   4.531   0.370
 3434TIP3    H210246   1.523   4.559   0.436
 3435TIP3   OH210247   1.736   3.269   3.453
 3435TIP3    H110248   1.766   3.191   3.407
 3435TIP3    H210249   1.816   3.309   3.486
 3436TIP3   OH210250   4.668   6.078   2.794
 3436TIP3    H110251   4.751   6.034   2.811
 3436TIP3    H210252   4.673   6.160   2.843
 3437TIP3   OH210253   8.135   0.117   2.249
 3437TIP3    H110254   8.133   0.142   2.157
 3437TIP3    H210255   8.045   0.125   2.278
 3438TIP3   OH210256   3.573   1.630   1.248
 3438TIP3    H110257   3.553   1.551   1.299
 3438TIP3    H210258   3.653   1.664   1.287
 3439TIP3   OH210259   0.076   6.949   4.707
 3439TIP3    H110260   0.082   6.854   4.694
 3439TIP3    H210261   0.119   6.965   4.791
 3440TIP3   OH210262   6.003   7.844   1.273
 3440TIP3    H110263   5.930   7.794   1.307
 3440TIP3    H210264   6.060   7.779   1.232
 3441TIP3   OH210265   6.375   6.538   3.673
 3441TIP3    H110266   6.390   6.609   3.611
 3441TIP3    H210267   6.284   6.550   3.702
 3442TIP3   OH210268   1.846   1.362   5.384
 3442TIP3    H110269   1.812   1.343   5.297
 3442TIP3    H210270   1.885   1.450   5.376
 3443TIP3   OH210271   0.857   5.474   2.410
 3443TIP3    H110272   0.775   5.503   2.451
 3443TIP3    H210273   0.843   5.381   2.392
 3444TIP3   OH210274   2.933   3.185   2.022
 3444TIP3    H110275   2.889   3.158   1.941
 3444TIP3    H210276   3.002   3.245   1.993
 3445TIP3   OH210277   2.632   0.554   2.466
 3445TIP3    H110278   2.614   0.612   2.392
 3445TIP3    H210279   2.680   0.609   2.528
 3446TIP3   OH210280   1.448   1.195   5.515
 3446TIP3    H110281   1.360   1.163   5.535
 3446TIP3    H210282   1.433   1.280   5.474
 3447TIP3   OH210283   3.305   6.451   2.151
 3447TIP3    H110284   3.337   6.416   2.068
 3447TIP3    H210285   3.345   6.396   2.218
 3448TIP3   OH210286   7.519   1.406   3.864
 3448TIP3    H110287   7.555   1.486   3.903
 3448TIP3    H210288   7.424   1.419   3.866
 3449TIP3   OH210289   7.073   0.030   5.526
 3449TIP3    H110290   7.073   0.126   5.518
 3449TIP3    H210291   7.107  -0.001   5.442
 3450TIP3   OH210292   3.652   1.492   3.179
 3450TIP3    H110293   3.693   1.407   3.166
 3450TIP3    H210294   3.706   1.535   3.245
 3451TIP3   OH210295   1.749   6.316   3.184
 3451TIP3    H110296   1.678   6.251   3.175
 3451TIP3    H210297   1.808   6.296   3.112
 3452TIP3   OH210298   3.693   2.510   3.756
 3452TIP3    H110299   3.629   2.563   3.804
 3452TIP3    H210300   3.721   2.444   3.818
 3453TIP3   OH210301   8.257   2.899   5.858
 3453TIP3    H110302   8.257   2.805   5.841
 3453TIP3    H210303   8.338   2.931   5.819
 3454TIP3   OH210304   2.211   5.201   2.986
 3454TIP3    H110305   2.238   5.288   2.958
 3454TIP3    H210306   2.148   5.217   3.057
 3455TIP3   OH210307   7.117   6.793   0.460
 3455TIP3    H110308   7.136   6.780   0.368
 3455TIP3    H210309   7.037   6.845   0.461
 3456TIP3   OH210310   5.571   6.100   0.035
 3456TIP3    H110311   5.538   6.020   0.077
 3456TIP3    H210312   5.666   6.091   0.038
 3457TIP3   OH210313   5.703   0.536   0.946
 3457TIP3    H110314   5.779   0.554   0.892
 3457TIP3    H210315   5.712   0.594   1.022
 3458TIP3   OH210316   5.872   3.768   0.147
 3458TIP3    H110317   5.836   3.713   0.078
 3458TIP3    H210318   5.966   3.750   0.146
 3459TIP3   OH210319   6.739   0.731   4.828
 3459TIP3    H110320   6.802   0.730   4.756
 3459TIP3    H210321   6.742   0.642   4.864
 3460TIP3   OH210322   0.579   5.499   5.601
 3460TIP3    H110323   0.656   5.537   5.642
 3460TIP3    H210324   0.506   5.550   5.634
 3461TIP3   OH210325   4.236   3.574   2.918
 3461TIP3    H110326   4.291   3.496   2.914
 3461TIP3    H210327   4.237   3.609   2.829
 3462TIP3   OH210328   1.701   2.825   5.479
 3462TIP3    H110329   1.668   2.780   5.557
 3462TIP3    H210330   1.746   2.757   5.429
 3463TIP3   OH210331   2.990   0.051   2.592
 3463TIP3    H110332   2.930   0.120   2.618
 3463TIP3    H210333   2.962  -0.026   2.641
 3464TIP3   OH210334   6.721   0.325   0.250
 3464TIP3    H110335   6.810   0.337   0.217
 3464TIP3    H210336   6.675   0.278   0.180
 3465TIP3   OH210337   2.740   0.715   3.393
 3465TIP3    H110338   2.789   0.640   3.426
 3465TIP3    H210339   2.655   0.710   3.436
 3466TIP3   OH210340   6.154   1.226   1.077
 3466TIP3    H110341   6.206   1.279   1.137
 3466TIP3    H210342   6.085   1.188   1.132
 3467TIP3   OH210343   8.056   2.410   5.472
 3467TIP3    H110344   8.001   2.483   5.440
 3467TIP3    H210345   8.053   2.418   5.567
 3468TIP3   OH210346   7.034   3.904   1.120
 3468TIP3    H110347   7.094   3.897   1.194
 3468TIP3    H210348   6.983   3.823   1.123
 3469TIP3   OH210349   6.200   2.416   4.958
 3469TIP3    H110350   6.232   2.327   4.972
 3469TIP3    H210351   6.223   2.436   4.868
 3470TIP3   OH210352   7.903   0.267   4.693
 3470TIP3    H110353   7.862   0.187   4.660
 3470TIP3    H210354   7.997   0.251   4.687
 3471TIP3   OH210355   5.274   6.179   2.793
 3471TIP3    H110356   5.234   6.165   2.708
 3471TIP3    H210357   5.261   6.273   2.810
 3472TIP3   OH210358   4.429   7.524   4.960
 3472TIP3    H110359   4.426   7.579   5.038
 3472TIP3    H210360   4.424   7.435   4.994
 3473TIP3   OH210361   0.867   1.197   2.227
 3473TIP3    H110362   0.880   1.287   2.258
 3473TIP3    H210363   0.955   1.161   2.220
 3474TIP3   OH210364   2.849   1.075   2.287
 3474TIP3    H110365   2.838   1.101   2.378
 3474TIP3    H210366   2.921   1.012   2.288
 3475TIP3   OH210367   5.758   6.810   4.278
 3475TIP3    H110368   5.751   6.815   4.373
 3475TIP3    H210369   5.841   6.853   4.257
 3476TIP3   OH210370   1.751   3.459   4.316
 3476TIP3    H110371   1.717   3.534   4.267
 3476TIP3    H210372   1.845   3.477   4.324
 3477TIP3   OH210373   5.643   0.049   5.187
 3477TIP3    H110374   5.609   0.026   5.273
 3477TIP3    H210375   5.584   0.006   5.125
 3478TIP3   OH210376   2.762   3.967   2.346
 3478TIP3    H110377   2.786   4.025   2.273
 3478TIP3    H210378   2.801   4.009   2.423
 3479TIP3   OH210379   4.575   4.495   5.472
 3479TIP3    H110380   4.595   4.588   5.487
 3479TIP3    H210381   4.548   4.462   5.558
 3480TIP3   OH210382   8.215   3.090   3.500
 3480TIP3    H110383   8.302   3.102   3.540
 3480TIP3    H210384   8.219   3.002   3.463
 3481TIP3   OH210385   7.402   7.231   3.995
 3481TIP3    H110386   7.404   7.257   4.088
 3481TIP3    H210387   7.325   7.275   3.960
 3482TIP3   OH210388   3.248   6.913   3.281
 3482TIP3    H110389   3.288   6.886   3.198
 3482TIP3    H210390   3.286   6.855   3.347
 3483TIP3   OH210391   5.858   4.374   3.630
 3483TIP3    H110392   5.780   4.428   3.614
 3483TIP3    H210393   5.826   4.302   3.685
 3484TIP3   OH210394   5.734   7.734   1.347
 3484TIP3    H110395   5.689   7.706   1.426
 3484TIP3    H210396   5.752   7.653   1.299
 3485TIP3   OH210397   4.039   1.656   6.104
 3485TIP3    H110398   4.096   1.610   6.042
 3485TIP3    H210399   4.075   1.744   6.109
 3486TIP3   OH210400   1.955   6.011   6.056
 3486TIP3    H110401   2.033   6.048   6.097
 3486TIP3    H210402   1.893   6.084   6.054
 3487TIP3   OH210403   0.149   3.260   2.730
 3487TIP3    H110404   0.212   3.305   2.787
 3487TIP3    H210405   0.101   3.203   2.790
 3488TIP3   OH210406   5.915   4.884   4.684
 3488TIP3    H110407   5.853   4.932   4.628
 3488TIP3    H210408   5.874   4.882   4.770
 3489TIP3   OH210409   4.334   0.195   5.966
 3489TIP3    H110410   4.410   0.157   5.921
 3489TIP3    H210411   4.342   0.289   5.952
 3490TIP3   OH210412   4.662   6.192   1.113
 3490TIP3    H110413   4.612   6.273   1.111
 3490TIP3    H210414   4.754   6.220   1.107
 3491TIP3   OH210415   4.261   4.761   2.233
 3491TIP3    H110416   4.218   4.683   2.199
 3491TIP3    H210417   4.275   4.742   2.326
 3492TIP3   OH210418   5.127   2.178   4.754
 3492TIP3    H110419   5.115   2.161   4.661
 3492TIP3    H210420   5.207   2.131   4.778
 3493TIP3   OH210421   3.797   6.682   2.130
 3493TIP3    H110422   3.791   6.775   2.108
 3493TIP3    H210423   3.733   6.639   2.073
 3494TIP3   OH210424   7.833   6.566   6.742
 3494TIP3    H110425   7.916   6.579   6.789
 3494TIP3    H210426   7.859   6.546   6.653
 3495TIP3   OH210427   4.789   7.557   2.731
 3495TIP3    H110428   4.732   7.517   2.796
 3495TIP3    H210429   4.821   7.637   2.773
 3496TIP3   OH210430   2.090   4.719   5.874
 3496TIP3    H110431   2.150   4.791   5.857
 3496TIP3    H210432   2.146   4.641   5.870
 3497TIP3   OH210433   2.711   0.491   3.587
 3497TIP3    H110434   2.790   0.449   3.621
 3497TIP3    H210435   2.646   0.421   3.584
 3498TIP3   OH210436   6.050   1.983   6.461
 3498TIP3    H110437   5.973   1.971   6.405
 3498TIP3    H210438   6.021   2.043   6.529
 3499TIP3   OH210439   2.571   6.260   3.397
 3499TIP3    H110440   2.554   6.187   3.338
 3499TIP3    H210441   2.580   6.219   3.483
 3500TIP3   OH210442   0.298   3.469   6.547
 3500TIP3    H110443   0.360   3.543   6.548
 3500TIP3    H210444   0.344   3.400   6.595
 3501TIP3   OH210445   4.835   6.593   5.868
 3501TIP3    H110446   4.884   6.571   5.788
 3501TIP3    H210447   4.782   6.515   5.885
 3502TIP3   OH210448   7.002   0.611   1.961
 3502TIP3    H110449   6.945   0.634   2.034
 3502TIP3    H210450   7.035   0.524   1.982
 3503TIP3   OH210451   0.599   3.007   5.145
 3503TIP3    H110452   0.505   3.025   5.143
 3503TIP3    H210453   0.632   3.042   5.062
 3504TIP3   OH210454   8.050   7.382   1.501
 3504TIP3    H110455   8.044   7.302   1.553
 3504TIP3    H210456   8.086   7.447   1.561
 3505TIP3   OH210457   7.975   4.657   2.342
 3505TIP3    H110458   8.031   4.620   2.410
 3505TIP3    H210459   8.036   4.687   2.274
 3506TIP3   OH210460   7.625   6.238   0.920
 3506TIP3    H110461   7.546   6.286   0.895
 3506TIP3    H210462   7.595   6.175   0.985
 3507TIP3   OH210463   3.025   7.662   1.867
 3507TIP3    H110464   3.020   7.688   1.775
 3507TIP3    H210465   2.996   7.739   1.915
 3508TIP3   OH210466   3.958   2.987   5.608
 3508TIP3    H110467   3.962   2.966   5.701
 3508TIP3    H210468   3.865   2.995   5.589
 3509TIP3   OH210469   1.220   6.857   6.251
 3509TIP3    H110470   1.136   6.868   6.295
 3509TIP3    H210471   1.258   6.779   6.291
 3510TIP3   OH210472   1.232   1.859   3.742
 3510TIP3    H110473   1.318   1.880   3.777
 3510TIP3    H210474   1.249   1.830   3.652
 3511TIP3   OH210475   2.124   0.488   2.369
 3511TIP3    H110476   2.106   0.399   2.402
 3511TIP3    H210477   2.075   0.545   2.428
 3512TIP3   OH210478   3.447   6.043   5.535
 3512TIP3    H110479   3.487   6.055   5.621
 3512TIP3    H210480   3.410   5.955   5.538
 3513TIP3   OH210481   8.084   2.546   4.075
 3513TIP3    H110482   8.118   2.584   4.157
 3513TIP3    H210483   8.139   2.469   4.061
 3514TIP3   OH210484   3.628   0.629   3.453
 3514TIP3    H110485   3.635   0.723   3.434
 3514TIP3    H210486   3.692   0.614   3.522
 3515TIP3   OH210487   6.877   3.574   0.258
 3515TIP3    H110488   6.939   3.578   0.332
 3515TIP3    H210489   6.878   3.663   0.222
 3516TIP3   OH210490   5.399   4.678   5.844
 3516TIP3    H110491   5.434   4.683   5.933
 3516TIP3    H210492   5.454   4.614   5.800
 3517TIP3   OH210493   6.468   6.099   2.612
 3517TIP3    H110494   6.417   6.025   2.645
 3517TIP3    H210495   6.536   6.059   2.557
 3518TIP3   OH210496   6.716   6.453   4.664
 3518TIP3    H110497   6.662   6.451   4.743
 3518TIP3    H210498   6.657   6.488   4.596
 3519TIP3   OH210499   5.041   3.969   6.045
 3519TIP3    H110500   5.041   4.064   6.054
 3519TIP3    H210501   5.066   3.937   6.132
 3520TIP3   OH210502   7.996   4.693   0.884
 3520TIP3    H110503   8.015   4.647   0.802
 3520TIP3    H210504   7.960   4.626   0.942
 3521TIP3   OH210505   1.287   1.506   2.816
 3521TIP3    H110506   1.212   1.547   2.773
 3521TIP3    H210507   1.255   1.420   2.844
 3522TIP3   OH210508   5.275   2.711   0.951
 3522TIP3    H110509   5.326   2.635   0.976
 3522TIP3    H210510   5.209   2.721   1.020
 3523TIP3   OH210511   2.053   2.766   3.591
 3523TIP3    H110512   2.115   2.746   3.521
 3523TIP3    H210513   2.097   2.738   3.671
 3524TIP3   OH210514   6.416   0.734   4.016
 3524TIP3    H110515   6.389   0.728   3.925
 3524TIP3    H210516   6.463   0.652   4.033
 3525TIP3   OH210517   5.960   7.567   6.205
 3525TIP3    H110518   5.873   7.590   6.174
 3525TIP3    H210519   5.996   7.510   6.137
 3526TIP3   OH210520   0.172   1.623   2.543
 3526TIP3    H110521   0.200   1.533   2.563
 3526TIP3    H210522   0.185   1.630   2.448
 3527TIP3   OH210523   0.468   6.684   2.648
 3527TIP3    H110524   0.485   6.770   2.688
 3527TIP3    H210525   0.483   6.697   2.555
 3528TIP3   OH210526  -0.002   5.613   4.062
 3528TIP3    H110527  -0.064   5.621   3.990
 3528TIP3    H210528   0.079   5.583   4.021
 3529TIP3   OH210529   1.489   1.953   5.551
 3529TIP3    H110530   1.551   1.991   5.489
 3529TIP3    H210531   1.404   1.963   5.508
 3530TIP3   OH210532   4.619   1.527   1.522
 3530TIP3    H110533   4.567   1.518   1.442
 3530TIP3    H210534   4.598   1.449   1.573
 3531TIP3   OH210535   1.860   7.044   4.327
 3531TIP3    H110536   1.943   7.038   4.279
 3531TIP3    H210537   1.797   7.073   4.261
 3532TIP3   OH210538   5.031   6.385   5.250
 3532TIP3    H110539   4.974   6.394   5.173
 3532TIP3    H210540   5.039   6.290   5.263
 3533TIP3   OH210541   2.889   4.435   2.540
 3533TIP3    H110542   2.869   4.499   2.471
 3533TIP3    H210543   2.909   4.489   2.617
 3534TIP3   OH210544   2.354   7.053   1.074
 3534TIP3    H110545   2.350   6.979   1.135
 3534TIP3    H210546   2.325   7.128   1.126
 3535TIP3   OH210547   7.918   4.802   3.300
 3535TIP3    H110548   7.849   4.862   3.327
 3535TIP3    H210549   7.913   4.730   3.363
 3536TIP3   OH210550   3.932   0.518   1.388
 3536TIP3    H110551   3.897   0.459   1.454
 3536TIP3    H210552   4.021   0.485   1.371
 3537TIP3   OH210553   6.705   6.154   6.604
 3537TIP3    H110554   6.642   6.095   6.647
 3537TIP3    H210555   6.724   6.111   6.521
 3538TIP3   OH210556   3.037   5.716   5.307
 3538TIP3    H110557   2.968   5.749   5.364
 3538TIP3    H210558   3.001   5.726   5.218
 3539TIP3   OH210559   2.930   4.735   6.800
 3539TIP3    H110560   3.007   4.691   6.766
 3539TIP3    H210561   2.895   4.783   6.724
 3540TIP3   OH210562   6.389   4.002   4.193
 3540TIP3    H110563   6.453   4.073   4.203
 3540TIP3    H210564   6.442   3.925   4.174
 3541TIP3   OH210565   0.756   5.643   5.352
 3541TIP3    H110566   0.738   5.554   5.321
 3541TIP3    H210567   0.824   5.631   5.419
 3542TIP3   OH210568   5.121   2.328   1.908
 3542TIP3    H110569   5.060   2.293   1.842
 3542TIP3    H210570   5.190   2.370   1.856
 3543TIP3   OH210571   5.249   7.464   5.137
 3543TIP3    H110572   5.266   7.555   5.111
 3543TIP3    H210573   5.154   7.458   5.143
 3544TIP3   OH210574   0.951   7.177   5.377
 3544TIP3    H110575   0.867   7.184   5.332
 3544TIP3    H210576   0.999   7.111   5.328
 3545TIP3   OH210577   4.378   0.352   4.114
 3545TIP3    H110578   4.379   0.446   4.096
 3545TIP3    H210579   4.466   0.322   4.093
 3546TIP3   OH210580   2.849   1.772   1.784
 3546TIP3    H110581   2.932   1.802   1.821
 3546TIP3    H210582   2.867   1.761   1.691
 3547TIP3   OH210583   2.667   5.066   6.572
 3547TIP3    H110584   2.572   5.076   6.585
 3547TIP3    H210585   2.680   5.093   6.481
 3548TIP3   OH210586   2.917   7.059   2.298
 3548TIP3    H110587   2.860   6.988   2.328
 3548TIP3    H210588   2.901   7.130   2.361
 3549TIP3   OH210589   1.514   4.968   1.055
 3549TIP3    H110590   1.525   4.968   0.960
 3549TIP3    H210591   1.569   4.896   1.086
 3550TIP3   OH210592   2.436   2.775   5.792
 3550TIP3    H110593   2.513   2.795   5.738
 3550TIP3    H210594   2.437   2.843   5.860
 3551TIP3   OH210595   1.282   4.457   4.687
 3551TIP3    H110596   1.206   4.434   4.635
 3551TIP3    H210597   1.246   4.497   4.766
 3552TIP3   OH210598   1.702   6.074   0.698
 3552TIP3    H110599   1.616   6.099   0.731
 3552TIP3    H210600   1.759   6.147   0.722
 3553TIP3   OH210601   0.159   1.131   3.551
 3553TIP3    H110602   0.073   1.128   3.594
 3553TIP3    H210603   0.176   1.224   3.536
 3554TIP3   OH210604   2.327   4.404   6.631
 3554TIP3    H110605   2.270   4.345   6.581
 3554TIP3    H210606   2.266   4.463   6.676
 3555TIP3   OH210607   5.754   2.291   6.569
 3555TIP3    H110608   5.793   2.246   6.494
 3555TIP3    H210609   5.780   2.239   6.645
 3556TIP3   OH210610   0.454   5.314   5.177
 3556TIP3    H110611   0.501   5.261   5.242
 3556TIP3    H210612   0.519   5.329   5.108
 3557TIP3   OH210613   4.801   5.482   0.050
 3557TIP3    H110614   4.766   5.438  -0.027
 3557TIP3    H210615   4.740   5.460   0.120
 3558TIP3   OH210616   3.110   7.140   5.835
 3558TIP3    H110617   3.192   7.100   5.865
 3558TIP3    H210618   3.137   7.204   5.770
 3559TIP3   OH210619   0.624   5.654   2.840
 3559TIP3    H110620   0.667   5.588   2.895
 3559TIP3    H210621   0.583   5.714   2.903
 3560TIP3   OH210622   5.612   5.833   2.939
 3560TIP3    H110623   5.706   5.851   2.931
 3560TIP3    H210624   5.571   5.886   2.871
 3561TIP3   OH210625   0.037   7.656   5.562
 3561TIP3    H110626   0.024   7.748   5.536
 3561TIP3    H210627   0.021   7.606   5.482
 3562TIP3   OH210628   7.036   4.538   0.165
 3562TIP3    H110629   7.027   4.622   0.211
 3562TIP3    H210630   6.956   4.490   0.186
 3563TIP3   OH210631   0.412   2.702   5.587
 3563TIP3    H110632   0.320   2.675   5.588
 3563TIP3    H210633   0.461   2.621   5.582
 3564TIP3   OH210634   4.867   5.889   5.810
 3564TIP3    H110635   4.779   5.872   5.778
 3564TIP3    H210636   4.866   5.859   5.901
 3565TIP3   OH210637   5.017   1.830   2.406
 3565TIP3    H110638   5.025   1.926   2.405
 3565TIP3    H210639   4.926   1.814   2.432
 3566TIP3   OH210640   2.612   6.656   0.006
 3566TIP3    H110641   2.629   6.625   0.096
 3566TIP3    H210642   2.664   6.597  -0.049
 3567TIP3   OH210643   3.637   6.335   1.575
 3567TIP3    H110644   3.711   6.300   1.625
 3567TIP3    H210645   3.651   6.305   1.486
 3568TIP3   OH210646   3.944   3.124   4.056
 3568TIP3    H110647   4.005   3.195   4.076
 3568TIP3    H210648   3.901   3.151   3.974
 3569TIP3   OH210649   5.281   5.894   4.288
 3569TIP3    H110650   5.337   5.916   4.362
 3569TIP3    H210651   5.199   5.865   4.328
 3570TIP3   OH210652   5.351   3.345   0.612
 3570TIP3    H110653   5.343   3.252   0.635
 3570TIP3    H210654   5.441   3.368   0.636
 3571TIP3   OH210655   3.187   0.507   5.761
 3571TIP3    H110656   3.212   0.537   5.674
 3571TIP3    H210657   3.270   0.499   5.808
 3572TIP3   OH210658   5.686   5.300   3.170
 3572TIP3    H110659   5.663   5.233   3.105
 3572TIP3    H210660   5.606   5.311   3.221
 3573TIP3   OH210661   2.640   0.462   5.506
 3573TIP3    H110662   2.694   0.513   5.446
 3573TIP3    H210663   2.702   0.432   5.573
 3574TIP3   OH210664   5.680   6.152   0.780
 3574TIP3    H110665   5.594   6.124   0.811
 3574TIP3    H210666   5.690   6.111   0.694
 3575TIP3   OH210667   6.472   2.648   6.046
 3575TIP3    H110668   6.476   2.559   6.083
 3575TIP3    H210669   6.444   2.703   6.119
 3576TIP3   OH210670   0.617   2.769   0.956
 3576TIP3    H110671   0.649   2.814   1.034
 3576TIP3    H210672   0.655   2.681   0.961
 3577TIP3   OH210673   1.593   7.538   3.041
 3577TIP3    H110674   1.574   7.444   3.043
 3577TIP3    H210675   1.679   7.546   3.082
 3578TIP3   OH210676   1.202   7.157   2.616
 3578TIP3    H110677   1.257   7.233   2.597
 3578TIP3    H210678   1.171   7.126   2.531
 3579TIP3   OH210679   1.743   3.873   5.672
 3579TIP3    H110680   1.789   3.957   5.681
 3579TIP3    H210681   1.810   3.812   5.643
 3580TIP3   OH210682   5.430   2.524   1.071
 3580TIP3    H110683   5.424   2.572   1.154
 3580TIP3    H210684   5.524   2.521   1.052
 3581TIP3   OH210685   7.197   2.101   2.066
 3581TIP3    H110686   7.126   2.101   2.130
 3581TIP3    H210687   7.191   2.187   2.024
 3582TIP3   OH210688   6.205   0.384   1.202
 3582TIP3    H110689   6.181   0.474   1.226
 3582TIP3    H210690   6.151   0.329   1.259
 3583TIP3   OH210691   8.163   5.238   2.694
 3583TIP3    H110692   8.188   5.150   2.723
 3583TIP3    H210693   8.195   5.296   2.763
 3584TIP3   OH210694   2.124   6.308   3.642
 3584TIP3    H110695   2.190   6.369   3.675
 3584TIP3    H210696   2.045   6.361   3.632
 3585TIP3   OH210697   2.793   0.986   5.092
 3585TIP3    H110698   2.770   0.894   5.103
 3585TIP3    H210699   2.863   1.001   5.155
 3586TIP3   OH210700   5.208   3.009   5.604
 3586TIP3    H110701   5.114   3.017   5.615
 3586TIP3    H210702   5.244   3.026   5.691
 3587TIP3   OH210703   0.524   0.966   0.380
 3587TIP3    H110704   0.547   0.893   0.322
 3587TIP3    H210705   0.604   0.982   0.430
 3588TIP3   OH210706   5.373   4.356   3.809
 3588TIP3    H110707   5.426   4.324   3.737
 3588TIP3    H210708   5.430   4.417   3.856
 3589TIP3   OH210709   0.623   0.955   4.183
 3589TIP3    H110710   0.573   0.909   4.250
 3589TIP3    H210711   0.637   1.042   4.219
 3590TIP3   OH210712   5.176   7.327   0.322
 3590TIP3    H110713   5.153   7.416   0.294
 3590TIP3    H210714   5.152   7.272   0.247
 3591TIP3   OH210715   6.481   2.390   6.160
 3591TIP3    H110716   6.425   2.361   6.088
 3591TIP3    H210717   6.527   2.311   6.188
 3592TIP3   OH210718   3.506   7.752   1.186
 3592TIP3    H110719   3.536   7.779   1.272
 3592TIP3    H210720   3.537   7.820   1.127
 3593TIP3   OH210721   5.967   5.232   0.333
 3593TIP3    H110722   6.052   5.220   0.291
 3593TIP3    H210723   5.987   5.235   0.427
 3594TIP3   OH210724   4.435   6.077   6.738
 3594TIP3    H110725   4.340   6.068   6.741
 3594TIP3    H210726   4.454   6.156   6.789
 3595TIP3   OH210727   1.738   6.616   5.659
 3595TIP3    H110728   1.648   6.620   5.691
 3595TIP3    H210729   1.729   6.591   5.567
 3596TIP3   OH210730   8.000   7.515   0.266
 3596TIP3    H110731   8.018   7.453   0.337
 3596TIP3    H210732   8.081   7.517   0.215
 3597TIP3   OH210733   2.810   7.497   5.003
 3597TIP3    H110734   2.883   7.482   4.944
 3597TIP3    H210735   2.826   7.439   5.077
 3598TIP3   OH210736   0.224   5.459   5.764
 3598TIP3    H110737   0.291   5.527   5.771
 3598TIP3    H210738   0.242   5.416   5.681
 3599TIP3   OH210739   6.070   4.555   3.095
 3599TIP3    H110740   6.004   4.593   3.152
 3599TIP3    H210741   6.021   4.494   3.039
 3600TIP3   OH210742   2.041   4.688   0.606
 3600TIP3    H110743   2.025   4.603   0.646
 3600TIP3    H210744   2.048   4.670   0.512
 3601TIP3   OH210745   0.885   1.887   1.211
 3601TIP3    H110746   0.895   1.909   1.118
 3601TIP3    H210747   0.800   1.844   1.217
 3602TIP3   OH210748   5.798   3.773   4.189
 3602TIP3    H110749   5.772   3.855   4.230
 3602TIP3    H210750   5.880   3.794   4.143
 3603TIP3   OH210751   0.036   1.951   3.491
 3603TIP3    H110752   0.123   1.962   3.452
 3603TIP3    H210753  -0.020   1.928   3.417
 3604TIP3   OH210754   1.229   5.218   0.387
 3604TIP3    H110755   1.308   5.175   0.354
 3604TIP3    H210756   1.257   5.307   0.406
 3605TIP3   OH210757   7.917   3.178   0.180
 3605TIP3    H110758   7.941   3.100   0.229
 3605TIP3    H210759   7.967   3.171   0.098
 3606TIP3   OH210760   1.826   2.117   0.722
 3606TIP3    H110761   1.809   2.052   0.653
 3606TIP3    H210762   1.756   2.182   0.710
 3607TIP3   OH210763   3.994   5.551   0.856
 3607TIP3    H110764   4.036   5.482   0.805
 3607TIP3    H210765   3.939   5.598   0.794
 3608TIP3   OH210766   6.544   6.968   5.295
 3608TIP3    H110767   6.534   7.043   5.236
 3608TIP3    H210768   6.455   6.935   5.308
 3609TIP3   OH210769   6.635   1.643   4.715
 3609TIP3    H110770   6.555   1.678   4.756
 3609TIP3    H210771   6.621   1.548   4.713
 3610TIP3   OH210772   4.128   4.437   4.322
 3610TIP3    H110773   4.033   4.429   4.310
 3610TIP3    H210774   4.143   4.531   4.333
 3611TIP3   OH210775   8.297   4.293   0.937
 3611TIP3    H110776   8.209   4.296   0.901
 3611TIP3    H210777   8.317   4.384   0.959
 3612TIP3   OH210778   2.146   2.970   6.271
 3612TIP3    H110779   2.076   2.999   6.212
 3612TIP3    H210780   2.114   2.992   6.359
 3613TIP3   OH210781   7.684   3.303   3.613
 3613TIP3    H110782   7.762   3.282   3.666
 3613TIP3    H210783   7.717   3.309   3.524
 3614TIP3   OH210784   7.117   4.383   5.745
 3614TIP3    H110785   7.178   4.310   5.758
 3614TIP3    H210786   7.172   4.461   5.746
 3615TIP3   OH210787   6.082   2.103   5.910
 3615TIP3    H110788   6.085   2.042   5.836
 3615TIP3    H210789   6.118   2.053   5.984
 3616TIP3   OH210790   2.715   7.517   4.713
 3616TIP3    H110791   2.709   7.466   4.794
 3616TIP3    H210792   2.660   7.593   4.728
 3617TIP3   OH210793   5.115   1.764   3.374
 3617TIP3    H110794   5.035   1.765   3.425
 3617TIP3    H210795   5.141   1.672   3.369
 3618TIP3   OH210796   6.860   1.609   5.489
 3618TIP3    H110797   6.834   1.658   5.411
 3618TIP3    H210798   6.876   1.520   5.457
 3619TIP3   OH210799   3.696   6.247   0.959
 3619TIP3    H110800   3.649   6.233   0.876
 3619TIP3    H210801   3.635   6.299   1.012
 3620TIP3   OH210802   8.148   6.891   2.539
 3620TIP3    H110803   8.215   6.842   2.587
 3620TIP3    H210804   8.148   6.978   2.579
 3621TIP3   OH210805   4.493   2.421   5.192
 3621TIP3    H110806   4.434   2.353   5.158
 3621TIP3    H210807   4.552   2.375   5.250
 3622TIP3   OH210808   0.924   4.938   1.865
 3622TIP3    H110809   0.873   4.988   1.801
 3622TIP3    H210810   0.860   4.885   1.912
 3623TIP3   OH210811   1.993   4.147   3.706
 3623TIP3    H110812   2.042   4.183   3.780
 3623TIP3    H210813   2.044   4.172   3.629
 3624TIP3   OH210814   6.011   0.320   5.916
 3624TIP3    H110815   5.957   0.382   5.869
 3624TIP3    H210816   5.953   0.245   5.932
 3625TIP3   OH210817   5.533   6.734   4.462
 3625TIP3    H110818   5.512   6.695   4.377
 3625TIP3    H210819   5.518   6.827   4.451
 3626TIP3   OH210820   4.118   3.579   2.093
 3626TIP3    H110821   4.086   3.669   2.099
 3626TIP3    H210822   4.053   3.535   2.039
 3627TIP3   OH210823   6.519   2.814   1.752
 3627TIP3    H110824   6.547   2.805   1.843
 3627TIP3    H210825   6.484   2.727   1.730
 3628TIP3   OH210826   3.114   1.320   2.439
 3628TIP3    H110827   3.087   1.347   2.351
 3628TIP3    H210828   3.166   1.393   2.472
 3629TIP3   OH210829   8.106   2.594   0.620
 3629TIP3    H110830   8.071   2.605   0.532
 3629TIP3    H210831   8.167   2.520   0.613
 3630TIP3   OH210832   2.777   5.550   4.950
 3630TIP3    H110833   2.798   5.633   4.993
 3630TIP3    H210834   2.719   5.574   4.878
 3631TIP3   OH210835   2.161   5.686   5.618
 3631TIP3    H110836   2.210   5.606   5.599
 3631TIP3    H210837   2.094   5.690   5.550
 3632TIP3   OH210838   1.225   2.166   3.514
 3632TIP3    H110839   1.294   2.132   3.456
 3632TIP3    H210840   1.268   2.177   3.598
 3633TIP3   OH210841   5.386   4.687   3.699
 3633TIP3    H110842   5.395   4.711   3.607
 3633TIP3    H210843   5.293   4.699   3.718
 3634TIP3   OH210844   0.193   3.897   2.573
 3634TIP3    H110845   0.193   3.989   2.546
 3634TIP3    H210846   0.137   3.895   2.651
 3635TIP3   OH210847   2.463   4.394   2.004
 3635TIP3    H110848   2.528   4.380   1.934
 3635TIP3    H210849   2.412   4.468   1.974
 3636TIP3   OH210850   5.186   3.779   2.167
 3636TIP3    H110851   5.170   3.800   2.259
 3636TIP3    H210852   5.099   3.784   2.127
 3637TIP3   OH210853   5.239   2.001   0.119
 3637TIP3    H110854   5.246   2.054   0.040
 3637TIP3    H210855   5.283   2.053   0.187
 3638TIP3   OH210856   5.574   4.311   4.862
 3638TIP3    H110857   5.598   4.218   4.867
 3638TIP3    H210858   5.479   4.312   4.872
 3639TIP3   OH210859   5.091   2.624   1.641
 3639TIP3    H110860   5.063   2.604   1.730
 3639TIP3    H210861   5.173   2.577   1.630
 3640TIP3   OH210862   1.735   6.217   6.439
 3640TIP3    H110863   1.687   6.157   6.497
 3640TIP3    H210864   1.725   6.179   6.352
 3641TIP3   OH210865   7.318   4.155   3.191
 3641TIP3    H110866   7.306   4.112   3.276
 3641TIP3    H210867   7.243   4.126   3.139
 3642TIP3   OH210868   6.666   0.490   3.582
 3642TIP3    H110869   6.719   0.569   3.579
 3642TIP3    H210870   6.631   0.482   3.493
 3643TIP3   OH210871   3.120   7.419   3.370
 3643TIP3    H110872   3.069   7.359   3.424
 3643TIP3    H210873   3.211   7.394   3.385
 3644TIP3   OH210874   6.590   4.107   4.487
 3644TIP3    H110875   6.529   4.151   4.427
 3644TIP3    H210876   6.656   4.069   4.429
 3645TIP3   OH210877   0.328   7.214   4.574
 3645TIP3    H110878   0.405   7.204   4.518
 3645TIP3    H210879   0.363   7.214   4.663
 3646TIP3   OH210880   7.236   3.146   4.013
 3646TIP3    H110881   7.248   3.112   4.101
 3646TIP3    H210882   7.143   3.132   3.993
 3647TIP3   OH210883   7.195   3.010   6.679
 3647TIP3    H110884   7.236   2.923   6.680
 3647TIP3    H210885   7.140   3.009   6.601
 3648TIP3   OH210886   0.179   1.393   5.226
 3648TIP3    H110887   0.105   1.346   5.189
 3648TIP3    H210888   0.140   1.464   5.277
 3649TIP3   OH210889   5.584   2.748   0.410
 3649TIP3    H110890   5.580   2.835   0.372
 3649TIP3    H210891   5.658   2.751   0.471
 3650TIP3   OH210892   3.575   7.636   2.104
 3650TIP3    H110893   3.630   7.576   2.054
 3650TIP3    H210894   3.610   7.723   2.083
 3651TIP3   OH210895   6.951   1.961   5.345
 3651TIP3    H110896   6.952   2.009   5.428
 3651TIP3    H210897   7.020   1.896   5.353
 3652TIP3   OH210898   4.260   2.987   0.433
 3652TIP3    H110899   4.329   2.920   0.428
 3652TIP3    H210900   4.295   3.060   0.382
 3653TIP3   OH210901   7.850   6.883   0.422
 3653TIP3    H110902   7.890   6.954   0.471
 3653TIP3    H210903   7.775   6.923   0.378
 3654TIP3   OH210904   0.656   0.999   3.913
 3654TIP3    H110905   0.657   0.967   4.003
 3654TIP3    H210906   0.735   1.052   3.906
 3655TIP3   OH210907   2.015   1.164   1.589
 3655TIP3    H110908   2.008   1.179   1.683
 3655TIP3    H210909   1.957   1.091   1.571
 3656TIP3   OH210910   4.921   1.255   0.813
 3656TIP3    H110911   4.954   1.212   0.893
 3656TIP3    H210912   4.911   1.184   0.750
 3657TIP3   OH210913   2.309   0.415   4.919
 3657TIP3    H110914   2.362   0.473   4.865
 3657TIP3    H210915   2.300   0.335   4.868
 3658TIP3   OH210916   4.101   5.008   1.379
 3658TIP3    H110917   4.143   5.044   1.301
 3658TIP3    H210918   4.008   5.030   1.368
 3659TIP3   OH210919   5.601   4.508   4.410
 3659TIP3    H110920   5.562   4.446   4.348
 3659TIP3    H210921   5.676   4.544   4.363
 3660TIP3   OH210922   0.556   1.345   2.978
 3660TIP3    H110923   0.529   1.434   2.999
 3660TIP3    H210924   0.601   1.314   3.057
 3661TIP3   OH210925   2.516   0.559   0.391
 3661TIP3    H110926   2.550   0.484   0.343
 3661TIP3    H210927   2.514   0.530   0.482
 3662TIP3   OH210928   4.091   0.171   3.258
 3662TIP3    H110929   4.000   0.189   3.234
 3662TIP3    H210930   4.095   0.075   3.262
 3663TIP3   OH210931   6.112   4.600   4.464
 3663TIP3    H110932   6.150   4.532   4.408
 3663TIP3    H210933   6.138   4.576   4.552
 3664TIP3   OH210934   5.679   2.174   6.275
 3664TIP3    H110935   5.658   2.141   6.187
 3664TIP3    H210936   5.624   2.252   6.285
 3665TIP3   OH210937   0.700   6.476   1.800
 3665TIP3    H110938   0.714   6.570   1.789
 3665TIP3    H210939   0.779   6.435   1.766
 3666TIP3   OH210940   0.144   5.670   4.955
 3666TIP3    H110941   0.140   5.748   5.011
 3666TIP3    H210942   0.127   5.703   4.867
 3667TIP3   OH210943   0.137   2.245   2.048
 3667TIP3    H110944   0.064   2.203   2.003
 3667TIP3    H210945   0.098   2.283   2.127
 3668TIP3   OH210946   5.784   4.296   1.223
 3668TIP3    H110947   5.691   4.295   1.247
 3668TIP3    H210948   5.819   4.214   1.258
 3669TIP3   OH210949   2.849   4.759   5.159
 3669TIP3    H110950   2.920   4.723   5.213
 3669TIP3    H210951   2.825   4.687   5.100
 3670TIP3   OH210952   1.046   5.585   0.876
 3670TIP3    H110953   1.098   5.594   0.956
 3670TIP3    H210954   1.057   5.670   0.832
 3671TIP3   OH210955   4.050   0.529   0.950
 3671TIP3    H110956   3.990   0.574   1.008
 3671TIP3    H210957   4.004   0.525   0.866
 3672TIP3   OH210958   5.049   0.838   4.142
 3672TIP3    H110959   5.058   0.754   4.098
 3672TIP3    H210960   4.991   0.889   4.086
 3673TIP3   OH210961   2.765   3.973   5.286
 3673TIP3    H110962   2.792   4.027   5.360
 3673TIP3    H210963   2.812   3.890   5.298
 3674TIP3   OH210964   5.628   4.460   6.215
 3674TIP3    H110965   5.559   4.403   6.248
 3674TIP3    H210966   5.671   4.408   6.147
 3675TIP3   OH210967   6.547   5.249   4.021
 3675TIP3    H110968   6.540   5.204   3.938
 3675TIP3    H210969   6.495   5.197   4.082
 3676TIP3   OH210970   5.457   2.001   2.726
 3676TIP3    H110971   5.413   2.054   2.661
 3676TIP3    H210972   5.401   2.005   2.803
 3677TIP3   OH210973   5.577   3.639   0.557
 3677TIP3    H110974   5.656   3.668   0.512
 3677TIP3    H210975   5.599   3.642   0.650
 3678TIP3   OH210976   2.721   0.340   1.039
 3678TIP3    H110977   2.656   0.276   1.067
 3678TIP3    H210978   2.717   0.409   1.106
 3679TIP3   OH210979   2.412   6.561   6.196
 3679TIP3    H110980   2.344   6.506   6.158
 3679TIP3    H210981   2.493   6.529   6.156
 3680TIP3   OH210982   3.100   5.136   3.582
 3680TIP3    H110983   3.050   5.128   3.664
 3680TIP3    H210984   3.164   5.065   3.586
 3681TIP3   OH210985   6.703   1.432   1.747
 3681TIP3    H110986   6.665   1.499   1.804
 3681TIP3    H210987   6.627   1.393   1.702
 3682TIP3   OH210988   7.376   0.668   6.683
 3682TIP3    H110989   7.406   0.630   6.766
 3682TIP3    H210990   7.426   0.749   6.674
 3683TIP3   OH210991   7.252   0.765   4.864
 3683TIP3    H110992   7.236   0.802   4.778
 3683TIP3    H210993   7.175   0.788   4.916
 3684TIP3   OH210994   0.301   6.742   6.098
 3684TIP3    H110995   0.316   6.680   6.027
 3684TIP3    H210996   0.278   6.824   6.054
 3685TIP3   OH210997   5.617   2.200   1.303
 3685TIP3    H110998   5.666   2.276   1.270
 3685TIP3    H210999   5.637   2.130   1.240
 3686TIP3   OH211000   6.423   4.267   1.624
 3686TIP3    H111001   6.395   4.227   1.542
 3686TIP3    H211002   6.463   4.350   1.598
 3687TIP3   OH211003   2.953   6.410   0.070
 3687TIP3    H111004   3.016   6.338   0.067
 3687TIP3    H211005   2.868   6.367   0.069
 3688TIP3   OH211006   4.611   4.563   5.217
 3688TIP3    H111007   4.689   4.579   5.269
 3688TIP3    H211008   4.544   4.618   5.257
 3689TIP3   OH211009   7.386   6.687   3.420
 3689TIP3    H111010   7.415   6.778   3.414
 3689TIP3    H211011   7.327   6.686   3.496
 3690TIP3   OH211012   7.665   5.136   1.712
 3690TIP3    H111013   7.707   5.053   1.734
 3690TIP3    H211014   7.735   5.188   1.672
 3691TIP3   OH211015   5.067   1.818   0.246
 3691TIP3    H111016   5.127   1.877   0.200
 3691TIP3    H211017   5.124   1.764   0.300
 3692TIP3   OH211018   2.157   1.549   2.752
 3692TIP3    H111019   2.201   1.595   2.680
 3692TIP3    H211020   2.064   1.552   2.730
 3693TIP3   OH211021   3.688   1.530   4.132
 3693TIP3    H111022   3.658   1.460   4.073
 3693TIP3    H211023   3.781   1.509   4.148
 3694TIP3   OH211024   0.954   1.396   6.671
 3694TIP3    H111025   1.048   1.390   6.689
 3694TIP3    H211026   0.930   1.484   6.700
 3695TIP3   OH211027   2.197   5.124   1.498
 3695TIP3    H111028   2.145   5.077   1.433
 3695TIP3    H211029   2.133   5.179   1.544
 3696TIP3   OH211030   0.664   6.179   1.088
 3696TIP3    H111031   0.620   6.186   1.003
 3696TIP3    H211032   0.669   6.269   1.120
 3697TIP3   OH211033   1.022   7.055   1.089
 3697TIP3    H111034   1.016   7.145   1.122
 3697TIP3    H211035   1.038   7.064   0.996
 3698TIP3   OH211036   3.990   3.900   1.026
 3698TIP3    H111037   4.052   3.973   1.025
 3698TIP3    H211038   3.946   3.907   1.111
 3699TIP3   OH211039   5.923   7.220   6.168
 3699TIP3    H111040   5.865   7.150   6.136
 3699TIP3    H211041   5.865   7.280   6.214
 3700TIP3   OH211042   2.471   1.258   2.842
 3700TIP3    H111043   2.555   1.291   2.872
 3700TIP3    H211044   2.491   1.208   2.762
 3701TIP3   OH211045   7.300   3.713   0.875
 3701TIP3    H111046   7.332   3.727   0.786
 3701TIP3    H211047   7.207   3.735   0.871
 3702TIP3   OH211048   6.454   4.969   2.511
 3702TIP3    H111049   6.439   4.888   2.559
 3702TIP3    H211050   6.471   4.941   2.421
 3703TIP3   OH211051   5.510   2.011   2.027
 3703TIP3    H111052   5.574   1.945   1.998
 3703TIP3    H211053   5.549   2.048   2.106
 3704TIP3   OH211054   1.935   0.023   5.809
 3704TIP3    H111055   2.028   0.003   5.812
 3704TIP3    H211056   1.929   0.105   5.761
 3705TIP3   OH211057   4.618   4.456   2.881
 3705TIP3    H111058   4.613   4.361   2.883
 3705TIP3    H211059   4.610   4.483   2.972
 3706TIP3   OH211060   7.858   3.806   6.162
 3706TIP3    H111061   7.949   3.789   6.187
 3706TIP3    H211062   7.824   3.862   6.232
 3707TIP3   OH211063   3.343   6.540   0.433
 3707TIP3    H111064   3.419   6.532   0.375
 3707TIP3    H211065   3.269   6.551   0.374
 3708TIP3   OH211066   3.919   3.128   1.946
 3708TIP3    H111067   3.910   3.223   1.936
 3708TIP3    H211068   3.831   3.098   1.969
 3709TIP3   OH211069   5.043   3.987   5.333
 3709TIP3    H111070   4.982   3.980   5.406
 3709TIP3    H211071   5.103   3.913   5.344
 3710TIP3   OH211072   0.916   5.275   4.368
 3710TIP3    H111073   1.007   5.280   4.397
 3710TIP3    H211074   0.865   5.258   4.447
 3711TIP3   OH211075   1.125   1.899   4.877
 3711TIP3    H111076   1.075   1.899   4.795
 3711TIP3    H211077   1.204   1.849   4.856
 3712TIP3   OH211078   6.245   0.128   1.950
 3712TIP3    H111079   6.189   0.130   2.027
 3712TIP3    H211080   6.328   0.094   1.981
 3713TIP3   OH211081   7.835   1.940   2.654
 3713TIP3    H111082   7.880   2.019   2.626
 3713TIP3    H211083   7.747   1.948   2.616
 3714TIP3   OH211084   7.850   6.414   4.662
 3714TIP3    H111085   7.837   6.470   4.585
 3714TIP3    H211086   7.806   6.461   4.733
 3715TIP3   OH211087   4.573   4.195   4.308
 3715TIP3    H111088   4.487   4.195   4.268
 3715TIP3    H211089   4.561   4.242   4.391
 3716TIP3   OH211090   6.381   0.091   3.247
 3716TIP3    H111091   6.323   0.074   3.173
 3716TIP3    H211092   6.324   0.128   3.314
 3717TIP3   OH211093   1.469   3.921   6.467
 3717TIP3    H111094   1.431   3.841   6.502
 3717TIP3    H211095   1.531   3.950   6.535
 3718TIP3   OH211096   5.403   6.948   3.087
 3718TIP3    H111097   5.352   7.028   3.103
 3718TIP3    H211098   5.484   6.960   3.136
 3719TIP3   OH211099   3.956   6.845   5.374
 3719TIP3    H111100   4.022   6.872   5.438
 3719TIP3    H211101   3.875   6.837   5.424
 3720TIP3   OH211102   1.952   3.165   1.315
 3720TIP3    H111103   2.003   3.163   1.396
 3720TIP3    H211104   1.861   3.172   1.344
 3721TIP3   OH211105   3.582   5.211   6.624
 3721TIP3    H111106   3.614   5.293   6.585
 3721TIP3    H211107   3.519   5.177   6.561
 3722TIP3   OH211108   6.792   4.879   2.366
 3722TIP3    H111109   6.830   4.916   2.446
 3722TIP3    H211110   6.761   4.792   2.393
 3723TIP3   OH211111   6.428   6.748   5.052
 3723TIP3    H111112   6.481   6.808   5.001
 3723TIP3    H211113   6.383   6.804   5.116
 3724TIP3   OH211114   5.689   4.448   5.085
 3724TIP3    H111115   5.658   4.393   5.014
 3724TIP3    H211116   5.617   4.450   5.148
 3725TIP3   OH211117   5.037   7.392   6.607
 3725TIP3    H111118   4.967   7.373   6.669
 3725TIP3    H211119   5.044   7.312   6.554
 3726TIP3   OH211120   2.755   0.039   3.530
 3726TIP3    H111121   2.794  -0.048   3.525
 3726TIP3    H211122   2.819   0.096   3.489
 3727TIP3   OH211123   4.363   4.898   6.392
 3727TIP3    H111124   4.398   4.810   6.375
 3727TIP3    H211125   4.436   4.945   6.433
 3728TIP3   OH211126   0.327   6.673   3.097
 3728TIP3    H111127   0.422   6.668   3.104
 3728TIP3    H211128   0.302   6.592   3.053
 3729TIP3   OH211129   6.544   1.816   5.201
 3729TIP3    H111130   6.638   1.801   5.209
 3729TIP3    H211131   6.515   1.750   5.138
 3730TIP3   OH211132   5.347   3.711   4.925
 3730TIP3    H111133   5.363   3.642   4.990
 3730TIP3    H211134   5.398   3.684   4.849
 3731TIP3   OH211135   0.368   3.794   4.344
 3731TIP3    H111136   0.452   3.840   4.350
 3731TIP3    H211137   0.388   3.703   4.363
 3732TIP3   OH211138   3.668   7.435   1.473
 3732TIP3    H111139   3.674   7.342   1.497
 3732TIP3    H211140   3.575   7.455   1.478
 3733TIP3   OH211141   2.413   4.161   3.062
 3733TIP3    H111142   2.495   4.114   3.049
 3733TIP3    H211143   2.437   4.253   3.057
 3734TIP3   OH211144   2.350   1.193   1.500
 3734TIP3    H111145   2.258   1.188   1.526
 3734TIP3    H211146   2.356   1.140   1.420
 3735TIP3   OH211147   7.631   5.180   0.742
 3735TIP3    H111148   7.666   5.093   0.760
 3735TIP3    H211149   7.681   5.211   0.667
 3736TIP3   OH211150   4.484   6.576   2.329
 3736TIP3    H111151   4.488   6.553   2.422
 3736TIP3    H211152   4.395   6.607   2.316
 3737TIP3   OH211153   5.530   6.175   1.120
 3737TIP3    H111154   5.587   6.251   1.135
 3737TIP3    H211155   5.505   6.147   1.208
 3738TIP3   OH211156   6.998   6.819   5.721
 3738TIP3    H111157   6.984   6.824   5.626
 3738TIP3    H211158   7.051   6.741   5.733
 3739TIP3   OH211159   2.291   3.474   6.266
 3739TIP3    H111160   2.269   3.438   6.180
 3739TIP3    H211161   2.279   3.401   6.327
 3740TIP3   OH211162   1.619   5.690   3.123
 3740TIP3    H111163   1.538   5.695   3.073
 3740TIP3    H211164   1.602   5.744   3.201
 3741TIP3   OH211165   5.805   1.457   0.848
 3741TIP3    H111166   5.794   1.482   0.940
 3741TIP3    H211167   5.894   1.422   0.844
 3742TIP3   OH211168   3.226   6.351   2.654
 3742TIP3    H111169   3.178   6.292   2.596
 3742TIP3    H211170   3.192   6.438   2.632
 3743TIP3   OH211171   5.192   0.460   4.280
 3743TIP3    H111172   5.207   0.374   4.240
 3743TIP3    H211173   5.097   0.471   4.276
 3744TIP3   OH211174   7.488   3.504   0.997
 3744TIP3    H111175   7.542   3.448   1.052
 3744TIP3    H211176   7.498   3.468   0.908
 3745TIP3   OH211177   3.903   2.070   0.681
 3745TIP3    H111178   3.854   2.143   0.720
 3745TIP3    H211179   3.838   2.020   0.633
 3746TIP3   OH211180   6.525   4.637   0.515
 3746TIP3    H111181   6.473   4.586   0.453
 3746TIP3    H211182   6.470   4.711   0.539
 3747TIP3   OH211183   6.308   5.354   6.682
 3747TIP3    H111184   6.214   5.372   6.684
 3747TIP3    H211185   6.325   5.309   6.765
 3748TIP3   OH211186   8.096   7.546   5.681
 3748TIP3    H111187   8.143   7.615   5.634
 3748TIP3    H211188   8.140   7.542   5.767
 3749TIP3   OH211189   6.659   2.795   2.290
 3749TIP3    H111190   6.728   2.861   2.297
 3749TIP3    H211191   6.664   2.746   2.372
 3750TIP3   OH211192   8.180   0.859   1.286
 3750TIP3    H111193   8.099   0.885   1.243
 3750TIP3    H211194   8.198   0.771   1.253
 3751TIP3   OH211195   7.393   2.911   5.322
 3751TIP3    H111196   7.298   2.897   5.325
 3751TIP3    H211197   7.428   2.833   5.280
 3752TIP3   OH211198   1.535   4.450   4.488
 3752TIP3    H111199   1.492   4.451   4.573
 3752TIP3    H211200   1.509   4.366   4.449
 3753TIP3   OH211201   7.929   1.066   5.697
 3753TIP3    H111202   7.881   1.115   5.631
 3753TIP3    H211203   7.870   0.997   5.725
 3754TIP3   OH211204   3.878   5.644   4.521
 3754TIP3    H111205   3.789   5.641   4.557
 3754TIP3    H211206   3.865   5.653   4.427
 3755TIP3   OH211207   0.575   1.338   2.456
 3755TIP3    H111208   0.546   1.247   2.469
 3755TIP3    H211209   0.646   1.350   2.519
 3756TIP3   OH211210   0.272   5.302   4.823
 3756TIP3    H111211   0.345   5.254   4.864
 3756TIP3    H211212   0.196   5.278   4.875
 3757TIP3   OH211213   2.060   6.016   1.806
 3757TIP3    H111214   1.984   6.027   1.748
 3757TIP3    H211215   2.098   5.932   1.780
 3758TIP3   OH211216   4.148   3.563   4.484
 3758TIP3    H111217   4.091   3.640   4.475
 3758TIP3    H211218   4.232   3.598   4.513
 3759TIP3   OH211219   5.770   7.207   3.888
 3759TIP3    H111220   5.704   7.167   3.832
 3759TIP3    H211221   5.721   7.269   3.943
 3760TIP3   OH211222   6.489   3.598   2.913
 3760TIP3    H111223   6.435   3.520   2.926
 3760TIP3    H211224   6.533   3.582   2.830
 3761TIP3   OH211225   3.163   3.986   5.693
 3761TIP3    H111226   3.257   3.990   5.711
 3761TIP3    H211227   3.136   4.077   5.688
 3762TIP3   OH211228   0.585   1.296   1.180
 3762TIP3    H111229   0.560   1.235   1.110
 3762TIP3    H211230   0.503   1.314   1.226
 3763TIP3   OH211231   4.142   6.887   1.125
 3763TIP3    H111232   4.226   6.849   1.101
 3763TIP3    H211233   4.083   6.861   1.055
 3764TIP3   OH211234   8.028   6.800   2.295
 3764TIP3    H111235   8.035   6.829   2.386
 3764TIP3    H211236   8.040   6.705   2.299
 3765TIP3   OH211237   2.933   2.078   3.102
 3765TIP3    H111238   2.861   2.103   3.161
 3765TIP3    H211239   3.011   2.079   3.158
 3766TIP3   OH211240   6.457   2.085   0.077
 3766TIP3    H111241   6.489   2.037   0.154
 3766TIP3    H211242   6.444   2.018   0.010
 3767TIP3   OH211243   7.351   3.599   0.531
 3767TIP3    H111244   7.363   3.685   0.573
 3767TIP3    H211245   7.364   3.617   0.437
 3768TIP3   OH211246   6.569   0.588   5.618
 3768TIP3    H111247   6.612   0.503   5.609
 3768TIP3    H211248   6.500   0.573   5.683
 3769TIP3   OH211249   1.942   0.905   3.095
 3769TIP3    H111250   2.014   0.887   3.034
 3769TIP3    H211251   1.871   0.849   3.065
 3770TIP3   OH211252   1.883   6.880   1.250
 3770TIP3    H111253   1.930   6.934   1.314
 3770TIP3    H211254   1.936   6.886   1.171
 3771TIP3   OH211255   1.844   3.084   2.024
 3771TIP3    H111256   1.937   3.088   2.001
 3771TIP3    H211257   1.816   2.998   1.991
 3772TIP3   OH211258   3.139   4.377   6.037
 3772TIP3    H111259   3.157   4.442   6.105
 3772TIP3    H211260   3.078   4.316   6.078
 3773TIP3   OH211261   0.691   6.395   4.002
 3773TIP3    H111262   0.688   6.369   3.910
 3773TIP3    H211263   0.638   6.330   4.048
 3774TIP3   OH211264   1.011   0.661   2.137
 3774TIP3    H111265   1.022   0.590   2.200
 3774TIP3    H211266   0.917   0.669   2.125
 3775TIP3   OH211267   0.606   1.725   3.553
 3775TIP3    H111268   0.648   1.660   3.497
 3775TIP3    H211269   0.652   1.807   3.533
 3776TIP3   OH211270   1.126   2.195   0.426
 3776TIP3    H111271   1.058   2.255   0.456
 3776TIP3    H211272   1.168   2.241   0.353
 3777TIP3   OH211273   3.223   4.653   0.096
 3777TIP3    H111274   3.267   4.626   0.015
 3777TIP3    H211275   3.132   4.627   0.083
 3778TIP3   OH211276   2.199   2.828   4.639
 3778TIP3    H111277   2.192   2.917   4.673
 3778TIP3    H211278   2.180   2.836   4.546
 3779TIP3   OH211279   0.753   6.383   5.194
 3779TIP3    H111280   0.692   6.365   5.265
 3779TIP3    H211281   0.741   6.311   5.133
 3780TIP3   OH211282   7.013   6.631   1.083
 3780TIP3    H111283   7.087   6.681   1.047
 3780TIP3    H211284   6.936   6.683   1.061
 3781TIP3   OH211285   7.781   7.462   6.303
 3781TIP3    H111286   7.771   7.548   6.346
 3781TIP3    H211287   7.809   7.404   6.374
 3782TIP3   OH211288   5.445   1.766   3.665
 3782TIP3    H111289   5.376   1.785   3.729
 3782TIP3    H211290   5.423   1.821   3.590
 3783TIP3   OH211291   7.983   7.655   3.400
 3783TIP3    H111292   7.955   7.713   3.330
 3783TIP3    H211293   8.000   7.571   3.357
 3784TIP3   OH211294   0.662   6.717   0.026
 3784TIP3    H111295   0.659   6.792   0.085
 3784TIP3    H211296   0.742   6.670   0.051
 3785TIP3   OH211297   5.000   0.842   1.871
 3785TIP3    H111298   5.032   0.890   1.794
 3785TIP3    H211299   4.981   0.754   1.838
 3786TIP3   OH211300   2.564   1.150   5.465
 3786TIP3    H111301   2.501   1.082   5.438
 3786TIP3    H211302   2.577   1.203   5.386
 3787TIP3   OH211303   0.035   0.161   5.630
 3787TIP3    H111304   0.123   0.196   5.642
 3787TIP3    H211305  -0.023   0.228   5.666
 3788TIP3   OH211306   1.268   2.733   5.814
 3788TIP3    H111307   1.240   2.663   5.872
 3788TIP3    H211308   1.350   2.765   5.852
 3789TIP3   OH211309   3.158   3.505   1.183
 3789TIP3    H111310   3.181   3.441   1.116
 3789TIP3    H211311   3.068   3.531   1.161
 3790TIP3   OH211312   1.266   6.869   6.614
 3790TIP3    H111313   1.352   6.909   6.600
 3790TIP3    H211314   1.208   6.915   6.553
 3791TIP3   OH211315   4.806   2.954   2.190
 3791TIP3    H111316   4.818   2.862   2.212
 3791TIP3    H211317   4.841   3.002   2.265
 3792TIP3   OH211318   4.228   4.292   3.036
 3792TIP3    H111319   4.308   4.338   3.009
 3792TIP3    H211320   4.235   4.285   3.131
 3793TIP3   OH211321   0.605   2.784   2.402
 3793TIP3    H111322   0.660   2.791   2.324
 3793TIP3    H211323   0.583   2.691   2.407
 3794TIP3   OH211324   3.598   4.823   0.527
 3794TIP3    H111325   3.586   4.829   0.432
 3794TIP3    H211326   3.584   4.730   0.547
 3795TIP3   OH211327   4.660   2.431   2.659
 3795TIP3    H111328   4.682   2.404   2.748
 3795TIP3    H211329   4.745   2.445   2.617
 3796TIP3   OH211330   5.584   5.309   1.829
 3796TIP3    H111331   5.659   5.267   1.871
 3796TIP3    H211332   5.571   5.390   1.878
 3797TIP3   OH211333   2.466   6.028   0.129
 3797TIP3    H111334   2.552   6.033   0.171
 3797TIP3    H211335   2.404   6.045   0.199
 3798TIP3   OH211336   3.786   6.011   3.145
 3798TIP3    H111337   3.721   5.956   3.102
 3798TIP3    H211338   3.869   5.967   3.129
 3799TIP3   OH211339   5.438   2.680   1.442
 3799TIP3    H111340   5.377   2.735   1.490
 3799TIP3    H211341   5.422   2.699   1.350
 3800TIP3   OH211342   4.483   6.953   1.569
 3800TIP3    H111343   4.452   6.951   1.660
 3800TIP3    H211344   4.476   7.045   1.543
 3801TIP3   OH211345   6.833   3.309   2.980
 3801TIP3    H111346   6.788   3.391   3.002
 3801TIP3    H211347   6.920   3.336   2.950
 3802TIP3   OH211348   7.366   1.063   5.455
 3802TIP3    H111349   7.456   1.031   5.455
 3802TIP3    H211350   7.342   1.070   5.547
 3803TIP3   OH211351   2.339   5.031   0.227
 3803TIP3    H111352   2.429   5.050   0.254
 3803TIP3    H211353   2.292   5.114   0.237
 3804TIP3   OH211354   2.384   2.758   6.640
 3804TIP3    H111355   2.321   2.687   6.652
 3804TIP3    H211356   2.469   2.715   6.635
 3805TIP3   OH211357   5.883   1.142   3.877
 3805TIP3    H111358   5.920   1.064   3.837
 3805TIP3    H211359   5.792   1.142   3.848
 3806TIP3   OH211360   5.458   1.662   1.174
 3806TIP3    H111361   5.415   1.577   1.164
 3806TIP3    H211362   5.408   1.721   1.118
 3807TIP3   OH211363   6.358   6.755   4.069
 3807TIP3    H111364   6.276   6.743   4.117
 3807TIP3    H211365   6.347   6.838   4.023
 3808TIP3   OH211366   4.027   5.531   1.416
 3808TIP3    H111367   4.049   5.453   1.467
 3808TIP3    H211368   3.933   5.542   1.429
 3809TIP3   OH211369   3.815   1.133   0.584
 3809TIP3    H111370   3.734   1.081   0.577
 3809TIP3    H211371   3.874   1.092   0.521
 3810TIP3   OH211372   2.166   2.391   3.627
 3810TIP3    H111373   2.175   2.295   3.628
 3810TIP3    H211374   2.114   2.408   3.548
 3811TIP3   OH211375   1.611   3.329   5.132
 3811TIP3    H111376   1.662   3.278   5.194
 3811TIP3    H211377   1.654   3.414   5.130
 3812TIP3   OH211378   2.627   1.239   6.672
 3812TIP3    H111379   2.616   1.219   6.765
 3812TIP3    H211380   2.560   1.187   6.629
 3813TIP3   OH211381   3.692   0.171   1.691
 3813TIP3    H111382   3.655   0.257   1.673
 3813TIP3    H211383   3.647   0.141   1.769
 3814TIP3   OH211384   1.515   4.076   4.655
 3814TIP3    H111385   1.442   4.049   4.599
 3814TIP3    H211386   1.475   4.130   4.723
 3815TIP3   OH211387   7.775   5.111   4.471
 3815TIP3    H111388   7.699   5.059   4.498
 3815TIP3    H211389   7.830   5.115   4.549
 3816TIP3   OH211390   2.457   0.406   2.791
 3816TIP3    H111391   2.490   0.403   2.702
 3816TIP3    H211392   2.530   0.375   2.845
 3817TIP3   OH211393   2.837   4.824   2.605
 3817TIP3    H111394   2.749   4.797   2.632
 3817TIP3    H211395   2.823   4.883   2.531
 3818TIP3   OH211396   6.988   7.440   0.859
 3818TIP3    H111397   6.996   7.450   0.953
 3818TIP3    H211398   7.021   7.351   0.841
 3819TIP3   OH211399   6.017   6.306   3.758
 3819TIP3    H111400   5.973   6.222   3.773
 3819TIP3    H211401   6.022   6.346   3.844
 3820TIP3   OH211402   7.940   2.655   5.950
 3820TIP3    H111403   7.975   2.567   5.968
 3820TIP3    H211404   7.969   2.708   6.024
 3821TIP3   OH211405   7.676   2.115   0.205
 3821TIP3    H111406   7.580   2.109   0.209
 3821TIP3    H211407   7.706   2.025   0.216
 3822TIP3   OH211408   4.975   0.667   4.415
 3822TIP3    H111409   4.937   0.717   4.343
 3822TIP3    H211410   5.043   0.725   4.451
 3823TIP3   OH211411   7.190   0.401   5.801
 3823TIP3    H111412   7.159   0.480   5.846
 3823TIP3    H211413   7.144   0.329   5.845
 3824TIP3   OH211414   0.979   3.247   2.505
 3824TIP3    H111415   0.988   3.283   2.593
 3824TIP3    H211416   0.902   3.292   2.469
 3825TIP3   OH211417   2.405   0.225   1.303
 3825TIP3    H111418   2.495   0.240   1.334
 3825TIP3    H211419   2.385   0.301   1.249
 3826TIP3   OH211420   8.171   2.687   3.615
 3826TIP3    H111421   8.196   2.760   3.558
 3826TIP3    H211422   8.199   2.609   3.567
 3827TIP3   OH211423   2.818   5.855   3.135
 3827TIP3    H111424   2.807   5.912   3.058
 3827TIP3    H211425   2.912   5.857   3.152
 3828TIP3   OH211426   5.871   2.058   0.183
 3828TIP3    H111427   5.932   2.086   0.252
 3828TIP3    H211428   5.841   1.972   0.211
 3829TIP3   OH211429   2.158   6.686   4.256
 3829TIP3    H111430   2.093   6.645   4.314
 3829TIP3    H211431   2.205   6.612   4.218
 3830TIP3   OH211432   4.995   4.017   0.115
 3830TIP3    H111433   5.030   3.935   0.151
 3830TIP3    H211434   5.067   4.079   0.125
 3831TIP3   OH211435   0.233   6.100   6.310
 3831TIP3    H111436   0.220   6.194   6.323
 3831TIP3    H211437   0.204   6.061   6.392
 3832TIP3   OH211438   7.240   2.666   1.784
 3832TIP3    H111439   7.299   2.623   1.846
 3832TIP3    H211440   7.161   2.684   1.835
 3833TIP3   OH211441   6.344   1.231   1.465
 3833TIP3    H111442   6.356   1.145   1.425
 3833TIP3    H211443   6.312   1.287   1.394
 3834TIP3   OH211444   0.208   5.645   1.208
 3834TIP3    H111445   0.245   5.693   1.282
 3834TIP3    H211446   0.114   5.658   1.215
 3835TIP3   OH211447   0.342   7.610   2.935
 3835TIP3    H111448   0.375   7.520   2.925
 3835TIP3    H211449   0.409   7.664   2.894
 3836TIP3   OH211450   2.910   4.169   2.508
 3836TIP3    H111451   2.927   4.258   2.541
 3836TIP3    H211452   2.955   4.166   2.423
 3837TIP3   OH211453   0.329   2.394   1.159
 3837TIP3    H111454   0.334   2.444   1.241
 3837TIP3    H211455   0.388   2.440   1.099
 3838TIP3   OH211456   6.159   4.503   2.383
 3838TIP3    H111457   6.071   4.481   2.414
 3838TIP3    H211458   6.146   4.577   2.325
 3839TIP3   OH211459   7.707   6.908   2.981
 3839TIP3    H111460   7.683   6.831   3.033
 3839TIP3    H211461   7.773   6.876   2.920
 3840TIP3   OH211462   5.523   1.901   6.551
 3840TIP3    H111463   5.479   1.985   6.563
 3840TIP3    H211464   5.452   1.839   6.532
 3841TIP3   OH211465   0.598   2.010   4.078
 3841TIP3    H111466   0.540   2.065   4.026
 3841TIP3    H211467   0.617   2.061   4.156
 3842TIP3   OH211468   5.779   4.086   1.657
 3842TIP3    H111469   5.752   4.088   1.749
 3842TIP3    H211470   5.831   4.165   1.646
 3843TIP3   OH211471   5.375   2.659   0.061
 3843TIP3    H111472   5.428   2.630   0.136
 3843TIP3    H211473   5.354   2.751   0.081
 3844TIP3   OH211474   1.124   0.574   3.027
 3844TIP3    H111475   1.161   0.603   2.944
 3844TIP3    H211476   1.106   0.655   3.075
 3845TIP3   OH211477   5.248   4.854   0.523
 3845TIP3    H111478   5.260   4.787   0.456
 3845TIP3    H211479   5.269   4.809   0.605
 3846TIP3   OH211480   6.102   5.931   1.079
 3846TIP3    H111481   6.044   5.967   1.012
 3846TIP3    H211482   6.079   5.979   1.159
 3847TIP3   OH211483   7.203   2.316   0.963
 3847TIP3    H111484   7.208   2.282   0.873
 3847TIP3    H211485   7.200   2.411   0.952
 3848TIP3   OH211486   1.217   1.235   2.937
 3848TIP3    H111487   1.187   1.158   2.889
 3848TIP3    H211488   1.288   1.203   2.993
 3849TIP3   OH211489   8.225   2.942   2.686
 3849TIP3    H111490   8.160   3.006   2.659
 3849TIP3    H211491   8.256   2.973   2.771
 3850TIP3   OH211492   8.091   2.200   4.236
 3850TIP3    H111493   8.122   2.243   4.156
 3850TIP3    H211494   8.048   2.269   4.286
 3851TIP3   OH211495   3.012   2.253   4.417
 3851TIP3    H111496   2.921   2.256   4.387
 3851TIP3    H211497   3.022   2.164   4.452
 3852TIP3   OH211498   3.507   0.399   4.045
 3852TIP3    H111499   3.474   0.310   4.035
 3852TIP3    H211500   3.588   0.400   3.994
 3853TIP3   OH211501   6.749   7.349   4.885
 3853TIP3    H111502   6.840   7.368   4.909
 3853TIP3    H211503   6.704   7.433   4.894
 3854TIP3   OH211504   7.035   6.951   6.029
 3854TIP3    H111505   7.064   6.967   5.939
 3854TIP3    H211506   6.958   7.007   6.040
 3855TIP3   OH211507   1.037   0.792   1.005
 3855TIP3    H111508   1.040   0.814   0.912
 3855TIP3    H211509   0.967   0.727   1.013
 3856TIP3   OH211510   1.558   2.287   4.298
 3856TIP3    H111511   1.618   2.334   4.355
 3856TIP3    H211512   1.550   2.200   4.337
 3857TIP3   OH211513   3.298   0.343   4.415
 3857TIP3    H111514   3.216   0.365   4.370
 3857TIP3    H211515   3.278   0.262   4.462
 3858TIP3   OH211516   5.125   6.904   3.815
 3858TIP3    H111517   5.165   6.971   3.871
 3858TIP3    H211518   5.041   6.885   3.858
 3859TIP3   OH211519   0.569   4.009   2.640
 3859TIP3    H111520   0.566   4.092   2.687
 3859TIP3    H211521   0.563   3.942   2.708
 3860TIP3   OH211522   1.000   2.365   6.175
 3860TIP3    H111523   0.936   2.369   6.246
 3860TIP3    H211524   0.977   2.286   6.127
 3861TIP3   OH211525   5.536   3.558   1.745
 3861TIP3    H111526   5.455   3.508   1.751
 3861TIP3    H211527   5.596   3.503   1.696
 3862TIP3   OH211528   0.268   5.958   1.040
 3862TIP3    H111529   0.232   5.953   0.952
 3862TIP3    H211530   0.279   5.867   1.067
 3863TIP3   OH211531   3.375   6.216   5.320
 3863TIP3    H111532   3.417   6.157   5.383
 3863TIP3    H211533   3.420   6.300   5.334
 3864TIP3   OH211534   2.542   1.031   2.339
 3864TIP3    H111535   2.633   1.057   2.330
 3864TIP3    H211536   2.523   0.981   2.260
 3865TIP3   OH211537   2.341   0.925   1.881
 3865TIP3    H111538   2.418   0.959   1.835
 3865TIP3    H211539   2.368   0.923   1.973
 3866TIP3   OH211540   2.224   1.680   2.517
 3866TIP3    H111541   2.156   1.666   2.452
 3866TIP3    H211542   2.261   1.766   2.495
 3867TIP3   OH211543   2.915   1.049   1.738
 3867TIP3    H111544   2.894   1.022   1.649
 3867TIP3    H211545   3.010   1.036   1.745
 3868TIP3   OH211546   2.975   5.969   0.061
 3868TIP3    H111547   3.003   5.977   0.152
 3868TIP3    H211548   3.037   5.907   0.022
 3869TIP3   OH211549   7.680   4.212   5.706
 3869TIP3    H111550   7.616   4.147   5.678
 3869TIP3    H211551   7.628   4.283   5.744
 3870TIP3   OH211552   4.483   4.642   0.965
 3870TIP3    H111553   4.464   4.553   0.935
 3870TIP3    H211554   4.406   4.693   0.941
 3871TIP3   OH211555   8.022   7.702   5.131
 3871TIP3    H111556   7.985   7.777   5.084
 3871TIP3    H211557   8.023   7.632   5.066
 3872TIP3   OH211558   6.793   1.117   6.539
 3872TIP3    H111559   6.798   1.103   6.634
 3872TIP3    H211560   6.872   1.076   6.504
 3873TIP3   OH211561   8.266   2.600   6.576
 3873TIP3    H111562   8.329   2.539   6.537
 3873TIP3    H211563   8.198   2.610   6.511
 3874TIP3   OH211564   2.279   1.514   1.660
 3874TIP3    H111565   2.314   1.603   1.666
 3874TIP3    H211566   2.218   1.507   1.734
 3875TIP3   OH211567   4.348   0.672   2.430
 3875TIP3    H111568   4.383   0.725   2.358
 3875TIP3    H211569   4.284   0.729   2.473
 3876TIP3   OH211570   2.498   2.984   2.768
 3876TIP3    H111571   2.443   2.919   2.724
 3876TIP3    H211572   2.537   3.034   2.697
 3877TIP3   OH211573   3.040   1.183   0.537
 3877TIP3    H111574   3.135   1.172   0.538
 3877TIP3    H211575   3.027   1.277   0.543
 3878TIP3   OH211576   3.368   1.795   6.649
 3878TIP3    H111577   3.433   1.800   6.719
 3878TIP3    H211578   3.410   1.745   6.579
 3879TIP3   OH211579   3.502   5.343   2.374
 3879TIP3    H111580   3.578   5.386   2.335
 3879TIP3    H211581   3.515   5.250   2.356
 3880TIP3   OH211582   5.850   0.038   3.422
 3880TIP3    H111583   5.855   0.025   3.517
 3880TIP3    H211584   5.825  -0.047   3.387
 3881TIP3   OH211585   0.146   4.962   1.741
 3881TIP3    H111586   0.178   4.952   1.830
 3881TIP3    H211587   0.224   4.984   1.690
 3882TIP3   OH211588   2.759   4.204   2.163
 3882TIP3    H111589   2.853   4.219   2.168
 3882TIP3    H211590   2.721   4.263   2.228
 3883TIP3   OH211591   2.017   3.058   5.081
 3883TIP3    H111592   2.112   3.068   5.091
 3883TIP3    H211593   1.985   3.148   5.075
 3884TIP3   OH211594   8.162   7.778   4.445
 3884TIP3    H111595   8.148   7.866   4.482
 3884TIP3    H211596   8.130   7.718   4.512
 3885TIP3   OH211597   3.990   2.256   6.489
 3885TIP3    H111598   3.939   2.272   6.569
 3885TIP3    H211599   4.068   2.211   6.520
 3886TIP3   OH211600   6.437   1.024   6.576
 3886TIP3    H111601   6.383   0.985   6.507
 3886TIP3    H211602   6.375   1.074   6.629
 3887TIP3   OH211603   3.259   0.557   4.002
 3887TIP3    H111604   3.213   0.494   3.948
 3887TIP3    H211605   3.343   0.517   4.020
 3888TIP3   OH211606   7.235   6.646   4.596
 3888TIP3    H111607   7.316   6.627   4.642
 3888TIP3    H211608   7.176   6.574   4.619
 3889TIP3   OH211609   1.056   4.614   4.563
 3889TIP3    H111610   0.962   4.631   4.571
 3889TIP3    H211611   1.061   4.531   4.515
 3890TIP3   OH211612   4.026   0.795   6.281
 3890TIP3    H111613   4.061   0.866   6.336
 3890TIP3    H211614   4.031   0.717   6.336
 3891TIP3   OH211615   4.582   2.284   0.578
 3891TIP3    H111616   4.511   2.331   0.622
 3891TIP3    H211617   4.610   2.343   0.508
 3892TIP3   OH211618   2.104   4.034   3.138
 3892TIP3    H111619   2.031   4.095   3.149
 3892TIP3    H211620   2.080   3.958   3.192
 3893TIP3   OH211621  -0.003   5.716   6.654
 3893TIP3    H111622   0.083   5.676   6.651
 3893TIP3    H211623   0.009   5.797   6.703
 3894TIP3   OH211624   3.752   2.568   1.139
 3894TIP3    H111625   3.729   2.524   1.221
 3894TIP3    H211626   3.683   2.542   1.078
 3895TIP3   OH211627   2.197   4.853   1.121
 3895TIP3    H111628   2.169   4.924   1.179
 3895TIP3    H211629   2.207   4.777   1.179
 3896TIP3   OH211630   2.670   7.699   4.456
 3896TIP3    H111631   2.601   7.642   4.487
 3896TIP3    H211632   2.651   7.785   4.495
 3897TIP3   OH211633   4.475   4.646   3.746
 3897TIP3    H111634   4.398   4.701   3.755
 3897TIP3    H211635   4.445   4.558   3.769
 3898TIP3   OH211636   3.321   6.247   0.230
 3898TIP3    H111637   3.389   6.180   0.233
 3898TIP3    H211638   3.368   6.330   0.233
 3899TIP3   OH211639   4.491   7.584   3.043
 3899TIP3    H111640   4.448   7.643   2.981
 3899TIP3    H211641   4.458   7.611   3.128
 3900TIP3   OH211642   8.248   5.535   1.045
 3900TIP3    H111643   8.158   5.526   1.015
 3900TIP3    H211644   8.264   5.456   1.097
 3901TIP3   OH211645   7.659   4.356   4.596
 3901TIP3    H111646   7.631   4.305   4.671
 3901TIP3    H211647   7.604   4.325   4.524
 3902TIP3   OH211648   4.152   6.493   2.729
 3902TIP3    H111649   4.091   6.493   2.656
 3902TIP3    H211650   4.156   6.401   2.757
 3903TIP3   OH211651   7.779   4.558   4.747
 3903TIP3    H111652   7.798   4.534   4.838
 3903TIP3    H211653   7.747   4.477   4.707
 3904TIP3   OH211654   0.001   1.683   0.581
 3904TIP3    H111655   0.085   1.716   0.613
 3904TIP3    H211656  -0.036   1.634   0.654
 3905TIP3   OH211657   4.855   4.847   4.589
 3905TIP3    H111658   4.857   4.908   4.515
 3905TIP3    H211659   4.886   4.764   4.552
 3906TIP3   OH211660   8.094   4.902   1.009
 3906TIP3    H111661   8.068   4.839   0.942
 3906TIP3    H211662   8.123   4.848   1.082
 3907TIP3   OH211663   1.898   6.527   4.699
 3907TIP3    H111664   1.972   6.501   4.644
 3907TIP3    H211665   1.918   6.616   4.725
 3908TIP3   OH211666   2.247   6.666   2.154
 3908TIP3    H111667   2.249   6.665   2.250
 3908TIP3    H211668   2.234   6.758   2.131
 3909TIP3   OH211669   0.035   3.362   1.729
 3909TIP3    H111670   0.122   3.352   1.769
 3909TIP3    H211671   0.009   3.451   1.750
 3910TIP3   OH211672   5.573   7.273   3.113
 3910TIP3    H111673   5.668   7.268   3.118
 3910TIP3    H211674   5.554   7.291   3.021
 3911TIP3   OH211675   4.184   1.620   3.276
 3911TIP3    H111676   4.262   1.569   3.254
 3911TIP3    H211677   4.147   1.645   3.191
 3912TIP3   OH211678   2.863   3.481   2.938
 3912TIP3    H111679   2.879   3.546   2.870
 3912TIP3    H211680   2.835   3.532   3.014
 3913TIP3   OH211681   1.489   1.337   0.078
 3913TIP3    H111682   1.530   1.335  -0.008
 3913TIP3    H211683   1.545   1.396   0.130
 3914TIP3   OH211684   2.501   0.470   3.395
 3914TIP3    H111685   2.490   0.552   3.442
 3914TIP3    H211686   2.418   0.456   3.350
 3915TIP3   OH211687   2.323   1.775   5.429
 3915TIP3    H111688   2.408   1.820   5.432
 3915TIP3    H211689   2.304   1.754   5.521
 3916TIP3   OH211690   4.389   1.269   1.349
 3916TIP3    H111691   4.380   1.222   1.432
 3916TIP3    H211692   4.466   1.231   1.308
 3917TIP3   OH211693   2.587   2.191   1.494
 3917TIP3    H111694   2.506   2.158   1.533
 3917TIP3    H211695   2.644   2.207   1.568
 3918TIP3   OH211696   4.103   1.256   6.709
 3918TIP3    H111697   4.199   1.251   6.704
 3918TIP3    H211698   4.086   1.303   6.791
 3919TIP3   OH211699   4.904   3.473   3.582
 3919TIP3    H111700   4.863   3.560   3.586
 3919TIP3    H211701   4.831   3.412   3.570
 3920TIP3   OH211702   7.617   5.757   4.098
 3920TIP3    H111703   7.533   5.716   4.077
 3920TIP3    H211704   7.651   5.706   4.171
 3921TIP3   OH211705   1.414   4.846   3.662
 3921TIP3    H111706   1.409   4.921   3.603
 3921TIP3    H211707   1.337   4.793   3.641
 3922TIP3   OH211708   4.730   4.124   0.128
 3922TIP3    H111709   4.734   4.188   0.058
 3922TIP3    H211710   4.816   4.083   0.129
 3923TIP3   OH211711   6.895   6.777   2.286
 3923TIP3    H111712   6.989   6.773   2.303
 3923TIP3    H211713   6.856   6.790   2.373
 3924TIP3   OH211714   4.802   5.865   2.501
 3924TIP3    H111715   4.741   5.887   2.572
 3924TIP3    H211716   4.769   5.783   2.465
 3925TIP3   OH211717   1.967   5.768   5.370
 3925TIP3    H111718   1.880   5.728   5.362
 3925TIP3    H211719   2.027   5.702   5.338
 3926TIP3   OH211720   3.258   5.243   3.168
 3926TIP3    H111721   3.269   5.263   3.261
 3926TIP3    H211722   3.205   5.163   3.167
 3927TIP3   OH211723   6.590   4.484   3.467
 3927TIP3    H111724   6.602   4.400   3.423
 3927TIP3    H211725   6.538   4.536   3.405
 3928TIP3   OH211726   0.090   6.868   3.394
 3928TIP3    H111727   0.148   6.792   3.387
 3928TIP3    H211728   0.005   6.837   3.361
 3929TIP3   OH211729   7.585   7.024   6.328
 3929TIP3    H111730   7.657   6.982   6.373
 3929TIP3    H211731   7.508   7.005   6.382
 3930TIP3   OH211732   3.102   3.703   4.101
 3930TIP3    H111733   3.168   3.639   4.128
 3930TIP3    H211734   3.147   3.759   4.038
 3931TIP3   OH211735   5.214   3.768   6.750
 3931TIP3    H111736   5.203   3.841   6.811
 3931TIP3    H211737   5.127   3.756   6.711
 3932TIP3   OH211738   7.056   6.834   5.190
 3932TIP3    H111739   6.987   6.797   5.134
 3932TIP3    H211740   7.091   6.908   5.140
 3933TIP3   OH211741   4.498   3.937   5.305
 3933TIP3    H111742   4.431   3.983   5.356
 3933TIP3    H211743   4.538   4.006   5.251
 3934TIP3   OH211744   2.779   3.337   1.141
 3934TIP3    H111745   2.796   3.354   1.234
 3934TIP3    H211746   2.822   3.408   1.095
 3935TIP3   OH211747   3.434   6.297   2.404
 3935TIP3    H111748   3.448   6.219   2.350
 3935TIP3    H211749   3.378   6.267   2.475
 3936TIP3   OH211750   5.885   1.080   6.578
 3936TIP3    H111751   5.852   1.017   6.642
 3936TIP3    H211752   5.808   1.129   6.551
 3937TIP3   OH211753   4.623   5.500   5.301
 3937TIP3    H111754   4.696   5.559   5.318
 3937TIP3    H211755   4.545   5.551   5.323
 3938TIP3   OH211756   3.392   3.044   6.186
 3938TIP3    H111757   3.298   3.032   6.177
 3938TIP3    H211758   3.430   2.992   6.115
 3939TIP3   OH211759   8.212   6.626   0.331
 3939TIP3    H111760   8.221   6.554   0.268
 3939TIP3    H211761   8.132   6.671   0.305
 3940TIP3   OH211762   2.209   4.074   4.547
 3940TIP3    H111763   2.167   4.157   4.524
 3940TIP3    H211764   2.143   4.007   4.526
 3941TIP3   OH211765   5.284   6.171   6.002
 3941TIP3    H111766   5.230   6.112   6.053
 3941TIP3    H211767   5.358   6.117   5.972
 3942TIP3   OH211768   0.216   2.163   4.108
 3942TIP3    H111769   0.241   2.073   4.129
 3942TIP3    H211770   0.231   2.212   4.189
 3943TIP3   OH211771   7.122   5.663   6.261
 3943TIP3    H111772   7.147   5.650   6.169
 3943TIP3    H211773   7.205   5.664   6.308
 3944TIP3   OH211774   5.733   0.137   0.396
 3944TIP3    H111775   5.647   0.106   0.369
 3944TIP3    H211776   5.717   0.225   0.431
 3945TIP3   OH211777   2.886   1.632   2.357
 3945TIP3    H111778   2.980   1.614   2.364
 3945TIP3    H211779   2.876   1.680   2.275
 3946TIP3   OH211780   4.611   3.621   6.700
 3946TIP3    H111781   4.698   3.585   6.682
 3946TIP3    H211782   4.594   3.680   6.627
 3947TIP3   OH211783   5.815   7.110   0.937
 3947TIP3    H111784   5.738   7.112   0.881
 3947TIP3    H211785   5.875   7.173   0.898
 3948TIP3   OH211786   4.948   3.102   5.540
 3948TIP3    H111787   4.940   3.006   5.543
 3948TIP3    H211788   4.910   3.131   5.623
 3949TIP3   OH211789   7.081   7.158   5.808
 3949TIP3    H111790   7.167   7.115   5.804
 3949TIP3    H211791   7.100   7.249   5.830
 3950TIP3   OH211792   0.716   7.090   4.165
 3950TIP3    H111793   0.710   7.035   4.087
 3950TIP3    H211794   0.743   7.030   4.234
 3951TIP3   OH211795   0.704   2.484   1.734
 3951TIP3    H111796   0.746   2.404   1.765
 3951TIP3    H211797   0.660   2.459   1.653
 3952TIP3   OH211798   0.738   4.393   3.690
 3952TIP3    H111799   0.740   4.353   3.603
 3952TIP3    H211800   0.650   4.376   3.722
 3953TIP3   OH211801   4.087   3.500   1.282
 3953TIP3    H111802   4.010   3.541   1.320
 3953TIP3    H211803   4.068   3.494   1.189
 3954TIP3   OH211804   7.896   7.103   1.630
 3954TIP3    H111805   7.870   7.018   1.594
 3954TIP3    H211806   7.943   7.082   1.710
 3955TIP3   OH211807   0.073   5.802   4.314
 3955TIP3    H111808   0.059   5.727   4.255
 3955TIP3    H211809   0.123   5.767   4.387
 3956TIP3   OH211810   1.989   4.406   5.621
 3956TIP3    H111811   2.084   4.409   5.615
 3956TIP3    H211812   1.971   4.407   5.715
 3957TIP3   OH211813   5.572   3.782   2.854
 3957TIP3    H111814   5.523   3.856   2.889
 3957TIP3    H211815   5.573   3.797   2.759
 3958TIP3   OH211816   3.090   2.894   5.866
 3958TIP3    H111817   3.050   2.807   5.862
 3958TIP3    H211818   3.023   2.953   5.832
 3959TIP3   OH211819   3.995   7.106   3.560
 3959TIP3    H111820   4.087   7.085   3.542
 3959TIP3    H211821   3.963   7.033   3.612
 3960TIP3   OH211822   0.534   6.748   0.910
 3960TIP3    H111823   0.548   6.843   0.912
 3960TIP3    H211824   0.473   6.731   0.981
 3961TIP3   OH211825   3.557   2.826   6.332
 3961TIP3    H111826   3.513   2.905   6.303
 3961TIP3    H211827   3.514   2.755   6.285
 3962TIP3   OH211828   3.059   0.753   2.684
 3962TIP3    H111829   3.025   0.765   2.595
 3962TIP3    H211830   3.039   0.835   2.728
 3963TIP3   OH211831   1.589   3.443   6.364
 3963TIP3    H111832   1.631   3.525   6.338
 3963TIP3    H211833   1.535   3.420   6.288
 3964TIP3   OH211834   0.185   0.811   6.056
 3964TIP3    H111835   0.251   0.848   6.114
 3964TIP3    H211836   0.114   0.783   6.114
 3965TIP3   OH211837   3.316   4.285   0.939
 3965TIP3    H111838   3.236   4.330   0.966
 3965TIP3    H211839   3.387   4.342   0.969
 3966TIP3   OH211840   6.960   0.406   0.207
 3966TIP3    H111841   6.971   0.498   0.230
 3966TIP3    H211842   6.973   0.404   0.112
 3967TIP3   OH211843   4.790   6.510   2.001
 3967TIP3    H111844   4.761   6.549   2.084
 3967TIP3    H211845   4.799   6.417   2.020
 3968TIP3   OH211846   4.805   1.258   6.192
 3968TIP3    H111847   4.816   1.265   6.097
 3968TIP3    H211848   4.713   1.236   6.205
 3969TIP3   OH211849   2.466   2.608   4.616
 3969TIP3    H111850   2.371   2.603   4.611
 3969TIP3    H211851   2.487   2.582   4.706
 3970TIP3   OH211852   5.169   0.839   4.564
 3970TIP3    H111853   5.213   0.757   4.584
 3970TIP3    H211854   5.240   0.897   4.536
 3971TIP3   OH211855   5.382   6.426   1.681
 3971TIP3    H111856   5.354   6.354   1.624
 3971TIP3    H211857   5.316   6.428   1.751
 3972TIP3   OH211858   7.269   2.456   3.275
 3972TIP3    H111859   7.288   2.502   3.194
 3972TIP3    H211860   7.338   2.390   3.282
 3973TIP3   OH211861   6.681   2.701   3.115
 3973TIP3    H111862   6.703   2.681   3.024
 3973TIP3    H211863   6.752   2.661   3.166
 3974TIP3   OH211864   5.435   0.340   1.843
 3974TIP3    H111865   5.496   0.295   1.785
 3974TIP3    H211866   5.358   0.283   1.845
 3975TIP3   OH211867   5.144   1.661   4.603
 3975TIP3    H111868   5.225   1.647   4.653
 3975TIP3    H211869   5.162   1.740   4.551
 3976TIP3   OH211870   4.579   4.215   1.680
 3976TIP3    H111871   4.616   4.167   1.754
 3976TIP3    H211872   4.645   4.210   1.611
 3977TIP3   OH211873   6.974   5.346   0.702
 3977TIP3    H111874   7.051   5.318   0.752
 3977TIP3    H211875   6.907   5.359   0.768
 3978TIP3   OH211876   0.738   6.021   5.722
 3978TIP3    H111877   0.812   6.040   5.779
 3978TIP3    H211878   0.665   6.071   5.760
 3979TIP3   OH211879   5.829   7.380   0.701
 3979TIP3    H111880   5.850   7.403   0.610
 3979TIP3    H211881   5.755   7.319   0.693
 3980TIP3   OH211882   1.780   0.171   6.059
 3980TIP3    H111883   1.797   0.195   5.968
 3980TIP3    H211884   1.696   0.213   6.081
 3981TIP3   OH211885   2.978   5.654   3.581
 3981TIP3    H111886   2.961   5.747   3.566
 3981TIP3    H211887   3.029   5.627   3.504
 3982TIP3   OH211888   0.742   7.349   5.544
 3982TIP3    H111889   0.837   7.344   5.533
 3982TIP3    H211890   0.715   7.424   5.492
 3983TIP3   OH211891   2.536   2.992   1.127
 3983TIP3    H111892   2.561   3.082   1.109
 3983TIP3    H211893   2.441   2.991   1.116
 3984TIP3   OH211894   0.797   1.643   5.968
 3984TIP3    H111895   0.779   1.564   5.918
 3984TIP3    H211896   0.840   1.702   5.906
 3985TIP3   OH211897   3.258   4.705   5.080
 3985TIP3    H111898   3.203   4.704   5.158
 3985TIP3    H211899   3.196   4.708   5.007
 3986TIP3   OH211900   3.819   2.295   2.250
 3986TIP3    H111901   3.876   2.357   2.296
 3986TIP3    H211902   3.879   2.227   2.219
 3987TIP3   OH211903   0.185   2.725   6.166
 3987TIP3    H111904   0.239   2.746   6.089
 3987TIP3    H211905   0.121   2.796   6.171
 3988TIP3   OH211906   4.671   3.602   2.695
 3988TIP3    H111907   4.761   3.618   2.723
 3988TIP3    H211908   4.679   3.579   2.602
 3989TIP3   OH211909   2.235   4.822   4.775
 3989TIP3    H111910   2.330   4.818   4.761
 3989TIP3    H211911   2.198   4.792   4.693
 3990TIP3   OH211912   8.085   4.025   5.426
 3990TIP3    H111913   8.004   3.986   5.393
 3990TIP3    H211914   8.057   4.075   5.503
 3991TIP3   OH211915   0.503   6.173   2.191
 3991TIP3    H111916   0.429   6.113   2.201
 3991TIP3    H211917   0.474   6.254   2.234
 3992TIP3   OH211918   5.169   3.815   0.204
 3992TIP3    H111919   5.179   3.781   0.116
 3992TIP3    H211920   5.235   3.769   0.256
 3993TIP3   OH211921   1.025   6.876   1.372
 3993TIP3    H111922   0.971   6.863   1.450
 3993TIP3    H211923   0.969   6.848   1.299
 3994TIP3   OH211924   2.082   6.450   0.649
 3994TIP3    H111925   2.019   6.378   0.661
 3994TIP3    H211926   2.065   6.508   0.723
 3995TIP3   OH211927   5.534   5.755   0.956
 3995TIP3    H111928   5.616   5.708   0.972
 3995TIP3    H211929   5.480   5.693   0.907
 3996TIP3   OH211930   5.172   3.698   0.493
 3996TIP3    H111931   5.248   3.739   0.450
 3996TIP3    H211932   5.108   3.768   0.498
 3997TIP3   OH211933   1.730   2.141   0.290
 3997TIP3    H111934   1.635   2.136   0.294
 3997TIP3    H211935   1.760   2.051   0.308
 3998TIP3   OH211936   5.178   6.065   5.560
 3998TIP3    H111937   5.158   6.025   5.644
 3998TIP3    H211938   5.272   6.084   5.564
 3999TIP3   OH211939   4.014   2.558   2.986
 3999TIP3    H111940   4.029   2.464   2.975
 3999TIP3    H211941   3.948   2.565   3.054
 4000TIP3   OH211942   4.587   7.434   0.889
 4000TIP3    H111943   4.608   7.412   0.798
 4000TIP3    H211944   4.612   7.357   0.939
 4001TIP3   OH211945   3.170   3.722   0.157
 4001TIP3    H111946   3.123   3.806   0.154
 4001TIP3    H211947   3.101   3.656   0.161
 4002TIP3   OH211948   6.530   5.073   4.392
 4002TIP3    H111949   6.438   5.055   4.409
 4002TIP3    H211950   6.532   5.164   4.362
 4003TIP3   OH211951   4.700   0.225   6.098
 4003TIP3    H111952   4.640   0.197   6.166
 4003TIP3    H211953   4.647   0.280   6.040
 4004TIP3   OH211954   1.144   4.019   2.304
 4004TIP3    H111955   1.115   3.943   2.254
 4004TIP3    H211956   1.181   4.079   2.239
 4005TIP3   OH211957   7.156   2.203   0.711
 4005TIP3    H111958   7.198   2.241   0.635
 4005TIP3    H211959   7.063   2.200   0.689
 4006TIP3   OH211960   1.220   2.171   1.132
 4006TIP3    H111961   1.197   2.160   1.040
 4006TIP3    H211962   1.248   2.262   1.139
 4007TIP3   OH211963   5.531   1.940   1.609
 4007TIP3    H111964   5.558   1.908   1.522
 4007TIP3    H211965   5.566   1.875   1.670
 4008TIP3   OH211966   0.916   2.842   2.805
 4008TIP3    H111967   0.925   2.820   2.712
 4008TIP3    H211968   0.872   2.766   2.844
 4009TIP3   OH211969   7.390   2.406   1.619
 4009TIP3    H111970   7.415   2.326   1.573
 4009TIP3    H211971   7.309   2.382   1.665
 4010TIP3   OH211972   6.938   4.834   2.774
 4010TIP3    H111973   6.986   4.752   2.786
 4010TIP3    H211974   6.853   4.818   2.815
 4011TIP3   OH211975   5.289   1.832   2.046
 4011TIP3    H111976   5.309   1.925   2.052
 4011TIP3    H211977   5.364   1.794   2.000
 4012TIP3   OH211978   1.358   0.880   3.907
 4012TIP3    H111979   1.361   0.925   3.992
 4012TIP3    H211980   1.450   0.865   3.884
 4013TIP3   OH211981   4.388   0.636   1.427
 4013TIP3    H111982   4.472   0.599   1.454
 4013TIP3    H211983   4.351   0.673   1.507
 4014TIP3   OH211984   1.006   1.531   4.596
 4014TIP3    H111985   0.913   1.514   4.610
 4014TIP3    H211986   1.028   1.599   4.661
 4015TIP3   OH211987   1.576   2.635   3.485
 4015TIP3    H111988   1.634   2.687   3.541
 4015TIP3    H211989   1.488   2.670   3.504
 4016TIP3   OH211990   4.770   0.777   2.899
 4016TIP3    H111991   4.723   0.812   2.824
 4016TIP3    H211992   4.711   0.711   2.936
 4017TIP3   OH211993   5.461   3.488   6.359
 4017TIP3    H111994   5.414   3.417   6.401
 4017TIP3    H211995   5.435   3.567   6.407
 4018TIP3   OH211996   2.186   2.168   4.439
 4018TIP3    H111997   2.116   2.226   4.409
 4018TIP3    H211998   2.140   2.096   4.483
 4019TIP3   OH211999   0.782   0.325   5.726
 4019TIP3    H112000   0.873   0.308   5.749
 4019TIP3    H212001   0.736   0.329   5.810
 4020TIP3   OH212002   2.135   0.875   4.550
 4020TIP3    H112003   2.205   0.818   4.520
 4020TIP3    H212004   2.180   0.948   4.593
 4021TIP3   OH212005   5.869   3.486   3.804
 4021TIP3    H112006   5.888   3.430   3.728
 4021TIP3    H212007   5.936   3.553   3.802
 4022TIP3   OH212008   0.917   4.917   4.812
 4022TIP3    H112009   0.839   4.960   4.846
 4022TIP3    H212010   0.948   4.863   4.885
 4023TIP3   OH212011   7.550   1.299   4.566
 4023TIP3    H112012   7.598   1.222   4.595
 4023TIP3    H212013   7.458   1.277   4.581
 4024TIP3   OH212014   5.743   3.122   6.381
 4024TIP3    H112015   5.782   3.146   6.296
 4024TIP3    H212016   5.711   3.206   6.416
 4025TIP3   OH212017   6.897   3.384   3.890
 4025TIP3    H112018   6.946   3.454   3.847
 4025TIP3    H212019   6.874   3.420   3.976
 4026TIP3   OH212020   8.132   3.840   1.265
 4026TIP3    H112021   8.075   3.781   1.217
 4026TIP3    H212022   8.185   3.782   1.320
 4027TIP3   OH212023   3.497   2.762   3.399
 4027TIP3    H112024   3.557   2.692   3.424
 4027TIP3    H212025   3.414   2.718   3.381
 4028TIP3   OH212026   3.124   7.556   5.737
 4028TIP3    H112027   3.187   7.549   5.809
 4028TIP3    H212028   3.136   7.475   5.687
 4029TIP3   OH212029   0.663   1.734   2.569
 4029TIP3    H112030   0.629   1.680   2.498
 4029TIP3    H212031   0.741   1.775   2.531
 4030TIP3   OH212032   3.032   3.457   2.179
 4030TIP3    H112033   2.990   3.539   2.204
 4030TIP3    H212034   2.975   3.389   2.216
 4031TIP3   OH212035   3.681   3.243   0.315
 4031TIP3    H112036   3.739   3.310   0.279
 4031TIP3    H212037   3.620   3.291   0.371
 4032TIP3   OH212038   3.490   2.297   4.004
 4032TIP3    H112039   3.439   2.231   4.051
 4032TIP3    H212040   3.428   2.336   3.942
 4033TIP3   OH212041   6.473   1.497   1.529
 4033TIP3    H112042   6.408   1.503   1.600
 4033TIP3    H212043   6.425   1.458   1.456
 4034TIP3   OH212044   1.980   2.406   2.503
 4034TIP3    H112045   1.992   2.311   2.505
 4034TIP3    H212046   2.068   2.441   2.515
 4035TIP3   OH212047   3.554   4.459   2.178
 4035TIP3    H112048   3.514   4.519   2.241
 4035TIP3    H212049   3.588   4.388   2.232
 4036TIP3   OH212050   7.076   2.216   2.704
 4036TIP3    H112051   7.122   2.192   2.784
 4036TIP3    H212052   7.111   2.157   2.638
 4037TIP3   OH212053   1.004   1.834   1.878
 4037TIP3    H112054   1.083   1.827   1.826
 4037TIP3    H212055   1.005   1.757   1.934
 4038TIP3   OH212056   4.886   5.755   0.046
 4038TIP3    H112057   4.829   5.741  -0.029
 4038TIP3    H212058   4.874   5.677   0.101
 4039TIP3   OH212059   7.309   0.277   2.087
 4039TIP3    H112060   7.358   0.316   2.159
 4039TIP3    H212061   7.230   0.330   2.080
 4040TIP3   OH212062   3.785   6.273   5.514
 4040TIP3    H112063   3.739   6.246   5.435
 4040TIP3    H212064   3.780   6.196   5.571
 4041TIP3   OH212065   3.732   5.478   0.632
 4041TIP3    H112066   3.730   5.388   0.603
 4041TIP3    H212067   3.818   5.511   0.605
 4042TIP3   OH212068   4.144   7.025   6.297
 4042TIP3    H112069   4.058   7.060   6.318
 4042TIP3    H212070   4.136   6.996   6.206
 4043TIP3   OH212071   2.732   5.886   4.337
 4043TIP3    H112072   2.658   5.923   4.289
 4043TIP3    H212073   2.761   5.957   4.395
 4044TIP3   OH212074   6.753   6.321   3.152
 4044TIP3    H112075   6.756   6.374   3.072
 4044TIP3    H212076   6.835   6.271   3.151
 4045TIP3   OH212077   7.526   2.850   6.558
 4045TIP3    H112078   7.513   2.936   6.518
 4045TIP3    H212079   7.598   2.812   6.508
 4046TIP3   OH212080   1.998   4.342   0.674
 4046TIP3    H112081   1.953   4.385   0.747
 4046TIP3    H212082   2.078   4.394   0.662
 4047TIP3   OH212083   3.964   0.863   5.199
 4047TIP3    H112084   4.036   0.818   5.156
 4047TIP3    H212085   3.989   0.955   5.198
 4048TIP3   OH212086   1.388   0.189   0.313
 4048TIP3    H112087   1.397   0.283   0.302
 4048TIP3    H212088   1.295   0.176   0.332
 4049TIP3   OH212089   0.964   6.298   3.591
 4049TIP3    H112090   1.016   6.378   3.590
 4049TIP3    H212091   1.019   6.233   3.634
 4050TIP3   OH212092   3.245   7.765   1.241
 4050TIP3    H112093   3.204   7.826   1.180
 4050TIP3    H212094   3.332   7.748   1.204
 4051TIP3   OH212095   5.844   5.579   5.257
 4051TIP3    H112096   5.902   5.610   5.327
 4051TIP3    H212097   5.828   5.487   5.278
 4052TIP3   OH212098   6.256   7.537   0.616
 4052TIP3    H112099   6.273   7.586   0.535
 4052TIP3    H212100   6.216   7.455   0.586
 4053TIP3   OH212101   5.715   7.218   5.796
 4053TIP3    H112102   5.660   7.296   5.792
 4053TIP3    H212103   5.700   7.183   5.884
 4054TIP3   OH212104   7.188   7.124   5.327
 4054TIP3    H112105   7.256   7.060   5.349
 4054TIP3    H212106   7.219   7.206   5.366
 4055TIP3   OH212107   7.153   3.231   1.594
 4055TIP3    H112108   7.167   3.313   1.546
 4055TIP3    H212109   7.231   3.179   1.576
 4056TIP3   OH212110   5.697   1.256   1.734
 4056TIP3    H112111   5.787   1.288   1.744
 4056TIP3    H212112   5.680   1.209   1.816
 4057TIP3   OH212113   4.057   7.293   0.881
 4057TIP3    H112114   4.017   7.266   0.964
 4057TIP3    H212115   4.031   7.385   0.871
 4058TIP3   OH212116   7.486   5.711   6.070
 4058TIP3    H112117   7.505   5.636   6.014
 4058TIP3    H212118   7.407   5.750   6.032
 4059TIP3   OH212119   6.588   4.704   6.280
 4059TIP3    H112120   6.584   4.778   6.220
 4059TIP3    H212121   6.680   4.698   6.306
 4060TIP3   OH212122   0.473   1.293   5.398
 4060TIP3    H112123   0.403   1.228   5.392
 4060TIP3    H212124   0.470   1.323   5.489
 4061TIP3   OH212125   2.619   3.297   4.386
 4061TIP3    H112126   2.650   3.385   4.411
 4061TIP3    H212127   2.699   3.249   4.364
 4062TIP3   OH212128   5.057   1.381   4.162
 4062TIP3    H112129   5.076   1.460   4.111
 4062TIP3    H212130   4.976   1.347   4.123
 4063TIP3   OH212131   7.972   1.497   5.695
 4063TIP3    H112132   8.015   1.502   5.609
 4063TIP3    H212133   8.036   1.533   5.756
 4064TIP3   OH212134   2.196   7.516   3.888
 4064TIP3    H112135   2.283   7.504   3.925
 4064TIP3    H212136   2.140   7.533   3.964
 4065TIP3   OH212137   7.224   6.821   4.855
 4065TIP3    H112138   7.232   6.793   4.763
 4065TIP3    H212139   7.186   6.745   4.900
 4066TIP3   OH212140   0.195   0.171   0.858
 4066TIP3    H112141   0.186   0.138   0.948
 4066TIP3    H212142   0.219   0.263   0.869
 4067TIP3   OH212143   2.427   7.022   4.407
 4067TIP3    H112144   2.426   6.927   4.413
 4067TIP3    H212145   2.483   7.041   4.331
 4068TIP3   OH212146   0.566   5.473   0.789
 4068TIP3    H112147   0.636   5.465   0.854
 4068TIP3    H212148   0.594   5.546   0.734
 4069TIP3   OH212149   1.259   3.279   5.498
 4069TIP3    H112150   1.350   3.264   5.471
 4069TIP3    H212151   1.215   3.195   5.482
 4070TIP3   OH212152   1.550   1.849   0.658
 4070TIP3    H112153   1.496   1.770   0.658
 4070TIP3    H212154   1.594   1.848   0.744
 4071TIP3   OH212155   7.295   0.194   1.050
 4071TIP3    H112156   7.247   0.145   0.983
 4071TIP3    H212157   7.232   0.204   1.121
 4072TIP3   OH212158   3.530   5.884   3.774
 4072TIP3    H112159   3.448   5.916   3.738
 4072TIP3    H212160   3.515   5.790   3.789
 4073TIP3   OH212161   8.151   7.442   3.675
 4073TIP3    H112162   8.134   7.533   3.651
 4073TIP3    H212163   8.245   7.431   3.660
 4074TIP3   OH212164   5.125   5.172   3.531
 4074TIP3    H112165   5.033   5.157   3.552
 4074TIP3    H212166   5.123   5.227   3.453
 4075TIP3   OH212167   2.770   4.844   3.790
 4075TIP3    H112168   2.838   4.798   3.741
 4075TIP3    H212169   2.816   4.886   3.862
 4076TIP3   OH212170   2.257   6.743   0.821
 4076TIP3    H112171   2.309   6.822   0.837
 4076TIP3    H212172   2.253   6.736   0.725
 4077TIP3   OH212173   5.923   0.560   0.801
 4077TIP3    H112174   5.902   0.647   0.768
 4077TIP3    H212175   6.013   0.569   0.835
 4078TIP3   OH212176   1.349   7.051   0.383
 4078TIP3    H112177   1.365   6.958   0.395
 4078TIP3    H212178   1.404   7.077   0.309
 4079TIP3   OH212179   1.191   2.382   2.449
 4079TIP3    H112180   1.148   2.451   2.500
 4079TIP3    H212181   1.120   2.334   2.408
 4080TIP3   OH212182   2.572   6.740   6.627
 4080TIP3    H112183   2.628   6.688   6.570
 4080TIP3    H212184   2.508   6.678   6.661
 4081TIP3   OH212185   4.580   3.461   4.255
 4081TIP3    H112186   4.550   3.412   4.331
 4081TIP3    H212187   4.539   3.547   4.265
 4082TIP3   OH212188   4.633   5.628   5.938
 4082TIP3    H112189   4.722   5.625   5.974
 4082TIP3    H212190   4.579   5.662   6.009
 4083TIP3   OH212191   2.589   6.455   6.495
 4083TIP3    H112192   2.666   6.474   6.441
 4083TIP3    H212193   2.547   6.380   6.453
 4084TIP3   OH212194   3.971   3.244   0.552
 4084TIP3    H112195   3.911   3.302   0.598
 4084TIP3    H212196   4.057   3.263   0.590
 4085TIP3   OH212197   3.910   5.342   3.841
 4085TIP3    H112198   3.879   5.341   3.931
 4085TIP3    H212199   4.004   5.355   3.848
 4086TIP3   OH212200   4.483   3.235   4.444
 4086TIP3    H112201   4.455   3.257   4.533
 4086TIP3    H212202   4.553   3.171   4.455
 4087TIP3   OH212203   2.231   0.776   4.903
 4087TIP3    H112204   2.250   0.852   4.848
 4087TIP3    H212205   2.264   0.701   4.853
 4088TIP3   OH212206   4.061   3.774   3.562
 4088TIP3    H112207   4.148   3.779   3.522
 4088TIP3    H212208   4.012   3.714   3.506
 4089TIP3   OH212209   5.084   0.825   2.929
 4089TIP3    H112210   5.035   0.770   2.867
 4089TIP3    H212211   5.018   0.882   2.968
 4090TIP3   OH212212   2.210   2.955   0.030
 4090TIP3    H112213   2.305   2.968   0.034
 4090TIP3    H212214   2.192   2.939  -0.063
 4091TIP3   OH212215   7.796   0.153   5.067
 4091TIP3    H112216   7.803   0.075   5.013
 4091TIP3    H212217   7.757   0.122   5.149
 4092TIP3   OH212218   0.356   5.756   2.552
 4092TIP3    H112219   0.297   5.702   2.605
 4092TIP3    H212220   0.354   5.716   2.465
 4093TIP3   OH212221   7.655   0.534   2.551
 4093TIP3    H112222   7.717   0.462   2.547
 4093TIP3    H212223   7.707   0.610   2.577
 4094TIP3   OH212224   2.883   0.842   5.757
 4094TIP3    H112225   2.841   0.886   5.830
 4094TIP3    H212226   2.810   0.816   5.700
 4095TIP3   OH212227   6.200   6.879   4.936
 4095TIP3    H112228   6.247   6.807   4.894
 4095TIP3    H212229   6.257   6.955   4.926
 4096TIP3   OH212230   6.195   0.559   2.264
 4096TIP3    H112231   6.257   0.488   2.275
 4096TIP3    H212232   6.241   0.624   2.212
 4097TIP3   OH212233   6.760   1.087   4.061
 4097TIP3    H112234   6.763   1.183   4.063
 4097TIP3    H212235   6.779   1.063   3.971
 4098TIP3   OH212236   4.684   0.158   3.748
 4098TIP3    H112237   4.648   0.227   3.693
 4098TIP3    H212238   4.767   0.134   3.705
 4099TIP3   OH212239   8.003   1.274   2.757
 4099TIP3    H112240   7.981   1.325   2.834
 4099TIP3    H212241   7.920   1.236   2.728
 4100TIP3   OH212242   4.282   7.446   0.939
 4100TIP3    H112243   4.237   7.363   0.933
 4100TIP3    H212244   4.327   7.444   1.023
 4101TIP3   OH212245   4.296   5.319   0.987
 4101TIP3    H112246   4.349   5.363   1.052
 4101TIP3    H212247   4.355   5.304   0.913
 4102TIP3   OH212248   7.814   4.990   3.893
 4102TIP3    H112249   7.746   5.025   3.836
 4102TIP3    H212250   7.780   5.002   3.981
 4103TIP3   OH212251   4.497   3.805   0.774
 4103TIP3    H112252   4.511   3.900   0.778
 4103TIP3    H212253   4.519   3.774   0.862
 4104TIP3   OH212254   4.479   3.077   6.588
 4104TIP3    H112255   4.463   2.995   6.634
 4104TIP3    H212256   4.574   3.085   6.584
 4105TIP3   OH212257   4.573   2.467   6.652
 4105TIP3    H112258   4.577   2.393   6.713
 4105TIP3    H212259   4.653   2.459   6.599
 4106TIP3   OH212260   5.067   5.516   4.178
 4106TIP3    H112261   5.149   5.560   4.200
 4106TIP3    H212262   5.014   5.524   4.258
 4107TIP3   OH212263   4.956   4.904   0.619
 4107TIP3    H112264   5.049   4.886   0.609
 4107TIP3    H212265   4.913   4.831   0.574
 4108TIP3   OH212266   7.777   3.029   3.681
 4108TIP3    H112267   7.698   2.988   3.645
 4108TIP3    H212268   7.751   3.120   3.698
 4109TIP3   OH212269   0.246   3.153   4.285
 4109TIP3    H112270   0.199   3.070   4.289
 4109TIP3    H212271   0.264   3.167   4.192
 4110TIP3   OH212272   7.681   5.359   3.980
 4110TIP3    H112273   7.676   5.303   3.902
 4110TIP3    H212274   7.758   5.327   4.027
 4111TIP3   OH212275   3.439   7.362   0.621
 4111TIP3    H112276   3.361   7.419   0.622
 4111TIP3    H212277   3.454   7.345   0.529
 4112TIP3   OH212278   4.815   5.355   4.510
 4112TIP3    H112279   4.840   5.265   4.531
 4112TIP3    H212280   4.824   5.361   4.415
 4113TIP3   OH212281   0.432   2.234   6.512
 4113TIP3    H112282   0.434   2.303   6.577
 4113TIP3    H212283   0.467   2.157   6.557
 4114TIP3   OH212284   2.093   4.464   3.321
 4114TIP3    H112285   2.026   4.532   3.319
 4114TIP3    H212286   2.053   4.389   3.276
 4115TIP3   OH212287   1.275   2.281   0.203
 4115TIP3    H112288   1.320   2.239   0.129
 4115TIP3    H212289   1.315   2.368   0.209
 4116TIP3   OH212290   5.572   3.451   3.717
 4116TIP3    H112291   5.504   3.488   3.774
 4116TIP3    H212292   5.631   3.524   3.700
 4117TIP3   OH212293   2.321   1.361   5.323
 4117TIP3    H112294   2.376   1.355   5.244
 4117TIP3    H212295   2.367   1.424   5.379
 4118TIP3   OH212296   5.961   2.778   4.247
 4118TIP3    H112297   5.947   2.867   4.277
 4118TIP3    H212298   6.040   2.783   4.193
 4119TIP3   OH212299   2.455   7.394   6.541
 4119TIP3    H112300   2.498   7.415   6.624
 4119TIP3    H212301   2.495   7.311   6.514
 4120TIP3   OH212302   3.330   5.185   3.854
 4120TIP3    H112303   3.326   5.202   3.948
 4120TIP3    H212304   3.239   5.170   3.828
 4121TIP3   OH212305   6.817   5.507   0.391
 4121TIP3    H112306   6.847   5.589   0.353
 4121TIP3    H212307   6.722   5.510   0.385
 4122TIP3   OH212308   1.575   6.843   4.026
 4122TIP3    H112309   1.608   6.764   3.984
 4122TIP3    H212310   1.533   6.892   3.956
 4123TIP3   OH212311   4.992   7.217   4.372
 4123TIP3    H112312   5.081   7.221   4.338
 4123TIP3    H212313   4.938   7.254   4.302
 4124TIP3   OH212314   6.103   4.315   5.455
 4124TIP3    H112315   6.147   4.398   5.476
 4124TIP3    H212316   6.166   4.267   5.401
 4125TIP3   OH212317   7.751   6.922   1.861
 4125TIP3    H112318   7.716   6.879   1.939
 4125TIP3    H212319   7.840   6.946   1.885
 4126TIP3   OH212320   0.283   4.199   2.852
 4126TIP3    H112321   0.266   4.277   2.904
 4126TIP3    H212322   0.232   4.212   2.772
 4127TIP3   OH212323   0.179   6.972   2.566
 4127TIP3    H112324   0.258   6.930   2.532
 4127TIP3    H212325   0.202   6.995   2.656
 4128TIP3   OH212326   2.960   0.951   0.976
 4128TIP3    H112327   2.900   0.902   0.920
 4128TIP3    H212328   2.988   0.888   1.043
 4129TIP3   OH212329   4.573   5.809   6.584
 4129TIP3    H112330   4.483   5.842   6.580
 4129TIP3    H212331   4.570   5.742   6.653
 4130TIP3   OH212332   3.428   0.619   4.920
 4130TIP3    H112333   3.424   0.707   4.956
 4130TIP3    H212334   3.375   0.566   4.979
 4131TIP3   OH212335   2.693   2.557   2.484
 4131TIP3    H112336   2.689   2.637   2.431
 4131TIP3    H212337   2.762   2.505   2.443
 4132TIP3   OH212338   8.181   0.343   5.772
 4132TIP3    H112339   8.085   0.347   5.771
 4132TIP3    H212340   8.203   0.323   5.863
 4133TIP3   OH212341   6.731   7.006   0.939
 4133TIP3    H112342   6.669   7.071   0.906
 4133TIP3    H212343   6.814   7.028   0.896
 4134TIP3   OH212344   2.279   4.749   4.133
 4134TIP3    H112345   2.199   4.791   4.102
 4134TIP3    H212346   2.249   4.671   4.180
 4135TIP3   OH212347   0.885   0.355   1.564
 4135TIP3    H112348   0.883   0.429   1.504
 4135TIP3    H212349   0.838   0.286   1.519
 4136TIP3   OH212350   2.279   6.807   4.698
 4136TIP3    H112351   2.285   6.857   4.779
 4136TIP3    H212352   2.247   6.870   4.633
 4137TIP3   OH212353   4.376   1.746   4.449
 4137TIP3    H112354   4.370   1.832   4.406
 4137TIP3    H212355   4.466   1.742   4.482
 4138TIP3   OH212356   6.971   7.181   3.145
 4138TIP3    H112357   6.983   7.120   3.217
 4138TIP3    H212358   6.894   7.232   3.170
 4139TIP3   OH212359   1.737   7.438   3.528
 4139TIP3    H112360   1.760   7.450   3.620
 4139TIP3    H212361   1.819   7.415   3.485
 4140TIP3   OH212362   3.288   3.291   1.034
 4140TIP3    H112363   3.376   3.253   1.042
 4140TIP3    H212364   3.234   3.238   1.094
 4141TIP3   OH212365   5.288   5.133   6.556
 4141TIP3    H112366   5.333   5.169   6.480
 4141TIP3    H212367   5.210   5.188   6.566
 4142TIP3   OH212368   7.059   6.115   1.390
 4142TIP3    H112369   7.109   6.034   1.380
 4142TIP3    H212370   7.123   6.185   1.376
 4143TIP3   OH212371   3.388   3.361   3.315
 4143TIP3    H112372   3.390   3.456   3.308
 4143TIP3    H212373   3.410   3.331   3.226
 4144TIP3   OH212374   2.038   6.742   5.394
 4144TIP3    H112375   2.070   6.655   5.416
 4144TIP3    H212376   1.995   6.731   5.309
 4145TIP3   OH212377   0.076   1.917   1.034
 4145TIP3    H112378   0.151   1.880   0.987
 4145TIP3    H212379   0.112   1.995   1.077
 4146TIP3   OH212380   5.272   7.556   6.727
 4146TIP3    H112381   5.229   7.471   6.728
 4146TIP3    H212382   5.292   7.572   6.635
 4147TIP3   OH212383   5.940   4.979   1.557
 4147TIP3    H112384   5.895   5.061   1.577
 4147TIP3    H212385   6.018   5.005   1.509
 4148TIP3   OH212386   5.066   4.254   6.056
 4148TIP3    H112387   5.029   4.326   6.108
 4148TIP3    H212388   5.160   4.261   6.068
 4149TIP3   OH212389   7.432   1.938   0.457
 4149TIP3    H112390   7.355   1.883   0.442
 4149TIP3    H212391   7.437   1.994   0.379
 4150TIP3   OH212392   8.093   6.585   4.849
 4150TIP3    H112393   8.086   6.489   4.845
 4150TIP3    H212394   8.171   6.601   4.902
 4151TIP3   OH212395   3.539   1.515   1.649
 4151TIP3    H112396   3.505   1.461   1.577
 4151TIP3    H212397   3.523   1.464   1.728
 4152TIP3   OH212398   1.336   7.744   5.043
 4152TIP3    H112399   1.244   7.771   5.045
 4152TIP3    H212400   1.338   7.668   4.986
 4153TIP3   OH212401   5.425   6.256   3.569
 4153TIP3    H112402   5.358   6.219   3.627
 4153TIP3    H212403   5.400   6.228   3.481
 4154TIP3   OH212404   3.366   6.389   1.582
 4154TIP3    H112405   3.459   6.378   1.562
 4154TIP3    H212406   3.359   6.480   1.610
 4155TIP3   OH212407   2.109   4.870   6.255
 4155TIP3    H112408   2.178   4.843   6.196
 4155TIP3    H212409   2.047   4.918   6.200
 4156TIP3   OH212410   5.437   0.866   5.048
 4156TIP3    H112411   5.380   0.810   5.101
 4156TIP3    H212412   5.520   0.867   5.096
 4157TIP3   OH212413   3.848   0.645   0.517
 4157TIP3    H112414   3.920   0.628   0.456
 4157TIP3    H212415   3.884   0.626   0.603
 4158TIP3   OH212416   4.244   0.500   4.969
 4158TIP3    H112417   4.183   0.427   4.976
 4158TIP3    H212418   4.241   0.526   4.877
 4159TIP3   OH212419   3.645   1.493   4.648
 4159TIP3    H112420   3.705   1.552   4.602
 4159TIP3    H212421   3.586   1.460   4.580
 4160TIP3   OH212422   7.294   3.555   4.789
 4160TIP3    H112423   7.322   3.609   4.714
 4160TIP3    H212424   7.219   3.506   4.755
 4161TIP3   OH212425   4.523   3.400   3.338
 4161TIP3    H112426   4.549   3.457   3.410
 4161TIP3    H212427   4.428   3.406   3.335
 4162TIP3   OH212428   7.402   4.205   4.143
 4162TIP3    H112429   7.411   4.266   4.070
 4162TIP3    H212430   7.474   4.143   4.131
 4163TIP3   OH212431   1.037   5.459   4.062
 4163TIP3    H112432   0.993   5.433   4.142
 4163TIP3    H212433   1.004   5.548   4.045
 4164TIP3   OH212434   2.713   0.827   6.445
 4164TIP3    H112435   2.691   0.871   6.363
 4164TIP3    H212436   2.783   0.880   6.483
 4165TIP3   OH212437   0.542   0.134   5.710
 4165TIP3    H112438   0.611   0.181   5.663
 4165TIP3    H212439   0.570   0.135   5.801
 4166TIP3   OH212440   4.854   1.539   2.021
 4166TIP3    H112441   4.776   1.591   2.041
 4166TIP3    H212442   4.846   1.518   1.928
 4167TIP3   OH212443   7.529   2.734   0.728
 4167TIP3    H112444   7.596   2.665   0.725
 4167TIP3    H212445   7.478   2.715   0.806
 4168TIP3   OH212446   2.924   0.782   4.734
 4168TIP3    H112447   2.925   0.860   4.678
 4168TIP3    H212448   2.986   0.803   4.804
 4169TIP3   OH212449   7.660   4.977   0.219
 4169TIP3    H112450   7.675   5.070   0.236
 4169TIP3    H212451   7.593   4.951   0.282
 4170TIP3   OH212452   7.310   7.486   5.582
 4170TIP3    H112453   7.357   7.406   5.607
 4170TIP3    H212454   7.271   7.465   5.497
 4171TIP3   OH212455   6.267   4.830   0.774
 4171TIP3    H112456   6.211   4.843   0.698
 4171TIP3    H212457   6.211   4.783   0.837
 4172TIP3   OH212458   7.899   6.746   3.354
 4172TIP3    H112459   7.882   6.652   3.351
 4172TIP3    H212460   7.816   6.786   3.329
 4173TIP3   OH212461   3.211   4.230   5.796
 4173TIP3    H112462   3.225   4.279   5.877
 4173TIP3    H212463   3.293   4.183   5.781
 4174TIP3   OH212464   3.680   0.555   5.318
 4174TIP3    H112465   3.591   0.536   5.288
 4174TIP3    H212466   3.733   0.553   5.238
 4175TIP3   OH212467   0.666   4.028   4.720
 4175TIP3    H112468   0.621   4.109   4.745
 4175TIP3    H212469   0.733   4.015   4.788
 4176TIP3   OH212470   2.177   1.063   2.206
 4176TIP3    H112471   2.121   1.106   2.270
 4176TIP3    H212472   2.233   1.133   2.172
 4177TIP3   OH212473   6.897   6.863   6.268
 4177TIP3    H112474   6.951   6.909   6.205
 4177TIP3    H212475   6.955   6.798   6.308
 4178TIP3   OH212476   8.068   7.303   0.430
 4178TIP3    H112477   8.070   7.251   0.350
 4178TIP3    H212478   8.160   7.322   0.449
 4179TIP3   OH212479   5.555   1.016   6.625
 4179TIP3    H112480   5.544   0.966   6.545
 4179TIP3    H212481   5.530   1.106   6.602
 4180TIP3   OH212482   3.073   5.058   0.087
 4180TIP3    H112483   3.162   5.022   0.088
 4180TIP3    H212484   3.021   4.992   0.041
 4181TIP3   OH212485   4.925   4.468   2.335
 4181TIP3    H112486   4.986   4.396   2.320
 4181TIP3    H212487   4.972   4.546   2.305
 4182TIP3   OH212488   6.246   5.514   2.590
 4182TIP3    H112489   6.333   5.555   2.594
 4182TIP3    H212490   6.249   5.462   2.509
 4183TIP3   OH212491   2.006   6.586   6.100
 4183TIP3    H112492   1.935   6.624   6.152
 4183TIP3    H212493   1.963   6.554   6.021
 4184TIP3   OH212494   2.307   2.632   0.827
 4184TIP3    H112495   2.270   2.564   0.883
 4184TIP3    H212496   2.344   2.584   0.753
 4185TIP3   OH212497   6.264   2.892   1.949
 4185TIP3    H112498   6.354   2.862   1.950
 4185TIP3    H212499   6.232   2.878   2.038
 4186TIP3   OH212500   2.111   5.421   2.470
 4186TIP3    H112501   2.049   5.458   2.407
 4186TIP3    H212502   2.163   5.496   2.499
 4187TIP3   OH212503   5.609   6.639   0.666
 4187TIP3    H112504   5.575   6.556   0.697
 4187TIP3    H212505   5.663   6.616   0.590
 4188TIP3   OH212506   3.898   5.864   1.490
 4188TIP3    H112507   3.887   5.943   1.437
 4188TIP3    H212508   3.823   5.809   1.468
 4189TIP3   OH212509   4.523   6.355   6.414
 4189TIP3    H112510   4.579   6.344   6.491
 4189TIP3    H212511   4.510   6.265   6.382
 4190TIP3   OH212512   5.679   3.370   6.489
 4190TIP3    H112513   5.695   3.460   6.462
 4190TIP3    H212514   5.705   3.368   6.581
 4191TIP3   OH212515   1.181   1.172   4.036
 4191TIP3    H112516   1.244   1.178   3.964
 4191TIP3    H212517   1.119   1.243   4.019
 4192TIP3   OH212518   6.939   4.258   2.815
 4192TIP3    H112519   6.873   4.190   2.798
 4192TIP3    H212520   6.951   4.256   2.910
 4193TIP3   OH212521   8.040   2.915   0.503
 4193TIP3    H112522   8.095   2.839   0.519
 4193TIP3    H212523   8.023   2.913   0.409
 4194TIP3   OH212524   7.834   5.697   2.036
 4194TIP3    H112525   7.742   5.713   2.013
 4194TIP3    H212526   7.851   5.755   2.110
 4195TIP3   OH212527   1.143   3.749   6.430
 4195TIP3    H112528   1.236   3.729   6.419
 4195TIP3    H212529   1.115   3.780   6.343
 4196TIP3   OH212530   5.242   7.309   5.405
 4196TIP3    H112531   5.224   7.361   5.327
 4196TIP3    H212532   5.288   7.232   5.373
 4197TIP3   OH212533   4.199   4.342   1.325
 4197TIP3    H112534   4.283   4.328   1.282
 4197TIP3    H212535   4.187   4.437   1.324
 4198TIP3   OH212536   4.529   4.084   5.804
 4198TIP3    H112537   4.607   4.133   5.829
 4198TIP3    H212538   4.560   3.994   5.790
 4199TIP3   OH212539   3.271   5.513   0.356
 4199TIP3    H112540   3.238   5.425   0.372
 4199TIP3    H212541   3.297   5.545   0.442
 4200TIP3   OH212542   2.472   6.714   3.925
 4200TIP3    H112543   2.567   6.708   3.934
 4200TIP3    H212544   2.438   6.637   3.969
 4201TIP3   OH212545   0.187   4.000   4.298
 4201TIP3    H112546   0.251   3.930   4.306
 4201TIP3    H212547   0.105   3.961   4.329
 4202TIP3   OH212548   0.031   7.414   3.058
 4202TIP3    H112549  -0.047   7.448   3.016
 4202TIP3    H212550   0.084   7.491   3.079
 4203TIP3   OH212551   5.660   2.259   4.500
 4203TIP3    H112552   5.584   2.269   4.442
 4203TIP3    H212553   5.631   2.295   4.584
 4204TIP3   OH212554   0.044   3.520   3.998
 4204TIP3    H112555   0.060   3.457   4.068
 4204TIP3    H212556   0.048   3.605   4.041
 4205TIP3   OH212557   0.821   2.707   0.586
 4205TIP3    H112558   0.899   2.705   0.641
 4205TIP3    H212559   0.822   2.794   0.547
 4206TIP3   OH212560   4.145   5.939   3.914
 4206TIP3    H112561   4.105   5.951   4.000
 4206TIP3    H212562   4.239   5.930   3.933
 4207TIP3   OH212563   7.679   2.673   6.391
 4207TIP3    H112564   7.681   2.584   6.355
 4207TIP3    H212565   7.740   2.671   6.465
 4208TIP3   OH212566   4.842   7.567   4.859
 4208TIP3    H112567   4.807   7.511   4.928
 4208TIP3    H212568   4.844   7.512   4.781
 4209TIP3   OH212569   6.965   5.433   6.154
 4209TIP3    H112570   7.044   5.473   6.191
 4209TIP3    H212571   6.905   5.424   6.228
 4210TIP3   OH212572   3.019   5.426   5.947
 4210TIP3    H112573   3.086   5.445   5.881
 4210TIP3    H212574   3.046   5.343   5.986
 4211TIP3   OH212575   0.066   5.749   1.761
 4211TIP3    H112576   0.031   5.661   1.774
 4211TIP3    H212577   0.155   5.745   1.797
 4212TIP3   OH212578   5.017   0.346   2.964
 4212TIP3    H112579   5.013   0.421   3.023
 4212TIP3    H212580   4.979   0.274   3.014
 4213TIP3   OH212581   6.246   5.147   3.350
 4213TIP3    H112582   6.228   5.065   3.397
 4213TIP3    H212583   6.217   5.130   3.260
 4214TIP3   OH212584   2.664   0.859   0.068
 4214TIP3    H112585   2.736   0.821   0.017
 4214TIP3    H212586   2.681   0.953   0.065
 4215TIP3   OH212587   4.082   1.108   4.976
 4215TIP3    H112588   4.133   1.031   4.952
 4215TIP3    H212589   4.145   1.179   4.977
 4216TIP3   OH212590   1.483   0.876   4.448
 4216TIP3    H112591   1.392   0.901   4.435
 4216TIP3    H212592   1.483   0.780   4.440
 4217TIP3   OH212593   3.116   0.054   3.993
 4217TIP3    H112594   3.061  -0.017   3.960
 4217TIP3    H212595   3.166   0.083   3.917
 4218TIP3   OH212596   7.940   2.056   6.261
 4218TIP3    H112597   8.018   2.034   6.211
 4218TIP3    H212598   7.962   2.139   6.304
 4219TIP3   OH212599   7.107   7.239   4.314
 4219TIP3    H112600   7.121   7.175   4.245
 4219TIP3    H212601   7.058   7.310   4.272
 4220TIP3   OH212602   0.385   4.556   2.303
 4220TIP3    H112603   0.304   4.511   2.279
 4220TIP3    H212604   0.363   4.606   2.381
 4221TIP3   OH212605   4.803   6.650   0.733
 4221TIP3    H112606   4.737   6.718   0.747
 4221TIP3    H212607   4.853   6.648   0.815
 4222TIP3   OH212608   7.500   2.504   6.730
 4222TIP3    H112609   7.551   2.423   6.723
 4222TIP3    H212610   7.471   2.522   6.640
 4223TIP3   OH212611   5.930   1.959   5.141
 4223TIP3    H112612   5.851   2.012   5.155
 4223TIP3    H212613   5.904   1.871   5.168
 4224TIP3   OH212614   5.767   7.174   4.876
 4224TIP3    H112615   5.744   7.110   4.943
 4224TIP3    H212616   5.806   7.121   4.806
 4225TIP3   OH212617   7.739   7.262   5.481
 4225TIP3    H112618   7.735   7.355   5.505
 4225TIP3    H212619   7.673   7.220   5.535
 4226TIP3   OH212620   5.772   1.326   3.514
 4226TIP3    H112621   5.758   1.408   3.562
 4226TIP3    H212622   5.729   1.340   3.429
 4227TIP3   OH212623   7.061   3.753   4.949
 4227TIP3    H112624   7.068   3.763   4.854
 4227TIP3    H212625   7.014   3.670   4.960
 4228TIP3   OH212626   6.837   4.176   1.056
 4228TIP3    H112627   6.744   4.154   1.045
 4228TIP3    H212628   6.884   4.111   1.005
 4229TIP3   OH212629   2.223   5.622   1.809
 4229TIP3    H112630   2.212   5.535   1.771
 4229TIP3    H212631   2.164   5.623   1.885
 4230TIP3   OH212632   1.326   7.800   0.177
 4230TIP3    H112633   1.281   7.861   0.235
 4230TIP3    H212634   1.326   7.717   0.224
 4231TIP3   OH212635   2.113   3.667   4.798
 4231TIP3    H112636   2.131   3.574   4.801
 4231TIP3    H212637   2.159   3.699   4.720
 4232TIP3   OH212638   3.836   4.978   1.838
 4232TIP3    H112639   3.892   5.041   1.884
 4232TIP3    H212640   3.813   5.022   1.756
 4233TIP3   OH212641   4.975   1.198   5.548
 4233TIP3    H112642   4.939   1.251   5.477
 4233TIP3    H212643   5.004   1.117   5.506
 4234TIP3   OH212644   0.441   4.225   6.499
 4234TIP3    H112645   0.373   4.174   6.543
 4234TIP3    H212646   0.396   4.267   6.425
 4235TIP3   OH212647   4.459   7.448   1.170
 4235TIP3    H112648   4.505   7.398   1.103
 4235TIP3    H212649   4.523   7.513   1.199
 4236TIP3   OH212650   2.243   0.375   6.710
 4236TIP3    H112651   2.236   0.345   6.620
 4236TIP3    H212652   2.157   0.410   6.731
 4237TIP3   OH212653   0.171   6.216   3.319
 4237TIP3    H112654   0.250   6.167   3.296
 4237TIP3    H212655   0.106   6.187   3.254
 4238TIP3   OH212656   1.383   5.840   2.578
 4238TIP3    H112657   1.318   5.894   2.623
 4238TIP3    H212658   1.467   5.877   2.604
 4239TIP3   OH212659   5.861   7.621   5.747
 4239TIP3    H112660   5.888   7.536   5.714
 4239TIP3    H212661   5.766   7.618   5.749
 4240TIP3   OH212662   1.593   7.569   5.917
 4240TIP3    H112663   1.606   7.485   5.962
 4240TIP3    H212664   1.617   7.635   5.981
 4241TIP3   OH212665   0.446   7.841   0.034
 4241TIP3    H112666   0.417   7.765  -0.016
 4241TIP3    H212667   0.392   7.840   0.114
 4242TIP3   OH212668   6.584   2.092   1.245
 4242TIP3    H112669   6.508   2.115   1.191
 4242TIP3    H212670   6.578   2.150   1.321
 4243TIP3   OH212671   2.168   7.549   3.427
 4243TIP3    H112672   2.144   7.457   3.432
 4243TIP3    H212673   2.097   7.595   3.472
 4244TIP3   OH212674   5.523   5.853   4.049
 4244TIP3    H112675   5.497   5.945   4.048
 4244TIP3    H212676   5.616   5.855   4.075
 4245TIP3   OH212677   1.032   7.415   4.667
 4245TIP3    H112678   1.107   7.368   4.630
 4245TIP3    H212679   1.061   7.506   4.673
 4246TIP3   OH212680   0.594   1.738   6.408
 4246TIP3    H112681   0.550   1.682   6.472
 4246TIP3    H212682   0.524   1.794   6.373
 4247TIP3   OH212683   1.118   6.712   0.853
 4247TIP3    H112684   1.121   6.643   0.919
 4247TIP3    H212685   1.105   6.667   0.770
 4248TIP3   OH212686   0.466   7.832   1.114
 4248TIP3    H112687   0.426   7.835   1.201
 4248TIP3    H212688   0.476   7.739   1.094
 4249TIP3   OH212689   2.703   6.892   6.436
 4249TIP3    H112690   2.680   6.859   6.523
 4249TIP3    H212691   2.653   6.837   6.375
 4250TIP3   OH212692   8.096   7.347   6.186
 4250TIP3    H112693   8.037   7.337   6.111
 4250TIP3    H212694   8.159   7.413   6.157
 4251TIP3   OH212695   5.094   2.604   5.527
 4251TIP3    H112696   5.112   2.562   5.611
 4251TIP3    H212697   5.059   2.534   5.472
 4252TIP3   OH212698   1.234   0.182   3.380
 4252TIP3    H112699   1.328   0.162   3.380
 4252TIP3    H212700   1.192   0.097   3.367
 4253TIP3   OH212701   8.287   0.501   3.470
 4253TIP3    H112702   8.262   0.469   3.383
 4253TIP3    H212703   8.309   0.593   3.456
 4254TIP3   OH212704   3.237   5.146   1.537
 4254TIP3    H112705   3.296   5.091   1.588
 4254TIP3    H212706   3.286   5.227   1.521
 4255TIP3   OH212707   5.604   1.978   0.913
 4255TIP3    H112708   5.651   1.967   0.996
 4255TIP3    H212709   5.592   1.888   0.881
 4256TIP3   OH212710   7.673   0.450   6.603
 4256TIP3    H112711   7.701   0.523   6.659
 4256TIP3    H212712   7.632   0.493   6.528
 4257TIP3   OH212713   3.621   3.436   2.546
 4257TIP3    H112714   3.582   3.368   2.492
 4257TIP3    H212715   3.663   3.389   2.619
 4258TIP3   OH212716   7.191   5.363   1.181
 4258TIP3    H112717   7.226   5.425   1.244
 4258TIP3    H212718   7.183   5.281   1.229
 4259TIP3   OH212719   7.090   7.358   2.785
 4259TIP3    H112720   7.081   7.403   2.701
 4259TIP3    H212721   7.177   7.383   2.817
 4260TIP3   OH212722   3.147   5.529   5.478
 4260TIP3    H112723   3.136   5.443   5.436
 4260TIP3    H212724   3.108   5.591   5.416
 4261TIP3   OH212725   7.592   1.887   4.577
 4261TIP3    H112726   7.511   1.857   4.618
 4261TIP3    H212727   7.648   1.911   4.650
 4262TIP3   OH212728   4.206   1.777   4.224
 4262TIP3    H112729   4.271   1.831   4.179
 4262TIP3    H212730   4.124   1.795   4.178
 4263TIP3   OH212731   0.069   0.298   0.531
 4263TIP3    H112732   0.137   0.233   0.547
 4263TIP3    H212733  -0.012   0.255   0.557
 4264TIP3   OH212734   5.003   0.963   1.570
 4264TIP3    H112735   5.015   1.052   1.603
 4264TIP3    H212736   4.955   0.975   1.488
 4265TIP3   OH212737   5.258   3.644   1.563
 4265TIP3    H112738   5.281   3.593   1.641
 4265TIP3    H212739   5.171   3.611   1.539
 4266TIP3   OH212740   2.995   7.555   5.453
 4266TIP3    H112741   3.058   7.539   5.383
 4266TIP3    H212742   2.915   7.511   5.424
 4267TIP3   OH212743   3.101   0.435   0.794
 4267TIP3    H112744   3.027   0.476   0.839
 4267TIP3    H212745   3.108   0.348   0.833
 4268TIP3   OH212746   3.101   0.688   3.226
 4268TIP3    H112747   3.111   0.769   3.276
 4268TIP3    H212748   3.084   0.621   3.292
 4269TIP3   OH212749   4.382   1.537   2.188
 4269TIP3    H112750   4.329   1.610   2.220
 4269TIP3    H212751   4.319   1.466   2.172
 4270TIP3   OH212752   5.824   5.293   0.790
 4270TIP3    H112753   5.824   5.386   0.810
 4270TIP3    H212754   5.883   5.284   0.715
 4271TIP3   OH212755   2.097   0.942   0.315
 4271TIP3    H112756   2.176   0.927   0.264
 4271TIP3    H212757   2.026   0.911   0.259
 4272TIP3   OH212758   4.927   3.171   3.241
 4272TIP3    H112759   4.978   3.219   3.307
 4272TIP3    H212760   4.877   3.238   3.195
 4273TIP3   OH212761   6.925   1.234   4.767
 4273TIP3    H112762   6.890   1.171   4.831
 4273TIP3    H212763   6.860   1.235   4.697
 4274TIP3   OH212764   3.475   1.317   1.847
 4274TIP3    H112765   3.392   1.283   1.881
 4274TIP3    H212766   3.540   1.250   1.868
 4275TIP3   OH212767   0.980   3.502   6.417
 4275TIP3    H112768   0.928   3.525   6.340
 4275TIP3    H212769   1.021   3.585   6.443
 4276TIP3   OH212770   0.241   5.305   5.526
 4276TIP3    H112771   0.258   5.277   5.436
 4276TIP3    H212772   0.181   5.239   5.561
 4277TIP3   OH212773   7.832   0.095   2.297
 4277TIP3    H112774   7.892   0.027   2.327
 4277TIP3    H212775   7.752   0.080   2.348
 4278TIP3   OH212776   7.228   4.997   4.902
 4278TIP3    H112777   7.320   4.995   4.876
 4278TIP3    H212778   7.221   5.070   4.963
 4279TIP3   OH212779   0.755   6.872   4.369
 4279TIP3    H112780   0.764   6.786   4.327
 4279TIP3    H212781   0.839   6.887   4.411
 4280TIP3   OH212782   0.258   3.018   3.515
 4280TIP3    H112783   0.331   3.062   3.471
 4280TIP3    H212784   0.289   3.006   3.605
 4281TIP3   OH212785   4.298   4.232   4.266
 4281TIP3    H112786   4.245   4.309   4.287
 4281TIP3    H212787   4.244   4.157   4.293
 4282TIP3   OH212788   2.417   0.490   1.224
 4282TIP3    H112789   2.415   0.531   1.310
 4282TIP3    H212790   2.325   0.481   1.199
 4283TIP3   OH212791   4.679   6.358   5.949
 4283TIP3    H112792   4.592   6.398   5.945
 4283TIP3    H212793   4.662   6.264   5.955
 4284TIP3   OH212794   2.084   1.112   1.861
 4284TIP3    H112795   2.164   1.063   1.882
 4284TIP3    H212796   2.012   1.056   1.888
 4285TIP3   OH212797   5.131   4.803   5.024
 4285TIP3    H112798   5.212   4.853   5.033
 4285TIP3    H212799   5.128   4.778   4.931
 4286TIP3   OH212800   6.496   6.401   0.210
 4286TIP3    H112801   6.576   6.397   0.158
 4286TIP3    H212802   6.465   6.491   0.199
 4287TIP3   OH212803   8.227   5.274   4.033
 4287TIP3    H112804   8.315   5.313   4.024
 4287TIP3    H212805   8.244   5.183   4.057
 4288TIP3   OH212806   7.402   6.656   1.745
 4288TIP3    H112807   7.402   6.625   1.654
 4288TIP3    H212808   7.404   6.752   1.737
 4289TIP3   OH212809   2.194   4.192   2.871
 4289TIP3    H112810   2.133   4.173   2.800
 4289TIP3    H212811   2.251   4.260   2.835
 4290TIP3   OH212812   2.126   3.115   2.012
 4290TIP3    H112813   2.158   3.179   2.076
 4290TIP3    H212814   2.139   3.159   1.927
 4291TIP3   OH212815   3.555   2.635   2.235
 4291TIP3    H112816   3.544   2.557   2.289
 4291TIP3    H212817   3.564   2.707   2.298
 4292TIP3   OH212818   0.171   6.828   0.675
 4292TIP3    H112819   0.112   6.830   0.599
 4292TIP3    H212820   0.245   6.774   0.646
 4293TIP3   OH212821   5.279   2.296   5.075
 4293TIP3    H112822   5.372   2.295   5.055
 4293TIP3    H212823   5.252   2.204   5.073
 4294TIP3   OH212824   1.865   3.597   3.262
 4294TIP3    H112825   1.817   3.585   3.343
 4294TIP3    H212826   1.945   3.546   3.273
 4295TIP3   OH212827   6.727   4.728   0.076
 4295TIP3    H112828   6.671   4.657   0.045
 4295TIP3    H212829   6.757   4.700   0.163
 4296TIP3   OH212830   0.203   1.264   5.786
 4296TIP3    H112831   0.261   1.191   5.807
 4296TIP3    H212832   0.262   1.340   5.780
 4297TIP3   OH212833   2.351   7.582   3.050
 4297TIP3    H112834   2.324   7.577   2.959
 4297TIP3    H212835   2.269   7.591   3.099
 4298TIP3   OH212836   5.682   2.278   0.938
 4298TIP3    H112837   5.778   2.277   0.947
 4298TIP3    H212838   5.653   2.206   0.994
 4299TIP3   OH212839   3.228   5.408   6.481
 4299TIP3    H112840   3.199   5.423   6.391
 4299TIP3    H212841   3.149   5.380   6.527
 4300TIP3   OH212842   0.424   4.553   4.750
 4300TIP3    H112843   0.476   4.483   4.711
 4300TIP3    H212844   0.385   4.598   4.675
 4301TIP3   OH212845   6.828   5.331   5.924
 4301TIP3    H112846   6.897   5.340   5.990
 4301TIP3    H212847   6.804   5.421   5.901
 4302TIP3   OH212848   4.230   6.499   0.241
 4302TIP3    H112849   4.153   6.518   0.294
 4302TIP3    H212850   4.283   6.579   0.247
 4303TIP3   OH212851   3.004   1.853   6.675
 4303TIP3    H112852   2.931   1.903   6.637
 4303TIP3    H212853   3.077   1.870   6.615
 4304TIP3   OH212854   3.112   4.876   4.489
 4304TIP3    H112855   3.128   4.846   4.578
 4304TIP3    H212856   3.197   4.904   4.456
 4305TIP3   OH212857   2.965   3.121   6.286
 4305TIP3    H112858   3.018   3.170   6.349
 4305TIP3    H212859   3.024   3.108   6.211
 4306TIP3   OH212860   5.419   1.059   3.426
 4306TIP3    H112861   5.497   1.005   3.414
 4306TIP3    H212862   5.414   1.111   3.346
 4307TIP3   OH212863   0.361   3.168   4.883
 4307TIP3    H112864   0.403   3.125   4.808
 4307TIP3    H212865   0.293   3.223   4.845
 4308TIP3   OH212866   7.263   5.921   2.973
 4308TIP3    H112867   7.252   5.955   2.884
 4308TIP3    H212868   7.230   5.991   3.029
 4309TIP3   OH212869   6.886   2.351   6.422
 4309TIP3    H112870   6.816   2.333   6.485
 4309TIP3    H212871   6.851   2.420   6.366
 4310TIP3   OH212872   7.522   6.363   1.173
 4310TIP3    H112873   7.482   6.383   1.088
 4310TIP3    H212874   7.565   6.445   1.200
 4311TIP3   OH212875   6.752   5.826   1.708
 4311TIP3    H112876   6.724   5.776   1.631
 4311TIP3    H212877   6.769   5.915   1.674
 4312TIP3   OH212878   8.016   2.921   2.231
 4312TIP3    H112879   8.062   2.845   2.196
 4312TIP3    H212880   8.047   2.995   2.178
 4313TIP3   OH212881   6.828   4.511   6.576
 4313TIP3    H112882   6.914   4.475   6.599
 4313TIP3    H212883   6.827   4.509   6.480
 4314TIP3   OH212884   7.586   6.942   0.073
 4314TIP3    H112885   7.532   6.948   0.151
 4314TIP3    H212886   7.611   6.850   0.067
 4315TIP3   OH212887   3.067   3.326   6.719
 4315TIP3    H112888   2.976   3.298   6.730
 4315TIP3    H212889   3.117   3.270   6.779
 4316TIP3   OH212890   7.347   0.284   4.049
 4316TIP3    H112891   7.320   0.313   4.136
 4316TIP3    H212892   7.266   0.260   4.005
 4317TIP3   OH212893   5.339   7.285   4.974
 4317TIP3    H112894   5.302   7.345   5.039
 4317TIP3    H212895   5.372   7.211   5.025
 4318TIP3   OH212896   2.740   0.224   4.482
 4318TIP3    H112897   2.707   0.303   4.439
 4318TIP3    H212898   2.792   0.181   4.414
 4319TIP3   OH212899   5.985   5.203   4.077
 4319TIP3    H112900   5.893   5.221   4.058
 4319TIP3    H212901   6.025   5.185   3.992
 4320TIP3   OH212902   4.477   3.438   6.196
 4320TIP3    H112903   4.456   3.381   6.271
 4320TIP3    H212904   4.402   3.428   6.137
 4321TIP3   OH212905   3.439   0.170   3.607
 4321TIP3    H112906   3.411   0.257   3.580
 4321TIP3    H212907   3.497   0.185   3.682
 4322TIP3   OH212908   1.313   4.010  -0.011
 4322TIP3    H112909   1.407   4.025  -0.016
 4322TIP3    H212910   1.296   3.997   0.083
 4323TIP3   OH212911   4.296   0.206   5.527
 4323TIP3    H112912   4.386   0.221   5.557
 4323TIP3    H212913   4.249   0.177   5.606
 4324TIP3   OH212914   4.227   4.475   6.322
 4324TIP3    H112915   4.302   4.535   6.322
 4324TIP3    H212916   4.264   4.392   6.354
 4325TIP3   OH212917   4.051   6.808   0.852
 4325TIP3    H112918   4.009   6.883   0.809
 4325TIP3    H212919   4.133   6.796   0.804
 4326TIP3   OH212920   2.615   5.022   0.806
 4326TIP3    H112921   2.628   4.934   0.773
 4326TIP3    H212922   2.520   5.030   0.816
 4327TIP3   OH212923   1.720   7.130   4.072
 4327TIP3    H112924   1.664   7.188   4.019
 4327TIP3    H212925   1.680   7.044   4.062
 4328TIP3   OH212926   8.141   6.539   5.367
 4328TIP3    H112927   8.052   6.512   5.345
 4328TIP3    H212928   8.144   6.536   5.463
 4329TIP3   OH212929   1.593   0.792   1.988
 4329TIP3    H112930   1.546   0.813   1.907
 4329TIP3    H212931   1.560   0.855   2.052
 4330TIP3   OH212932   1.464   6.955   4.286
 4330TIP3    H112933   1.522   6.889   4.249
 4330TIP3    H212934   1.476   6.947   4.380
 4331TIP3   OH212935   3.027   1.922   4.961
 4331TIP3    H112936   3.018   1.869   5.041
 4331TIP3    H212937   3.121   1.934   4.951
 4332TIP3   OH212938   3.600   0.982   0.467
 4332TIP3    H112939   3.532   0.919   0.491
 4332TIP3    H212940   3.566   1.027   0.390
 4333TIP3   OH212941   7.583   0.624   3.487
 4333TIP3    H112942   7.617   0.683   3.554
 4333TIP3    H212943   7.661   0.588   3.444
 4334TIP3   OH212944   8.071   7.467   5.016
 4334TIP3    H112945   8.058   7.399   4.950
 4334TIP3    H212946   8.126   7.425   5.083
 4335TIP3   OH212947   4.234   0.542   0.510
 4335TIP3    H112948   4.193   0.581   0.433
 4335TIP3    H212949   4.246   0.450   0.486
 4336TIP3   OH212950   2.497   0.923   6.687
 4336TIP3    H112951   2.501   0.981   6.764
 4336TIP3    H212952   2.464   0.979   6.617
 4337TIP3   OH212953   3.325   5.903   0.507
 4337TIP3    H112954   3.333   5.882   0.600
 4337TIP3    H212955   3.415   5.902   0.474
 4338TIP3   OH212956   6.435   3.252   6.504
 4338TIP3    H112957   6.372   3.282   6.439
 4338TIP3    H212958   6.410   3.161   6.521
 4339TIP3   OH212959   5.276   4.214   4.151
 4339TIP3    H112960   5.201   4.238   4.204
 4339TIP3    H212961   5.239   4.183   4.068
 4340TIP3   OH212962   1.890   5.962   2.640
 4340TIP3    H112963   1.958   5.924   2.585
 4340TIP3    H212964   1.914   5.934   2.729
 4341TIP3   OH212965   4.843   1.265   1.942
 4341TIP3    H112966   4.766   1.319   1.957
 4341TIP3    H212967   4.847   1.207   2.019
 4342TIP3   OH212968   0.533   5.337   1.101
 4342TIP3    H112969   0.450   5.291   1.116
 4342TIP3    H212970   0.508   5.429   1.092
 4343TIP3   OH212971   5.797   4.057   3.749
 4343TIP3    H112972   5.718   4.058   3.804
 4343TIP3    H212973   5.869   4.074   3.810
 4344TIP3   OH212974   7.760   3.316   2.243
 4344TIP3    H112975   7.851   3.336   2.266
 4344TIP3    H212976   7.765   3.279   2.155
 4345TIP3   OH212977   4.639   2.346   1.841
 4345TIP3    H112978   4.663   2.402   1.767
 4345TIP3    H212979   4.665   2.258   1.813
 4346TIP3   OH212980   1.340   5.075   3.203
 4346TIP3    H112981   1.361   5.169   3.211
 4346TIP3    H212982   1.400   5.043   3.136
 4347TIP3   OH212983   6.995   3.614   5.777
 4347TIP3    H112984   6.931   3.685   5.774
 4347TIP3    H212985   7.037   3.618   5.691
 4348TIP3   OH212986   7.574   4.232   2.206
 4348TIP3    H112987   7.514   4.201   2.274
 4348TIP3    H212988   7.610   4.152   2.167
 4349TIP3   OH212989   3.780   4.746   1.268
 4349TIP3    H112990   3.845   4.708   1.327
 4349TIP3    H212991   3.718   4.674   1.252
 4350TIP3   OH212992   2.406   5.274   1.545
 4350TIP3    H112993   2.376   5.186   1.523
 4350TIP3    H212994   2.372   5.330   1.476
 4351TIP3   OH212995   2.208   7.291   3.537
 4351TIP3    H112996   2.196   7.201   3.567
 4351TIP3    H212997   2.299   7.311   3.559
 4352TIP3   OH212998   6.006   6.351   0.419
 4352TIP3    H112999   6.092   6.340   0.378
 4352TIP3    H213000   5.989   6.445   0.413
 4353TIP3   OH213001   7.086   2.405   1.672
 4353TIP3    H113002   7.025   2.340   1.638
 4353TIP3    H213003   7.059   2.488   1.631
 4354TIP3   OH213004   4.268   5.130   2.330
 4354TIP3    H113005   4.288   5.038   2.309
 4354TIP3    H213006   4.299   5.179   2.254
 4355TIP3   OH213007   4.637   4.024   1.876
 4355TIP3    H113008   4.662   3.999   1.787
 4355TIP3    H213009   4.720   4.039   1.921
 4356TIP3   OH213010   3.880   6.861   2.692
 4356TIP3    H113011   3.880   6.787   2.632
 4356TIP3    H213012   3.923   6.827   2.771
 4357TIP3   OH213013   4.517   2.084   2.573
 4357TIP3    H113014   4.495   2.009   2.518
 4357TIP3    H213015   4.432   2.119   2.601
 4358TIP3   OH213016   7.178   5.613   5.948
 4358TIP3    H113017   7.147   5.533   5.905
 4358TIP3    H213018   7.248   5.645   5.891
 4359TIP3   OH213019   4.745   4.572   3.711
 4359TIP3    H113020   4.668   4.628   3.718
 4359TIP3    H213021   4.710   4.485   3.689
 4360TIP3   OH213022   6.101   7.657   5.623
 4360TIP3    H113023   6.120   7.750   5.616
 4360TIP3    H213024   6.030   7.652   5.687
 4361TIP3   OH213025   4.343   7.618   2.261
 4361TIP3    H113026   4.416   7.677   2.277
 4361TIP3    H213027   4.266   7.667   2.289
 4362TIP3   OH213028   8.026   0.726   2.119
 4362TIP3    H113029   8.061   0.701   2.204
 4362TIP3    H213030   8.008   0.643   2.075
 4363TIP3   OH213031   7.236   7.750   5.259
 4363TIP3    H113032   7.189   7.833   5.264
 4363TIP3    H213033   7.251   7.736   5.166
 4364TIP3   OH213034   7.637   5.509   3.191
 4364TIP3    H113035   7.662   5.580   3.131
 4364TIP3    H213036   7.543   5.522   3.205
 4365TIP3   OH213037   3.297   1.975   2.973
 4365TIP3    H113038   3.280   2.018   2.889
 4365TIP3    H213039   3.336   2.042   3.028
 4366TIP3   OH213040   3.030   2.754   6.424
 4366TIP3    H113041   2.998   2.691   6.488
 4366TIP3    H213042   3.108   2.712   6.386
 4367TIP3   OH213043   4.984   4.874   5.255
 4367TIP3    H113044   4.972   4.963   5.223
 4367TIP3    H213045   5.057   4.839   5.204
 4368TIP3   OH213046   1.873   7.128   5.498
 4368TIP3    H113047   1.925   7.182   5.557
 4368TIP3    H213048   1.890   7.038   5.525
 4369TIP3   OH213049   0.006   5.058   2.160
 4369TIP3    H113050   0.006   5.084   2.252
 4369TIP3    H213051   0.035   4.966   2.161
 4370TIP3   OH213052   5.926   3.674   6.723
 4370TIP3    H113053   5.989   3.602   6.734
 4370TIP3    H213054   5.849   3.632   6.685
 4371TIP3   OH213055   7.778   2.484   4.224
 4371TIP3    H113056   7.707   2.472   4.161
 4371TIP3    H213057   7.773   2.576   4.249
 4372TIP3   OH213058   1.519   1.660   5.518
 4372TIP3    H113059   1.531   1.750   5.548
 4372TIP3    H213060   1.457   1.622   5.581
 4373TIP3   OH213061   7.329   5.434   4.857
 4373TIP3    H113062   7.400   5.455   4.919
 4373TIP3    H213063   7.261   5.499   4.876
 4374TIP3   OH213064   6.892   4.510   5.850
 4374TIP3    H113065   6.942   4.449   5.795
 4374TIP3    H213066   6.801   4.481   5.842
 4375TIP3   OH213067   1.099   7.195   0.152
 4375TIP3    H113068   1.108   7.133   0.079
 4375TIP3    H213069   1.072   7.277   0.111
 4376TIP3   OH213070   5.468   7.175   3.820
 4376TIP3    H113071   5.420   7.172   3.902
 4376TIP3    H213072   5.409   7.135   3.756
 4377TIP3   OH213073   6.900   2.874   0.858
 4377TIP3    H113074   6.993   2.876   0.882
 4377TIP3    H213075   6.896   2.916   0.772
 4378TIP3   OH213076   0.052   3.536   0.931
 4378TIP3    H113077  -0.002   3.465   0.896
 4378TIP3    H213078   0.065   3.513   1.023
 4379TIP3   OH213079   0.748   1.551   6.248
 4379TIP3    H113080   0.757   1.573   6.156
 4379TIP3    H213081   0.666   1.591   6.275
 4380TIP3   OH213082   4.117   6.722   6.669
 4380TIP3    H113083   4.124   6.721   6.573
 4380TIP3    H213084   4.188   6.665   6.698
 4381TIP3   OH213085   3.309   6.588   3.227
 4381TIP3    H113086   3.336   6.542   3.147
 4381TIP3    H213087   3.373   6.658   3.238
 4382TIP3   OH213088   8.212   3.925   4.790
 4382TIP3    H113089   8.290   3.956   4.837
 4382TIP3    H213090   8.143   3.987   4.815
 4383TIP3   OH213091   3.606   4.854   1.560
 4383TIP3    H113092   3.531   4.799   1.537
 4383TIP3    H213093   3.569   4.943   1.567
 4384TIP3   OH213094   2.397   5.984   1.482
 4384TIP3    H113095   2.332   5.925   1.521
 4384TIP3    H213096   2.403   6.057   1.543
 4385TIP3   OH213097   0.456   3.076   4.642
 4385TIP3    H113098   0.439   2.990   4.605
 4385TIP3    H213099   0.549   3.092   4.626
 4386TIP3   OH213100   4.840   1.023   0.362
 4386TIP3    H113101   4.822   1.113   0.335
 4386TIP3    H213102   4.921   1.000   0.317
 4387TIP3   OH213103   7.834   6.173   5.445
 4387TIP3    H113104   7.856   6.164   5.352
 4387TIP3    H213105   7.778   6.098   5.464
 4388TIP3   OH213106   0.822   1.250   0.132
 4388TIP3    H113107   0.816   1.247   0.037
 4388TIP3    H213108   0.823   1.158   0.159
 4389TIP3   OH213109   5.845   2.151   3.692
 4389TIP3    H113110   5.879   2.063   3.703
 4389TIP3    H213111   5.756   2.138   3.660
 4390TIP3   OH213112   5.983   6.473   6.147
 4390TIP3    H113113   6.010   6.491   6.057
 4390TIP3    H213114   6.039   6.400   6.174
 4391TIP3   OH213115   4.223   2.126   1.791
 4391TIP3    H113116   4.187   2.052   1.839
 4391TIP3    H213117   4.246   2.190   1.858
 4392TIP3   OH213118   2.666   7.736   1.766
 4392TIP3    H113119   2.616   7.663   1.729
 4392TIP3    H213120   2.728   7.760   1.698
 4393TIP3   OH213121   3.150   7.651   4.584
 4393TIP3    H113122   3.105   7.735   4.579
 4393TIP3    H213123   3.240   7.673   4.609
 4394TIP3   OH213124   5.813   6.816   1.326
 4394TIP3    H113125   5.836   6.792   1.415
 4394TIP3    H213126   5.747   6.751   1.300
 4395TIP3   OH213127   3.301   4.185   4.135
 4395TIP3    H113128   3.392   4.210   4.151
 4395TIP3    H213129   3.292   4.100   4.177
 4396TIP3   OH213130   1.925   6.554   3.223
 4396TIP3    H113131   2.012   6.520   3.200
 4396TIP3    H213132   1.865   6.484   3.199
 4397TIP3   OH213133   7.018   4.188   6.048
 4397TIP3    H113134   7.081   4.260   6.049
 4397TIP3    H213135   7.000   4.173   5.955
 4398TIP3   OH213136   8.050   1.282   2.478
 4398TIP3    H113137   8.060   1.293   2.573
 4398TIP3    H213138   7.956   1.286   2.463
 4399TIP3   OH213139   4.149   0.427   4.446
 4399TIP3    H113140   4.214   0.358   4.458
 4399TIP3    H213141   4.089   0.392   4.379
 4400TIP3   OH213142   2.070   0.331   5.380
 4400TIP3    H113143   2.023   0.255   5.413
 4400TIP3    H213144   2.109   0.302   5.298
 4401TIP3   OH213145   2.335   1.977   0.585
 4401TIP3    H113146   2.426   2.007   0.586
 4401TIP3    H213147   2.291   2.034   0.522
 4402TIP3   OH213148   0.338   0.578   0.848
 4402TIP3    H113149   0.428   0.577   0.879
 4402TIP3    H213150   0.293   0.515   0.906
 4403TIP3   OH213151   5.127   7.066   5.096
 4403TIP3    H113152   5.125   7.107   5.183
 4403TIP3    H213153   5.059   6.999   5.100
 4404TIP3   OH213154   2.219   1.344   3.524
 4404TIP3    H113155   2.260   1.257   3.522
 4404TIP3    H213156   2.126   1.327   3.506
 4405TIP3   OH213157   8.059   5.982   2.258
 4405TIP3    H113158   8.035   6.075   2.260
 4405TIP3    H213159   7.976   5.936   2.269
 4406TIP3   OH213160   0.293   4.529   3.952
 4406TIP3    H113161   0.282   4.490   4.039
 4406TIP3    H213162   0.241   4.473   3.894
 4407TIP3   OH213163   0.828   2.293   3.763
 4407TIP3    H113164   0.865   2.365   3.712
 4407TIP3    H213165   0.903   2.243   3.792
 4408TIP3   OH213166   4.292   3.080   3.844
 4408TIP3    H113167   4.216   3.026   3.822
 4408TIP3    H213168   4.337   3.031   3.913
 4409TIP3   OH213169   1.030   2.307   5.244
 4409TIP3    H113170   1.001   2.396   5.261
 4409TIP3    H213171   1.109   2.316   5.191
 4410TIP3   OH213172   5.923   0.677   1.850
 4410TIP3    H113173   5.949   0.594   1.891
 4410TIP3    H213174   5.877   0.724   1.919
 4411TIP3   OH213175   0.311   4.741   1.885
 4411TIP3    H113176   0.380   4.680   1.912
 4411TIP3    H213177   0.310   4.808   1.953
 4412TIP3   OH213178   5.886   5.659   6.516
 4412TIP3    H113179   5.943   5.584   6.498
 4412TIP3    H213180   5.810   5.645   6.459
 4413TIP3   OH213181   0.378   0.355   5.664
 4413TIP3    H113182   0.418   0.268   5.660
 4413TIP3    H213183   0.405   0.390   5.748
 4414TIP3   OH213184   5.497   7.528   4.676
 4414TIP3    H113185   5.474   7.584   4.750
 4414TIP3    H213186   5.504   7.440   4.713
 4415TIP3   OH213187   1.834   1.007   4.726
 4415TIP3    H113188   1.835   1.092   4.682
 4415TIP3    H213189   1.749   1.003   4.769
 4416TIP3   OH213190   0.929   6.683   1.799
 4416TIP3    H113191   0.999   6.693   1.864
 4416TIP3    H213192   0.939   6.593   1.768
 4417TIP3   OH213193   5.877   0.475   4.276
 4417TIP3    H113194   5.860   0.456   4.368
 4417TIP3    H213195   5.971   0.462   4.266
 4418TIP3   OH213196   2.025   2.446   3.852
 4418TIP3    H113197   1.975   2.365   3.864
 4418TIP3    H213198   2.066   2.437   3.766
 4419TIP3   OH213199   4.934   3.563   5.885
 4419TIP3    H113200   5.014   3.606   5.855
 4419TIP3    H213201   4.893   3.628   5.942
 4420TIP3   OH213202   7.114   7.779   0.287
 4420TIP3    H113203   7.070   7.731   0.218
 4420TIP3    H213204   7.051   7.847   0.313
 4421TIP3   OH213205   4.079   5.782   1.936
 4421TIP3    H113206   4.090   5.691   1.905
 4421TIP3    H213207   4.140   5.832   1.882
 4422TIP3   OH213208   5.057   6.309   1.450
 4422TIP3    H113209   4.993   6.270   1.510
 4422TIP3    H213210   5.135   6.254   1.460
 4423TIP3   OH213211   6.422   4.786   5.463
 4423TIP3    H113212   6.425   4.725   5.389
 4423TIP3    H213213   6.397   4.870   5.424
 4424TIP3   OH213214   8.057   2.858   4.879
 4424TIP3    H113215   8.017   2.775   4.905
 4424TIP3    H213216   8.140   2.860   4.926
 4425TIP3   OH213217   5.562   4.306   2.455
 4425TIP3    H113218   5.566   4.388   2.407
 4425TIP3    H213219   5.501   4.323   2.527
 4426TIP3   OH213220   5.258   7.582   1.008
 4426TIP3    H113221   5.348   7.616   1.012
 4426TIP3    H213222   5.265   7.492   1.040
 4427TIP3   OH213223   0.615   1.263   5.046
 4427TIP3    H113224   0.541   1.321   5.062
 4427TIP3    H213225   0.683   1.294   5.106
 4428TIP3   OH213226   2.649   5.549   1.225
 4428TIP3    H113227   2.562   5.556   1.185
 4428TIP3    H213228   2.633   5.542   1.319
 4429TIP3   OH213229   5.064   6.763   4.311
 4429TIP3    H113230   5.009   6.685   4.303
 4429TIP3    H213231   5.031   6.808   4.389
 4430TIP3   OH213232  -0.004   0.750   3.015
 4430TIP3    H113233  -0.033   0.703   2.937
 4430TIP3    H213234   0.091   0.751   3.008
 4431TIP3   OH213235   4.236   1.859   4.980
 4431TIP3    H113236   4.155   1.864   5.032
 4431TIP3    H213237   4.212   1.896   4.895
 4432TIP3   OH213238   1.623   2.204   3.766
 4432TIP3    H113239   1.616   2.259   3.844
 4432TIP3    H213240   1.716   2.202   3.746
 4433TIP3   OH213241   4.958   4.159   4.566
 4433TIP3    H113242   5.002   4.175   4.649
 4433TIP3    H213243   5.002   4.082   4.530
 4434TIP3   OH213244   7.310   2.063   5.415
 4434TIP3    H113245   7.362   2.060   5.496
 4434TIP3    H213246   7.251   2.137   5.428
 4435TIP3   OH213247   2.273   7.714   5.048
 4435TIP3    H113248   2.297   7.780   4.983
 4435TIP3    H213249   2.182   7.734   5.070
 4436TIP3   OH213250   0.669   3.056   0.563
 4436TIP3    H113251   0.759   3.023   0.559
 4436TIP3    H213252   0.653   3.095   0.477
 4437TIP3   OH213253   7.279   6.738   3.686
 4437TIP3    H113254   7.284   6.758   3.780
 4437TIP3    H213255   7.190   6.706   3.674
 4438TIP3   OH213256   7.164   1.369   4.381
 4438TIP3    H113257   7.151   1.447   4.434
 4438TIP3    H213258   7.247   1.332   4.412
 4439TIP3   OH213259   5.705   3.661   0.811
 4439TIP3    H113260   5.703   3.690   0.902
 4439TIP3    H213261   5.789   3.616   0.802
 4440TIP3   OH213262   6.525   7.262   5.773
 4440TIP3    H113263   6.537   7.221   5.687
 4440TIP3    H213264   6.614   7.275   5.806
 4441TIP3   OH213265   3.766   3.934   4.390
 4441TIP3    H113266   3.700   3.875   4.352
 4441TIP3    H213267   3.717   3.986   4.454
 4442TIP3   OH213268   2.286   4.618   1.998
 4442TIP3    H113269   2.232   4.670   2.057
 4442TIP3    H213270   2.269   4.654   1.911
 4443TIP3   OH213271   5.701   3.723   3.684
 4443TIP3    H113272   5.796   3.733   3.691
 4443TIP3    H213273   5.668   3.748   3.770
 4444TIP3   OH213274   1.057   1.377   1.997
 4444TIP3    H113275   1.052   1.461   2.043
 4444TIP3    H213276   1.105   1.320   2.057
 4445TIP3   OH213277   8.005   2.408   6.679
 4445TIP3    H113278   8.097   2.405   6.707
 4445TIP3    H213279   7.955   2.404   6.760
 4446TIP3   OH213280   7.172   2.998   5.840
 4446TIP3    H113281   7.235   2.937   5.800
 4446TIP3    H213282   7.166   2.970   5.931
 4447TIP3   OH213283   5.707   6.317   2.269
 4447TIP3    H113284   5.715   6.368   2.350
 4447TIP3    H213285   5.621   6.276   2.275
 4448TIP3   OH213286   4.515   6.722   6.200
 4448TIP3    H113287   4.495   6.806   6.241
 4448TIP3    H213288   4.535   6.663   6.272
 4449TIP3   OH213289   0.414   7.340   5.927
 4449TIP3    H113290   0.460   7.412   5.969
 4449TIP3    H213291   0.387   7.376   5.842
 4450TIP3   OH213292   5.295   7.618   6.456
 4450TIP3    H113293   5.363   7.597   6.391
 4450TIP3    H213294   5.217   7.574   6.424
 4451TIP3   OH213295   3.230   2.475   3.969
 4451TIP3    H113296   3.204   2.503   4.056
 4451TIP3    H213297   3.159   2.418   3.939
 4452TIP3   OH213298   7.463   1.712   1.685
 4452TIP3    H113299   7.422   1.698   1.599
 4452TIP3    H213300   7.554   1.684   1.673
 4453TIP3   OH213301   7.751   0.501   1.295
 4453TIP3    H113302   7.814   0.448   1.247
 4453TIP3    H213303   7.742   0.581   1.244
 4454TIP3   OH213304   1.873   5.926   1.611
 4454TIP3    H113305   1.843   5.856   1.553
 4454TIP3    H213306   1.870   6.005   1.557
 4455TIP3   OH213307   1.127   3.911   5.731
 4455TIP3    H113308   1.207   3.859   5.726
 4455TIP3    H213309   1.057   3.851   5.705
 4456TIP3   OH213310   4.900   6.838   3.955
 4456TIP3    H113311   4.893   6.809   4.046
 4456TIP3    H213312   4.839   6.781   3.907
 4457TIP3   OH213313   1.291   2.432   4.800
 4457TIP3    H113314   1.248   2.368   4.743
 4457TIP3    H213315   1.219   2.478   4.843
 4458TIP3   OH213316   6.015   0.637   3.833
 4458TIP3    H113317   6.060   0.678   3.759
 4458TIP3    H213318   5.980   0.711   3.883
 4459TIP3   OH213319   5.168   6.224   4.371
 4459TIP3    H113320   5.192   6.229   4.278
 4459TIP3    H213321   5.073   6.234   4.372
 4460TIP3   OH213322   1.667   1.477   0.297
 4460TIP3    H113323   1.663   1.383   0.312
 4460TIP3    H213324   1.610   1.515   0.364
 4461TIP3   OH213325   5.860   3.638   1.402
 4461TIP3    H113326   5.915   3.714   1.422
 4461TIP3    H213327   5.862   3.585   1.482
 4462TIP3   OH213328   3.652   3.107   2.721
 4462TIP3    H113329   3.682   3.091   2.811
 4462TIP3    H213330   3.573   3.052   2.712
 4463TIP3   OH213331   0.679   3.844   6.325
 4463TIP3    H113332   0.679   3.907   6.397
 4463TIP3    H213333   0.608   3.872   6.268
 4464TIP3   OH213334   8.218   3.606   1.785
 4464TIP3    H113335   8.146   3.653   1.744
 4464TIP3    H213336   8.294   3.625   1.730
 4465TIP3   OH213337   1.929   4.510   0.873
 4465TIP3    H113338   1.844   4.552   0.881
 4465TIP3    H213339   1.944   4.470   0.958
 4466TIP3   OH213340   2.021   0.972   0.781
 4466TIP3    H113341   1.960   1.027   0.830
 4466TIP3    H213342   2.072   0.926   0.848
 4467TIP3   OH213343   4.647   3.375   1.137
 4467TIP3    H113344   4.594   3.358   1.060
 4467TIP3    H213345   4.635   3.297   1.192
 4468TIP3   OH213346   3.337   6.788   5.189
 4468TIP3    H113347   3.431   6.802   5.184
 4468TIP3    H213348   3.299   6.875   5.171
 4469TIP3   OH213349   2.563   4.478   1.763
 4469TIP3    H113350   2.511   4.547   1.723
 4469TIP3    H213351   2.561   4.406   1.699
 4470TIP3   OH213352   2.376   6.116   1.238
 4470TIP3    H113353   2.369   6.065   1.318
 4470TIP3    H213354   2.294   6.167   1.234
 4471TIP3   OH213355   2.155   0.261   4.617
 4471TIP3    H113356   2.144   0.356   4.617
 4471TIP3    H213357   2.120   0.233   4.533
 4472TIP3   OH213358   7.398   2.322   1.238
 4472TIP3    H113359   7.355   2.239   1.258
 4472TIP3    H213360   7.392   2.330   1.143
 4473TIP3   OH213361   2.984   7.095   6.332
 4473TIP3    H113362   3.076   7.086   6.306
 4473TIP3    H213363   2.935   7.089   6.250
 4474TIP3   OH213364   3.732   7.530   4.499
 4474TIP3    H113365   3.804   7.494   4.447
 4474TIP3    H213366   3.665   7.552   4.435
 4475TIP3   OH213367   6.001   3.867   2.182
 4475TIP3    H113368   6.014   3.825   2.267
 4475TIP3    H213369   5.906   3.881   2.177
 4476TIP3   OH213370   1.446   2.226   2.393
 4476TIP3    H113371   1.387   2.153   2.375
 4476TIP3    H213372   1.533   2.186   2.398
 4477TIP3   OH213373   3.203   2.763   3.589
 4477TIP3    H113374   3.203   2.767   3.685
 4477TIP3    H213375   3.227   2.851   3.561
 4478TIP3   OH213376   7.308   7.331   2.357
 4478TIP3    H113377   7.245   7.260   2.345
 4478TIP3    H213378   7.272   7.404   2.305
 4479TIP3   OH213379   7.590   0.392   5.359
 4479TIP3    H113380   7.581   0.390   5.264
 4479TIP3    H213381   7.680   0.365   5.375
 4480TIP3   OH213382   4.848   3.075   2.834
 4480TIP3    H113383   4.786   3.145   2.854
 4480TIP3    H213384   4.856   3.026   2.916
 4481TIP3   OH213385   4.700   4.521   1.399
 4481TIP3    H113386   4.679   4.517   1.306
 4481TIP3    H213387   4.712   4.614   1.418
 4482TIP3   OH213388   1.877   4.216   4.130
 4482TIP3    H113389   1.964   4.191   4.160
 4482TIP3    H213390   1.893   4.266   4.050
 4483TIP3   OH213391   4.302   3.317   1.558
 4483TIP3    H113392   4.207   3.318   1.568
 4483TIP3    H213393   4.336   3.356   1.638
 4484TIP3   OH213394   1.577   1.137   4.175
 4484TIP3    H113395   1.620   1.124   4.260
 4484TIP3    H213396   1.504   1.074   4.176
 4485TIP3   OH213397   6.044   1.209   0.249
 4485TIP3    H113398   6.056   1.190   0.156
 4485TIP3    H213399   6.117   1.164   0.292
 4486TIP3   OH213400   2.221   2.433   5.633
 4486TIP3    H113401   2.193   2.480   5.711
 4486TIP3    H213402   2.209   2.340   5.655
 4487TIP3   OH213403   3.103   1.704   5.416
 4487TIP3    H113404   3.192   1.730   5.440
 4487TIP3    H213405   3.047   1.772   5.454
 4488TIP3   OH213406   7.294   0.208   0.126
 4488TIP3    H113407   7.237   0.259   0.184
 4488TIP3    H213408   7.332   0.273   0.067
 4489TIP3   OH213409   0.958   5.042   2.271
 4489TIP3    H113410   0.913   5.051   2.355
 4489TIP3    H213411   0.898   5.082   2.208
 4490TIP3   OH213412   8.108   3.983   4.260
 4490TIP3    H113413   8.050   4.022   4.195
 4490TIP3    H213414   8.138   4.058   4.313
 4491TIP3   OH213415   7.635   1.879   5.140
 4491TIP3    H113416   7.595   1.794   5.162
 4491TIP3    H213417   7.645   1.923   5.224
 4492TIP3   OH213418   1.665   1.699   5.309
 4492TIP3    H113419   1.608   1.666   5.378
 4492TIP3    H213420   1.738   1.638   5.306
 4493TIP3   OH213421   6.619   2.404   5.431
 4493TIP3    H113422   6.575   2.479   5.392
 4493TIP3    H213423   6.554   2.366   5.490
 4494TIP3   OH213424   2.808   6.823   2.690
 4494TIP3    H113425   2.791   6.917   2.689
 4494TIP3    H213426   2.903   6.816   2.679
 4495TIP3   OH213427   1.980   6.569   1.648
 4495TIP3    H113428   2.054   6.570   1.586
 4495TIP3    H213429   1.990   6.486   1.694
 4496TIP3   OH213430   6.884   5.684   2.795
 4496TIP3    H113431   6.954   5.714   2.853
 4496TIP3    H213432   6.806   5.729   2.827
 4497TIP3   OH213433   7.774   4.724   5.072
 4497TIP3    H113434   7.758   4.779   5.148
 4497TIP3    H213435   7.865   4.694   5.082
 4498TIP3   OH213436   3.230   2.176   2.449
 4498TIP3    H113437   3.302   2.165   2.512
 4498TIP3    H213438   3.235   2.268   2.423
 4499TIP3   OH213439   2.297   3.077   5.786
 4499TIP3    H113440   2.281   3.061   5.879
 4499TIP3    H213441   2.392   3.088   5.780
 4500TIP3   OH213442   6.502   4.737   0.874
 4500TIP3    H113443   6.430   4.791   0.843
 4500TIP3    H213444   6.462   4.651   0.890
 4501TIP3   OH213445   0.514   4.662   5.678
 4501TIP3    H113446   0.570   4.623   5.611
 4501TIP3    H213447   0.508   4.754   5.653
 4502TIP3   OH213448   5.689   6.016   5.699
 4502TIP3    H113449   5.739   5.980   5.626
 4502TIP3    H213450   5.754   6.032   5.767
 4503TIP3   OH213451   4.328   3.312   3.140
 4503TIP3    H113452   4.383   3.251   3.091
 4503TIP3    H213453   4.351   3.398   3.107
 4504TIP3   OH213454   6.698   2.043   3.422
 4504TIP3    H113455   6.739   2.115   3.471
 4504TIP3    H213456   6.662   1.985   3.490
 4505TIP3   OH213457   0.363   2.892   4.006
 4505TIP3    H113458   0.272   2.908   4.030
 4505TIP3    H213459   0.409   2.884   4.090
 4506TIP3   OH213460   7.419   4.450   3.978
 4506TIP3    H113461   7.365   4.518   3.938
 4506TIP3    H213462   7.467   4.495   4.047
 4507TIP3   OH213463   6.613   3.097   6.744
 4507TIP3    H113464   6.540   3.124   6.689
 4507TIP3    H213465   6.628   3.005   6.720
 4508TIP3   OH213466   5.174   6.515   4.174
 4508TIP3    H113467   5.255   6.474   4.203
 4508TIP3    H213468   5.200   6.603   4.147
 4509TIP3   OH213469   7.593   4.186   3.658
 4509TIP3    H113470   7.631   4.198   3.745
 4509TIP3    H213471   7.564   4.095   3.657
 4510TIP3   OH213472   5.660   2.868   4.035
 4510TIP3    H113473   5.702   2.796   3.989
 4510TIP3    H213474   5.729   2.933   4.047
 4511TIP3   OH213475   4.905   7.246   3.103
 4511TIP3    H113476   4.839   7.179   3.122
 4511TIP3    H213477   4.922   7.287   3.188
 4512TIP3   OH213478   3.628   1.776   0.832
 4512TIP3    H113479   3.628   1.815   0.745
 4512TIP3    H213480   3.553   1.816   0.876
 4513TIP3   OH213481   4.771   1.602   1.745
 4513TIP3    H113482   4.725   1.578   1.665
 4513TIP3    H213483   4.742   1.692   1.763
 4514TIP3   OH213484   1.550   3.111   2.961
 4514TIP3    H113485   1.634   3.072   2.937
 4514TIP3    H213486   1.573   3.182   3.021
 4515TIP3   OH213487   1.226   1.369   0.115
 4515TIP3    H113488   1.224   1.378   0.210
 4515TIP3    H213489   1.318   1.353   0.093
 4516TIP3   OH213490   5.361   0.270   4.088
 4516TIP3    H113491   5.335   0.238   4.174
 4516TIP3    H213492   5.452   0.297   4.099
 4517TIP3   OH213493   2.036   1.536   3.827
 4517TIP3    H113494   2.000   1.610   3.778
 4517TIP3    H213495   1.965   1.510   3.885
 4518TIP3   OH213496   3.950   7.228   6.744
 4518TIP3    H113497   3.968   7.312   6.787
 4518TIP3    H213498   4.011   7.225   6.671
 4519TIP3   OH213499   7.896   4.090   4.135
 4519TIP3    H113500   7.851   4.067   4.216
 4519TIP3    H213501   7.864   4.177   4.114
 4520TIP3   OH213502   3.511   0.203   4.534
 4520TIP3    H113503   3.517   0.256   4.614
 4520TIP3    H213504   3.433   0.237   4.489
 4521TIP3   OH213505   7.253   4.986   6.330
 4521TIP3    H113506   7.259   5.080   6.315
 4521TIP3    H213507   7.199   4.953   6.259
 4522TIP3   OH213508   0.788   7.444   2.848
 4522TIP3    H113509   0.797   7.361   2.895
 4522TIP3    H213510   0.845   7.435   2.772
 4523TIP3   OH213511   6.539   1.279   1.180
 4523TIP3    H113512   6.558   1.242   1.093
 4523TIP3    H213513   6.532   1.373   1.165
 4524TIP3   OH213514   0.376   7.196   1.940
 4524TIP3    H113515   0.466   7.180   1.911
 4524TIP3    H213516   0.343   7.110   1.967
 4525TIP3   OH213517   4.238   1.022   5.381
 4525TIP3    H113518   4.301   1.069   5.326
 4525TIP3    H213519   4.153   1.044   5.343
 4526TIP3   OH213520   4.904   0.029   2.007
 4526TIP3    H113521   4.922  -0.064   2.019
 4526TIP3    H213522   4.857   0.035   1.924
 4527TIP3   OH213523   0.469   7.405   2.779
 4527TIP3    H113524   0.539   7.345   2.750
 4527TIP3    H213525   0.391   7.349   2.784
 4528TIP3   OH213526   6.559   0.141   3.575
 4528TIP3    H113527   6.641   0.168   3.534
 4528TIP3    H213528   6.491   0.176   3.518
 4529TIP3   OH213529   1.538   5.431   2.876
 4529TIP3    H113530   1.450   5.441   2.840
 4529TIP3    H213531   1.588   5.504   2.840
 4530TIP3   OH213532   4.989   5.216   2.789
 4530TIP3    H113533   4.927   5.156   2.831
 4530TIP3    H213534   4.941   5.299   2.784
 4531TIP3   OH213535   4.446   7.307   3.067
 4531TIP3    H113536   4.351   7.295   3.065
 4531TIP3    H213537   4.461   7.392   3.026
 4532TIP3   OH213538   7.383   4.942   1.026
 4532TIP3    H113539   7.312   4.895   1.071
 4532TIP3    H213540   7.386   4.903   0.938
 4533TIP3   OH213541   0.154   1.943   4.856
 4533TIP3    H113542   0.103   1.953   4.937
 4533TIP3    H213543   0.222   1.880   4.879
 4534TIP3   OH213544   5.339   3.452   5.808
 4534TIP3    H113545   5.325   3.465   5.714
 4534TIP3    H213546   5.417   3.504   5.828
 4535TIP3   OH213547   5.879   2.083   1.690
 4535TIP3    H113548   5.955   2.053   1.641
 4535TIP3    H213549   5.824   2.005   1.700
 4536TIP3   OH213550   1.190   1.148   3.706
 4536TIP3    H113551   1.270   1.096   3.710
 4536TIP3    H213552   1.120   1.084   3.724
 4537TIP3   OH213553   5.776   4.824   3.850
 4537TIP3    H113554   5.696   4.865   3.817
 4537TIP3    H213555   5.753   4.789   3.936
 4538TIP3   OH213556   5.646   7.149   0.695
 4538TIP3    H113557   5.564   7.197   0.689
 4538TIP3    H213558   5.621   7.057   0.682
 4539TIP3   OH213559   3.403   5.405   2.995
 4539TIP3    H113560   3.351   5.383   2.918
 4539TIP3    H213561   3.360   5.358   3.067
 4540TIP3   OH213562   4.486   5.268   3.105
 4540TIP3    H113563   4.471   5.361   3.090
 4540TIP3    H213564   4.549   5.264   3.177
 4541TIP3   OH213565   3.610   1.198   0.826
 4541TIP3    H113566   3.701   1.171   0.834
 4541TIP3    H213567   3.608   1.256   0.750
 4542TIP3   OH213568   3.133   2.049   3.869
 4542TIP3    H113569   3.150   2.074   3.960
 4542TIP3    H213570   3.161   1.958   3.864
 4543TIP3   OH213571   0.484   0.181   5.355
 4543TIP3    H113572   0.577   0.190   5.378
 4543TIP3    H213573   0.448   0.126   5.425
 4544TIP3   OH213574   0.386   5.820   1.340
 4544TIP3    H113575   0.442   5.791   1.411
 4544TIP3    H213576   0.439   5.883   1.292
 4545TIP3   OH213577   2.126   4.831   3.404
 4545TIP3    H113578   2.162   4.749   3.436
 4545TIP3    H213579   2.042   4.807   3.366
 4546TIP3   OH213580   2.143   1.087   5.149
 4546TIP3    H113581   2.122   1.008   5.100
 4546TIP3    H213582   2.059   1.117   5.184
 4547TIP3   OH213583   1.224   3.490   6.642
 4547TIP3    H113584   1.181   3.550   6.702
 4547TIP3    H213585   1.181   3.406   6.659
 4548TIP3   OH213586   3.915   2.659   3.436
 4548TIP3    H113587   3.820   2.671   3.442
 4548TIP3    H213588   3.937   2.603   3.510
 4549TIP3   OH213589   4.227   4.448   3.290
 4549TIP3    H113590   4.205   4.498   3.369
 4549TIP3    H213591   4.276   4.373   3.321
 4550TIP3   OH213592   2.821   6.583   1.223
 4550TIP3    H113593   2.778   6.588   1.137
 4550TIP3    H213594   2.909   6.551   1.203
 4551TIP3   OH213595   0.110   5.714   5.701
 4551TIP3    H113596   0.129   5.630   5.742
 4551TIP3    H213597   0.111   5.696   5.607
 4552TIP3   OH213598   4.491   2.998   5.552
 4552TIP3    H113599   4.542   2.918   5.539
 4552TIP3    H213600   4.505   3.048   5.472
 4553TIP3   OH213601   7.104   7.062   1.530
 4553TIP3    H113602   7.058   7.004   1.469
 4553TIP3    H213603   7.077   7.150   1.504
 4554TIP3   OH213604   2.497   5.291   6.068
 4554TIP3    H113605   2.457   5.368   6.025
 4554TIP3    H213606   2.591   5.306   6.059
 4555TIP3   OH213607   0.538   3.208   2.791
 4555TIP3    H113608   0.511   3.229   2.880
 4555TIP3    H213609   0.485   3.266   2.736
 4556TIP3   OH213610   4.126   3.149   1.397
 4556TIP3    H113611   4.157   3.239   1.406
 4556TIP3    H213612   4.090   3.127   1.483
 4557TIP3   OH213613   1.725   2.982   2.679
 4557TIP3    H113614   1.773   2.932   2.745
 4557TIP3    H213615   1.712   2.920   2.607
 4558TIP3   OH213616   5.309   3.598   5.499
 4558TIP3    H113617   5.322   3.646   5.417
 4558TIP3    H213618   5.277   3.512   5.471
 4559TIP3   OH213619   1.430   3.513   1.830
 4559TIP3    H113620   1.482   3.555   1.899
 4559TIP3    H213621   1.495   3.466   1.777
 4560TIP3   OH213622   0.370   0.664   5.286
 4560TIP3    H113623   0.438   0.648   5.221
 4560TIP3    H213624   0.390   0.604   5.357
 4561TIP3   OH213625   3.873   0.475   2.342
 4561TIP3    H113626   3.891   0.550   2.285
 4561TIP3    H213627   3.779   0.458   2.331
 4562TIP3   OH213628   1.606   0.275   6.286
 4562TIP3    H113629   1.633   0.212   6.353
 4562TIP3    H213630   1.668   0.348   6.297
 4563TIP3   OH213631   6.572   4.467   5.475
 4563TIP3    H113632   6.647   4.493   5.422
 4563TIP3    H213633   6.583   4.373   5.489
 4564TIP3   OH213634   1.779   2.050   5.856
 4564TIP3    H113635   1.739   2.130   5.889
 4564TIP3    H213636   1.750   2.044   5.765
 4565TIP3   OH213637   5.024   4.047   4.095
 4565TIP3    H113638   5.016   4.097   4.176
 4565TIP3    H213639   4.970   4.095   4.032
 4566TIP3   OH213640   3.521   2.041   3.351
 4566TIP3    H113641   3.608   1.999   3.351
 4566TIP3    H213642   3.459   1.968   3.354
 4567TIP3   OH213643   3.389   2.161   3.129
 4567TIP3    H113644   3.432   2.121   3.204
 4567TIP3    H213645   3.351   2.242   3.163
 4568TIP3   OH213646   0.256   1.119   5.362
 4568TIP3    H113647   0.218   1.049   5.414
 4568TIP3    H213648   0.207   1.197   5.388
 4569TIP3   OH213649   7.965   7.313   1.265
 4569TIP3    H113650   8.026   7.328   1.337
 4569TIP3    H213651   7.936   7.222   1.277
 4570TIP3   OH213652   5.213   2.628   3.831
 4570TIP3    H113653   5.283   2.648   3.769
 4570TIP3    H213654   5.169   2.552   3.793
 4571TIP3   OH213655   3.692   2.253   4.575
 4571TIP3    H113656   3.722   2.329   4.525
 4571TIP3    H213657   3.768   2.195   4.578
 4572TIP3   OH213658   2.327   5.071   4.052
 4572TIP3    H113659   2.240   5.043   4.025
 4572TIP3    H213660   2.358   5.125   3.979
 4573TIP3   OH213661   5.314   4.072   6.152
 4573TIP3    H113662   5.367   4.000   6.185
 4573TIP3    H213663   5.231   4.064   6.199
 4574TIP3   OH213664   2.592   1.307   5.692
 4574TIP3    H113665   2.666   1.357   5.659
 4574TIP3    H213666   2.567   1.249   5.620
 4575TIP3   OH213667   8.095   5.617   2.193
 4575TIP3    H113668   8.056   5.686   2.139
 4575TIP3    H213669   8.034   5.605   2.265
 4576TIP3   OH213670   1.941   7.304   3.398
 4576TIP3    H113671   2.026   7.291   3.441
 4576TIP3    H213672   1.948   7.254   3.316
 4577TIP3   OH213673   1.014   4.372   6.343
 4577TIP3    H113674   1.082   4.308   6.324
 4577TIP3    H213675   1.023   4.437   6.273
 4578TIP3   OH213676   2.774   3.005   4.636
 4578TIP3    H113677   2.817   2.938   4.584
 4578TIP3    H213678   2.686   2.971   4.651
 4579TIP3   OH213679   5.064   3.257   1.885
 4579TIP3    H113680   5.048   3.323   1.952
 4579TIP3    H213681   5.063   3.174   1.933
 4580TIP3   OH213682   7.483   6.373   0.324
 4580TIP3    H113683   7.543   6.430   0.276
 4580TIP3    H213684   7.513   6.378   0.415
 4581TIP3   OH213685   0.624   7.597   2.092
 4581TIP3    H113686   0.596   7.506   2.106
 4581TIP3    H213687   0.720   7.591   2.085
 4582TIP3   OH213688   6.923   6.309   5.511
 4582TIP3    H113689   6.868   6.380   5.479
 4582TIP3    H213690   6.900   6.234   5.456
 4583TIP3   OH213691   0.344   4.507   5.855
 4583TIP3    H113692   0.425   4.468   5.889
 4583TIP3    H213693   0.372   4.591   5.817
 4584TIP3   OH213694   0.639   0.822   2.140
 4584TIP3    H113695   0.570   0.887   2.152
 4584TIP3    H213696   0.679   0.813   2.227
 4585TIP3   OH213697   2.252   4.456   0.676
 4585TIP3    H113698   2.280   4.447   0.767
 4585TIP3    H213699   2.296   4.535   0.644
 4586TIP3   OH213700   5.869   2.688   0.462
 4586TIP3    H113701   5.889   2.770   0.418
 4586TIP3    H213702   5.939   2.628   0.436
 4587TIP3   OH213703   7.122   3.763   6.684
 4587TIP3    H113704   7.142   3.754   6.777
 4587TIP3    H213705   7.197   3.810   6.647
 4588TIP3   OH213706   7.797   7.570   1.348
 4588TIP3    H113707   7.710   7.543   1.320
 4588TIP3    H213708   7.807   7.534   1.436
 4589TIP3   OH213709   6.311   6.721   4.713
 4589TIP3    H113710   6.282   6.651   4.655
 4589TIP3    H213711   6.327   6.678   4.797
 4590TIP3   OH213712   6.735   1.986   2.299
 4590TIP3    H113713   6.675   1.930   2.249
 4590TIP3    H213714   6.759   1.933   2.375
 4591TIP3   OH213715   5.246   1.091   4.195
 4591TIP3    H113716   5.215   1.181   4.202
 4591TIP3    H213717   5.166   1.039   4.180
 4592TIP3   OH213718   5.904   0.683   5.242
 4592TIP3    H113719   5.967   0.735   5.191
 4592TIP3    H213720   5.910   0.595   5.205
 4593TIP3   OH213721   2.965   7.475   2.956
 4593TIP3    H113722   2.921   7.536   3.015
 4593TIP3    H213723   2.927   7.389   2.977
 4594TIP3   OH213724   5.351   0.758   0.352
 4594TIP3    H113725   5.354   0.741   0.258
 4594TIP3    H213726   5.321   0.848   0.359
 4595TIP3   OH213727   2.385   0.629   2.989
 4595TIP3    H113728   2.390   0.657   3.081
 4595TIP3    H213729   2.292   0.637   2.967
 4596TIP3   OH213730   5.339   1.652   5.397
 4596TIP3    H113731   5.378   1.565   5.406
 4596TIP3    H213732   5.393   1.696   5.331
 4597TIP3   OH213733   1.133   1.114   3.388
 4597TIP3    H113734   1.195   1.060   3.437
 4597TIP3    H213735   1.186   1.188   3.357
 4598TIP3   OH213736   1.839   3.646   0.590
 4598TIP3    H113737   1.765   3.707   0.585
 4598TIP3    H213738   1.890   3.665   0.512
 4599TIP3   OH213739   3.101   4.363   3.280
 4599TIP3    H113740   3.191   4.373   3.311
 4599TIP3    H213741   3.058   4.312   3.348
 4600TIP3   OH213742   8.095   3.512   3.884
 4600TIP3    H113743   8.057   3.518   3.971
 4600TIP3    H213744   8.187   3.534   3.896
 4601TIP3   OH213745   1.587   2.123   6.469
 4601TIP3    H113746   1.511   2.108   6.525
 4601TIP3    H213747   1.644   2.180   6.521
 4602TIP3   OH213748   3.587   6.848   3.801
 4602TIP3    H113749   3.516   6.785   3.783
 4602TIP3    H213750   3.541   6.930   3.822
 4603TIP3   OH213751   6.033   1.478   0.025
 4603TIP3    H113752   6.128   1.479   0.041
 4603TIP3    H213753   6.000   1.555   0.072
 4604TIP3   OH213754   5.316   2.004   6.157
 4604TIP3    H113755   5.387   1.944   6.182
 4604TIP3    H213756   5.327   2.017   6.063
 4605TIP3   OH213757   3.935   7.672   5.555
 4605TIP3    H113758   3.865   7.609   5.573
 4605TIP3    H213759   3.922   7.696   5.463
 4606TIP3   OH213760   5.610   3.468   2.357
 4606TIP3    H113761   5.582   3.383   2.392
 4606TIP3    H213762   5.604   3.458   2.262
 4607TIP3   OH213763   4.032   1.151   5.256
 4607TIP3    H113764   3.957   1.195   5.296
 4607TIP3    H213765   4.058   1.209   5.185
 4608TIP3   OH213766   4.741   3.272   6.188
 4608TIP3    H113767   4.659   3.244   6.230
 4608TIP3    H213768   4.715   3.294   6.098
 4609TIP3   OH213769   3.541   0.776   6.376
 4609TIP3    H113770   3.626   0.742   6.347
 4609TIP3    H213771   3.529   0.856   6.324
 4610TIP3   OH213772   7.098   4.485   5.446
 4610TIP3    H113773   7.099   4.555   5.381
 4610TIP3    H213774   7.188   4.481   5.478
 4611TIP3   OH213775   3.596   7.311   5.479
 4611TIP3    H113776   3.579   7.233   5.531
 4611TIP3    H213777   3.681   7.343   5.510
 4612TIP3   OH213778   0.946   7.363   0.847
 4612TIP3    H113779   0.876   7.299   0.836
 4612TIP3    H213780   0.905   7.448   0.831
 4613TIP3   OH213781   4.598   1.085   1.265
 4613TIP3    H113782   4.580   1.003   1.312
 4613TIP3    H213783   4.653   1.058   1.192
 4614TIP3   OH213784   7.409   3.447   6.361
 4614TIP3    H113785   7.454   3.478   6.282
 4614TIP3    H213786   7.478   3.444   6.428
 4615TIP3   OH213787   8.191   0.518   3.210
 4615TIP3    H113788   8.099   0.495   3.209
 4615TIP3    H213789   8.202   0.579   3.137
 4616TIP3   OH213790   3.375   3.762   1.972
 4616TIP3    H113791   3.385   3.855   1.953
 4616TIP3    H213792   3.462   3.725   1.957
 4617TIP3   OH213793   0.202   3.310   4.517
 4617TIP3    H113794   0.192   3.284   4.608
 4617TIP3    H213795   0.250   3.238   4.476
 4618TIP3   OH213796   4.138   2.880   0.051
 4618TIP3    H113797   4.100   2.938  -0.015
 4618TIP3    H213798   4.076   2.884   0.124
 4619TIP3   OH213799   7.880   5.759   3.984
 4619TIP3    H113800   7.889   5.696   4.055
 4619TIP3    H213801   7.851   5.707   3.909
 4620TIP3   OH213802   4.711   3.014   5.106
 4620TIP3    H113803   4.747   3.025   5.018
 4620TIP3    H213804   4.787   2.995   5.161
 4621TIP3   OH213805   5.631   2.634   4.645
 4621TIP3    H113806   5.649   2.694   4.718
 4621TIP3    H213807   5.590   2.689   4.578
 4622TIP3   OH213808   7.347   3.032   5.550
 4622TIP3    H113809   7.314   2.951   5.589
 4622TIP3    H213810   7.392   3.003   5.470
 4623TIP3   OH213811   4.088   5.171   4.642
 4623TIP3    H113812   3.998   5.201   4.630
 4623TIP3    H213813   4.122   5.224   4.714
 4624TIP3   OH213814   7.465   0.398   3.390
 4624TIP3    H113815   7.538   0.375   3.448
 4624TIP3    H213816   7.485   0.356   3.307
 4625TIP3   OH213817   4.720   5.596   3.154
 4625TIP3    H113818   4.729   5.643   3.237
 4625TIP3    H213819   4.794   5.536   3.153
 4626TIP3   OH213820   3.224   3.484   0.832
 4626TIP3    H113821   3.213   3.418   0.764
 4626TIP3    H213822   3.277   3.441   0.899
 4627TIP3   OH213823   0.301   7.243   3.517
 4627TIP3    H113824   0.347   7.264   3.598
 4627TIP3    H213825   0.369   7.213   3.457
 4628TIP3   OH213826   0.883   1.972   6.686
 4628TIP3    H113827   0.888   2.016   6.601
 4628TIP3    H213828   0.925   2.033   6.747
 4629TIP3   OH213829   4.054   0.173   6.104
 4629TIP3    H113830   3.971   0.141   6.070
 4629TIP3    H213831   4.057   0.141   6.194
 4630TIP3   OH213832   6.884   4.331   5.578
 4630TIP3    H113833   6.864   4.370   5.493
 4630TIP3    H213834   6.962   4.379   5.608
 4631TIP3   OH213835   0.391   2.535   1.395
 4631TIP3    H113836   0.371   2.607   1.456
 4631TIP3    H213837   0.335   2.463   1.425
 4632TIP3   OH213838   0.778   0.400   4.723
 4632TIP3    H113839   0.773   0.347   4.643
 4632TIP3    H213840   0.711   0.363   4.781
 4633TIP3   OH213841   5.211   6.808   1.741
 4633TIP3    H113842   5.229   6.743   1.809
 4633TIP3    H213843   5.153   6.763   1.680
 4634TIP3   OH213844   0.745   7.681   4.863
 4634TIP3    H113845   0.674   7.740   4.837
 4634TIP3    H213846   0.791   7.661   4.782
 4635TIP3   OH213847   1.883   1.636   1.360
 4635TIP3    H113848   1.903   1.572   1.428
 4635TIP3    H213849   1.920   1.718   1.393
 4636TIP3   OH213850   6.805   2.284   3.539
 4636TIP3    H113851   6.730   2.338   3.564
 4636TIP3    H213852   6.881   2.335   3.566
 4637TIP3   OH213853   1.453   7.190   4.496
 4637TIP3    H113854   1.503   7.234   4.564
 4637TIP3    H213855   1.476   7.097   4.505
 4638TIP3   OH213856   5.678   3.999   4.313
 4638TIP3    H113857   5.684   4.090   4.284
 4638TIP3    H213858   5.584   3.982   4.318
 4639TIP3   OH213859   6.231   1.048   0.349
 4639TIP3    H113860   6.234   0.983   0.420
 4639TIP3    H213861   6.259   0.999   0.272
 4640TIP3   OH213862   5.966   1.423   2.838
 4640TIP3    H113863   5.960   1.463   2.751
 4640TIP3    H213864   5.875   1.412   2.866
 4641TIP3   OH213865   2.824   7.277   2.427
 4641TIP3    H113866   2.751   7.322   2.386
 4641TIP3    H213867   2.891   7.345   2.439
 4642TIP3   OH213868   5.088   1.561   5.505
 4642TIP3    H113869   5.123   1.503   5.437
 4642TIP3    H213870   5.127   1.646   5.485
 4643TIP3   OH213871   3.777   3.661   2.765
 4643TIP3    H113872   3.859   3.709   2.779
 4643TIP3    H213873   3.708   3.724   2.787
 4644TIP3   OH213874   7.728   6.252   6.137
 4644TIP3    H113875   7.746   6.343   6.161
 4644TIP3    H213876   7.814   6.210   6.139
 4645TIP3   OH213877   0.520   1.647   5.193
 4645TIP3    H113878   0.485   1.568   5.151
 4645TIP3    H213879   0.533   1.709   5.121
 4646TIP3   OH213880   0.203   4.672   5.467
 4646TIP3    H113881   0.213   4.595   5.523
 4646TIP3    H213882   0.113   4.665   5.433
 4647TIP3   OH213883   1.916   1.158   6.219
 4647TIP3    H113884   2.010   1.150   6.202
 4647TIP3    H213885   1.910   1.172   6.314
 4648TIP3   OH213886   6.465   5.232   0.507
 4648TIP3    H113887   6.396   5.223   0.573
 4648TIP3    H213888   6.532   5.170   0.534
 4649TIP3   OH213889   5.173   7.011   4.840
 4649TIP3    H113890   5.228   6.933   4.844
 4649TIP3    H213891   5.179   7.050   4.927
 4650TIP3   OH213892   5.696   0.182   3.076
 4650TIP3    H113893   5.622   0.170   3.135
 4650TIP3    H213894   5.763   0.122   3.107
 4651TIP3   OH213895   6.593   6.514   0.498
 4651TIP3    H113896   6.615   6.427   0.465
 4651TIP3    H213897   6.675   6.546   0.536
 4652TIP3   OH213898   5.731   6.784   6.469
 4652TIP3    H113899   5.681   6.828   6.401
 4652TIP3    H213900   5.766   6.706   6.427
 4653TIP3   OH213901   6.655   6.310   1.115
 4653TIP3    H113902   6.665   6.216   1.100
 4653TIP3    H213903   6.743   6.340   1.137
 4654TIP3   OH213904   2.060   6.822   1.046
 4654TIP3    H113905   2.144   6.822   1.091
 4654TIP3    H213906   2.074   6.879   0.970
 4655TIP3   OH213907   5.611   6.153   2.558
 4655TIP3    H113908   5.516   6.160   2.548
 4655TIP3    H213909   5.644   6.237   2.527
 4656TIP3   OH213910   7.060   0.814   1.766
 4656TIP3    H113911   7.012   0.803   1.848
 4656TIP3    H213912   7.136   0.757   1.775
 4657TIP3   OH213913   0.805   5.308   3.221
 4657TIP3    H113914   0.886   5.320   3.171
 4657TIP3    H213915   0.832   5.313   3.313
 4658TIP3   OH213916   7.752   0.461   0.304
 4658TIP3    H113917   7.802   0.542   0.316
 4658TIP3    H213918   7.798   0.396   0.357
 4659TIP3   OH213919   7.248   0.854   3.797
 4659TIP3    H113920   7.266   0.814   3.882
 4659TIP3    H213921   7.309   0.928   3.793
 4660TIP3   OH213922   2.690   5.943   5.193
 4660TIP3    H113923   2.759   5.964   5.129
 4660TIP3    H213924   2.648   6.027   5.211
 4661TIP3   OH213925   7.245   6.469   6.391
 4661TIP3    H113926   7.316   6.469   6.455
 4661TIP3    H213927   7.271   6.404   6.326
 4662TIP3   OH213928   6.264   3.192   4.158
 4662TIP3    H113929   6.208   3.257   4.199
 4662TIP3    H213930   6.215   3.162   4.081
 4663TIP3   OH213931   7.909   3.062   3.192
 4663TIP3    H113932   7.846   3.021   3.134
 4663TIP3    H213933   7.938   2.992   3.250
 4664TIP3   OH213934   0.746   6.013   3.900
 4664TIP3    H113935   0.736   6.089   3.843
 4664TIP3    H213936   0.822   6.034   3.954
 4665TIP3   OH213937   3.402   0.189   1.258
 4665TIP3    H113938   3.450   0.114   1.291
 4665TIP3    H213939   3.328   0.151   1.211
 4666TIP3   OH213940   5.182   2.104   2.034
 4666TIP3    H113941   5.258   2.139   2.081
 4666TIP3    H213942   5.165   2.169   1.965
 4667TIP3   OH213943   4.548   5.247   5.774
 4667TIP3    H113944   4.520   5.293   5.696
 4667TIP3    H213945   4.481   5.267   5.840
 4668TIP3   OH213946   5.456   2.725   3.749
 4668TIP3    H113947   5.424   2.798   3.802
 4668TIP3    H213948   5.551   2.735   3.750
 4669TIP3   OH213949   7.112   5.907   2.526
 4669TIP3    H113950   7.078   5.943   2.608
 4669TIP3    H213951   7.052   5.939   2.459
 4670TIP3   OH213952   3.730   7.352   3.008
 4670TIP3    H113953   3.649   7.369   3.056
 4670TIP3    H213954   3.799   7.361   3.074
 4671TIP3   OH213955   0.114   0.933   0.554
 4671TIP3    H113956   0.093   0.912   0.645
 4671TIP3    H213957   0.030   0.956   0.514
 4672TIP3   OH213958   2.159   6.483   5.489
 4672TIP3    H113959   2.150   6.409   5.429
 4672TIP3    H213960   2.235   6.461   5.543
 4673TIP3   OH213961   1.430   1.966   5.233
 4673TIP3    H113962   1.516   1.956   5.273
 4673TIP3    H213963   1.406   2.057   5.248
 4674TIP3   OH213964   3.566   7.704   4.300
 4674TIP3    H113965   3.509   7.779   4.318
 4674TIP3    H213966   3.651   7.743   4.279
 4675TIP3   OH213967   0.513   6.052   6.271
 4675TIP3    H113968   0.424   6.079   6.293
 4675TIP3    H213969   0.504   6.003   6.189
 4676TIP3   OH213970   2.191   2.158   0.434
 4676TIP3    H113971   2.156   2.198   0.355
 4676TIP3    H213972   2.131   2.185   0.503
 4677TIP3   OH213973   2.301   2.695   2.341
 4677TIP3    H113974   2.229   2.632   2.334
 4677TIP3    H213975   2.352   2.682   2.261
 4678TIP3   OH213976   7.044   4.885   1.332
 4678TIP3    H113977   6.969   4.945   1.326
 4678TIP3    H213978   7.050   4.846   1.245
 4679TIP3   OH213979   8.061   0.076   1.582
 4679TIP3    H113980   8.051   0.124   1.499
 4679TIP3    H213981   8.008   0.125   1.645
 4680TIP3   OH213982   1.513   5.879   4.244
 4680TIP3    H113983   1.469   5.945   4.298
 4680TIP3    H213984   1.451   5.806   4.241
 4681TIP3   OH213985   3.647   4.482   0.775
 4681TIP3    H113986   3.623   4.454   0.686
 4681TIP3    H213987   3.690   4.566   0.762
 4682TIP3   OH213988   4.595   1.644   2.039
 4682TIP3    H113989   4.566   1.708   1.974
 4682TIP3    H213990   4.519   1.630   2.095
 4683TIP3   OH213991   8.200   6.885   6.011
 4683TIP3    H113992   8.237   6.943   6.078
 4683TIP3    H213993   8.161   6.945   5.948
 4684TIP3   OH213994   4.371   6.724   4.781
 4684TIP3    H113995   4.285   6.759   4.755
 4684TIP3    H213996   4.351   6.664   4.853
 4685TIP3   OH213997   3.950   6.734   5.907
 4685TIP3    H113998   3.948   6.661   5.845
 4685TIP3    H213999   3.978   6.694   5.990
 4686TIP3   OH214000   4.745   0.687   6.295
 4686TIP3    H114001   4.831   0.726   6.313
 4686TIP3    H214002   4.756   0.643   6.210
 4687TIP3   OH214003   6.508   7.429   6.635
 4687TIP3    H114004   6.500   7.375   6.556
 4687TIP3    H214005   6.555   7.373   6.697
 4688TIP3   OH214006   5.560   4.571   1.280
 4688TIP3    H114007   5.622   4.500   1.296
 4688TIP3    H214008   5.580   4.601   1.191
 4689TIP3   OH214009   7.479   4.264   2.745
 4689TIP3    H114010   7.515   4.342   2.787
 4689TIP3    H214011   7.385   4.269   2.763
 4690TIP3   OH214012   4.624   1.777   6.674
 4690TIP3    H114013   4.573   1.750   6.750
 4690TIP3    H214014   4.625   1.873   6.678
 4691TIP3   OH214015   5.047   3.932   5.049
 4691TIP3    H114016   4.984   4.003   5.039
 4691TIP3    H214017   5.069   3.932   5.142
 4692TIP3   OH214018   1.010   2.958   3.057
 4692TIP3    H114019   0.993   2.923   2.969
 4692TIP3    H214020   1.059   2.888   3.101
 4693TIP3   OH214021   1.269   2.787   1.533
 4693TIP3    H114022   1.191   2.767   1.482
 4693TIP3    H214023   1.301   2.702   1.563
 4694TIP3   OH214024   6.107   2.651   5.052
 4694TIP3    H114025   6.128   2.587   4.985
 4694TIP3    H214026   6.177   2.642   5.117
 4695TIP3   OH214027   1.863   7.070   6.784
 4695TIP3    H114028   1.868   7.076   6.688
 4695TIP3    H214029   1.820   7.151   6.811
 4696TIP3   OH214030   4.857   2.064   1.428
 4696TIP3    H114031   4.944   2.043   1.460
 4696TIP3    H214032   4.822   1.981   1.396
 4697TIP3   OH214033   3.528   4.922   2.959
 4697TIP3    H114034   3.590   4.994   2.973
 4697TIP3    H214035   3.459   4.960   2.905
 4698TIP3   OH214036   1.889   7.673   2.062
 4698TIP3    H114037   1.953   7.648   1.996
 4698TIP3    H214038   1.923   7.637   2.144
 4699TIP3   OH214039   5.754   4.254   4.102
 4699TIP3    H114040   5.772   4.341   4.137
 4699TIP3    H214041   5.836   4.226   4.062
 4700TIP3   OH214042   4.205   3.464   2.326
 4700TIP3    H114043   4.183   3.493   2.237
 4700TIP3    H214044   4.137   3.502   2.381
 4701TIP3   OH214045   4.359   1.391   5.191
 4701TIP3    H114046   4.367   1.486   5.178
 4701TIP3    H214047   4.280   1.367   5.143
 4702TIP3   OH214048   3.114   6.408   3.358
 4702TIP3    H114049   3.175   6.429   3.287
 4702TIP3    H214050   3.029   6.399   3.314
 4703TIP3   OH214051   4.686   0.735   2.317
 4703TIP3    H114052   4.649   0.648   2.300
 4703TIP3    H214053   4.728   0.759   2.234
 4704TIP3   OH214054   0.152   7.419   4.598
 4704TIP3    H114055   0.112   7.446   4.515
 4704TIP3    H214056   0.204   7.342   4.576
 4705TIP3   OH214057   5.584   3.035   4.947
 4705TIP3    H114058   5.498   3.063   4.917
 4705TIP3    H214059   5.629   3.006   4.868
 4706TIP3   OH214060   6.663   2.832   4.726
 4706TIP3    H114061   6.714   2.767   4.775
 4706TIP3    H214062   6.602   2.779   4.673
 4707TIP3   OH214063   0.118   4.056   4.628
 4707TIP3    H114064   0.048   4.013   4.580
 4707TIP3    H214065   0.110   4.023   4.717
 4708TIP3   OH214066   0.920   6.360   6.083
 4708TIP3    H114067   0.950   6.451   6.086
 4708TIP3    H214068   0.829   6.367   6.052
 4709TIP3   OH214069   1.986   3.007   0.214
 4709TIP3    H114070   1.943   3.093   0.213
 4709TIP3    H214071   2.062   3.018   0.157
 4710TIP3   OH214072   3.228   0.833   4.091
 4710TIP3    H114073   3.248   0.744   4.065
 4710TIP3    H214074   3.225   0.882   4.009
 4711TIP3   OH214075   7.460   5.378   4.125
 4711TIP3    H114076   7.430   5.287   4.133
 4711TIP3    H214077   7.533   5.373   4.063
 4712TIP3   OH214078   4.114   7.068   2.720
 4712TIP3    H114079   4.095   7.102   2.808
 4712TIP3    H214080   4.139   6.977   2.734
 4713TIP3   OH214081   1.792   7.206   5.241
 4713TIP3    H114082   1.836   7.188   5.324
 4713TIP3    H214083   1.862   7.237   5.183
 4714TIP3   OH214084   3.935   6.316   1.980
 4714TIP3    H114085   3.848   6.314   1.939
 4714TIP3    H214086   3.985   6.378   1.928
 4715TIP3   OH214087   7.389   6.264   1.681
 4715TIP3    H114088   7.399   6.294   1.772
 4715TIP3    H214089   7.391   6.169   1.687
 4716TIP3   OH214090   2.795   1.926   6.471
 4716TIP3    H114091   2.786   1.893   6.381
 4716TIP3    H214092   2.797   2.021   6.460
 4717TIP3   OH214093   2.368   0.080   6.303
 4717TIP3    H114094   2.279   0.075   6.338
 4717TIP3    H214095   2.365   0.029   6.222
 4718TIP3   OH214096   1.358   0.845   3.329
 4718TIP3    H114097   1.417   0.920   3.340
 4718TIP3    H214098   1.305   0.845   3.409
 4719TIP3   OH214099   7.875   2.230   3.282
 4719TIP3    H114100   7.833   2.160   3.332
 4719TIP3    H214101   7.968   2.218   3.298
 4720TIP3   OH214102   6.157   7.531   2.492
 4720TIP3    H114103   6.180   7.536   2.400
 4720TIP3    H214104   6.067   7.499   2.492
 4721TIP3   OH214105   2.042   1.945   4.579
 4721TIP3    H114106   2.117   1.888   4.564
 4721TIP3    H214107   2.004   1.914   4.660
 4722TIP3   OH214108   3.931   3.842   1.574
 4722TIP3    H114109   3.930   3.918   1.631
 4722TIP3    H214110   4.010   3.794   1.597
 4723TIP3   OH214111   5.950   0.667   6.192
 4723TIP3    H114112   5.902   0.725   6.251
 4723TIP3    H214113   5.934   0.704   6.105
 4724TIP3   OH214114   6.677   3.976   2.897
 4724TIP3    H114115   6.752   3.925   2.926
 4724TIP3    H214116   6.613   3.966   2.967
 4725TIP3   OH214117   7.942   2.098   6.627
 4725TIP3    H114118   7.962   2.182   6.585
 4725TIP3    H214119   7.970   2.109   6.718
 4726TIP3   OH214120   1.272   1.858   2.832
 4726TIP3    H114121   1.258   1.888   2.742
 4726TIP3    H214122   1.238   1.930   2.886
 4727TIP3   OH214123   2.810   0.735   0.812
 4727TIP3    H114124   2.838   0.645   0.831
 4727TIP3    H214125   2.840   0.751   0.723
 4728TIP3   OH214126   1.250   2.321   5.093
 4728TIP3    H114127   1.279   2.248   5.040
 4728TIP3    H214128   1.253   2.397   5.034
 4729TIP3   OH214129   3.646   3.539   2.253
 4729TIP3    H114130   3.593   3.589   2.316
 4729TIP3    H214131   3.582   3.504   2.191
 4730TIP3   OH214132   3.181   7.401   1.441
 4730TIP3    H114133   3.274   7.379   1.448
 4730TIP3    H214134   3.168   7.471   1.504
 4731TIP3   OH214135   4.409   7.034   2.214
 4731TIP3    H114136   4.489   6.990   2.185
 4731TIP3    H214137   4.433   7.127   2.219
 4732TIP3   OH214138   6.644   1.692   1.569
 4732TIP3    H114139   6.638   1.693   1.664
 4732TIP3    H214140   6.596   1.613   1.543
 4733TIP3   OH214141   4.335   0.967   3.286
 4733TIP3    H114142   4.384   0.933   3.211
 4733TIP3    H214143   4.347   1.062   3.282
 4734TIP3   OH214144   7.931   5.752   4.818
 4734TIP3    H114145   7.861   5.687   4.817
 4734TIP3    H214146   8.007   5.704   4.852
 4735TIP3   OH214147   3.406   1.407   3.637
 4735TIP3    H114148   3.492   1.439   3.664
 4735TIP3    H214149   3.412   1.397   3.542
 4736TIP3   OH214150   6.038   7.144   2.498
 4736TIP3    H114151   6.057   7.149   2.592
 4736TIP3    H214152   6.027   7.235   2.471
 4737TIP3   OH214153   1.692   4.565   3.140
 4737TIP3    H114154   1.652   4.521   3.214
 4737TIP3    H214155   1.624   4.567   3.073
 4738TIP3   OH214156   1.506   4.019   5.692
 4738TIP3    H114157   1.583   3.968   5.669
 4738TIP3    H214158   1.433   3.957   5.689
 4739TIP3   OH214159   5.528   4.787   6.283
 4739TIP3    H114160   5.502   4.827   6.366
 4739TIP3    H214161   5.541   4.861   6.223
 4740TIP3   OH214162   2.912   7.601   1.350
 4740TIP3    H114163   2.959   7.532   1.304
 4740TIP3    H214164   2.952   7.603   1.437
 4741TIP3   OH214165   3.044   4.446   6.447
 4741TIP3    H114166   3.137   4.469   6.440
 4741TIP3    H214167   3.026   4.449   6.541
 4742TIP3   OH214168   5.141   5.269   4.351
 4742TIP3    H114169   5.139   5.294   4.443
 4742TIP3    H214170   5.231   5.284   4.324
 4743TIP3   OH214171   6.532   4.918   6.528
 4743TIP3    H114172   6.561   4.930   6.619
 4743TIP3    H214173   6.598   4.860   6.490
 4744TIP3   OH214174   6.560   3.538   0.353
 4744TIP3    H114175   6.595   3.452   0.329
 4744TIP3    H214176   6.631   3.599   0.331
 4745TIP3   OH214177   2.249   7.320   5.924
 4745TIP3    H114178   2.172   7.295   5.975
 4745TIP3    H214179   2.272   7.241   5.874
 4746TIP3   OH214180   5.596   7.640   5.426
 4746TIP3    H114181   5.588   7.580   5.353
 4746TIP3    H214182   5.520   7.699   5.418
 4747TIP3   OH214183   2.194   6.571   4.611
 4747TIP3    H114184   2.117   6.583   4.554
 4747TIP3    H214185   2.217   6.660   4.639
 4748TIP3   OH214186   5.727   7.181   4.368
 4748TIP3    H114187   5.783   7.250   4.404
 4748TIP3    H214188   5.696   7.133   4.445
 4749TIP3   OH214189   7.750   5.476   1.141
 4749TIP3    H114190   7.786   5.408   1.198
 4749TIP3    H214191   7.711   5.427   1.068
 4750TIP3   OH214192   7.538   6.523   5.506
 4750TIP3    H114193   7.520   6.516   5.412
 4750TIP3    H214194   7.453   6.506   5.547
 4751TIP3   OH214195   7.668   5.593   0.149
 4751TIP3    H114196   7.749   5.639   0.172
 4751TIP3    H214197   7.617   5.591   0.230
 4752TIP3   OH214198   7.667   4.194   3.265
 4752TIP3    H114199   7.597   4.216   3.327
 4752TIP3    H214200   7.632   4.219   3.179
 4753TIP3   OH214201   7.137   1.567   1.800
 4753TIP3    H114202   7.206   1.502   1.788
 4753TIP3    H214203   7.168   1.623   1.871
 4754TIP3   OH214204   5.473   7.580   6.240
 4754TIP3    H114205   5.561   7.547   6.218
 4754TIP3    H214206   5.467   7.664   6.196
 4755TIP3   OH214207   4.304   5.677   4.137
 4755TIP3    H114208   4.294   5.739   4.209
 4755TIP3    H214209   4.215   5.667   4.103
 4756TIP3   OH214210   7.884   1.760   0.422
 4756TIP3    H114211   7.876   1.852   0.448
 4756TIP3    H214212   7.978   1.742   0.424
 4757TIP3   OH214213   5.948   6.717   2.920
 4757TIP3    H114214   5.916   6.628   2.902
 4757TIP3    H214215   5.985   6.712   3.008
 4758TIP3   OH214216   6.473   7.580   2.383
 4758TIP3    H114217   6.404   7.548   2.441
 4758TIP3    H214218   6.428   7.644   2.327
 4759TIP3   OH214219   5.955   3.915   2.850
 4759TIP3    H114220   5.959   3.845   2.915
 4759TIP3    H214221   5.866   3.951   2.859
 4760TIP3   OH214222   5.570   2.380   4.743
 4760TIP3    H114223   5.604   2.467   4.723
 4760TIP3    H214224   5.476   2.392   4.754
 4761TIP3   OH214225   1.943   4.581   4.888
 4761TIP3    H114226   1.890   4.654   4.857
 4761TIP3    H214227   1.889   4.539   4.956
 4762TIP3   OH214228   0.780   1.985   1.905
 4762TIP3    H114229   0.782   1.951   1.995
 4762TIP3    H214230   0.851   1.939   1.860
 4763TIP3   OH214231   3.694   5.222   0.597
 4763TIP3    H114232   3.754   5.170   0.544
 4763TIP3    H214233   3.610   5.217   0.551
 4764TIP3   OH214234   2.973   5.998   5.448
 4764TIP3    H114235   2.929   6.021   5.367
 4764TIP3    H214236   3.058   6.043   5.443
 4765TIP3   OH214237   6.962   6.102   3.459
 4765TIP3    H114238   6.980   6.065   3.373
 4765TIP3    H214239   7.028   6.171   3.469
 4766TIP3   OH214240   2.680   5.663   2.753
 4766TIP3    H114241   2.630   5.704   2.823
 4766TIP3    H214242   2.698   5.575   2.785
 4767TIP3   OH214243   4.603   4.493   5.898
 4767TIP3    H114244   4.688   4.450   5.891
 4767TIP3    H214245   4.565   4.487   5.811
 4768TIP3   OH214246   1.758   1.124   6.476
 4768TIP3    H114247   1.777   1.217   6.462
 4768TIP3    H214248   1.666   1.115   6.450
 4769TIP3   OH214249   4.239   5.103   0.075
 4769TIP3    H114250   4.259   5.191   0.045
 4769TIP3    H214251   4.312   5.049   0.042
 4770TIP3   OH214252   6.203   4.495   5.014
 4770TIP3    H114253   6.222   4.403   5.001
 4770TIP3    H214254   6.114   4.497   5.049
 4771TIP3   OH214255   3.388   0.107   6.722
 4771TIP3    H114256   3.314   0.098   6.661
 4771TIP3    H214257   3.410   0.016   6.745
 4772TIP3   OH214258   4.459   2.357   2.960
 4772TIP3    H114259   4.364   2.365   2.951
 4772TIP3    H214260   4.475   2.262   2.958
 4773TIP3   OH214261   6.899   3.930   6.111
 4773TIP3    H114262   6.923   4.014   6.151
 4773TIP3    H214263   6.880   3.952   6.020
 4774TIP3   OH214264   0.924   3.510   0.159
 4774TIP3    H114265   0.969   3.443   0.211
 4774TIP3    H214266   0.857   3.462   0.110
 4775TIP3   OH214267   4.681   6.780   0.474
 4775TIP3    H114268   4.725   6.807   0.394
 4775TIP3    H214269   4.738   6.714   0.513
 4776TIP3   OH214270   3.311   1.524   2.492
 4776TIP3    H114271   3.399   1.534   2.458
 4776TIP3    H214272   3.318   1.456   2.560
 4777TIP3   OH214273   0.366   0.229   6.190
 4777TIP3    H114274   0.446   0.203   6.146
 4777TIP3    H214275   0.357   0.165   6.261
 4778TIP3   OH214276   5.874   1.051   5.071
 4778TIP3    H114277   5.887   0.958   5.054
 4778TIP3    H214278   5.857   1.089   4.985
 4779TIP3   OH214279   0.540   5.216   5.592
 4779TIP3    H114280   0.445   5.207   5.605
 4779TIP3    H214281   0.556   5.310   5.599
 4780TIP3   OH214282   7.764   4.192   0.961
 4780TIP3    H114283   7.709   4.206   1.038
 4780TIP3    H214284   7.854   4.205   0.992
 4781TIP3   OH214285   6.374   4.386   5.872
 4781TIP3    H114286   6.325   4.393   5.954
 4781TIP3    H214287   6.307   4.373   5.805
 4782TIP3   OH214288   2.871   4.057   6.469
 4782TIP3    H114289   2.808   4.105   6.523
 4782TIP3    H214290   2.957   4.080   6.506
 4783TIP3   OH214291   2.515   7.192   3.287
 4783TIP3    H114292   2.587   7.139   3.322
 4783TIP3    H214293   2.488   7.146   3.208
 4784TIP3   OH214294   4.200   6.705   3.626
 4784TIP3    H114295   4.263   6.724   3.696
 4784TIP3    H214296   4.197   6.785   3.573
 4785TIP3   OH214297   3.235   2.455   2.346
 4785TIP3    H114298   3.319   2.483   2.381
 4785TIP3    H214299   3.189   2.536   2.325
 4786TIP3   OH214300   1.382   5.944   2.041
 4786TIP3    H114301   1.412   5.973   1.955
 4786TIP3    H214302   1.302   5.993   2.057
 4787TIP3   OH214303   3.095   5.920   2.444
 4787TIP3    H114304   3.059   5.842   2.487
 4787TIP3    H214305   3.141   5.886   2.368
 4788TIP3   OH214306   1.140   1.006   2.824
 4788TIP3    H114307   1.203   0.971   2.761
 4788TIP3    H214308   1.112   0.930   2.874
 4789TIP3   OH214309   3.036   5.377   2.284
 4789TIP3    H114310   3.082   5.293   2.292
 4789TIP3    H214311   2.955   5.365   2.334
 4790TIP3   OH214312   8.262   5.812   6.382
 4790TIP3    H114313   8.269   5.897   6.425
 4790TIP3    H214314   8.242   5.751   6.453
 4791TIP3   OH214315   5.071   3.070   5.861
 4791TIP3    H114316   5.142   3.105   5.915
 4791TIP3    H214317   5.005   3.139   5.860
 4792TIP3   OH214318   2.244   2.623   1.813
 4792TIP3    H114319   2.302   2.694   1.786
 4792TIP3    H214320   2.161   2.666   1.832
 4793TIP3   OH214321   8.006   4.459   5.542
 4793TIP3    H114322   7.921   4.489   5.573
 4793TIP3    H214323   8.069   4.498   5.602
 4794TIP3   OH214324   3.386   4.574   4.227
 4794TIP3    H114325   3.447   4.646   4.215
 4794TIP3    H214326   3.366   4.574   4.321
 4795TIP3   OH214327   1.186   5.974   2.729
 4795TIP3    H114328   1.099   5.964   2.690
 4795TIP3    H214329   1.199   6.068   2.735
 4796TIP3   OH214330   2.652   6.629   5.064
 4796TIP3    H114331   2.610   6.626   4.978
 4796TIP3    H214332   2.634   6.718   5.096
 4797TIP3   OH214333   0.622   3.736   2.076
 4797TIP3    H114334   0.561   3.784   2.019
 4797TIP3    H214335   0.650   3.800   2.141
 4798TIP3   OH214336   4.869   4.755   4.936
 4798TIP3    H114337   4.852   4.661   4.932
 4798TIP3    H214338   4.944   4.764   4.995
 4799TIP3   OH214339   2.824   0.086   1.366
 4799TIP3    H114340   2.782   0.072   1.451
 4799TIP3    H214341   2.792   0.171   1.337
 4800TIP3   OH214342   7.243   4.853   2.592
 4800TIP3    H114343   7.272   4.944   2.595
 4800TIP3    H214344   7.254   4.821   2.682
 4801TIP3   OH214345   6.538   4.069   4.733
 4801TIP3    H114346   6.587   4.149   4.753
 4801TIP3    H214347   6.530   4.069   4.637
 4802TIP3   OH214348   2.083   3.104   1.542
 4802TIP3    H114349   2.109   3.014   1.524
 4802TIP3    H214350   2.165   3.153   1.543
 4803TIP3   OH214351   2.616   3.379   6.396
 4803TIP3    H114352   2.653   3.325   6.467
 4803TIP3    H214353   2.524   3.352   6.391
 4804TIP3   OH214354   4.328   6.592   2.917
 4804TIP3    H114355   4.346   6.686   2.906
 4804TIP3    H214356   4.273   6.570   2.842
 4805TIP3   OH214357   5.057   3.846   3.428
 4805TIP3    H114358   5.098   3.925   3.462
 4805TIP3    H214359   5.105   3.774   3.469
 4806TIP3   OH214360   3.103   4.082   1.560
 4806TIP3    H114361   3.167   4.118   1.498
 4806TIP3    H214362   3.034   4.046   1.505
 4807TIP3   OH214363   2.747   6.305   4.722
 4807TIP3    H114364   2.730   6.388   4.678
 4807TIP3    H214365   2.780   6.247   4.653
 4808TIP3   OH214366   0.733   7.605   4.070
 4808TIP3    H114367   0.764   7.687   4.108
 4808TIP3    H214368   0.703   7.553   4.144
 4809TIP3   OH214369   1.976   3.988   0.826
 4809TIP3    H114370   2.015   3.900   0.819
 4809TIP3    H214371   1.918   3.994   0.750
 4810TIP3   OH214372   1.325   2.142   3.890
 4810TIP3    H114373   1.387   2.081   3.849
 4810TIP3    H214374   1.336   2.127   3.984
 4811TIP3   OH214375   4.579   3.447   3.957
 4811TIP3    H114376   4.570   3.454   4.053
 4811TIP3    H214377   4.500   3.401   3.929
 4812TIP3   OH214378   5.855   1.051   1.015
 4812TIP3    H114379   5.872   1.073   1.107
 4812TIP3    H214380   5.931   1.087   0.969
 4813TIP3   OH214381   7.123   5.640   5.225
 4813TIP3    H114382   7.113   5.714   5.285
 4813TIP3    H214383   7.208   5.603   5.246
 4814TIP3   OH214384   4.216   6.878   3.114
 4814TIP3    H114385   4.202   6.790   3.147
 4814TIP3    H214386   4.169   6.935   3.175
 4815TIP3   OH214387   1.874   1.094   4.085
 4815TIP3    H114388   1.948   1.092   4.145
 4815TIP3    H214389   1.802   1.129   4.136
 4816TIP3   OH214390   6.747   1.030   0.483
 4816TIP3    H114391   6.761   0.939   0.510
 4816TIP3    H214392   6.830   1.056   0.443
 4817TIP3   OH214393   7.029   2.514   6.050
 4817TIP3    H114394   7.119   2.544   6.037
 4817TIP3    H214395   7.037   2.420   6.068
 4818TIP3   OH214396   2.389  -0.004   0.900
 4818TIP3    H114397   2.396  -0.064   0.974
 4818TIP3    H214398   2.403   0.082   0.938
 4819TIP3   OH214399   4.300   7.695   4.173
 4819TIP3    H114400   4.247   7.637   4.228
 4819TIP3    H214401   4.366   7.730   4.233
 4820TIP3   OH214402   0.493   1.873   6.014
 4820TIP3    H114403   0.511   1.785   6.048
 4820TIP3    H214404   0.571   1.894   5.961
 4821TIP3   OH214405   6.601   3.076   4.801
 4821TIP3    H114406   6.633   2.996   4.758
 4821TIP3    H214407   6.590   3.052   4.893
 4822TIP3   OH214408   7.857   6.563   1.456
 4822TIP3    H114409   7.904   6.499   1.402
 4822TIP3    H214410   7.775   6.519   1.479
 4823TIP3   OH214411   5.417   3.514   0.178
 4823TIP3    H114412   5.456   3.438   0.221
 4823TIP3    H214413   5.413   3.581   0.247
 4824TIP3   OH214414   7.970   7.689   2.512
 4824TIP3    H114415   7.882   7.695   2.475
 4824TIP3    H214416   7.990   7.777   2.542
 4825TIP3   OH214417   5.113   3.694   5.721
 4825TIP3    H114418   5.058   3.705   5.644
 4825TIP3    H214419   5.199   3.671   5.686
 4826TIP3   OH214420   8.049   4.693   5.219
 4826TIP3    H114421   7.996   4.744   5.281
 4826TIP3    H214422   8.115   4.754   5.189
 4827TIP3   OH214423   5.769   6.261   0.340
 4827TIP3    H114424   5.851   6.274   0.387
 4827TIP3    H214425   5.793   6.263   0.247
 4828TIP3   OH214426   0.555   2.523   3.186
 4828TIP3    H114427   0.574   2.539   3.093
 4828TIP3    H214428   0.586   2.601   3.231
 4829TIP3   OH214429   1.410   0.529   1.822
 4829TIP3    H114430   1.381   0.617   1.844
 4829TIP3    H214431   1.335   0.473   1.843
 4830TIP3   OH214432   4.706   4.694   2.766
 4830TIP3    H114433   4.657   4.651   2.836
 4830TIP3    H214434   4.642   4.750   2.723
 4831TIP3   OH214435   4.648   6.303   1.704
 4831TIP3    H114436   4.602   6.386   1.693
 4831TIP3    H214437   4.621   6.272   1.791
 4832TIP3   OH214438   0.106   1.895   6.612
 4832TIP3    H114439   0.159   1.960   6.565
 4832TIP3    H214440   0.114   1.921   6.704
 4833TIP3   OH214441   4.541   3.643   1.650
 4833TIP3    H114442   4.529   3.552   1.678
 4833TIP3    H214443   4.585   3.637   1.565
 4834TIP3   OH214444   4.701   1.844   2.226
 4834TIP3    H114445   4.676   1.775   2.164
 4834TIP3    H214446   4.637   1.914   2.211
 4835TIP3   OH214447   6.689   3.341   0.228
 4835TIP3    H114448   6.771   3.391   0.223
 4835TIP3    H214449   6.711   3.257   0.187
 4836TIP3   OH214450   3.343   1.354   0.310
 4836TIP3    H114451   3.367   1.265   0.339
 4836TIP3    H214452   3.427   1.397   0.294
 4837TIP3   OH214453   5.837   4.102   0.775
 4837TIP3    H114454   5.829   4.081   0.682
 4837TIP3    H214455   5.798   4.189   0.783
 4838TIP3   OH214456   1.725   1.696   4.437
 4838TIP3    H114457   1.630   1.684   4.444
 4838TIP3    H214458   1.747   1.752   4.512
 4839TIP3   OH214459   7.651   7.072   1.098
 4839TIP3    H114460   7.609   7.137   1.041
 4839TIP3    H214461   7.631   7.102   1.186
 4840TIP3   OH214462   8.136   2.715   2.091
 4840TIP3    H114463   8.117   2.622   2.079
 4840TIP3    H214464   8.134   2.751   2.002
 4841TIP3   OH214465   1.643   0.921   3.882
 4841TIP3    H114466   1.622   0.848   3.823
 4841TIP3    H214467   1.738   0.926   3.881
 4842TIP3   OH214468   6.162   0.850   1.076
 4842TIP3    H114469   6.136   0.881   1.162
 4842TIP3    H214470   6.133   0.919   1.016
 4843TIP3   OH214471   4.195   3.948   2.618
 4843TIP3    H114472   4.280   3.987   2.597
 4843TIP3    H214473   4.140   4.023   2.640
 4844TIP3   OH214474   7.769   4.853   1.346
 4844TIP3    H114475   7.699   4.809   1.393
 4844TIP3    H214476   7.798   4.923   1.404
 4845TIP3   OH214477   5.771   5.929   1.927
 4845TIP3    H114478   5.832   5.955   1.858
 4845TIP3    H214479   5.821   5.939   2.008
 4846TIP3   OH214480   0.785   6.990   6.252
 4846TIP3    H114481   0.762   7.077   6.219
 4846TIP3    H214482   0.758   6.931   6.182
 4847TIP3   OH214483   5.801   3.643   0.415
 4847TIP3    H114484   5.888   3.636   0.454
 4847TIP3    H214485   5.818   3.660   0.322
 4848TIP3   OH214486   0.858   6.259   2.186
 4848TIP3    H114487   0.934   6.315   2.173
 4848TIP3    H214488   0.808   6.267   2.105
 4849TIP3   OH214489   1.064   4.832   5.030
 4849TIP3    H114490   1.111   4.914   5.036
 4849TIP3    H214491   1.040   4.811   5.120
 4850TIP3   OH214492   4.435   6.662   3.447
 4850TIP3    H114493   4.412   6.640   3.357
 4850TIP3    H214494   4.351   6.678   3.490
 4851TIP3   OH214495   7.350   4.739   4.129
 4851TIP3    H114496   7.263   4.735   4.089
 4851TIP3    H214497   7.334   4.778   4.215
 4852TIP3   OH214498   1.744   0.484   5.989
 4852TIP3    H114499   1.679   0.437   5.938
 4852TIP3    H214500   1.813   0.506   5.926
 4853TIP3   OH214501   2.240   1.939   4.280
 4853TIP3    H114502   2.329   1.928   4.247
 4853TIP3    H214503   2.236   1.884   4.358
 4854TIP3   OH214504   5.921   0.861   0.783
 4854TIP3    H114505   5.996   0.896   0.830
 4854TIP3    H214506   5.845   0.901   0.825
 4855TIP3   OH214507   1.341   4.527   6.010
 4855TIP3    H114508   1.310   4.604   5.962
 4855TIP3    H214509   1.306   4.453   5.961
 4856TIP3   OH214510   2.387   0.407   2.491
 4856TIP3    H114511   2.300   0.442   2.508
 4856TIP3    H214512   2.430   0.473   2.437
 4857TIP3   OH214513   0.692   3.181   5.991
 4857TIP3    H114514   0.651   3.223   5.915
 4857TIP3    H214515   0.774   3.228   6.003
 4858TIP3   OH214516   1.796   5.176   2.213
 4858TIP3    H114517   1.807   5.153   2.305
 4858TIP3    H214518   1.703   5.196   2.204
 4859TIP3   OH214519   5.818   7.649   4.742
 4859TIP3    H114520   5.853   7.610   4.662
 4859TIP3    H214521   5.831   7.581   4.809
 4860TIP3   OH214522   5.109   2.079   2.741
 4860TIP3    H114523   5.061   2.133   2.804
 4860TIP3    H214524   5.193   2.125   2.730
 4861TIP3   OH214525   5.447   6.041   1.780
 4861TIP3    H114526   5.520   6.102   1.768
 4861TIP3    H214527   5.469   5.967   1.724
 4862TIP3   OH214528   7.954   2.458   0.081
 4862TIP3    H114529   7.867   2.433   0.111
 4862TIP3    H214530   7.953   2.441  -0.014
 4863TIP3   OH214531   3.623   0.288   2.514
 4863TIP3    H114532   3.650   0.240   2.436
 4863TIP3    H214533   3.534   0.257   2.532
 4864TIP3   OH214534   6.657   5.641   3.115
 4864TIP3    H114535   6.688   5.731   3.127
 4864TIP3    H214536   6.625   5.616   3.202
 4865TIP3   OH214537   1.755   0.044   0.041
 4865TIP3    H114538   1.725   0.128   0.077
 4865TIP3    H214539   1.759  -0.015   0.117
 4866TIP3   OH214540   6.334   4.780   4.708
 4866TIP3    H114541   6.294   4.693   4.702
 4866TIP3    H214542   6.422   4.769   4.673
 4867TIP3   OH214543   0.856   0.811   6.681
 4867TIP3    H114544   0.889   0.723   6.661
 4867TIP3    H214545   0.925   0.852   6.732
 4868TIP3   OH214546   5.541   1.614   4.425
 4868TIP3    H114547   5.503   1.651   4.346
 4868TIP3    H214548   5.466   1.574   4.471
 4869TIP3   OH214549   2.123   0.224   4.350
 4869TIP3    H114550   2.043   0.256   4.307
 4869TIP3    H214551   2.193   0.274   4.310
 4870TIP3   OH214552   6.818   4.054   2.592
 4870TIP3    H114553   6.742   3.998   2.607
 4870TIP3    H214554   6.877   4.001   2.540
 4871TIP3   OH214555   3.551   4.658   2.934
 4871TIP3    H114556   3.640   4.635   2.960
 4871TIP3    H214557   3.548   4.753   2.941
 4872TIP3   OH214558   8.282   6.337   0.892
 4872TIP3    H114559   8.215   6.351   0.959
 4872TIP3    H214560   8.278   6.243   0.873
 4873TIP3   OH214561   6.127   3.736   5.978
 4873TIP3    H114562   6.121   3.831   5.974
 4873TIP3    H214563   6.200   3.714   5.918
 4874TIP3   OH214564   4.159   2.523   3.968
 4874TIP3    H114565   4.223   2.525   4.039
 4874TIP3    H214566   4.074   2.520   4.013
 4875TIP3   OH214567   3.426   5.580   1.281
 4875TIP3    H114568   3.380   5.608   1.202
 4875TIP3    H214569   3.517   5.605   1.265
 4876TIP3   OH214570   6.946   1.389   1.885
 4876TIP3    H114571   6.861   1.414   1.849
 4876TIP3    H214572   7.005   1.459   1.857
 4877TIP3   OH214573   3.833   7.636   4.764
 4877TIP3    H114574   3.819   7.708   4.824
 4877TIP3    H214575   3.773   7.653   4.691
 4878TIP3   OH214576   5.247   0.703   5.171
 4878TIP3    H114577   5.233   0.624   5.118
 4878TIP3    H214578   5.248   0.670   5.262
 4879TIP3   OH214579   5.890   6.671   5.599
 4879TIP3    H114580   5.956   6.603   5.582
 4879TIP3    H214581   5.889   6.680   5.695
 4880TIP3   OH214582   2.167   2.904   1.324
 4880TIP3    H114583   2.212   2.929   1.244
 4880TIP3    H214584   2.103   2.838   1.297
 4881TIP3   OH214585   5.871   2.855   6.278
 4881TIP3    H114586   5.965   2.868   6.268
 4881TIP3    H214587   5.835   2.943   6.283
 4882TIP3   OH214588   0.584   1.307   1.790
 4882TIP3    H114589   0.644   1.263   1.730
 4882TIP3    H214590   0.612   1.279   1.877
 4883TIP3   OH214591   4.510   3.069   5.891
 4883TIP3    H114592   4.497   3.014   5.968
 4883TIP3    H214593   4.517   3.158   5.926
 4884TIP3   OH214594   1.137   0.850   6.444
 4884TIP3    H114595   1.149   0.830   6.351
 4884TIP3    H214596   1.091   0.934   6.444
 4885TIP3   OH214597   7.325   3.583   3.138
 4885TIP3    H114598   7.406   3.576   3.088
 4885TIP3    H214599   7.351   3.569   3.229
 4886TIP3   OH214600   7.897   5.771   3.290
 4886TIP3    H114601   7.872   5.807   3.205
 4886TIP3    H214602   7.951   5.695   3.268
 4887TIP3   OH214603   3.491   6.400   5.943
 4887TIP3    H114604   3.529   6.315   5.922
 4887TIP3    H214605   3.476   6.397   6.037
 4888TIP3   OH214606   3.344   1.093   6.049
 4888TIP3    H114607   3.252   1.084   6.024
 4888TIP3    H214608   3.376   1.167   5.997
 4889TIP3   OH214609   8.281   6.464   3.039
 4889TIP3    H114610   8.299   6.557   3.059
 4889TIP3    H214611   8.193   6.464   3.001
 4890TIP3   OH214612   6.209   2.167   0.139
 4890TIP3    H114613   6.219   2.241   0.199
 4890TIP3    H214614   6.298   2.147   0.110
 4891TIP3   OH214615   0.592   4.410   4.108
 4891TIP3    H114616   0.557   4.339   4.055
 4891TIP3    H214617   0.653   4.456   4.050
 4892TIP3   OH214618   2.394   2.803   3.169
 4892TIP3    H114619   2.482   2.768   3.161
 4892TIP3    H214620   2.344   2.761   3.099
 4893TIP3   OH214621   0.512   2.576   0.193
 4893TIP3    H114622   0.564   2.544   0.267
 4893TIP3    H214623   0.441   2.512   0.185
 4894TIP3   OH214624   3.098   0.534   6.581
 4894TIP3    H114625   3.163   0.596   6.549
 4894TIP3    H214626   3.034   0.588   6.627
 4895TIP3   OH214627   8.098   6.417   6.272
 4895TIP3    H114628   8.105   6.406   6.367
 4895TIP3    H214629   8.010   6.452   6.259
 4896TIP3   OH214630   1.733   4.394   2.623
 4896TIP3    H114631   1.685   4.325   2.577
 4896TIP3    H214632   1.784   4.438   2.555
 4897TIP3   OH214633   3.611   0.247   6.631
 4897TIP3    H114634   3.685   0.211   6.679
 4897TIP3    H214635   3.535   0.227   6.685
 4898TIP3   OH214636   5.357   2.285   3.964
 4898TIP3    H114637   5.359   2.381   3.960
 4898TIP3    H214638   5.316   2.266   4.048
 4899TIP3   OH214639   5.949   5.979   4.514
 4899TIP3    H114640   6.002   5.996   4.437
 4899TIP3    H214641   6.013   5.970   4.585
 4900TIP3   OH214642   7.909   2.342   2.370
 4900TIP3    H114643   7.871   2.423   2.336
 4900TIP3    H214644   7.962   2.370   2.445
 4901TIP3   OH214645   8.025   4.744   4.902
 4901TIP3    H114646   8.112   4.745   4.941
 4901TIP3    H214647   7.986   4.662   4.932
 4902TIP3   OH214648   0.474   5.229   2.160
 4902TIP3    H114649   0.389   5.268   2.182
 4902TIP3    H214650   0.489   5.254   2.069
 4903TIP3   OH214651   1.666   5.987   1.780
 4903TIP3    H114652   1.706   6.054   1.835
 4903TIP3    H214653   1.738   5.951   1.728
 4904TIP3   OH214654   0.712   0.320   2.215
 4904TIP3    H114655   0.719   0.396   2.272
 4904TIP3    H214656   0.789   0.267   2.236
 4905TIP3   OH214657   2.894   0.084   5.281
 4905TIP3    H114658   2.871   0.158   5.225
 4905TIP3    H214659   2.885   0.007   5.225
 4906TIP3   OH214660   7.405   7.295   0.727
 4906TIP3    H114661   7.344   7.358   0.765
 4906TIP3    H214662   7.425   7.330   0.640
 4907TIP3   OH214663   0.368   3.911   5.540
 4907TIP3    H114664   0.316   3.837   5.572
 4907TIP3    H214665   0.351   3.981   5.603
 4908TIP3   OH214666   4.516   1.548   3.541
 4908TIP3    H114667   4.477   1.474   3.588
 4908TIP3    H214668   4.609   1.529   3.539
 4909TIP3   OH214669   5.651   0.063   0.838
 4909TIP3    H114670   5.719   0.030   0.779
 4909TIP3    H214671   5.644  -0.003   0.907
 4910TIP3   OH214672   5.906   4.724   3.577
 4910TIP3    H114673   5.862   4.738   3.661
 4910TIP3    H214674   5.879   4.635   3.550
 4911TIP3   OH214675   7.192   2.311   3.786
 4911TIP3    H114676   7.258   2.358   3.735
 4911TIP3    H214677   7.202   2.220   3.758
 4912TIP3   OH214678   0.811   0.996   0.850
 4912TIP3    H114679   0.734   1.024   0.801
 4912TIP3    H214680   0.838   0.915   0.808
 4913TIP3   OH214681   4.277   2.275   6.493
 4913TIP3    H114682   4.359   2.290   6.446
 4913TIP3    H214683   4.296   2.201   6.551
 4914TIP3   OH214684   3.721   5.572   5.736
 4914TIP3    H114685   3.626   5.560   5.746
 4914TIP3    H214686   3.737   5.660   5.768
 4915TIP3   OH214687   2.652   3.739   3.389
 4915TIP3    H114688   2.635   3.717   3.297
 4915TIP3    H214689   2.745   3.717   3.402
 4916TIP3   OH214690   5.606   1.360   6.097
 4916TIP3    H114691   5.555   1.354   6.178
 4916TIP3    H214692   5.550   1.320   6.031
 4917TIP3   OH214693   5.679   5.216   3.690
 4917TIP3    H114694   5.732   5.143   3.659
 4917TIP3    H214695   5.598   5.211   3.638
 4918TIP3   OH214696   6.503   6.651   1.838
 4918TIP3    H114697   6.557   6.679   1.913
 4918TIP3    H214698   6.531   6.707   1.766
 4919TIP3   OH214699   8.302   1.791   5.847
 4919TIP3    H114700   8.243   1.718   5.827
 4919TIP3    H214701   8.289   1.807   5.941
 4920TIP3   OH214702   1.284   5.365   6.699
 4920TIP3    H114703   1.326   5.285   6.670
 4920TIP3    H214704   1.325   5.435   6.648
 4921TIP3   OH214705   0.915   5.544   1.534
 4921TIP3    H114706   0.890   5.609   1.468
 4921TIP3    H214707   0.966   5.594   1.598
 4922TIP3   OH214708   1.437   0.491   2.480
 4922TIP3    H114709   1.514   0.529   2.521
 4922TIP3    H214710   1.441   0.398   2.503
 4923TIP3   OH214711   0.257   0.946   0.325
 4923TIP3    H114712   0.346   0.929   0.355
 4923TIP3    H214713   0.205   0.951   0.405
 4924TIP3   OH214714   6.572   3.222   5.791
 4924TIP3    H114715   6.593   3.246   5.701
 4924TIP3    H214716   6.540   3.132   5.785
 4925TIP3   OH214717   7.856   7.019   4.611
 4925TIP3    H114718   7.898   6.936   4.631
 4925TIP3    H214719   7.799   7.000   4.536
 4926TIP3   OH214720   3.598   3.729   1.595
 4926TIP3    H114721   3.552   3.646   1.581
 4926TIP3    H214722   3.603   3.769   1.508
 4927TIP3   OH214723   1.982   4.861   1.730
 4927TIP3    H114724   1.923   4.936   1.730
 4927TIP3    H214725   1.925   4.785   1.728
 4928TIP3   OH214726   7.631   6.627   1.225
 4928TIP3    H114727   7.653   6.681   1.150
 4928TIP3    H214728   7.612   6.689   1.295
 4929TIP3   OH214729   4.109   1.561   1.263
 4929TIP3    H114730   4.102   1.601   1.349
 4929TIP3    H214731   4.102   1.467   1.279
 4930TIP3   OH214732   2.710   7.506   1.043
 4930TIP3    H114733   2.643   7.447   1.010
 4930TIP3    H214734   2.786   7.451   1.058
 4931TIP3   OH214735   4.781   3.548   5.187
 4931TIP3    H114736   4.745   3.613   5.126
 4931TIP3    H214737   4.736   3.467   5.166
 4932TIP3   OH214738   0.426   6.587   1.519
 4932TIP3    H114739   0.402   6.619   1.606
 4932TIP3    H214740   0.442   6.494   1.532
 4933TIP3   OH214741   7.869   4.465   4.988
 4933TIP3    H114742   7.954   4.437   4.953
 4933TIP3    H214743   7.864   4.425   5.075
 4934TIP3   OH214744   3.268   2.614   3.374
 4934TIP3    H114745   3.210   2.677   3.416
 4934TIP3    H214746   3.253   2.532   3.423
 4935TIP3   OH214747   3.152   0.691   5.020
 4935TIP3    H114748   3.167   0.768   4.964
 4935TIP3    H214749   3.171   0.617   4.963
 4936TIP3   OH214750   7.701   4.586   5.598
 4936TIP3    H114751   7.626   4.543   5.637
 4936TIP3    H214752   7.673   4.607   5.508
 4937TIP3   OH214753   6.126   0.690   3.592
 4937TIP3    H114754   6.164   0.766   3.547
 4937TIP3    H214755   6.108   0.627   3.522
 4938TIP3   OH214756   3.471   7.629   2.698
 4938TIP3    H114757   3.382   7.652   2.723
 4938TIP3    H214758   3.470   7.533   2.691
 4939TIP3   OH214759   4.431   1.622   0.373
 4939TIP3    H114760   4.464   1.559   0.436
 4939TIP3    H214761   4.392   1.569   0.304
 4940TIP3   OH214762   1.022   7.352   5.909
 4940TIP3    H114763   1.049   7.400   5.987
 4940TIP3    H214764   0.928   7.339   5.920
 4941TIP3   OH214765   6.618   2.362   5.877
 4941TIP3    H114766   6.549   2.418   5.841
 4941TIP3    H214767   6.574   2.278   5.894
 4942TIP3   OH214768   4.410   1.762   1.356
 4942TIP3    H114769   4.411   1.849   1.316
 4942TIP3    H214770   4.381   1.704   1.285
 4943TIP3   OH214771   1.270   4.590   3.793
 4943TIP3    H114772   1.344   4.624   3.844
 4943TIP3    H214773   1.193   4.628   3.836
 4944TIP3   OH214774   3.481   4.213   5.265
 4944TIP3    H114775   3.417   4.141   5.265
 4944TIP3    H214776   3.558   4.176   5.309
 4945TIP3   OH214777   3.901   4.307   2.327
 4945TIP3    H114778   3.875   4.386   2.278
 4945TIP3    H214779   3.980   4.333   2.374
 4946TIP3   OH214780   1.257   4.603   4.945
 4946TIP3    H114781   1.182   4.660   4.933
 4946TIP3    H214782   1.330   4.662   4.965
 4947TIP3   OH214783   2.868   3.604   5.942
 4947TIP3    H114784   2.829   3.551   5.872
 4947TIP3    H214785   2.903   3.680   5.897
 4948TIP3   OH214786   7.243   0.063   5.835
 4948TIP3    H114787   7.276   0.045   5.923
 4948TIP3    H214788   7.173   0.126   5.848
 4949TIP3   OH214789   5.219   5.333   4.785
 4949TIP3    H114790   5.174   5.248   4.778
 4949TIP3    H214791   5.254   5.348   4.697
 4950TIP3   OH214792   6.565   7.167   0.397
 4950TIP3    H114793   6.486   7.114   0.402
 4950TIP3    H214794   6.610   7.137   0.318
 4951TIP3   OH214795   6.997   2.809   5.996
 4951TIP3    H114796   6.973   2.729   5.949
 4951TIP3    H214797   6.939   2.811   6.072
 4952TIP3   OH214798   0.403   5.954   2.732
 4952TIP3    H114799   0.370   5.892   2.667
 4952TIP3    H214800   0.411   5.902   2.812
 4953TIP3   OH214801   3.769   3.156   4.291
 4953TIP3    H114802   3.813   3.177   4.209
 4953TIP3    H214803   3.831   3.101   4.338
 4954TIP3   OH214804   5.522   2.112   3.181
 4954TIP3    H114805   5.485   2.199   3.166
 4954TIP3    H214806   5.453   2.051   3.156
 4955TIP3   OH214807   3.650   4.243   5.579
 4955TIP3    H114808   3.718   4.193   5.534
 4955TIP3    H214809   3.605   4.179   5.633
 4956TIP3   OH214810   3.539   5.137   2.616
 4956TIP3    H114811   3.525   5.056   2.666
 4956TIP3    H214812   3.538   5.110   2.525
 4957TIP3   OH214813   6.520   3.189   2.269
 4957TIP3    H114814   6.465   3.268   2.270
 4957TIP3    H214815   6.553   3.181   2.359
 4958TIP3   OH214816   2.286   6.807   5.006
 4958TIP3    H114817   2.243   6.728   5.040
 4958TIP3    H214818   2.245   6.879   5.054
 4959TIP3   OH214819   1.912   7.561   6.137
 4959TIP3    H114820   1.849   7.519   6.195
 4959TIP3    H214821   1.973   7.607   6.195
 4960TIP3   OH214822   6.349   7.031   3.946
 4960TIP3    H114823   6.314   7.112   3.909
 4960TIP3    H214824   6.439   7.052   3.971
 4961TIP3   OH214825   4.708   6.834   6.000
 4961TIP3    H114826   4.756   6.779   5.938
 4961TIP3    H214827   4.650   6.774   6.047
 4962TIP3   OH214828   5.730   6.594   3.345
 4962TIP3    H114829   5.674   6.616   3.419
 4962TIP3    H214830   5.728   6.499   3.340
 4963TIP3   OH214831   5.376   6.455   2.633
 4963TIP3    H114832   5.324   6.454   2.713
 4963TIP3    H214833   5.311   6.452   2.562
 4964TIP3   OH214834   3.191   7.446   5.295
 4964TIP3    H114835   3.249   7.373   5.313
 4964TIP3    H214836   3.249   7.521   5.282
 4965TIP3   OH214837   6.454   5.834   4.581
 4965TIP3    H114838   6.391   5.783   4.531
 4965TIP3    H214839   6.402   5.880   4.646
 4966TIP3   OH214840   2.950   2.148   1.553
 4966TIP3    H114841   3.036   2.113   1.575
 4966TIP3    H214842   2.914   2.085   1.491
 4967TIP3   OH214843   0.540   5.409   1.963
 4967TIP3    H114844   0.461   5.455   1.934
 4967TIP3    H214845   0.570   5.459   2.039
 4968TIP3   OH214846   8.012   4.210   1.040
 4968TIP3    H114847   8.050   4.125   1.062
 4968TIP3    H214848   8.062   4.273   1.092
 4969TIP3   OH214849   0.584   3.750   4.132
 4969TIP3    H114850   0.559   3.743   4.040
 4969TIP3    H214851   0.507   3.722   4.181
 4970TIP3   OH214852   8.025   5.970   3.445
 4970TIP3    H114853   7.978   5.907   3.390
 4970TIP3    H214854   8.114   5.969   3.411
 4971TIP3   OH214855   3.884   0.095   6.524
 4971TIP3    H114856   3.860   0.019   6.578
 4971TIP3    H214857   3.892   0.167   6.586
 4972TIP3   OH214858   7.466   6.001   1.701
 4972TIP3    H114859   7.526   5.945   1.749
 4972TIP3    H214860   7.501   6.003   1.612
 4973TIP3   OH214861   6.828   0.121   0.979
 4973TIP3    H114862   6.902   0.065   0.957
 4973TIP3    H214863   6.753   0.061   0.984
 4974TIP3   OH214864   6.048   3.962   0.889
 4974TIP3    H114865   6.026   3.894   0.953
 4974TIP3    H214866   5.964   3.994   0.858
 4975TIP3   OH214867   6.716   6.084   4.996
 4975TIP3    H114868   6.673   6.069   5.080
 4975TIP3    H214869   6.787   6.145   5.016
 4976TIP3   OH214870   4.941   4.197   0.527
 4976TIP3    H114871   4.867   4.253   0.552
 4976TIP3    H214872   4.995   4.252   0.471
 4977TIP3   OH214873   1.669   2.761   6.319
 4977TIP3    H114874   1.722   2.821   6.268
 4977TIP3    H214875   1.612   2.718   6.254
 4978TIP3   OH214876   2.486   7.732   1.023
 4978TIP3    H114877   2.431   7.804   0.990
 4978TIP3    H214878   2.558   7.727   0.961
 4979TIP3   OH214879   6.732   7.559   0.715
 4979TIP3    H114880   6.740   7.630   0.651
 4979TIP3    H214881   6.662   7.504   0.680
 4980TIP3   OH214882   1.730   1.200   3.543
 4980TIP3    H114883   1.817   1.225   3.510
 4980TIP3    H214884   1.746   1.125   3.599
 4981TIP3   OH214885   0.679   4.279   2.574
 4981TIP3    H114886   0.741   4.350   2.555
 4981TIP3    H214887   0.705   4.208   2.515
 4982TIP3   OH214888   7.535   2.426   4.498
 4982TIP3    H114889   7.473   2.436   4.426
 4982TIP3    H214890   7.588   2.350   4.473
 4983TIP3   OH214891   4.746   6.373   0.360
 4983TIP3    H114892   4.781   6.316   0.292
 4983TIP3    H214893   4.747   6.461   0.322
 4984TIP3   OH214894   4.387   1.164   6.707
 4984TIP3    H114895   4.434   1.139   6.786
 4984TIP3    H214896   4.433   1.119   6.636
 4985TIP3   OH214897   5.680   1.418   2.920
 4985TIP3    H114898   5.647   1.329   2.925
 4985TIP3    H214899   5.698   1.443   3.011
 4986TIP3   OH214900   5.310   2.473   1.749
 4986TIP3    H114901   5.355   2.390   1.759
 4986TIP3    H214902   5.358   2.534   1.805
 4987TIP3   OH214903   5.585   3.142   5.591
 4987TIP3    H114904   5.560   3.052   5.615
 4987TIP3    H214905   5.502   3.184   5.567
 4988TIP3   OH214906   4.340   4.628   6.064
 4988TIP3    H114907   4.253   4.590   6.050
 4988TIP3    H214908   4.330   4.720   6.040
 4989TIP3   OH214909   2.609   4.155   1.314
 4989TIP3    H114910   2.630   4.240   1.274
 4989TIP3    H214911   2.655   4.091   1.259
 4990TIP3   OH214912   2.029   5.243   4.073
 4990TIP3    H114913   2.096   5.259   4.006
 4990TIP3    H214914   2.076   5.248   4.156
 4991TIP3   OH214915   4.789   2.815   4.581
 4991TIP3    H114916   4.844   2.861   4.644
 4991TIP3    H214917   4.797   2.723   4.605
 4992TIP3   OH214918   5.219   3.775   5.303
 4992TIP3    H114919   5.160   3.699   5.301
 4992TIP3    H214920   5.302   3.742   5.269
 4993TIP3   OH214921   6.385   3.008   2.816
 4993TIP3    H114922   6.347   2.921   2.802
 4993TIP3    H214923   6.359   3.031   2.905
 4994TIP3   OH214924   4.279   7.047   0.621
 4994TIP3    H114925   4.372   7.050   0.643
 4994TIP3    H214926   4.265   7.122   0.563
 4995TIP3   OH214927   0.644   0.040   3.154
 4995TIP3    H114928   0.687   0.104   3.211
 4995TIP3    H214929   0.623   0.089   3.074
 4996TIP3   OH214930   0.541   7.181   3.377
 4996TIP3    H114931   0.624   7.133   3.370
 4996TIP3    H214932   0.536   7.233   3.297
 4997TIP3   OH214933   8.193   5.876   3.183
 4997TIP3    H114934   8.244   5.825   3.120
 4997TIP3    H214935   8.103   5.844   3.172
 4998TIP3   OH214936   4.828   4.797   3.899
 4998TIP3    H114937   4.737   4.825   3.897
 4998TIP3    H214938   4.878   4.879   3.893
 4999TIP3   OH214939   1.633   6.885   5.116
 4999TIP3    H114940   1.634   6.845   5.203
 4999TIP3    H214941   1.586   6.968   5.128
 5000TIP3   OH214942   5.850   6.847   6.712
 5000TIP3    H114943   5.918   6.780   6.715
 5000TIP3    H214944   5.820   6.846   6.621
 5001TIP3   OH214945   5.427   2.403   6.632
 5001TIP3    H114946   5.423   2.319   6.586
 5001TIP3    H214947   5.505   2.445   6.596
 5002TIP3   OH214948   6.829   0.455   4.540
 5002TIP3    H114949   6.847   0.543   4.575
 5002TIP3    H214950   6.767   0.470   4.469
 5003TIP3   OH214951   6.373   7.344   6.153
 5003TIP3    H114952   6.288   7.384   6.170
 5003TIP3    H214953   6.413   7.401   6.087
 5004TIP3   OH214954   1.455   7.283   4.916
 5004TIP3    H114955   1.515   7.311   4.847
 5004TIP3    H214956   1.407   7.362   4.940
 5005TIP3   OH214957   5.554   1.296   2.350
 5005TIP3    H114958   5.547   1.338   2.264
 5005TIP3    H214959   5.510   1.356   2.410
 5006TIP3   OH214960   1.179   1.589   4.070
 5006TIP3    H114961   1.083   1.596   4.072
 5006TIP3    H214962   1.197   1.537   3.992
 5007TIP3   OH214963   5.248   0.208   0.053
 5007TIP3    H114964   5.159   0.190   0.024
 5007TIP3    H214965   5.246   0.299   0.084
 5008TIP3   OH214966   4.807   3.928   6.372
 5008TIP3    H114967   4.729   3.928   6.316
 5008TIP3    H214968   4.806   4.014   6.414
 5009TIP3   OH214969   7.227   7.102   3.379
 5009TIP3    H114970   7.207   7.055   3.460
 5009TIP3    H214971   7.188   7.048   3.310
 5010TIP3   OH214972   3.753   6.530   5.205
 5010TIP3    H114973   3.842   6.505   5.181
 5010TIP3    H214974   3.703   6.518   5.124
 5011TIP3   OH214975   0.746   3.896   6.651
 5011TIP3    H114976   0.841   3.904   6.661
 5011TIP3    H214977   0.710   3.953   6.718
 5012TIP3   OH214978   5.255   0.609   4.740
 5012TIP3    H114979   5.306   0.548   4.687
 5012TIP3    H214980   5.252   0.568   4.827
 5013TIP3   OH214981   0.872   3.738   2.954
 5013TIP3    H114982   0.962   3.766   2.936
 5013TIP3    H214983   0.861   3.755   3.048
 5014TIP3   OH214984   8.255   1.409   6.197
 5014TIP3    H114985   8.350   1.420   6.201
 5014TIP3    H214986   8.240   1.357   6.118
 5015TIP3   OH214987   5.778   6.567   6.315
 5015TIP3    H114988   5.694   6.567   6.270
 5015TIP3    H214989   5.837   6.522   6.255
 5016TIP3   OH214990   2.949   1.313   6.726
 5016TIP3    H114991   2.860   1.292   6.700
 5016TIP3    H214992   2.945   1.323   6.821
 5017TIP3   OH214993   7.103   6.345   2.658
 5017TIP3    H114994   7.067   6.262   2.691
 5017TIP3    H214995   7.163   6.319   2.588
 5018TIP3   OH214996   4.658   7.529   0.611
 5018TIP3    H114997   4.751   7.523   0.635
 5018TIP3    H214998   4.654   7.491   0.523
 5019TIP3   OH214999   5.238   0.317   2.604
 5019TIP3    H115000   5.259   0.358   2.688
 5019TIP3    H215001   5.320   0.274   2.578
 5020TIP3   OH215002   3.145   4.574   2.584
 5020TIP3    H115003   3.116   4.646   2.641
 5020TIP3    H215004   3.228   4.546   2.622
 5021TIP3   OH215005   5.435   4.850   1.189
 5021TIP3    H115006   5.510   4.794   1.171
 5021TIP3    H215007   5.461   4.937   1.158
 5022TIP3   OH215008   6.611   5.410   5.634
 5022TIP3    H115009   6.620   5.329   5.684
 5022TIP3    H215010   6.628   5.384   5.543
 5023TIP3   OH215011   1.344   5.801   1.672
 5023TIP3    H115012   1.273   5.764   1.725
 5023TIP3    H215013   1.419   5.746   1.691
 5024TIP3   OH215014   0.359   3.463   0.741
 5024TIP3    H115015   0.333   3.490   0.653
 5024TIP3    H215016   0.276   3.456   0.789
 5025TIP3   OH215017   6.453   5.207   2.648
 5025TIP3    H115018   6.421   5.274   2.587
 5025TIP3    H215019   6.461   5.128   2.594
 5026TIP3   OH215020   1.879   5.012   4.168
 5026TIP3    H115021   1.934   4.941   4.136
 5026TIP3    H215022   1.922   5.091   4.137
 5027TIP3   OH215023   3.038   1.448   2.171
 5027TIP3    H115024   3.073   1.509   2.106
 5027TIP3    H215025   2.944   1.449   2.158
 5028TIP3   OH215026   1.812   4.403   3.940
 5028TIP3    H115027   1.876   4.434   3.877
 5028TIP3    H215028   1.738   4.374   3.887
 5029TIP3   OH215029   5.720   0.350   3.740
 5029TIP3    H115030   5.712   0.419   3.807
 5029TIP3    H215031   5.799   0.373   3.692
 5030TIP3   OH215032   1.126   1.164   1.510
 5030TIP3    H115033   1.046   1.176   1.459
 5030TIP3    H215034   1.110   1.085   1.562
 5031TIP3   OH215035   8.200   3.242   2.484
 5031TIP3    H115036   8.212   3.171   2.421
 5031TIP3    H215037   8.215   3.322   2.433
 5032TIP3   OH215038   2.888   3.846   4.242
 5032TIP3    H115039   2.835   3.896   4.180
 5032TIP3    H215040   2.972   3.835   4.198
 5033TIP3   OH215041   3.079   4.363   4.158
 5033TIP3    H115042   3.169   4.332   4.170
 5033TIP3    H215043   3.052   4.327   4.074
 5034TIP3   OH215044   4.847   4.253   4.219
 5034TIP3    H115045   4.767   4.220   4.259
 5034TIP3    H215046   4.818   4.296   4.139
 5035TIP3   OH215047   2.620   1.311   4.397
 5035TIP3    H115048   2.592   1.253   4.468
 5035TIP3    H215049   2.558   1.385   4.401
 5036TIP3   OH215050   3.463   0.398   0.483
 5036TIP3    H115051   3.496   0.417   0.396
 5036TIP3    H215052   3.541   0.377   0.534
 5037TIP3   OH215053   6.125   5.133   6.350
 5037TIP3    H115054   6.149   5.125   6.258
 5037TIP3    H215055   6.156   5.051   6.390
 5038TIP3   OH215056   7.094   2.547   6.553
 5038TIP3    H115057   7.188   2.541   6.534
 5038TIP3    H215058   7.051   2.516   6.474
 5039TIP3   OH215059   1.415   5.537   1.483
 5039TIP3    H115060   1.500   5.510   1.518
 5039TIP3    H215061   1.363   5.558   1.560
 5040TIP3   OH215062   7.149   0.420   0.608
 5040TIP3    H115063   7.157   0.330   0.576
 5040TIP3    H215064   7.190   0.474   0.540
 5041TIP3   OH215065   8.236   1.128   2.273
 5041TIP3    H115066   8.162   1.127   2.213
 5041TIP3    H215067   8.204   1.174   2.350
 5042TIP3   OH215068   0.988   2.449   1.472
 5042TIP3    H115069   0.926   2.377   1.482
 5042TIP3    H215070   0.957   2.516   1.534
 5043TIP3   OH215071   2.780   4.691   4.800
 5043TIP3    H115072   2.803   4.783   4.813
 5043TIP3    H215073   2.685   4.691   4.794
 5044TIP3   OH215074   0.474   2.566   4.439
 5044TIP3    H115075   0.505   2.596   4.354
 5044TIP3    H215076   0.540   2.503   4.468
 5045TIP3   OH215077   6.948   6.122   2.422
 5045TIP3    H115078   6.869   6.125   2.368
 5045TIP3    H215079   7.019   6.140   2.360
 5046TIP3   OH215080   7.449   5.076   3.452
 5046TIP3    H115081   7.408   5.048   3.370
 5046TIP3    H215082   7.450   5.172   3.447
 5047TIP3   OH215083   7.832   2.609   1.598
 5047TIP3    H115084   7.898   2.553   1.638
 5047TIP3    H215085   7.794   2.657   1.672
 5048TIP3   OH215086   7.289   1.489   5.194
 5048TIP3    H115087   7.321   1.403   5.224
 5048TIP3    H215088   7.234   1.520   5.266
 5049TIP3   OH215089   1.182   6.467   3.630
 5049TIP3    H115090   1.205   6.435   3.718
 5049TIP3    H215091   1.174   6.561   3.640
 5050TIP3   OH215092   7.403   5.054   4.620
 5050TIP3    H115093   7.428   5.146   4.629
 5050TIP3    H215094   7.429   5.014   4.703
 5051TIP3   OH215095   7.670   4.724   1.068
 5051TIP3    H115096   7.668   4.784   1.143
 5051TIP3    H215097   7.637   4.641   1.103
 5052TIP3   OH215098   0.762   3.926   4.398
 5052TIP3    H115099   0.711   3.960   4.471
 5052TIP3    H215100   0.710   3.946   4.320
 5053TIP3   OH215101   7.176   6.978   0.145
 5053TIP3    H115102   7.121   6.912   0.103
 5053TIP3    H215103   7.120   7.056   0.149
 5054TIP3   OH215104   0.351   6.070   6.681
 5054TIP3    H115105   0.351   6.040   6.772
 5054TIP3    H215106   0.343   6.165   6.687
 5055TIP3   OH215107   6.940   3.326   1.794
 5055TIP3    H115108   7.000   3.302   1.723
 5055TIP3    H215109   6.960   3.263   1.863
 5056TIP3   OH215110   6.941   3.681   6.203
 5056TIP3    H115111   7.009   3.634   6.153
 5056TIP3    H215112   6.941   3.769   6.166
 5057TIP3   OH215113   3.397   7.157   6.593
 5057TIP3    H115114   3.376   7.164   6.499
 5057TIP3    H215115   3.323   7.110   6.631
 5058TIP3   OH215116   2.064   6.138   0.083
 5058TIP3    H115117   2.102   6.202   0.143
 5058TIP3    H215118   2.063   6.056   0.132
 5059TIP3   OH215119   6.606   7.115   4.199
 5059TIP3    H115120   6.656   7.054   4.254
 5059TIP3    H215121   6.515   7.090   4.213
 5060TIP3   OH215122   4.996   2.943   4.312
 5060TIP3    H115123   5.051   2.872   4.345
 5060TIP3    H215124   5.000   3.010   4.379
 5061TIP3   OH215125   6.170   0.309   5.584
 5061TIP3    H115126   6.141   0.320   5.675
 5061TIP3    H215127   6.142   0.389   5.540
 5062TIP3   OH215128   4.703   7.573   5.112
 5062TIP3    H115129   4.633   7.539   5.058
 5062TIP3    H215130   4.691   7.531   5.197
 5063TIP3   OH215131   5.014   5.736   0.500
 5063TIP3    H115132   5.074   5.746   0.574
 5063TIP3    H215133   5.040   5.805   0.439
 5064TIP3   OH215134   1.221   3.189   4.299
 5064TIP3    H115135   1.282   3.236   4.357
 5064TIP3    H215136   1.278   3.144   4.236
 5065TIP3   OH215137   2.315   0.902   2.427
 5065TIP3    H115138   2.261   0.926   2.352
 5065TIP3    H215139   2.392   0.959   2.420
 5066TIP3   OH215140   2.199   4.447   4.016
 5066TIP3    H115141   2.288   4.416   4.035
 5066TIP3    H215142   2.150   4.430   4.097
 5067TIP3   OH215143   7.224   7.645   5.780
 5067TIP3    H115144   7.282   7.709   5.821
 5067TIP3    H215145   7.278   7.604   5.712
 5068TIP3   OH215146   2.615   1.624   6.762
 5068TIP3    H115147   2.679   1.650   6.695
 5068TIP3    H215148   2.667   1.617   6.842
 5069TIP3   OH215149   0.040   7.310   6.499
 5069TIP3    H115150   0.094   7.342   6.571
 5069TIP3    H215151   0.088   7.234   6.465
 5070TIP3   OH215152   5.764   2.978   1.494
 5070TIP3    H115153   5.796   2.917   1.427
 5070TIP3    H215154   5.695   3.028   1.450
 5071TIP3   OH215155   0.136   6.466   1.564
 5071TIP3    H115156   0.100   6.478   1.652
 5071TIP3    H215157   0.226   6.435   1.579
 5072TIP3   OH215158   4.727   1.350   4.599
 5072TIP3    H115159   4.772   1.428   4.567
 5072TIP3    H215160   4.742   1.283   4.532
 5073TIP3   OH215161   6.455   7.021   6.189
 5073TIP3    H115162   6.451   6.953   6.257
 5073TIP3    H215163   6.384   7.081   6.212
 5074TIP3   OH215164   7.135   3.820   0.280
 5074TIP3    H115165   7.215   3.870   0.296
 5074TIP3    H215166   7.162   3.752   0.218
 5075TIP3   OH215167   1.744   3.551   1.091
 5075TIP3    H115168   1.806   3.576   1.159
 5075TIP3    H215169   1.694   3.479   1.130
 5076TIP3   OH215170   5.295   4.292   1.616
 5076TIP3    H115171   5.290   4.385   1.594
 5076TIP3    H215172   5.368   4.286   1.678
 5077TIP3   OH215173   2.860   1.266   0.798
 5077TIP3    H115174   2.822   1.184   0.766
 5077TIP3    H215175   2.869   1.253   0.892
 5078TIP3   OH215176   4.862   5.436   5.620
 5078TIP3    H115177   4.876   5.357   5.567
 5078TIP3    H215178   4.875   5.508   5.558
 5079TIP3   OH215179   5.372   5.544   0.912
 5079TIP3    H115180   5.284   5.540   0.948
 5079TIP3    H215181   5.363   5.511   0.822
 5080TIP3   OH215182   7.215   5.277   3.676
 5080TIP3    H115183   7.174   5.343   3.620
 5080TIP3    H215184   7.306   5.308   3.685
 5081TIP3   OH215185   6.487   4.588   2.991
 5081TIP3    H115186   6.443   4.504   2.977
 5081TIP3    H215187   6.483   4.632   2.907
 5082TIP3   OH215188   1.547   1.617   6.122
 5082TIP3    H115189   1.501   1.671   6.185
 5082TIP3    H215190   1.514   1.528   6.137
 5083TIP3   OH215191   0.789   5.469   0.958
 5083TIP3    H115192   0.844   5.544   0.979
 5083TIP3    H215193   0.845   5.413   0.904
 5084TIP3   OH215194   0.786   1.292   0.764
 5084TIP3    H115195   0.863   1.316   0.712
 5084TIP3    H215196   0.736   1.235   0.706
 5085TIP3   OH215197   7.497   3.027   1.663
 5085TIP3    H115198   7.449   3.101   1.626
 5085TIP3    H215199   7.472   2.953   1.609
 5086TIP3   OH215200   6.204   3.047   4.507
 5086TIP3    H115201   6.269   3.045   4.437
 5086TIP3    H215202   6.233   2.979   4.568
 5087TIP3   OH215203   4.636   1.062   3.317
 5087TIP3    H115204   4.548   1.094   3.337
 5087TIP3    H215205   4.644   1.074   3.222
 5088TIP3   OH215206   0.254   6.980   3.607
 5088TIP3    H115207   0.277   7.044   3.540
 5088TIP3    H215208   0.163   6.958   3.588
 5089TIP3   OH215209   2.788   5.955   4.638
 5089TIP3    H115210   2.811   5.866   4.612
 5089TIP3    H215211   2.692   5.956   4.639
 5090TIP3   OH215212   6.621   2.183   6.260
 5090TIP3    H115213   6.566   2.185   6.338
 5090TIP3    H215214   6.706   2.151   6.291
 5091TIP3   OH215215   3.912   0.221   1.368
 5091TIP3    H115216   3.908   0.143   1.423
 5091TIP3    H215217   3.824   0.259   1.373
 5092TIP3   OH215218   6.827   6.058   5.395
 5092TIP3    H115219   6.839   5.964   5.381
 5092TIP3    H215220   6.735   6.074   5.376
 5093TIP3   OH215221   2.296   5.219   3.581
 5093TIP3    H115222   2.385   5.232   3.548
 5093TIP3    H215223   2.268   5.305   3.610
 5094TIP3   OH215224   6.575   6.246   0.400
 5094TIP3    H115225   6.558   6.307   0.328
 5094TIP3    H215226   6.491   6.237   0.444
 5095TIP3   OH215227   4.585   2.504   0.414
 5095TIP3    H115228   4.530   2.582   0.425
 5095TIP3    H215229   4.672   2.538   0.396
 5096TIP3   OH215230   1.028   4.924   1.307
 5096TIP3    H115231   0.963   4.948   1.241
 5096TIP3    H215232   0.986   4.854   1.358
 5097TIP3   OH215233   0.510   2.833   4.523
 5097TIP3    H115234   0.605   2.822   4.525
 5097TIP3    H215235   0.481   2.803   4.609
 5098TIP3   OH215236   4.610   0.313   5.858
 5098TIP3    H115237   4.604   0.225   5.820
 5098TIP3    H215238   4.616   0.372   5.783
 5099TIP3   OH215239   7.243   1.141   1.090
 5099TIP3    H115240   7.167   1.084   1.101
 5099TIP3    H215241   7.308   1.086   1.047
 5100TIP3   OH215242   3.177   4.648   1.780
 5100TIP3    H115243   3.257   4.625   1.827
 5100TIP3    H215244   3.107   4.602   1.827
 5101TIP3   OH215245   5.204   6.026   0.706
 5101TIP3    H115246   5.142   5.953   0.707
 5101TIP3    H215247   5.273   6.000   0.768
 5102TIP3   OH215248   6.572   7.464   4.240
 5102TIP3    H115249   6.568   7.477   4.145
 5102TIP3    H215250   6.656   7.421   4.255
 5103TIP3   OH215251   0.227   2.667   5.005
 5103TIP3    H115252   0.290   2.696   5.071
 5103TIP3    H215253   0.147   2.648   5.055
 5104TIP3   OH215254   5.818   4.480   1.006
 5104TIP3    H115255   5.866   4.451   0.928
 5104TIP3    H215256   5.813   4.402   1.062
 5105TIP3   OH215257   0.829   1.069   6.557
 5105TIP3    H115258   0.777   1.122   6.618
 5105TIP3    H215259   0.828   0.981   6.596
 5106TIP3   OH215260   7.333   2.342   4.302
 5106TIP3    H115261   7.285   2.339   4.385
 5106TIP3    H215262   7.286   2.407   4.250
 5107TIP3   OH215263   4.977   2.259   6.126
 5107TIP3    H115264   4.906   2.233   6.184
 5107TIP3    H215265   5.001   2.178   6.080
 5108TIP3   OH215266   7.787   7.722   4.066
 5108TIP3    H115267   7.873   7.746   4.102
 5108TIP3    H215268   7.795   7.736   3.972
 5109TIP3   OH215269   4.177   4.115   1.032
 5109TIP3    H115270   4.260   4.136   1.076
 5109TIP3    H215271   4.133   4.200   1.023
 5110TIP3   OH215272   5.148   3.877   4.267
 5110TIP3    H115273   5.101   3.793   4.264
 5110TIP3    H215274   5.109   3.928   4.196
 5111TIP3   OH215275   1.128   6.734   4.230
 5111TIP3    H115276   1.107   6.661   4.288
 5111TIP3    H215277   1.092   6.811   4.274
 5112TIP3   OH215278   7.628   4.677   0.431
 5112TIP3    H115279   7.695   4.732   0.474
 5112TIP3    H215280   7.675   4.632   0.361
 5113TIP3   OH215281   3.264   3.012   5.671
 5113TIP3    H115282   3.243   2.965   5.752
 5113TIP3    H215283   3.353   3.044   5.684
 5114TIP3   OH215284   5.529   2.434   6.217
 5114TIP3    H115285   5.615   2.469   6.242
 5114TIP3    H215286   5.472   2.510   6.215
 5115TIP3   OH215287   0.968   7.127   1.407
 5115TIP3    H115288   0.992   7.037   1.384
 5115TIP3    H215289   0.967   7.174   1.324
 5116TIP3   OH215290   1.482   3.555   4.108
 5116TIP3    H115291   1.484   3.515   4.021
 5116TIP3    H215292   1.570   3.592   4.120
 5117TIP3   OH215293   5.767   7.512   1.813
 5117TIP3    H115294   5.798   7.512   1.722
 5117TIP3    H215295   5.703   7.441   1.817
 5118TIP3   OH215296   3.738   3.344   5.391
 5118TIP3    H115297   3.811   3.374   5.337
 5118TIP3    H215298   3.761   3.372   5.480
 5119TIP3   OH215299   3.920   6.161   6.575
 5119TIP3    H115300   3.873   6.147   6.657
 5119TIP3    H215301   3.902   6.083   6.523
 5120TIP3   OH215302   4.015   1.003   0.450
 5120TIP3    H115303   3.967   0.934   0.404
 5120TIP3    H215304   4.041   0.963   0.533
 5121TIP3   OH215305   5.953   5.132   6.068
 5121TIP3    H115306   5.921   5.166   6.151
 5121TIP3    H215307   6.002   5.205   6.029
 5122TIP3   OH215308   6.872   2.526   4.426
 5122TIP3    H115309   6.885   2.584   4.351
 5122TIP3    H215310   6.855   2.440   4.387
 5123TIP3   OH215311   1.931   3.373   0.554
 5123TIP3    H115312   1.907   3.379   0.462
 5123TIP3    H215313   1.898   3.455   0.593
 5124TIP3   OH215314   7.697   6.812   1.029
 5124TIP3    H115315   7.790   6.802   1.048
 5124TIP3    H215316   7.680   6.905   1.042
 5125TIP3   OH215317   3.523   3.819   1.070
 5125TIP3    H115318   3.559   3.848   0.986
 5125TIP3    H215319   3.535   3.724   1.069
 5126TIP3   OH215320   0.984   0.954   3.706
 5126TIP3    H115321   0.935   0.908   3.774
 5126TIP3    H215322   0.924   1.021   3.674
 5127TIP3   OH215323   0.901   6.845   5.364
 5127TIP3    H115324   0.812   6.872   5.342
 5127TIP3    H215325   0.901   6.841   5.460
 5128TIP3   OH215326   4.170   7.758   2.963
 5128TIP3    H115327   4.184   7.665   2.947
 5128TIP3    H215328   4.258   7.796   2.966
 5129TIP3   OH215329   1.606   5.970   2.668
 5129TIP3    H115330   1.586   6.001   2.756
 5129TIP3    H215331   1.701   5.976   2.661
 5130TIP3   OH215332   0.311   2.749   5.932
 5130TIP3    H115333   0.347   2.825   5.885
 5130TIP3    H215334   0.337   2.674   5.878
 5131TIP3   OH215335   7.487   4.874   5.376
 5131TIP3    H115336   7.412   4.896   5.431
 5131TIP3    H215337   7.451   4.867   5.287
 5132TIP3   OH215338   4.713   7.362   6.394
 5132TIP3    H115339   4.624   7.328   6.400
 5132TIP3    H215340   4.751   7.346   6.480
 5133TIP3   OH215341   5.944   7.052   5.703
 5133TIP3    H115342   5.859   7.047   5.659
 5133TIP3    H215343   6.005   7.077   5.634
 5134TIP3   OH215344   2.397   2.560   3.750
 5134TIP3    H115345   2.325   2.518   3.703
 5134TIP3    H215346   2.405   2.646   3.709
 5135TIP3   OH215347   6.021   7.174   6.682
 5135TIP3    H115348   5.961   7.135   6.618
 5135TIP3    H215349   6.099   7.197   6.632
 5136TIP3   OH215350   5.840   7.340   3.667
 5136TIP3    H115351   5.775   7.295   3.613
 5136TIP3    H215352   5.823   7.310   3.756
 5137TIP3   OH215353   0.652   4.463   4.385
 5137TIP3    H115354   0.612   4.429   4.305
 5137TIP3    H215355   0.689   4.387   4.429
 5138TIP3   OH215356   8.182   0.673   5.897
 5138TIP3    H115357   8.174   0.579   5.907
 5138TIP3    H215358   8.203   0.705   5.985
 5139TIP3   OH215359   5.223   7.426   3.325
 5139TIP3    H115360   5.308   7.466   3.310
 5139TIP3    H215361   5.235   7.333   3.304
 5140TIP3   OH215362   2.175   6.547   1.480
 5140TIP3    H115363   2.255   6.598   1.467
 5140TIP3    H215364   2.139   6.535   1.393
 5141TIP3   OH215365   5.382   6.038   6.638
 5141TIP3    H115366   5.457   6.087   6.606
 5141TIP3    H215367   5.377   5.962   6.580
 5142TIP3   OH215368   0.998   0.788   1.883
 5142TIP3    H115369   1.030   0.761   1.969
 5142TIP3    H215370   0.965   0.707   1.844
 5143TIP3   OH215371   3.682   4.736   4.675
 5143TIP3    H115372   3.746   4.735   4.604
 5143TIP3    H215373   3.734   4.731   4.755
 5144TIP3   OH215374   4.470   3.100   4.970
 5144TIP3    H115375   4.527   3.097   5.047
 5144TIP3    H215376   4.415   3.022   4.979
 5145TIP3   OH215377   5.714   0.125   2.246
 5145TIP3    H115378   5.745   0.150   2.159
 5145TIP3    H215379   5.620   0.110   2.234
 5146TIP3   OH215380  -0.009   6.399   0.165
 5146TIP3    H115381  -0.005   6.406   0.069
 5146TIP3    H215382   0.043   6.321   0.185
 5147TIP3   OH215383   5.080   6.689   3.588
 5147TIP3    H115384   5.067   6.751   3.659
 5147TIP3    H215385   5.099   6.606   3.631
 5148TIP3   OH215386   2.586   5.436   6.427
 5148TIP3    H115387   2.591   5.526   6.459
 5148TIP3    H215388   2.546   5.387   6.500
 5149TIP3   OH215389   4.703   1.545   4.266
 5149TIP3    H115390   4.711   1.489   4.188
 5149TIP3    H215391   4.739   1.629   4.239
 5150TIP3   OH215392   3.541   3.945   5.050
 5150TIP3    H115393   3.598   3.959   5.125
 5150TIP3    H215394   3.452   3.950   5.086
 5151TIP3   OH215395   5.181   4.089   6.510
 5151TIP3    H115396   5.223   4.175   6.508
 5151TIP3    H215397   5.233   4.039   6.573
 5152TIP3   OH215398   2.014   7.757   4.618
 5152TIP3    H115399   2.104   7.732   4.598
 5152TIP3    H215400   2.022   7.840   4.665
 5153TIP3   OH215401   4.433   5.934   2.423
 5153TIP3    H115402   4.461   5.850   2.389
 5153TIP3    H215403   4.405   5.984   2.346
 5154TIP3   OH215404   6.073   2.930   6.561
 5154TIP3    H115405   6.137   3.001   6.560
 5154TIP3    H215406   6.100   2.874   6.635
 5155TIP3   OH215407   2.452   5.263   2.754
 5155TIP3    H115408   2.474   5.195   2.817
 5155TIP3    H215409   2.506   5.338   2.779
 5156TIP3   OH215410   5.813   4.182   6.501
 5156TIP3    H115411   5.866   4.127   6.559
 5156TIP3    H215412   5.774   4.120   6.439
 5157TIP3   OH215413   7.070   5.136   5.272
 5157TIP3    H115414   6.995   5.096   5.227
 5157TIP3    H215415   7.037   5.161   5.358
 5158TIP3   OH215416   0.968   3.514   1.801
 5158TIP3    H115417   0.917   3.482   1.727
 5158TIP3    H215418   1.058   3.489   1.782
 5159TIP3   OH215419   1.678   2.026   5.356
 5159TIP3    H115420   1.719   2.094   5.303
 5159TIP3    H215421   1.744   1.955   5.358
 5160TIP3   OH215422   7.882   0.731   6.217
 5160TIP3    H115423   7.976   0.742   6.225
 5160TIP3    H215424   7.848   0.752   6.304
 5161TIP3   OH215425   7.507   7.362   6.636
 5161TIP3    H115426   7.465   7.410   6.708
 5161TIP3    H215427   7.565   7.300   6.679
 5162TIP3   OH215428   3.497   0.742   6.760
 5162TIP3    H115429   3.552   0.727   6.836
 5162TIP3    H215430   3.525   0.675   6.697
 5163TIP3   OH215431   0.122   7.690   5.119
 5163TIP3    H115432   0.192   7.628   5.138
 5163TIP3    H215433   0.042   7.647   5.151
 5164TIP3   OH215434   5.902   3.341   0.247
 5164TIP3    H115435   5.927   3.433   0.256
 5164TIP3    H215436   5.867   3.317   0.332
 5165TIP3   OH215437   4.115   5.128   5.574
 5165TIP3    H115438   4.028   5.165   5.566
 5165TIP3    H215439   4.174   5.203   5.564
 5166TIP3   OH215440   6.426   5.236   2.167
 5166TIP3    H115441   6.363   5.181   2.121
 5166TIP3    H215442   6.506   5.184   2.170
 5167TIP3   OH215443   0.274   4.294   4.179
 5167TIP3    H115444   0.356   4.311   4.226
 5167TIP3    H215445   0.232   4.224   4.228
 5168TIP3   OH215446   4.385   2.236   1.364
 5168TIP3    H115447   4.394   2.148   1.326
 5168TIP3    H215448   4.361   2.219   1.455
 5169TIP3   OH215449   4.194   4.285   5.691
 5169TIP3    H115450   4.143   4.213   5.654
 5169TIP3    H215451   4.178   4.279   5.786
 5170TIP3   OH215452   2.367   1.985   5.141
 5170TIP3    H115453   2.387   2.001   5.233
 5170TIP3    H215454   2.333   2.068   5.108
 5171TIP3   OH215455   1.436   5.622   0.249
 5171TIP3    H115456   1.456   5.675   0.172
 5171TIP3    H215457   1.460   5.677   0.323
 5172TIP3   OH215458   4.505   3.903   6.259
 5172TIP3    H115459   4.546   3.975   6.212
 5172TIP3    H215460   4.415   3.931   6.274
 5173TIP3   OH215461   1.330   3.324   5.155
 5173TIP3    H115462   1.282   3.243   5.139
 5173TIP3    H215463   1.418   3.307   5.123
 5174TIP3   OH215464   2.526   4.405   5.781
 5174TIP3    H115465   2.457   4.338   5.773
 5174TIP3    H215466   2.488   4.471   5.839
 5175TIP3   OH215467   5.858   4.985   0.756
 5175TIP3    H115468   5.892   4.945   0.836
 5175TIP3    H215469   5.795   5.050   0.787
 5176TIP3   OH215470   6.943   3.825   3.759
 5176TIP3    H115471   7.018   3.775   3.791
 5176TIP3    H215472   6.954   3.913   3.796
 5177TIP3   OH215473   0.730   3.092   1.771
 5177TIP3    H115474   0.816   3.119   1.802
 5177TIP3    H215475   0.669   3.118   1.841
 5178TIP3   OH215476   5.687   1.886   3.450
 5178TIP3    H115477   5.721   1.831   3.378
 5178TIP3    H215478   5.593   1.890   3.435
 5179TIP3   OH215479   7.175   0.193   4.948
 5179TIP3    H115480   7.148   0.102   4.935
 5179TIP3    H215481   7.179   0.229   4.859
 5180TIP3   OH215482   7.497   7.785   6.119
 5180TIP3    H115483   7.446   7.850   6.071
 5180TIP3    H215484   7.481   7.703   6.074
 5181TIP3   OH215485   0.073   0.581   0.565
 5181TIP3    H115486   0.075   0.489   0.588
 5181TIP3    H215487   0.165   0.608   0.568
 5182TIP3   OH215488   0.081   0.247   1.863
 5182TIP3    H115489   0.089   0.153   1.880
 5182TIP3    H215490   0.171   0.280   1.871
 5183TIP3   OH215491   1.426   5.067   3.824
 5183TIP3    H115492   1.423   5.000   3.756
 5183TIP3    H215493   1.517   5.071   3.851
 5184TIP3   OH215494   7.522   1.116   3.148
 5184TIP3    H115495   7.438   1.070   3.141
 5184TIP3    H215496   7.512   1.174   3.223
 5185TIP3   OH215497   3.086   3.018   5.271
 5185TIP3    H115498   3.097   2.973   5.187
 5185TIP3    H215499   3.173   3.017   5.311
 5186TIP3   OH215500   2.110   0.125   0.312
 5186TIP3    H115501   2.141   0.157   0.396
 5186TIP3    H215502   2.024   0.087   0.331
 5187TIP3   OH215503   0.058   0.232   5.227
 5187TIP3    H115504  -0.015   0.240   5.288
 5187TIP3    H215505   0.135   0.254   5.279
 5188TIP3   OH215506   1.391   6.341   5.985
 5188TIP3    H115507   1.338   6.406   6.031
 5188TIP3    H215508   1.467   6.328   6.043
 5189TIP3   OH215509   0.244   6.611   3.350
 5189TIP3    H115510   0.248   6.590   3.256
 5189TIP3    H215511   0.313   6.558   3.389
 5190TIP3   OH215512   5.837   3.071   4.089
 5190TIP3    H115513   5.923   3.099   4.058
 5190TIP3    H215514   5.776   3.102   4.022
 5191TIP3   OH215515   0.427   1.650   0.893
 5191TIP3    H115516   0.364   1.580   0.913
 5191TIP3    H215517   0.509   1.604   0.879
 5192TIP3   OH215518   5.535   7.280   4.801
 5192TIP3    H115519   5.615   7.246   4.840
 5192TIP3    H215520   5.470   7.276   4.871
 5193TIP3   OH215521   4.594   5.017   6.501
 5193TIP3    H115522   4.581   5.094   6.446
 5193TIP3    H215523   4.686   4.994   6.489
 5194TIP3   OH215524   4.417   0.887   0.577
 5194TIP3    H115525   4.456   0.831   0.645
 5194TIP3    H215526   4.327   0.903   0.608
 5195TIP3   OH215527   5.795   5.215   1.495
 5195TIP3    H115528   5.711   5.178   1.469
 5195TIP3    H215529   5.851   5.205   1.418
 5196TIP3   OH215530   1.467   1.628   4.325
 5196TIP3    H115531   1.414   1.685   4.380
 5196TIP3    H215532   1.425   1.542   4.331
 5197TIP3   OH215533   4.985   4.582   6.228
 5197TIP3    H115534   4.930   4.506   6.206
 5197TIP3    H215535   4.943   4.620   6.305
 5198TIP3   OH215536   7.822   4.912   1.765
 5198TIP3    H115537   7.885   4.920   1.693
 5198TIP3    H215538   7.756   4.851   1.732
 5199TIP3   OH215539   6.648   4.740   1.219
 5199TIP3    H115540   6.670   4.650   1.193
 5199TIP3    H215541   6.660   4.741   1.314
 5200TIP3   OH215542   0.864   4.459   1.329
 5200TIP3    H115543   0.905   4.376   1.307
 5200TIP3    H215544   0.912   4.524   1.277
 5201TIP3   OH215545   6.908   2.292   0.722
 5201TIP3    H115546   6.868   2.222   0.668
 5201TIP3    H215547   6.901   2.370   0.668
 5202TIP3   OH215548   1.738   3.681   1.371
 5202TIP3    H115549   1.829   3.711   1.372
 5202TIP3    H215550   1.691   3.745   1.423
 5203TIP3   OH215551   4.805   2.420   1.231
 5203TIP3    H115552   4.724   2.417   1.283
 5203TIP3    H215553   4.874   2.433   1.295
 5204TIP3   OH215554   5.835   7.493   1.271
 5204TIP3    H115555   5.921   7.453   1.287
 5204TIP3    H215556   5.784   7.423   1.230
 5205TIP3   OH215557   3.473   2.362   5.258
 5205TIP3    H115558   3.521   2.386   5.178
 5205TIP3    H215559   3.438   2.275   5.240
 5206TIP3   OH215560   6.211   1.916   5.061
 5206TIP3    H115561   6.123   1.915   5.097
 5206TIP3    H215562   6.267   1.939   5.134
 5207TIP3   OH215563   6.113   4.356   3.801
 5207TIP3    H115564   6.131   4.275   3.753
 5207TIP3    H215565   6.118   4.425   3.735
 5208TIP3   OH215566   6.421   6.177   5.448
 5208TIP3    H115567   6.328   6.199   5.450
 5208TIP3    H215568   6.465   6.254   5.486
 5209TIP3   OH215569   3.027   6.571   1.629
 5209TIP3    H115570   2.933   6.549   1.626
 5209TIP3    H215571   3.030   6.664   1.606
 5210TIP3   OH215572   7.686   6.061   0.260
 5210TIP3    H115573   7.627   6.100   0.324
 5210TIP3    H215574   7.771   6.058   0.303
 5211TIP3   OH215575   4.012   2.929   6.450
 5211TIP3    H115576   4.045   2.963   6.366
 5211TIP3    H215577   3.982   3.007   6.497
 5212TIP3   OH215578   8.107   1.616   3.716
 5212TIP3    H115579   8.044   1.682   3.685
 5212TIP3    H215580   8.132   1.645   3.803
 5213TIP3   OH215581   7.412   5.413   2.414
 5213TIP3    H115582   7.373   5.382   2.333
 5213TIP3    H215583   7.380   5.503   2.424
 5214TIP3   OH215584   0.685   5.623   3.387
 5214TIP3    H115585   0.630   5.682   3.438
 5214TIP3    H215586   0.632   5.544   3.375
 5215TIP3   OH215587   7.582   0.423   0.013
 5215TIP3    H115588   7.559   0.434   0.105
 5215TIP3    H215589   7.567   0.510  -0.025
 5216TIP3   OH215590   8.022   3.937   5.980
 5216TIP3    H115591   8.012   3.854   6.028
 5216TIP3    H215592   7.960   3.931   5.908
 5217TIP3   OH215593   4.749   5.751   0.567
 5217TIP3    H115594   4.844   5.749   0.556
 5217TIP3    H215595   4.731   5.836   0.608
 5218TIP3   OH215596   2.734   1.028   1.493
 5218TIP3    H115597   2.708   0.955   1.437
 5218TIP3    H215598   2.669   1.096   1.476
 5219TIP3   OH215599   2.255   4.209   0.421
 5219TIP3    H115600   2.311   4.279   0.455
 5219TIP3    H215601   2.192   4.192   0.491
 5220TIP3   OH215602   1.091   3.250   4.788
 5220TIP3    H115603   1.176   3.290   4.769
 5220TIP3    H215604   1.027   3.316   4.763
 5221TIP3   OH215605   0.466   4.991   3.268
 5221TIP3    H115606   0.542   4.971   3.323
 5221TIP3    H215607   0.464   5.087   3.264
 5222TIP3   OH215608   4.305   4.646   4.529
 5222TIP3    H115609   4.398   4.666   4.542
 5222TIP3    H215610   4.277   4.704   4.458
 5223TIP3   OH215611   2.690   3.304   5.527
 5223TIP3    H115612   2.645   3.317   5.443
 5223TIP3    H215613   2.754   3.235   5.510
 5224TIP3   OH215614   0.637   4.602   3.457
 5224TIP3    H115615   0.589   4.623   3.537
 5224TIP3    H215616   0.647   4.507   3.459
 5225TIP3   OH215617   1.226   5.374   1.323
 5225TIP3    H115618   1.174   5.324   1.387
 5225TIP3    H215619   1.271   5.440   1.376
 5226TIP3   OH215620   2.945   4.994   4.304
 5226TIP3    H115621   2.858   5.005   4.343
 5226TIP3    H215622   2.996   4.949   4.370
 5227TIP3   OH215623   6.164   0.088   0.855
 5227TIP3    H115624   6.164   0.173   0.811
 5227TIP3    H215625   6.256   0.069   0.871
 5228TIP3   OH215626   0.852   6.782   3.726
 5228TIP3    H115627   0.834   6.688   3.723
 5228TIP3    H215628   0.837   6.806   3.818
 5229TIP3   OH215629   0.407   6.768   3.694
 5229TIP3    H115630   0.468   6.837   3.722
 5229TIP3    H215631   0.335   6.816   3.653
 5230TIP3   OH215632   6.952   1.363   3.408
 5230TIP3    H115633   6.966   1.438   3.467
 5230TIP3    H215634   6.908   1.401   3.332
 5231TIP3   OH215635   1.841   2.857   4.845
 5231TIP3    H115636   1.812   2.909   4.920
 5231TIP3    H215637   1.933   2.836   4.864
 5232TIP3   OH215638   2.030   3.890   2.674
 5232TIP3    H115639   1.941   3.856   2.665
 5232TIP3    H215640   2.039   3.954   2.603
 5233TIP3   OH215641   3.188   1.174   5.048
 5233TIP3    H115642   3.231   1.228   5.114
 5233TIP3    H215643   3.164   1.094   5.095
 5234TIP3   OH215644   5.329   3.244   0.315
 5234TIP3    H115645   5.358   3.176   0.376
 5234TIP3    H215646   5.355   3.326   0.357
 5235TIP3   OH215647   3.425   7.595   0.804
 5235TIP3    H115648   3.487   7.542   0.855
 5235TIP3    H215649   3.473   7.675   0.784
 5236TIP3   OH215650   4.800   1.177   5.044
 5236TIP3    H115651   4.742   1.226   4.986
 5236TIP3    H215652   4.770   1.199   5.132
 5237TIP3   OH215653   4.559   6.488   1.062
 5237TIP3    H115654   4.600   6.564   1.020
 5237TIP3    H215655   4.472   6.483   1.021
 5238TIP3   OH215656   3.150   0.629   2.305
 5238TIP3    H115657   3.155   0.533   2.310
 5238TIP3    H215658   3.178   0.649   2.215
 5239TIP3   OH215659   7.985   5.583   3.070
 5239TIP3    H115660   7.963   5.526   2.997
 5239TIP3    H215661   8.071   5.618   3.049
 5240TIP3   OH215662   4.460   7.734   0.530
 5240TIP3    H115663   4.514   7.669   0.575
 5240TIP3    H215664   4.374   7.693   0.523
 5241TIP3   OH215665   7.487   7.791   2.907
 5241TIP3    H115666   7.498   7.880   2.941
 5241TIP3    H215667   7.460   7.740   2.983
 5242TIP3   OH215668   7.088   6.568   5.495
 5242TIP3    H115669   7.009   6.528   5.459
 5242TIP3    H215670   7.092   6.538   5.585
 5243TIP3   OH215671   1.728   1.110   5.832
 5243TIP3    H115672   1.722   1.140   5.742
 5243TIP3    H215673   1.791   1.168   5.873
 5244TIP3   OH215674   1.259   3.358   1.487
 5244TIP3    H115675   1.197   3.288   1.508
 5244TIP3    H215676   1.261   3.360   1.391
 5245TIP3   OH215677   0.469   6.131   5.043
 5245TIP3    H115678   0.450   6.052   5.093
 5245TIP3    H215679   0.426   6.202   5.092
 5246TIP3   OH215680   5.073   1.445   3.584
 5246TIP3    H115681   5.100   1.359   3.551
 5246TIP3    H215682   5.155   1.495   3.591
 5247TIP3   OH215683   3.521   3.112   5.715
 5247TIP3    H115684   3.511   3.197   5.672
 5247TIP3    H215685   3.577   3.130   5.791
 5248TIP3   OH215686   5.724   5.686   2.526
 5248TIP3    H115687   5.658   5.617   2.520
 5248TIP3    H215688   5.686   5.760   2.478
 5249TIP3   OH215689   1.646   2.803   5.081
 5249TIP3    H115690   1.699   2.724   5.086
 5249TIP3    H215691   1.568   2.783   5.133
 5250TIP3   OH215692   7.764   7.336   3.054
 5250TIP3    H115693   7.705   7.299   3.120
 5250TIP3    H215694   7.728   7.423   3.035
 5251TIP3   OH215695   7.125   4.746   0.842
 5251TIP3    H115696   7.211   4.758   0.801
 5251TIP3    H215697   7.145   4.733   0.935
 5252TIP3   OH215698   7.376   1.444   6.123
 5252TIP3    H115699   7.297   1.496   6.139
 5252TIP3    H215700   7.404   1.468   6.035
 5253TIP3   OH215701   3.633   5.073   0.053
 5253TIP3    H115702   3.685   5.109   0.125
 5253TIP3    H215703   3.688   5.005   0.015
 5254TIP3   OH215704   1.397   3.937   6.190
 5254TIP3    H115705   1.404   3.918   6.284
 5254TIP3    H215706   1.453   3.872   6.148
 5255TIP3   OH215707   6.193   3.927   2.540
 5255TIP3    H115708   6.266   3.988   2.529
 5255TIP3    H215709   6.230   3.855   2.591
 5256TIP3   OH215710   7.237   0.203   6.166
 5256TIP3    H115711   7.199   0.284   6.133
 5256TIP3    H215712   7.169   0.167   6.223
 5257TIP3   OH215713   3.288   6.138   6.369
 5257TIP3    H115714   3.233   6.060   6.377
 5257TIP3    H215715   3.288   6.176   6.457
 5258TIP3   OH215716   6.817   3.037   0.423
 5258TIP3    H115717   6.766   3.015   0.501
 5258TIP3    H215718   6.827   3.132   0.427
 5259TIP3   OH215719   5.571   7.450   0.999
 5259TIP3    H115720   5.546   7.505   1.073
 5259TIP3    H215721   5.592   7.512   0.929
 5260TIP3   OH215722   4.328   4.469   2.804
 5260TIP3    H115723   4.407   4.482   2.856
 5260TIP3    H215724   4.305   4.557   2.774
 5261TIP3   OH215725   2.620   1.066   0.691
 5261TIP3    H115726   2.584   0.984   0.726
 5261TIP3    H215727   2.710   1.043   0.665
 5262TIP3   OH215728   1.635   1.977   1.666
 5262TIP3    H115729   1.710   1.981   1.724
 5262TIP3    H215730   1.668   1.934   1.586
 5263TIP3   OH215731   8.233   2.328   2.253
 5263TIP3    H115732   8.218   2.251   2.308
 5263TIP3    H215733   8.248   2.399   2.315
 5264TIP3   OH215734   1.728   6.512   5.383
 5264TIP3    H115735   1.742   6.421   5.412
 5264TIP3    H215736   1.806   6.532   5.331
 5265TIP3   OH215737   5.498   5.302   4.013
 5265TIP3    H115738   5.515   5.396   4.018
 5265TIP3    H215739   5.582   5.264   3.989
 5266TIP3   OH215740   0.020   6.949   1.742
 5266TIP3    H115741   0.101   6.898   1.734
 5266TIP3    H215742  -0.040   6.890   1.786
 5267TIP3   OH215743   2.367   0.773   6.468
 5267TIP3    H115744   2.445   0.809   6.510
 5267TIP3    H215745   2.382   0.678   6.467
 5268TIP3   OH215746   2.234   2.627   2.676
 5268TIP3    H115747   2.298   2.679   2.724
 5268TIP3    H215748   2.263   2.536   2.690
 5269TIP3   OH215749   2.265   4.684   1.337
 5269TIP3    H115750   2.279   4.589   1.333
 5269TIP3    H215751   2.196   4.695   1.402
 5270TIP3   OH215752   2.954   3.095   1.274
 5270TIP3    H115753   2.894   3.142   1.332
 5270TIP3    H215754   2.991   3.026   1.329
 5271TIP3   OH215755   3.836   3.846   1.326
 5271TIP3    H115756   3.747   3.866   1.357
 5271TIP3    H215757   3.893   3.872   1.399
 5272TIP3   OH215758   6.570   3.640   4.313
 5272TIP3    H115759   6.566   3.689   4.395
 5272TIP3    H215760   6.610   3.702   4.251
 5273TIP3   OH215761   5.742   4.502   1.867
 5273TIP3    H115762   5.816   4.548   1.906
 5273TIP3    H215763   5.782   4.440   1.806
 5274TIP3   OH215764   3.959   6.174   2.998
 5274TIP3    H115765   3.928   6.262   2.979
 5274TIP3    H215766   3.887   6.134   3.047
 5275TIP3   OH215767   3.303   1.097   0.565
 5275TIP3    H115768   3.357   1.172   0.540
 5275TIP3    H215769   3.365   1.032   0.598
 5276TIP3   OH215770   6.878   0.296   0.771
 5276TIP3    H115771   6.904   0.388   0.766
 5276TIP3    H215772   6.950   0.252   0.817
 5277TIP3   OH215773   3.730   1.579   0.069
 5277TIP3    H115774   3.680   1.535   0.000
 5277TIP3    H215775   3.731   1.516   0.141
 5278TIP3   OH215776   8.038   3.187   4.348
 5278TIP3    H115777   7.974   3.138   4.398
 5278TIP3    H215778   8.117   3.132   4.349
 5279TIP3   OH215779   6.834   2.305   1.625
 5279TIP3    H115780   6.784   2.353   1.691
 5279TIP3    H215781   6.771   2.285   1.556
 5280TIP3   OH215782   3.556   2.282   0.706
 5280TIP3    H115783   3.478   2.338   0.710
 5280TIP3    H215784   3.609   2.320   0.636
 5281TIP3   OH215785   8.304   7.439   2.748
 5281TIP3    H115786   8.242   7.425   2.820
 5281TIP3    H215787   8.263   7.399   2.672
 5282TIP3   OH215788   1.126   4.892   0.151
 5282TIP3    H115789   1.183   4.837   0.206
 5282TIP3    H215790   1.040   4.851   0.159
 5283TIP3   OH215791   4.383   7.814   1.511
 5283TIP3    H115792   4.293   7.845   1.523
 5283TIP3    H215793   4.372   7.728   1.470
 5284TIP3   OH215794   5.190   2.855   1.332
 5284TIP3    H115795   5.152   2.767   1.328
 5284TIP3    H215796   5.201   2.872   1.425
 5285TIP3   OH215797   5.296   3.996   1.134
 5285TIP3    H115798   5.389   4.003   1.112
 5285TIP3    H215799   5.251   3.995   1.049
 5286TIP3   OH215800   1.190   6.423   3.369
 5286TIP3    H115801   1.196   6.431   3.465
 5286TIP3    H215802   1.115   6.477   3.346
 5287TIP3   OH215803   1.299   1.306   3.292
 5287TIP3    H115804   1.278   1.397   3.270
 5287TIP3    H215805   1.331   1.268   3.211
 5288TIP3   OH215806   3.890   4.344   6.015
 5288TIP3    H115807   3.889   4.431   6.055
 5288TIP3    H215808   3.803   4.335   5.975
 5289TIP3   OH215809   0.873   6.165   1.767
 5289TIP3    H115810   0.849   6.226   1.696
 5289TIP3    H215811   0.807   6.181   1.835
 5290TIP3   OH215812   1.402   1.649   0.805
 5290TIP3    H115813   1.319   1.665   0.851
 5290TIP3    H215814   1.468   1.647   0.875
 5291TIP3   OH215815   2.146   1.704   0.188
 5291TIP3    H115816   2.058   1.670   0.207
 5291TIP3    H215817   2.168   1.758   0.264
 5292TIP3   OH215818   4.857   3.367   4.782
 5292TIP3    H115819   4.765   3.388   4.798
 5292TIP3    H215820   4.871   3.390   4.690
 5293TIP3   OH215821   0.805   6.659   6.474
 5293TIP3    H115822   0.761   6.642   6.390
 5293TIP3    H215823   0.734   6.663   6.537
 5294TIP3   OH215824   4.467   4.499   6.643
 5294TIP3    H115825   4.512   4.460   6.568
 5294TIP3    H215826   4.503   4.588   6.648
 5295TIP3   OH215827   2.179   2.126   3.638
 5295TIP3    H115828   2.098   2.096   3.597
 5295TIP3    H215829   2.187   2.074   3.718
 5296TIP3   OH215830   1.623   1.570   1.480
 5296TIP3    H115831   1.707   1.564   1.434
 5296TIP3    H215832   1.634   1.513   1.556
 5297TIP3   OH215833   5.698   0.570   3.906
 5297TIP3    H115834   5.620   0.613   3.871
 5297TIP3    H215835   5.763   0.639   3.914
 5298TIP3   OH215836   5.358   4.620   4.810
 5298TIP3    H115837   5.363   4.532   4.772
 5298TIP3    H215838   5.271   4.652   4.784
 5299TIP3   OH215839   5.962   4.404   6.365
 5299TIP3    H115840   6.024   4.448   6.424
 5299TIP3    H215841   5.913   4.344   6.422
 5300TIP3   OH215842   8.071   3.377   0.323
 5300TIP3    H115843   8.154   3.357   0.366
 5300TIP3    H215844   8.023   3.293   0.324
 5301TIP3   OH215845   5.827   0.564   1.324
 5301TIP3    H115846   5.844   0.656   1.344
 5301TIP3    H215847   5.733   0.560   1.306
 5302TIP3   OH215848   0.920   5.022   5.677
 5302TIP3    H115849   1.015   5.014   5.685
 5302TIP3    H215850   0.891   4.936   5.644
 5303TIP3   OH215851   7.922   3.487   3.167
 5303TIP3    H115852   7.923   3.578   3.136
 5303TIP3    H215853   7.849   3.446   3.121
 5304TIP3   OH215854   0.527   5.817   2.157
 5304TIP3    H115855   0.471   5.864   2.095
 5304TIP3    H215856   0.565   5.886   2.212
 5305TIP3   OH215857   4.421   2.651   2.866
 5305TIP3    H115858   4.456   2.565   2.841
 5305TIP3    H215859   4.359   2.632   2.937
 5306TIP3   OH215860   5.715   5.594   3.044
 5306TIP3    H115861   5.751   5.567   2.959
 5306TIP3    H215862   5.652   5.663   3.022
 5307TIP3   OH215863   2.864   3.086   3.854
 5307TIP3    H115864   2.895   3.079   3.945
 5307TIP3    H215865   2.895   3.172   3.824
 5308TIP3   OH215866   2.440   5.797   6.168
 5308TIP3    H115867   2.501   5.727   6.147
 5308TIP3    H215868   2.440   5.854   6.091
 5309TIP3   OH215869   7.596   4.515   0.666
 5309TIP3    H115870   7.512   4.534   0.624
 5309TIP3    H215871   7.608   4.585   0.730
 5310TIP3   OH215872   7.794   3.909   2.878
 5310TIP3    H115873   7.861   3.944   2.819
 5310TIP3    H215874   7.713   3.914   2.828
 5311TIP3   OH215875   3.091   6.192   4.033
 5311TIP3    H115876   3.054   6.262   3.979
 5311TIP3    H215877   3.160   6.235   4.084
 5312TIP3   OH215878   3.693   4.297   4.517
 5312TIP3    H115879   3.667   4.205   4.520
 5312TIP3    H215880   3.651   4.336   4.594
 5313TIP3   OH215881   1.851   2.524   1.264
 5313TIP3    H115882   1.831   2.562   1.349
 5313TIP3    H215883   1.830   2.593   1.201
 5314TIP3   OH215884   4.751   0.309   1.995
 5314TIP3    H115885   4.846   0.306   2.006
 5314TIP3    H215886   4.722   0.220   2.015
 5315TIP3   OH215887   4.020   3.419   1.577
 5315TIP3    H115888   3.957   3.452   1.641
 5315TIP3    H215889   4.003   3.470   1.498
 5316TIP3   OH215890   1.169   0.267   6.174
 5316TIP3    H115891   1.081   0.294   6.201
 5316TIP3    H215892   1.227   0.334   6.210
 5317TIP3   OH215893   4.106   1.779   2.742
 5317TIP3    H115894   4.103   1.700   2.795
 5317TIP3    H215895   4.101   1.748   2.652
 5318TIP3   OH215896   7.870   4.237   0.514
 5318TIP3    H115897   7.805   4.228   0.584
 5318TIP3    H215898   7.955   4.226   0.558
 5319TIP3   OH215899   1.177   0.467   3.357
 5319TIP3    H115900   1.234   0.531   3.400
 5319TIP3    H215901   1.224   0.384   3.364
 5320TIP3   OH215902   7.967   2.588   2.632
 5320TIP3    H115903   7.953   2.607   2.539
 5320TIP3    H215904   7.927   2.662   2.678
 5321TIP3   OH215905   4.353   6.762   6.004
 5321TIP3    H115906   4.418   6.738   6.071
 5321TIP3    H215907   4.292   6.820   6.049
 5322TIP3   OH215908   5.600   1.198   3.877
 5322TIP3    H115909   5.551   1.157   3.949
 5322TIP3    H215910   5.599   1.291   3.897
 5323TIP3   OH215911   1.936   7.229   3.074
 5323TIP3    H115912   1.956   7.289   3.002
 5323TIP3    H215913   2.018   7.182   3.090
 5324TIP3   OH215914   4.688   3.745   0.308
 5324TIP3    H115915   4.663   3.831   0.341
 5324TIP3    H215916   4.666   3.684   0.379
 5325TIP3   OH215917   1.722   3.576   5.116
 5325TIP3    H115918   1.647   3.621   5.154
 5325TIP3    H215919   1.765   3.642   5.061
 5326TIP3   OH215920   1.665   1.289   1.954
 5326TIP3    H115921   1.642   1.362   2.011
 5326TIP3    H215922   1.618   1.307   1.872
 5327TIP3   OH215923   1.904   4.934   5.143
 5327TIP3    H115924   1.992   4.919   5.109
 5327TIP3    H215925   1.903   5.027   5.164
 5328TIP3   OH215926   6.509   7.287   0.132
 5328TIP3    H115927   6.593   7.264   0.094
 5328TIP3    H215928   6.445   7.260   0.065
 5329TIP3   OH215929   7.719   1.555   2.198
 5329TIP3    H115930   7.697   1.576   2.107
 5329TIP3    H215931   7.662   1.610   2.250
 5330TIP3   OH215932   7.361   6.581   2.369
 5330TIP3    H115933   7.328   6.612   2.453
 5330TIP3    H215934   7.390   6.660   2.323
 5331TIP3   OH215935   5.718   4.920   0.052
 5331TIP3    H115936   5.795   4.976   0.047
 5331TIP3    H215937   5.753   4.831   0.054
 5332TIP3   OH215938   7.763   7.541   4.736
 5332TIP3    H115939   7.780   7.479   4.807
 5332TIP3    H215940   7.840   7.599   4.736
 5333TIP3   OH215941   1.534   1.218   1.339
 5333TIP3    H115942   1.512   1.237   1.248
 5333TIP3    H215943   1.622   1.254   1.351
 5334TIP3   OH215944   3.779   2.882   6.148
 5334TIP3    H115945   3.731   2.895   6.229
 5334TIP3    H215946   3.866   2.854   6.176
 5335TIP3   OH215947   2.348   0.989   5.330
 5335TIP3    H115948   2.287   1.051   5.291
 5335TIP3    H215949   2.292   0.929   5.380
 5336TIP3   OH215950   1.024   6.141   6.245
 5336TIP3    H115951   0.963   6.068   6.238
 5336TIP3    H215952   0.988   6.208   6.186
 5337TIP3   OH215953   7.107   1.250   1.455
 5337TIP3    H115954   7.104   1.219   1.545
 5337TIP3    H215955   7.101   1.171   1.402
 5338TIP3   OH215956   2.460   5.803   0.366
 5338TIP3    H115957   2.507   5.809   0.450
 5338TIP3    H215958   2.375   5.843   0.385
 5339TIP3   OH215959   7.906   2.665   3.616
 5339TIP3    H115960   7.882   2.608   3.543
 5339TIP3    H215961   8.002   2.664   3.617
 5340TIP3   OH215962   2.671   7.690   2.822
 5340TIP3    H115963   2.582   7.711   2.851
 5340TIP3    H215964   2.668   7.701   2.727
 5341TIP3   OH215965   4.816   2.191   4.921
 5341TIP3    H115966   4.801   2.200   4.827
 5341TIP3    H215967   4.897   2.239   4.937
 5342TIP3   OH215968   8.309   3.390   5.527
 5342TIP3    H115969   8.336   3.419   5.615
 5342TIP3    H215970   8.228   3.342   5.543
 5343TIP3   OH215971   0.201   5.030   2.506
 5343TIP3    H115972   0.130   4.966   2.499
 5343TIP3    H215973   0.266   5.001   2.442
 5344TIP3   OH215974   1.648   3.918   1.550
 5344TIP3    H115975   1.646   4.011   1.526
 5344TIP3    H215976   1.567   3.905   1.599
 5345TIP3   OH215977   6.959   1.180   4.369
 5345TIP3    H115978   7.047   1.212   4.390
 5345TIP3    H215979   6.915   1.255   4.329
 5346TIP3   OH215980   1.122   5.380   6.395
 5346TIP3    H115981   1.177   5.457   6.407
 5346TIP3    H215982   1.163   5.331   6.323
 5347TIP3   OH215983   0.257   7.051   3.188
 5347TIP3    H115984   0.265   6.973   3.242
 5347TIP3    H215985   0.186   7.101   3.228
 5348TIP3   OH215986   6.903   3.002   5.765
 5348TIP3    H115987   6.845   2.951   5.821
 5348TIP3    H215988   6.992   2.978   5.793
 5349TIP3   OH215989   5.028   2.683   2.397
 5349TIP3    H115990   5.045   2.736   2.474
 5349TIP3    H215991   5.099   2.619   2.395
 5350TIP3   OH215992   4.869   6.846   1.711
 5350TIP3    H115993   4.853   6.894   1.629
 5350TIP3    H215994   4.802   6.778   1.713
 5351TIP3   OH215995   6.755   3.596   4.670
 5351TIP3    H115996   6.723   3.514   4.707
 5351TIP3    H215997   6.846   3.604   4.701
 5352TIP3   OH215998   4.843   2.155   1.122
 5352TIP3    H115999   4.815   2.244   1.147
 5352TIP3    H216000   4.881   2.119   1.202
 5353TIP3   OH216001   3.699   0.171   6.310
 5353TIP3    H116002   3.751   0.166   6.390
 5353TIP3    H216003   3.712   0.261   6.280
 5354TIP3   OH216004   3.969   4.370   2.833
 5354TIP3    H116005   3.897   4.431   2.816
 5354TIP3    H216006   4.016   4.408   2.907
 5355TIP3   OH216007   4.153   4.531   0.626
 5355TIP3    H116008   4.174   4.559   0.715
 5355TIP3    H216009   4.235   4.539   0.578
 5356TIP3   OH216010   7.614   1.585   0.590
 5356TIP3    H116011   7.691   1.559   0.541
 5356TIP3    H216012   7.626   1.680   0.604
 5357TIP3   OH216013   0.816   5.095   0.360
 5357TIP3    H116014   0.865   5.018   0.331
 5357TIP3    H216015   0.781   5.134   0.280
 5358TIP3   OH216016   5.082   6.278   3.142
 5358TIP3    H116017   5.127   6.208   3.097
 5358TIP3    H216018   5.056   6.240   3.226
 5359TIP3   OH216019   0.365   4.757   4.200
 5359TIP3    H116020   0.413   4.735   4.120
 5359TIP3    H216021   0.314   4.678   4.219
 5360TIP3   OH216022   1.424   5.335   3.500
 5360TIP3    H116023   1.403   5.422   3.535
 5360TIP3    H216024   1.349   5.281   3.524
 5361TIP3   OH216025   2.764   1.910   0.463
 5361TIP3    H116026   2.798   1.822   0.483
 5361TIP3    H216027   2.809   1.935   0.383
 5362TIP3   OH216028   2.532   6.018   2.301
 5362TIP3    H116029   2.527   5.962   2.379
 5362TIP3    H216030   2.441   6.028   2.273
 5363TIP3   OH216031   6.216   2.429   1.336
 5363TIP3    H116032   6.269   2.500   1.299
 5363TIP3    H216033   6.226   2.438   1.430
 5364TIP3   OH216034   3.484   6.667   2.203
 5364TIP3    H116035   3.477   6.680   2.297
 5364TIP3    H216036   3.417   6.603   2.182
 5365TIP3   OH216037   1.330   0.127   5.983
 5365TIP3    H116038   1.262   0.079   5.935
 5365TIP3    H216039   1.283   0.181   6.046
 5366TIP3   OH216040   0.342   6.260   2.554
 5366TIP3    H116041   0.359   6.184   2.611
 5366TIP3    H216042   0.339   6.335   2.614
 5367TIP3   OH216043   0.347   1.049   5.873
 5367TIP3    H116044   0.317   1.055   5.963
 5367TIP3    H216045   0.301   0.972   5.837
 5368TIP3   OH216046   2.595   2.071   0.590
 5368TIP3    H116047   2.642   2.020   0.524
 5368TIP3    H216048   2.647   2.060   0.670
 5369TIP3   OH216049   6.791   1.023   1.137
 5369TIP3    H116050   6.836   1.071   1.207
 5369TIP3    H216051   6.858   0.968   1.098
 5370TIP3   OH216052   6.544   0.209   0.421
 5370TIP3    H116053   6.619   0.249   0.376
 5370TIP3    H216054   6.510   0.145   0.358
 5371TIP3   OH216055   4.196   2.506   5.580
 5371TIP3    H116056   4.209   2.570   5.650
 5371TIP3    H216057   4.101   2.496   5.575
 5372TIP3   OH216058   2.973   2.629   6.671
 5372TIP3    H116059   2.930   2.704   6.711
 5372TIP3    H216060   3.038   2.602   6.735
 5373TIP3   OH216061   7.744   1.271   3.493
 5373TIP3    H116062   7.721   1.361   3.468
 5373TIP3    H216063   7.838   1.265   3.473
 5374TIP3   OH216064   7.384   1.410   1.786
 5374TIP3    H116065   7.345   1.325   1.809
 5374TIP3    H216066   7.452   1.388   1.722
 5375TIP3   OH216067   7.097   2.266   5.440
 5375TIP3    H116068   7.019   2.295   5.393
 5375TIP3    H216069   7.088   2.303   5.528
 5376TIP3   OH216070   2.765   4.133   5.526
 5376TIP3    H116071   2.812   4.202   5.573
 5376TIP3    H216072   2.694   4.108   5.586
 5377TIP3   OH216073   2.363   2.867   2.551
 5377TIP3    H116074   2.325   2.807   2.486
 5377TIP3    H216075   2.331   2.953   2.526
 5378TIP3   OH216076   1.634   3.014   2.256
 5378TIP3    H116077   1.704   3.063   2.213
 5378TIP3    H216078   1.599   2.956   2.189
 5379TIP3   OH216079   0.887   6.547   5.529
 5379TIP3    H116080   0.927   6.532   5.443
 5379TIP3    H216081   0.956   6.588   5.581
 5380TIP3   OH216082   4.415   5.267   0.714
 5380TIP3    H116083   4.392   5.183   0.673
 5380TIP3    H216084   4.445   5.322   0.642
 5381TIP3   OH216085   5.247   0.140   1.826
 5381TIP3    H116086   5.315   0.077   1.804
 5381TIP3    H216087   5.167   0.089   1.833
 5382TIP3   OH216088   1.613   4.168   3.345
 5382TIP3    H116089   1.546   4.100   3.339
 5382TIP3    H216090   1.632   4.175   3.439
 5383TIP3   OH216091   6.496   1.813   3.269
 5383TIP3    H116092   6.435   1.877   3.306
 5383TIP3    H216093   6.581   1.859   3.267
 5384TIP3   OH216094   6.498   2.620   4.064
 5384TIP3    H116095   6.533   2.673   3.993
 5384TIP3    H216096   6.444   2.681   4.115
 5385TIP3   OH216097   5.569   1.366   2.064
 5385TIP3    H116098   5.595   1.279   2.036
 5385TIP3    H216099   5.473   1.366   2.060
 5386TIP3   OH216100   0.696   6.196   4.910
 5386TIP3    H116101   0.610   6.183   4.949
 5386TIP3    H216102   0.727   6.107   4.890
 5387TIP3   OH216103   3.249   2.373   1.628
 5387TIP3    H116104   3.259   2.286   1.588
 5387TIP3    H216105   3.321   2.379   1.690
 5388TIP3   OH216106   7.330   3.550   6.080
 5388TIP3    H116107   7.281   3.469   6.068
 5388TIP3    H216108   7.421   3.521   6.089
 5389TIP3   OH216109   7.994   0.996   2.645
 5389TIP3    H116110   7.980   1.014   2.552
 5389TIP3    H216111   7.983   1.081   2.688
 5390TIP3   OH216112   2.971   5.875   1.996
 5390TIP3    H116113   2.930   5.832   1.921
 5390TIP3    H216114   3.058   5.899   1.966
 5391TIP3   OH216115   2.108   1.134   6.508
 5391TIP3    H116116   2.078   1.066   6.568
 5391TIP3    H216117   2.135   1.086   6.429
 5392TIP3   OH216118   6.218   5.586   6.344
 5392TIP3    H116119   6.155   5.536   6.396
 5392TIP3    H216120   6.219   5.541   6.259
 5393TIP3   OH216121   3.978   3.290   3.095
 5393TIP3    H116122   3.965   3.320   3.005
 5393TIP3    H216123   4.038   3.216   3.088
 5394TIP3   OH216124   7.494   2.186   4.138
 5394TIP3    H116125   7.535   2.243   4.074
 5394TIP3    H216126   7.437   2.244   4.189
 5395TIP3   OH216127   2.505   3.060   3.899
 5395TIP3    H116128   2.550   3.011   3.967
 5395TIP3    H216129   2.496   3.148   3.934
 5396TIP3   OH216130   1.160   1.519   1.499
 5396TIP3    H116131   1.098   1.558   1.437
 5396TIP3    H216132   1.242   1.511   1.450
 5397TIP3   OH216133   1.398   3.884   2.417
 5397TIP3    H116134   1.339   3.945   2.372
 5397TIP3    H216135   1.342   3.842   2.483
 5398TIP3   OH216136   2.240   2.385   6.550
 5398TIP3    H116137   2.169   2.322   6.539
 5398TIP3    H216138   2.196   2.470   6.558
 5399TIP3   OH216139   3.476   3.353   5.607
 5399TIP3    H116140   3.483   3.424   5.543
 5399TIP3    H216141   3.475   3.397   5.692
 5400TIP3   OH216142   3.310   7.103   2.243
 5400TIP3    H116143   3.290   7.043   2.315
 5400TIP3    H216144   3.235   7.164   2.242
 5401TIP3   OH216145   4.230   2.412   5.024
 5401TIP3    H116146   4.138   2.401   4.998
 5401TIP3    H216147   4.243   2.507   5.023
 5402TIP3   OH216148   1.427   3.478   2.854
 5402TIP3    H116149   1.408   3.500   2.945
 5402TIP3    H216150   1.346   3.438   2.821
 5403TIP3   OH216151   2.277   1.410   3.817
 5403TIP3    H116152   2.189   1.448   3.812
 5403TIP3    H216153   2.291   1.369   3.732
 5404TIP3   OH216154   5.096   2.448   2.744
 5404TIP3    H116155   5.028   2.515   2.744
 5404TIP3    H216156   5.067   2.384   2.808
 5405TIP3   OH216157   2.792   3.082   1.501
 5405TIP3    H116158   2.763   3.022   1.571
 5405TIP3    H216159   2.714   3.096   1.448
 5406TIP3   OH216160   5.839   1.057   3.535
 5406TIP3    H116161   5.763   1.029   3.587
 5406TIP3    H216162   5.836   1.152   3.537
 5407TIP3   OH216163   3.121   5.968   0.337
 5407TIP3    H116164   3.092   5.979   0.428
 5407TIP3    H216165   3.214   5.948   0.344
 5408TIP3   OH216166   1.861   6.320   5.178
 5408TIP3    H116167   1.766   6.313   5.182
 5408TIP3    H216168   1.893   6.235   5.207
 5409TIP3   OH216169   6.076   0.398   4.577
 5409TIP3    H116170   6.142   0.438   4.520
 5409TIP3    H216171   6.120   0.322   4.615
 5410TIP3   OH216172   6.714   4.458   3.102
 5410TIP3    H116173   6.671   4.543   3.101
 5410TIP3    H216174   6.645   4.396   3.079
 5411TIP3   OH216175   0.107   6.795   2.954
 5411TIP3    H116176   0.194   6.785   2.993
 5411TIP3    H216177   0.047   6.797   3.029
 5412TIP3   OH216178   0.364   4.002   1.229
 5412TIP3    H116179   0.276   4.012   1.193
 5412TIP3    H216180   0.387   4.088   1.264
 5413TIP3   OH216181   7.563   3.471   2.384
 5413TIP3    H116182   7.613   3.409   2.330
 5413TIP3    H216183   7.626   3.537   2.410
 5414TIP3   OH216184   1.308   6.141   5.835
 5414TIP3    H116185   1.336   6.207   5.898
 5414TIP3    H216186   1.364   6.065   5.853
 5415TIP3   OH216187   7.376   4.620   0.508
 5415TIP3    H116188   7.315   4.651   0.441
 5415TIP3    H216189   7.461   4.656   0.481
 5416TIP3   OH216190   1.065   4.067   4.917
 5416TIP3    H116191   1.077   3.978   4.949
 5416TIP3    H216192   1.136   4.117   4.958
 5417TIP3   OH216193   0.762   1.928   3.506
 5417TIP3    H116194   0.737   1.999   3.566
 5417TIP3    H216195   0.857   1.932   3.503
 5418TIP3   OH216196   1.759   7.340   2.161
 5418TIP3    H116197   1.743   7.409   2.097
 5418TIP3    H216198   1.699   7.269   2.136
 5419TIP3   OH216199   2.068   4.012   2.422
 5419TIP3    H116200   2.060   4.108   2.420
 5419TIP3    H216201   2.162   3.997   2.430
 5420TIP3   OH216202   2.042   1.930   2.142
 5420TIP3    H116203   2.011   1.977   2.219
 5420TIP3    H216204   2.077   1.998   2.085
 5421TIP3   OH216205   7.540   4.606   4.599
 5421TIP3    H116206   7.577   4.525   4.565
 5421TIP3    H216207   7.602   4.636   4.665
 5422TIP3   OH216208   5.672   5.011   6.548
 5422TIP3    H116209   5.746   4.953   6.562
 5422TIP3    H216210   5.632   5.020   6.635
 5423TIP3   OH216211   7.389   7.024   4.535
 5423TIP3    H116212   7.378   6.929   4.529
 5423TIP3    H216213   7.377   7.055   4.446
 5424TIP3   OH216214   7.417   6.139   0.045
 5424TIP3    H116215   7.366   6.186   0.111
 5424TIP3    H216216   7.459   6.069   0.094
 5425TIP3   OH216217   3.435   5.158   5.487
 5425TIP3    H116218   3.375   5.088   5.460
 5425TIP3    H216219   3.442   5.215   5.411
 5426TIP3   OH216220   7.804   4.589   3.947
 5426TIP3    H116221   7.869   4.626   3.887
 5426TIP3    H216222   7.720   4.602   3.903
 5427TIP3   OH216223   7.629   1.212   2.007
 5427TIP3    H116224   7.664   1.294   1.973
 5427TIP3    H216225   7.607   1.232   2.098
 5428TIP3   OH216226   4.919   3.776   1.657
 5428TIP3    H116227   4.933   3.693   1.613
 5428TIP3    H216228   4.926   3.755   1.751
 5429TIP3   OH216229   4.802   5.776   3.410
 5429TIP3    H116230   4.796   5.831   3.332
 5429TIP3    H216231   4.715   5.739   3.420
 5430TIP3   OH216232   0.876   2.212   0.765
 5430TIP3    H116233   0.780   2.214   0.765
 5430TIP3    H216234   0.898   2.124   0.793
 5431TIP3   OH216235   4.538   5.679   3.385
 5431TIP3    H116236   4.496   5.593   3.377
 5431TIP3    H216237   4.540   5.696   3.479
 5432TIP3   OH216238   5.282   1.591   0.337
 5432TIP3    H116239   5.358   1.538   0.313
 5432TIP3    H216240   5.256   1.558   0.423
 5433TIP3   OH216241   0.781   2.603   2.934
 5433TIP3    H116242   0.800   2.517   2.896
 5433TIP3    H216243   0.686   2.612   2.927
 5434TIP3   OH216244   0.884   7.601   3.519
 5434TIP3    H116245   0.863   7.674   3.461
 5434TIP3    H216246   0.963   7.562   3.480
 5435TIP3   OH216247   2.665   4.076   3.676
 5435TIP3    H116248   2.707   3.999   3.636
 5435TIP3    H216249   2.630   4.125   3.602
 5436TIP3   OH216250   2.698   5.864   1.443
 5436TIP3    H116251   2.675   5.883   1.352
 5436TIP3    H216252   2.680   5.770   1.453
 5437TIP3   OH216253   7.651   3.626   6.624
 5437TIP3    H116254   7.684   3.580   6.547
 5437TIP3    H216255   7.720   3.690   6.644
 5438TIP3   OH216256   3.990   3.827   2.786
 5438TIP3    H116257   4.067   3.861   2.741
 5438TIP3    H216258   3.923   3.895   2.774
 5439TIP3   OH216259   7.771   4.446   3.605
 5439TIP3    H116260   7.689   4.464   3.650
 5439TIP3    H216261   7.744   4.406   3.522
 5440TIP3   OH216262   4.316   4.888   2.007
 5440TIP3    H116263   4.316   4.818   1.942
 5440TIP3    H216264   4.285   4.846   2.087
 5441TIP3   OH216265   2.053   2.231   2.022
 5441TIP3    H116266   2.136   2.264   2.056
 5441TIP3    H216267   2.020   2.302   1.965
 5442TIP3   OH216268   4.247   1.488   4.697
 5442TIP3    H116269   4.175   1.496   4.760
 5442TIP3    H216270   4.319   1.537   4.737
 5443TIP3   OH216271   2.445   4.432   3.070
 5443TIP3    H116272   2.398   4.473   3.142
 5443TIP3    H216273   2.459   4.503   3.007
 5444TIP3   OH216274   2.624   6.455   6.092
 5444TIP3    H116275   2.670   6.375   6.118
 5444TIP3    H216276   2.669   6.484   6.013
 5445TIP3   OH216277   0.203   3.340   3.844
 5445TIP3    H116278   0.174   3.431   3.850
 5445TIP3    H216279   0.125   3.288   3.864
 5446TIP3   OH216280   1.969   5.160   5.337
 5446TIP3    H116281   2.042   5.121   5.384
 5446TIP3    H216282   1.903   5.178   5.404
 5447TIP3   OH216283   5.105   4.911   2.561
 5447TIP3    H116284   5.091   4.856   2.484
 5447TIP3    H216285   5.125   4.848   2.631
 5448TIP3   OH216286   4.026   0.308   2.821
 5448TIP3    H116287   4.057   0.337   2.907
 5448TIP3    H216288   4.078   0.359   2.758
 5449TIP3   OH216289   0.702   6.325   5.583
 5449TIP3    H116290   0.760   6.401   5.592
 5449TIP3    H216291   0.666   6.332   5.495
 5450TIP3   OH216292   0.471   7.393   3.208
 5450TIP3    H116293   0.448   7.335   3.135
 5450TIP3    H216294   0.535   7.453   3.170
 5451TIP3   OH216295   6.734   1.166   4.575
 5451TIP3    H116296   6.689   1.083   4.557
 5451TIP3    H216297   6.809   1.166   4.516
 5452TIP3   OH216298   1.250   2.052   1.457
 5452TIP3    H116299   1.313   2.049   1.384
 5452TIP3    H216300   1.192   1.977   1.441
 5453TIP3   OH216301   8.096   1.871   3.872
 5453TIP3    H116302   8.127   1.958   3.848
 5453TIP3    H216303   8.127   1.858   3.962
 5454TIP3   OH216304   1.180   4.165   6.514
 5454TIP3    H116305   1.246   4.195   6.451
 5454TIP3    H216306   1.192   4.223   6.589
 5455TIP3   OH216307   3.913   2.199   4.344
 5455TIP3    H116308   3.873   2.112   4.354
 5455TIP3    H216309   3.845   2.259   4.375
 5456TIP3   OH216310   2.236   0.943   3.866
 5456TIP3    H116311   2.232   0.942   3.962
 5456TIP3    H216312   2.329   0.946   3.846
 5457TIP3   OH216313   7.065   5.372   0.456
 5457TIP3    H116314   6.982   5.403   0.419
 5457TIP3    H216315   7.047   5.358   0.549
 5458TIP3   OH216316   0.734   1.597   2.025
 5458TIP3    H116317   0.814   1.629   2.066
 5458TIP3    H216318   0.693   1.675   1.988
 5459TIP3   OH216319   4.441   7.097   1.241
 5459TIP3    H116320   4.426   7.135   1.327
 5459TIP3    H216321   4.371   7.133   1.186
 5460TIP3   OH216322   3.973   3.812   3.872
 5460TIP3    H116323   3.887   3.821   3.830
 5460TIP3    H216324   3.965   3.866   3.951
 5461TIP3   OH216325   2.852   3.156   4.404
 5461TIP3    H116326   2.807   3.101   4.468
 5461TIP3    H216327   2.938   3.173   4.443
 5462TIP3   OH216328   7.515   3.446   0.734
 5462TIP3    H116329   7.449   3.474   0.671
 5462TIP3    H216330   7.571   3.386   0.685
 5463TIP3   OH216331   7.512   7.091   3.786
 5463TIP3    H116332   7.480   7.155   3.849
 5463TIP3    H216333   7.603   7.077   3.809
 5464TIP3   OH216334   8.105   0.469   4.921
 5464TIP3    H116335   8.086   0.403   4.854
 5464TIP3    H216336   8.096   0.553   4.875
 5465TIP3   OH216337   4.406   5.542   4.905
 5465TIP3    H116338   4.424   5.459   4.862
 5465TIP3    H216339   4.311   5.543   4.917
 5466TIP3   OH216340   0.364   7.521   5.718
 5466TIP3    H116341   0.308   7.598   5.730
 5466TIP3    H216342   0.446   7.557   5.684
 5467TIP3   OH216343   7.002   7.691   3.420
 5467TIP3    H116344   7.034   7.641   3.495
 5467TIP3    H216345   6.925   7.643   3.390
 5468TIP3   OH216346   7.984   7.453   2.084
 5468TIP3    H116347   8.036   7.489   2.156
 5468TIP3    H216348   7.897   7.438   2.123
 5469TIP3   OH216349   6.413   0.321   3.450
 5469TIP3    H116350   6.446   0.350   3.365
 5469TIP3    H216351   6.330   0.278   3.430
 5470TIP3   OH216352   7.586   6.758   3.655
 5470TIP3    H116353   7.643   6.685   3.630
 5470TIP3    H216354   7.508   6.716   3.692
 5471TIP3   OH216355   6.179   4.197   0.758
 5471TIP3    H116356   6.136   4.119   0.795
 5471TIP3    H216357   6.107   4.259   0.743
 5472TIP3   OH216358   3.148   1.817   5.795
 5472TIP3    H116359   3.210   1.777   5.734
 5472TIP3    H216360   3.072   1.759   5.793
 5473TIP3   OH216361   6.009   1.227   2.587
 5473TIP3    H116362   5.970   1.237   2.500
 5473TIP3    H216363   5.934   1.213   2.645
 5474TIP3   OH216364   4.229   0.341   6.300
 5474TIP3    H116365   4.230   0.281   6.226
 5474TIP3    H216366   4.296   0.308   6.359
 5475TIP3   OH216367   6.286   1.774   4.155
 5475TIP3    H116368   6.261   1.865   4.170
 5475TIP3    H216369   6.206   1.724   4.173
 5476TIP3   OH216370   3.730   6.726   2.393
 5476TIP3    H116371   3.740   6.699   2.302
 5476TIP3    H216372   3.646   6.689   2.420
 5477TIP3   OH216373   7.384   2.366   3.612
 5477TIP3    H116374   7.466   2.343   3.655
 5477TIP3    H216375   7.408   2.433   3.548
 5478TIP3   OH216376   4.413   3.101   0.676
 5478TIP3    H116377   4.378   3.013   0.688
 5478TIP3    H216378   4.422   3.110   0.581
 5479TIP3   OH216379   2.609   0.996   1.785
 5479TIP3    H116380   2.673   1.053   1.742
 5479TIP3    H216381   2.650   0.910   1.785
 5480TIP3   OH216382   3.148   0.881   6.422
 5480TIP3    H116383   3.064   0.906   6.459
 5480TIP3    H216384   3.155   0.932   6.341
 5481TIP3   OH216385   7.124   3.358   2.639
 5481TIP3    H116386   7.159   3.320   2.719
 5481TIP3    H216387   7.198   3.358   2.578
 5482TIP3   OH216388   3.933   0.308   3.615
 5482TIP3    H116389   4.021   0.326   3.649
 5482TIP3    H216390   3.945   0.231   3.559
 5483TIP3   OH216391   3.946   1.755   0.070
 5483TIP3    H116392   3.872   1.695   0.062
 5483TIP3    H216393   3.942   1.809  -0.009
 5484TIP3   OH216394   5.940   6.439   5.203
 5484TIP3    H116395   5.984   6.489   5.134
 5484TIP3    H216396   5.866   6.494   5.230
 5485TIP3   OH216397   7.132   6.360   4.599
 5485TIP3    H116398   7.182   6.286   4.633
 5485TIP3    H216399   7.165   6.373   4.510
 5486TIP3   OH216400   6.821   0.718   2.768
 5486TIP3    H116401   6.764   0.793   2.783
 5486TIP3    H216402   6.829   0.712   2.673
 5487TIP3   OH216403   1.459   6.497   0.526
 5487TIP3    H116404   1.511   6.468   0.451
 5487TIP3    H216405   1.370   6.467   0.508
 5488TIP3   OH216406   3.853   7.682   3.573
 5488TIP3    H116407   3.824   7.765   3.610
 5488TIP3    H216408   3.881   7.631   3.649
 5489TIP3   OH216409   5.335   1.012   2.909
 5489TIP3    H116410   5.371   0.955   2.977
 5489TIP3    H216411   5.258   0.967   2.877
 5490TIP3   OH216412   7.112   7.037   4.668
 5490TIP3    H116413   7.177   7.011   4.602
 5490TIP3    H216414   7.143   6.999   4.750
 5491TIP3   OH216415   2.773   5.068   1.935
 5491TIP3    H116416   2.863   5.039   1.951
 5491TIP3    H216417   2.770   5.157   1.970
 5492TIP3   OH216418   1.965   6.638   0.870
 5492TIP3    H116419   1.994   6.684   0.791
 5492TIP3    H216420   1.962   6.705   0.938
 5493TIP3   OH216421   4.951   2.701   1.179
 5493TIP3    H116422   5.014   2.629   1.175
 5493TIP3    H216423   4.967   2.750   1.099
 5494TIP3   OH216424   0.621   2.231   0.470
 5494TIP3    H116425   0.642   2.138   0.471
 5494TIP3    H216426   0.619   2.257   0.562
 5495TIP3   OH216427   5.013   1.494   4.943
 5495TIP3    H116428   4.984   1.410   4.909
 5495TIP3    H216429   4.935   1.550   4.940
 5496TIP3   OH216430   1.781   7.104   5.936
 5496TIP3    H116431   1.852   7.039   5.934
 5496TIP3    H216432   1.714   7.064   5.991
 5497TIP3   OH216433   5.539   5.274   4.688
 5497TIP3    H116434   5.457   5.322   4.672
 5497TIP3    H216435   5.562   5.296   4.778
 5498TIP3   OH216436   8.057   3.239   4.076
 5498TIP3    H116437   8.027   3.210   4.162
 5498TIP3    H216438   8.031   3.332   4.072
 5499TIP3   OH216439   7.030   7.623   6.089
 5499TIP3    H116440   7.108   7.647   6.139
 5499TIP3    H216441   6.961   7.679   6.124
 5500TIP3   OH216442   2.567   0.824   0.319
 5500TIP3    H116443   2.561   0.730   0.334
 5500TIP3    H216444   2.578   0.833   0.224
 5501TIP3   OH216445   4.905   0.350   6.431
 5501TIP3    H116446   4.903   0.265   6.476
 5501TIP3    H216447   4.831   0.398   6.467
 5502TIP3   OH216448   7.579   7.267   6.182
 5502TIP3    H116449   7.593   7.186   6.232
 5502TIP3    H216450   7.648   7.326   6.214
 5503TIP3   OH216451   5.664   1.373   1.099
 5503TIP3    H116452   5.586   1.368   1.154
 5503TIP3    H216453   5.636   1.338   1.014
 5504TIP3   OH216454   1.109   6.076   2.128
 5504TIP3    H116455   1.148   6.163   2.119
 5504TIP3    H216456   1.016   6.093   2.145
 5505TIP3   OH216457   6.995   7.072   1.260
 5505TIP3    H116458   7.025   7.135   1.194
 5505TIP3    H216459   6.908   7.046   1.230
 5506TIP3   OH216460   5.174   6.177   6.747
 5506TIP3    H116461   5.264   6.191   6.778
 5506TIP3    H216462   5.183   6.113   6.676
 5507TIP3   OH216463   4.532   0.201   3.255
 5507TIP3    H116464   4.498   0.142   3.188
 5507TIP3    H216465   4.488   0.284   3.237
 5508TIP3   OH216466   0.960   0.484   4.995
 5508TIP3    H116467   0.985   0.401   5.037
 5508TIP3    H216468   0.876   0.507   5.034
 5509TIP3   OH216469   1.790   3.616   6.234
 5509TIP3    H116470   1.795   3.592   6.142
 5509TIP3    H216471   1.882   3.619   6.263
 5510TIP3   OH216472   0.374   6.174   0.434
 5510TIP3    H116473   0.454   6.172   0.381
 5510TIP3    H216474   0.368   6.086   0.471
 5511TIP3   OH216475   7.669   0.779   4.553
 5511TIP3    H116476   7.621   0.726   4.489
 5511TIP3    H216477   7.756   0.738   4.558
 5512TIP3   OH216478   6.406   0.417   4.056
 5512TIP3    H116479   6.419   0.322   4.059
 5512TIP3    H216480   6.312   0.428   4.044
 5513TIP3   OH216481   1.102   2.358   4.091
 5513TIP3    H116482   1.078   2.421   4.159
 5513TIP3    H216483   1.173   2.307   4.130
 5514TIP3   OH216484   7.816   0.710   0.032
 5514TIP3    H116485   7.725   0.708   0.003
 5514TIP3    H216486   7.813   0.678   0.122
 5515TIP3   OH216487   5.109   2.149   4.458
 5515TIP3    H116488   5.017   2.134   4.437
 5515TIP3    H216489   5.144   2.196   4.382
 5516TIP3   OH216490   1.952   3.231   0.905
 5516TIP3    H116491   2.004   3.197   0.832
 5516TIP3    H216492   1.899   3.300   0.867
 5517TIP3   OH216493   6.023   7.469   5.417
 5517TIP3    H116494   6.039   7.550   5.465
 5517TIP3    H216495   5.930   7.453   5.428
 5518TIP3   OH216496   6.973   0.188   0.384
 5518TIP3    H116497   7.054   0.193   0.435
 5518TIP3    H216498   6.962   0.276   0.347
 5519TIP3   OH216499   0.065   5.056   4.756
 5519TIP3    H116500   0.036   5.106   4.832
 5519TIP3    H216501   0.003   5.078   4.687
 5520TIP3   OH216502   1.395   6.776   5.815
 5520TIP3    H116503   1.391   6.861   5.772
 5520TIP3    H216504   1.487   6.766   5.840
 5521TIP3   OH216505   7.055   1.562   6.344
 5521TIP3    H116506   7.058   1.467   6.355
 5521TIP3    H216507   7.082   1.597   6.429
 5522TIP3   OH216508  -0.008   4.339   6.133
 5522TIP3    H116509  -0.059   4.261   6.158
 5522TIP3    H216510   0.076   4.327   6.177
 5523TIP3   OH216511   0.799   7.637   5.267
 5523TIP3    H116512   0.892   7.620   5.251
 5523TIP3    H216513   0.797   7.679   5.353
 5524TIP3   OH216514   3.344   5.700   5.001
 5524TIP3    H116515   3.345   5.787   5.043
 5524TIP3    H216516   3.322   5.640   5.072
 5525TIP3   OH216517   0.471   4.708   6.234
 5525TIP3    H116518   0.422   4.672   6.159
 5525TIP3    H216519   0.424   4.676   6.311
 5526TIP3   OH216520   3.572   4.209   1.616
 5526TIP3    H116521   3.602   4.128   1.658
 5526TIP3    H216522   3.643   4.231   1.555
 5527TIP3   OH216523   2.223   7.589   2.074
 5527TIP3    H116524   2.170   7.552   2.145
 5527TIP3    H216525   2.311   7.557   2.091
 5528TIP3   OH216526   7.611   1.691   2.482
 5528TIP3    H116527   7.563   1.753   2.537
 5528TIP3    H216528   7.695   1.734   2.464
 5529TIP3   OH216529   5.552   6.255   4.780
 5529TIP3    H116530   5.487   6.325   4.771
 5529TIP3    H216531   5.502   6.181   4.815
 5530TIP3   OH216532   7.747   2.670   1.861
 5530TIP3    H116533   7.754   2.581   1.897
 5530TIP3    H216534   7.658   2.697   1.882
 5531TIP3   OH216535   4.061   6.377   6.670
 5531TIP3    H116536   4.037   6.285   6.655
 5531TIP3    H216537   3.982   6.417   6.706
 5532TIP3   OH216538   7.451   6.573   5.023
 5532TIP3    H116539   7.457   6.591   4.930
 5532TIP3    H216540   7.357   6.567   5.041
 5533TIP3   OH216541   3.454   2.386   3.268
 5533TIP3    H116542   3.440   2.339   3.350
 5533TIP3    H216543   3.389   2.457   3.269
 5534TIP3   OH216544   2.560   6.430   0.856
 5534TIP3    H116545   2.548   6.363   0.924
 5534TIP3    H216546   2.479   6.427   0.805
 5535TIP3   OH216547   8.138   4.572   6.282
 5535TIP3    H116548   8.184   4.593   6.363
 5535TIP3    H216549   8.198   4.514   6.234
 5536TIP3   OH216550   2.424   4.698   6.419
 5536TIP3    H116551   2.468   4.717   6.503
 5536TIP3    H216552   2.459   4.764   6.359
 5537TIP3   OH216553   7.211   7.353   3.548
 5537TIP3    H116554   7.268   7.329   3.474
 5537TIP3    H216555   7.259   7.421   3.594
 5538TIP3   OH216556   1.392   0.044   3.025
 5538TIP3    H116557   1.445  -0.029   3.058
 5538TIP3    H216558   1.428   0.121   3.068
 5539TIP3   OH216559   4.360   0.442   3.332
 5539TIP3    H116560   4.367   0.388   3.410
 5539TIP3    H216561   4.428   0.509   3.342
 5540TIP3   OH216562   3.323   0.879   2.411
 5540TIP3    H116563   3.286   0.790   2.412
 5540TIP3    H216564   3.322   0.904   2.319
 5541TIP3   OH216565   1.555   0.881   0.077
 5541TIP3    H116566   1.622   0.949   0.088
 5541TIP3    H216567   1.501   0.914   0.005
 5542TIP3   OH216568   5.796   2.599   6.224
 5542TIP3    H116569   5.815   2.691   6.244
 5542TIP3    H216570   5.881   2.562   6.199
 5543TIP3   OH216571   5.079   5.481   0.135
 5543TIP3    H116572   5.121   5.422   0.198
 5543TIP3    H216573   4.985   5.470   0.150
 5544TIP3   OH216574   7.510   4.692   1.480
 5544TIP3    H116575   7.459   4.759   1.435
 5544TIP3    H216576   7.446   4.625   1.504
 5545TIP3   OH216577   1.677   4.727   4.282
 5545TIP3    H116578   1.713   4.736   4.194
 5545TIP3    H216579   1.715   4.647   4.316
 5546TIP3   OH216580   3.531   2.827   2.437
 5546TIP3    H116581   3.520   2.795   2.527
 5546TIP3    H216582   3.600   2.894   2.444
 5547TIP3   OH216583   1.522   5.077   6.165
 5547TIP3    H116584   1.588   5.090   6.233
 5547TIP3    H216585   1.472   5.001   6.194
 5548TIP3   OH216586   1.354   3.103   6.526
 5548TIP3    H116587   1.267   3.121   6.562
 5548TIP3    H216588   1.407   3.178   6.554
 5549TIP3   OH216589   6.879   5.721   2.526
 5549TIP3    H116590   6.885   5.713   2.621
 5549TIP3    H216591   6.938   5.654   2.492
 5550TIP3   OH216592   4.197   0.386   3.059
 5550TIP3    H116593   4.181   0.324   3.129
 5550TIP3    H216594   4.254   0.453   3.098
 5551TIP3   OH216595   7.863   2.744   0.101
 5551TIP3    H116596   7.895   2.667   0.053
 5551TIP3    H216597   7.794   2.780   0.046
 5552TIP3   OH216598   5.799   0.440   5.188
 5552TIP3    H116599   5.867   0.398   5.135
 5552TIP3    H216600   5.718   0.423   5.140
 5553TIP3   OH216601   5.059   7.749   4.884
 5553TIP3    H116602   4.985   7.689   4.889
 5553TIP3    H216603   5.075   7.760   4.790
 5554TIP3   OH216604   7.885   2.001   5.536
 5554TIP3    H116605   7.895   1.907   5.524
 5554TIP3    H216606   7.805   2.023   5.488
 5555TIP3   OH216607   7.642   2.398   6.358
 5555TIP3    H116608   7.669   2.329   6.419
 5555TIP3    H216609   7.554   2.372   6.330
 5556TIP3   OH216610   6.165   3.181   0.843
 5556TIP3    H116611   6.077   3.186   0.881
 5556TIP3    H216612   6.151   3.146   0.755
 5557TIP3   OH216613   7.702   0.330   2.907
 5557TIP3    H116614   7.638   0.348   2.837
 5557TIP3    H216615   7.760   0.406   2.906
 5558TIP3   OH216616   5.815   5.966   2.343
 5558TIP3    H116617   5.730   5.944   2.380
 5558TIP3    H216618   5.866   5.997   2.418
 5559TIP3   OH216619   6.141   4.595   1.768
 5559TIP3    H116620   6.103   4.681   1.783
 5559TIP3    H216621   6.160   4.593   1.674
 5560TIP3   OH216622   4.631   7.637   3.411
 5560TIP3    H116623   4.613   7.705   3.346
 5560TIP3    H216624   4.709   7.669   3.457
 5561TIP3   OH216625   5.299   7.208   6.747
 5561TIP3    H116626   5.256   7.188   6.664
 5561TIP3    H216627   5.253   7.154   6.812
 5562TIP3   OH216628   7.431   4.421   1.658
 5562TIP3    H116629   7.423   4.351   1.723
 5562TIP3    H216630   7.524   4.419   1.633
 5563TIP3   OH216631   1.014   3.751   4.136
 5563TIP3    H116632   1.108   3.757   4.116
 5563TIP3    H216633   0.990   3.838   4.165
 5564TIP3   OH216634   0.761   1.000   3.339
 5564TIP3    H116635   0.718   0.966   3.260
 5564TIP3    H216636   0.736   0.938   3.408
 5565TIP3   OH216637   4.118   0.877   0.982
 5565TIP3    H116638   4.104   0.820   1.058
 5565TIP3    H216639   4.207   0.910   0.994
 5566TIP3   OH216640   7.363   4.894   1.377
 5566TIP3    H116641   7.274   4.886   1.412
 5566TIP3    H216642   7.384   4.987   1.383
 5567TIP3   OH216643   3.336   6.071   0.831
 5567TIP3    H116644   3.387   6.140   0.788
 5567TIP3    H216645   3.323   6.103   0.921
 5568TIP3   OH216646   6.953   4.460   4.942
 5568TIP3    H116647   6.991   4.396   4.882
 5568TIP3    H216648   6.975   4.428   5.030
 5569TIP3   OH216649   2.741   0.226   6.076
 5569TIP3    H116650   2.807   0.198   6.139
 5569TIP3    H216651   2.785   0.219   5.991
 5570TIP3   OH216652   6.424   3.354   3.034
 5570TIP3    H116653   6.411   3.268   3.073
 5570TIP3    H216654   6.441   3.412   3.108
 5571TIP3   OH216655   3.076   0.164   2.919
 5571TIP3    H116656   3.055   0.156   3.012
 5571TIP3    H216657   2.994   0.191   2.878
 5572TIP3   OH216658   3.724   1.480   0.997
 5572TIP3    H116659   3.812   1.480   1.035
 5572TIP3    H216660   3.668   1.514   1.067
 5573TIP3   OH216661   4.010   0.850   1.978
 5573TIP3    H116662   4.092   0.892   2.002
 5573TIP3    H216663   4.015   0.841   1.882
 5574TIP3   OH216664   5.495   0.781   0.795
 5574TIP3    H116665   5.528   0.756   0.709
 5574TIP3    H216666   5.458   0.700   0.830
 5575TIP3   OH216667   3.821   0.595   3.646
 5575TIP3    H116668   3.815   0.545   3.727
 5575TIP3    H216669   3.915   0.600   3.628
 5576TIP3   OH216670   5.445   5.761   6.591
 5576TIP3    H116671   5.524   5.803   6.625
 5576TIP3    H216672   5.453   5.669   6.617
 5577TIP3   OH216673   7.286   3.611   1.188
 5577TIP3    H116674   7.345   3.573   1.253
 5577TIP3    H216675   7.253   3.690   1.230
 5578TIP3   OH216676   7.437   2.593   0.042
 5578TIP3    H116677   7.475   2.668   0.087
 5578TIP3    H216678   7.470   2.599  -0.048
 5579TIP3   OH216679   3.264   3.815   3.428
 5579TIP3    H116680   3.318   3.738   3.410
 5579TIP3    H216681   3.284   3.876   3.357
 5580TIP3   OH216682   1.347   1.735   3.518
 5580TIP3    H116683   1.404   1.661   3.538
 5580TIP3    H216684   1.371   1.760   3.429
 5581TIP3   OH216685   4.328   7.593   3.899
 5581TIP3    H116686   4.279   7.653   3.842
 5581TIP3    H216687   4.323   7.634   3.985
 5582TIP3   OH216688   5.060   1.538   6.067
 5582TIP3    H116689   5.018   1.459   6.035
 5582TIP3    H216690   4.988   1.593   6.100
 5583TIP3   OH216691   3.165   0.516   4.801
 5583TIP3    H116692   3.245   0.548   4.759
 5583TIP3    H216693   3.099   0.520   4.732
 5584TIP3   OH216694   0.774   2.683   1.360
 5584TIP3    H116695   0.750   2.594   1.385
 5584TIP3    H216696   0.768   2.733   1.441
 5585TIP3   OH216697   4.354   6.015   2.166
 5585TIP3    H116698   4.276   6.066   2.146
 5585TIP3    H216699   4.327   5.924   2.152
 5586TIP3   OH216700   3.375   6.877   4.048
 5586TIP3    H116701   3.323   6.936   4.101
 5586TIP3    H216702   3.337   6.790   4.062
 5587TIP3   OH216703   6.560   6.159   3.027
 5587TIP3    H116704   6.624   6.206   3.079
 5587TIP3    H216705   6.574   6.067   3.048
 5588TIP3   OH216706   1.264   1.367   6.330
 5588TIP3    H116707   1.251   1.291   6.273
 5588TIP3    H216708   1.186   1.421   6.317
 5589TIP3   OH216709   7.093   3.567   4.326
 5589TIP3    H116710   7.119   3.621   4.400
 5589TIP3    H216711   7.167   3.508   4.312
 5590TIP3   OH216712   4.289   3.099   3.309
 5590TIP3    H116713   4.198   3.117   3.335
 5590TIP3    H216714   4.313   3.172   3.253
 5591TIP3   OH216715   5.730   3.471   2.747
 5591TIP3    H116716   5.778   3.535   2.694
 5591TIP3    H216717   5.723   3.511   2.833
 5592TIP3   OH216718   0.760   5.246   2.312
 5592TIP3    H116719   0.731   5.247   2.221
 5592TIP3    H216720   0.688   5.204   2.359
 5593TIP3   OH216721   8.199   1.981   5.007
 5593TIP3    H116722   8.232   2.069   5.028
 5593TIP3    H216723   8.167   1.947   5.091
 5594TIP3   OH216724   7.055   2.021   2.508
 5594TIP3    H116725   7.018   1.960   2.444
 5594TIP3    H216726   6.981   2.046   2.563
 5595TIP3   OH216727   0.870   2.951   5.985
 5595TIP3    H116728   0.957   2.989   5.972
 5595TIP3    H216729   0.816   3.023   6.016
 5596TIP3   OH216730   5.600   1.728   3.892
 5596TIP3    H116731   5.549   1.742   3.812
 5596TIP3    H216732   5.689   1.753   3.868
 5597TIP3   OH216733   3.568   1.548   6.245
 5597TIP3    H116734   3.524   1.544   6.160
 5597TIP3    H216735   3.544   1.466   6.288
 5598TIP3   OH216736   2.442   4.362   4.085
 5598TIP3    H116737   2.481   4.289   4.133
 5598TIP3    H216738   2.496   4.438   4.109
 5599TIP3   OH216739   3.924   4.803   4.526
 5599TIP3    H116740   3.922   4.864   4.452
 5599TIP3    H216741   3.988   4.841   4.586
 5600TIP3   OH216742   4.020   4.796   5.134
 5600TIP3    H116743   4.052   4.725   5.078
 5600TIP3    H216744   4.072   4.787   5.214
 5601TIP3   OH216745   0.334   6.971   4.313
 5601TIP3    H116746   0.387   6.942   4.386
 5601TIP3    H216747   0.392   7.028   4.262
 5602TIP3   OH216748   1.125   1.832   2.364
 5602TIP3    H116749   1.087   1.765   2.307
 5602TIP3    H216750   1.050   1.871   2.408
 5603TIP3   OH216751   8.141   6.396   4.142
 5603TIP3    H116752   8.111   6.305   4.138
 5603TIP3    H216753   8.121   6.424   4.231
 5604TIP3   OH216754   5.962   0.663   2.151
 5604TIP3    H116755   6.028   0.608   2.195
 5604TIP3    H216756   6.013   0.733   2.111
 5605TIP3   OH216757   6.613   2.118   3.176
 5605TIP3    H116758   6.557   2.188   3.208
 5605TIP3    H216759   6.638   2.069   3.254
 5606TIP3   OH216760   5.259   3.192   2.420
 5606TIP3    H116761   5.208   3.269   2.443
 5606TIP3    H216762   5.214   3.119   2.464
 5607TIP3   OH216763   1.453   4.322   1.921
 5607TIP3    H116764   1.429   4.406   1.883
 5607TIP3    H216765   1.434   4.258   1.852
 5608TIP3   OH216766   3.056   2.641   0.924
 5608TIP3    H116767   2.977   2.624   0.872
 5608TIP3    H216768   3.044   2.590   1.004
 5609TIP3   OH216769   5.289   6.790   4.899
 5609TIP3    H116770   5.306   6.712   4.951
 5609TIP3    H216771   5.241   6.758   4.823
 5610TIP3   OH216772   2.394   4.847   0.482
 5610TIP3    H116773   2.481   4.816   0.455
 5610TIP3    H216774   2.346   4.857   0.399
 5611TIP3   OH216775   7.942   0.878   2.914
 5611TIP3    H116776   7.899   0.953   2.954
 5611TIP3    H216777   7.935   0.809   2.980
 5612TIP3   OH216778   0.281   0.858   0.976
 5612TIP3    H116779   0.212   0.796   0.956
 5612TIP3    H216780   0.303   0.899   0.892
 5613TIP3   OH216781   4.809   3.351   0.572
 5613TIP3    H116782   4.797   3.300   0.492
 5613TIP3    H216783   4.755   3.429   0.559
 5614TIP3   OH216784   4.968   7.226   0.898
 5614TIP3    H116785   5.026   7.192   0.830
 5614TIP3    H216786   4.892   7.259   0.849
 5615TIP3   OH216787   0.234   1.559   1.448
 5615TIP3    H116788   0.164   1.494   1.456
 5615TIP3    H216789   0.208   1.613   1.373
 5616TIP3   OH216790   3.071   5.144   6.008
 5616TIP3    H116791   3.039   5.056   6.030
 5616TIP3    H216792   3.159   5.147   6.045
 5617TIP3   OH216793   1.246   1.883   4.428
 5617TIP3    H116794   1.189   1.939   4.376
 5617TIP3    H216795   1.201   1.798   4.430
 5618TIP3   OH216796   7.306   6.930   1.126
 5618TIP3    H116797   7.275   6.946   1.215
 5618TIP3    H216798   7.275   7.006   1.076
 5619TIP3   OH216799   1.687   0.575   3.908
 5619TIP3    H116800   1.768   0.605   3.949
 5619TIP3    H216801   1.716   0.524   3.833
 5620TIP3   OH216802   4.381   5.546   3.736
 5620TIP3    H116803   4.303   5.495   3.717
 5620TIP3    H216804   4.437   5.535   3.659
 5621TIP3   OH216805   7.539   1.283   4.153
 5621TIP3    H116806   7.619   1.258   4.201
 5621TIP3    H216807   7.516   1.369   4.189
 5622TIP3   OH216808   7.192   1.272   0.651
 5622TIP3    H116809   7.251   1.289   0.724
 5622TIP3    H216810   7.135   1.202   0.682
 5623TIP3   OH216811   7.886   3.940   5.742
 5623TIP3    H116812   7.906   3.950   5.649
 5623TIP3    H216813   7.842   3.855   5.747
 5624TIP3   OH216814   5.889   6.121   2.573
 5624TIP3    H116815   5.951   6.174   2.622
 5624TIP3    H216816   5.805   6.165   2.585
 5625TIP3   OH216817   3.253   0.268   1.625
 5625TIP3    H116818   3.175   0.268   1.569
 5625TIP3    H216819   3.219   0.260   1.714
 5626TIP3   OH216820   5.327   3.054   1.083
 5626TIP3    H116821   5.340   3.052   0.988
 5626TIP3    H216822   5.385   3.124   1.114
 5627TIP3   OH216823   4.447   2.801   0.394
 5627TIP3    H116824   4.542   2.808   0.388
 5627TIP3    H216825   4.417   2.800   0.303
 5628TIP3   OH216826   6.446   2.657   0.723
 5628TIP3    H116827   6.495   2.670   0.641
 5628TIP3    H216828   6.508   2.680   0.792
 5629TIP3   OH216829   0.643   4.345   2.828
 5629TIP3    H116830   0.660   4.300   2.745
 5629TIP3    H216831   0.703   4.419   2.829
 5630TIP3   OH216832   7.932   3.955   3.553
 5630TIP3    H116833   7.919   4.040   3.596
 5630TIP3    H216834   8.021   3.929   3.575
 5631TIP3   OH216835   8.299   3.435   3.226
 5631TIP3    H116836   8.296   3.497   3.298
 5631TIP3    H216837   8.210   3.399   3.222
 5632TIP3   OH216838   0.703   5.255   2.656
 5632TIP3    H116839   0.617   5.214   2.669
 5632TIP3    H216840   0.686   5.324   2.592
 5633TIP3   OH216841   6.597   3.770   4.570
 5633TIP3    H116842   6.657   3.712   4.618
 5633TIP3    H216843   6.639   3.856   4.575
 5634TIP3   OH216844   1.534   3.669   0.215
 5634TIP3    H116845   1.513   3.716   0.134
 5634TIP3    H216846   1.583   3.593   0.187
 5635TIP3   OH216847   5.577   2.090   2.282
 5635TIP3    H116848   5.626   2.151   2.337
 5635TIP3    H216849   5.624   2.007   2.290
 5636TIP3   OH216850   3.309   1.135   3.289
 5636TIP3    H116851   3.217   1.108   3.291
 5636TIP3    H216852   3.347   1.085   3.216
 5637TIP3   OH216853   3.797   7.204   4.461
 5637TIP3    H116854   3.865   7.222   4.527
 5637TIP3    H216855   3.826   7.123   4.419
 5638TIP3   OH216856   1.521   7.735   1.835
 5638TIP3    H116857   1.549   7.704   1.921
 5638TIP3    H216858   1.584   7.695   1.774
 5639TIP3   OH216859   0.331   2.752   0.310
 5639TIP3    H116860   0.362   2.667   0.281
 5639TIP3    H216861   0.255   2.771   0.254
 5640TIP3   OH216862   0.775   6.005   0.575
 5640TIP3    H116863   0.853   6.013   0.520
 5640TIP3    H216864   0.791   5.927   0.628
 5641TIP3   OH216865   3.411   7.109   0.812
 5641TIP3    H116866   3.385   7.147   0.896
 5641TIP3    H216867   3.404   7.182   0.750
 5642TIP3   OH216868   2.829   2.937   6.006
 5642TIP3    H116869   2.831   2.971   5.917
 5642TIP3    H216870   2.910   2.887   6.014
 5643TIP3   OH216871   3.086   5.235   2.607
 5643TIP3    H116872   3.009   5.278   2.568
 5643TIP3    H216873   3.101   5.159   2.551
 5644TIP3   OH216874   3.879   0.262   0.954
 5644TIP3    H116875   3.926   0.242   1.034
 5644TIP3    H216876   3.946   0.287   0.891
 5645TIP3   OH216877   5.983   7.699   3.820
 5645TIP3    H116878   5.949   7.744   3.742
 5645TIP3    H216879   6.060   7.750   3.845
 5646TIP3   OH216880   3.936   3.815   5.614
 5646TIP3    H116881   3.890   3.830   5.531
 5646TIP3    H216882   3.954   3.903   5.647
 5647TIP3   OH216883   0.547   5.922   3.293
 5647TIP3    H116884   0.635   5.956   3.311
 5647TIP3    H216885   0.499   5.997   3.258
 5648TIP3   OH216886   6.336   2.897   4.930
 5648TIP3    H116887   6.299   2.907   4.842
 5648TIP3    H216888   6.271   2.936   4.988
 5649TIP3   OH216889   4.397   7.240   1.488
 5649TIP3    H116890   4.448   7.294   1.548
 5649TIP3    H216891   4.310   7.280   1.487
 5650TIP3   OH216892   2.015   1.104   3.635
 5650TIP3    H116893   2.058   1.051   3.568
 5650TIP3    H216894   2.051   1.072   3.717
 5651TIP3   OH216895   1.655   7.405   5.700
 5651TIP3    H116896   1.565   7.389   5.674
 5651TIP3    H216897   1.648   7.457   5.780
 5652TIP3   OH216898   1.990   7.260   5.026
 5652TIP3    H116899   1.948   7.282   4.943
 5652TIP3    H216900   2.081   7.289   5.015
 5653TIP3   OH216901   5.235   1.810   1.494
 5653TIP3    H116902   5.311   1.833   1.546
 5653TIP3    H216903   5.233   1.714   1.494
 5654TIP3   OH216904   3.626   4.796   2.226
 5654TIP3    H116905   3.572   4.820   2.151
 5654TIP3    H216906   3.692   4.737   2.191
 5655TIP3   OH216907   0.139   1.861   1.478
 5655TIP3    H116908   0.090   1.800   1.423
 5655TIP3    H216909   0.211   1.891   1.422
 5656TIP3   OH216910   6.435   3.282   3.754
 5656TIP3    H116911   6.447   3.359   3.808
 5656TIP3    H216912   6.524   3.252   3.734
 5657TIP3   OH216913   3.112   6.146   6.110
 5657TIP3    H116914   3.157   6.085   6.167
 5657TIP3    H216915   3.036   6.098   6.079
 5658TIP3   OH216916   0.966   1.586   1.335
 5658TIP3    H116917   0.919   1.545   1.262
 5658TIP3    H216918   0.900   1.641   1.377
 5659TIP3   OH216919   3.072   1.816   3.126
 5659TIP3    H116920   3.150   1.762   3.111
 5659TIP3    H216921   3.101   1.905   3.107
 5660TIP3   OH216922   0.140   4.017   4.911
 5660TIP3    H116923   0.153   3.996   5.003
 5660TIP3    H216924   0.175   4.106   4.902
 5661TIP3   OH216925   6.735   4.590   4.032
 5661TIP3    H116926   6.737   4.661   4.096
 5661TIP3    H216927   6.689   4.627   3.957
 5662TIP3   OH216928   4.343   0.516   6.648
 5662TIP3    H116929   4.405   0.447   6.622
 5662TIP3    H216930   4.307   0.485   6.732
 5663TIP3   OH216931   3.126   7.615   2.787
 5663TIP3    H116932   3.052   7.569   2.826
 5663TIP3    H216933   3.087   7.692   2.745
 5664TIP3   OH216934   2.552   5.442   5.502
 5664TIP3    H116935   2.463   5.407   5.510
 5664TIP3    H216936   2.546   5.531   5.537
 5665TIP3   OH216937   5.877   1.706   5.224
 5665TIP3    H116938   5.847   1.618   5.199
 5665TIP3    H216939   5.916   1.694   5.311
 5666TIP3   OH216940   2.972   0.723   1.682
 5666TIP3    H116941   2.905   0.668   1.643
 5666TIP3    H216942   3.053   0.672   1.675
 5667TIP3   OH216943   8.037   4.958   5.429
 5667TIP3    H116944   8.009   5.031   5.483
 5667TIP3    H216945   8.067   4.891   5.491
 5668TIP3   OH216946   6.867   5.287   2.556
 5668TIP3    H116947   6.869   5.205   2.604
 5668TIP3    H216948   6.910   5.268   2.473
 5669TIP3   OH216949   1.807   5.619   6.459
 5669TIP3    H116950   1.900   5.601   6.451
 5669TIP3    H216951   1.769   5.585   6.378
 5670TIP3   OH216952   7.321   3.341   2.439
 5670TIP3    H116953   7.412   3.372   2.436
 5670TIP3    H216954   7.293   3.343   2.347
 5671TIP3   OH216955   3.652   5.878   4.403
 5671TIP3    H116956   3.678   5.852   4.314
 5671TIP3    H216957   3.576   5.824   4.423
 5672TIP3   OH216958   6.045   5.375   5.184
 5672TIP3    H116959   6.092   5.443   5.136
 5672TIP3    H216960   6.100   5.357   5.260
 5673TIP3   OH216961   1.427   0.672   2.261
 5673TIP3    H116962   1.443   0.608   2.331
 5673TIP3    H216963   1.408   0.619   2.184
 5674TIP3   OH216964   1.431   4.022   2.056
 5674TIP3    H116965   1.496   4.033   2.125
 5674TIP3    H216966   1.385   4.106   2.053
 5675TIP3   OH216967   4.295   6.773   0.722
 5675TIP3    H116968   4.370   6.718   0.702
 5675TIP3    H216969   4.308   6.852   0.669
 5676TIP3   OH216970   0.498   4.686   3.962
 5676TIP3    H116971   0.424   4.631   3.935
 5676TIP3    H216972   0.572   4.654   3.910
 5677TIP3   OH216973   3.169   1.772   2.501
 5677TIP3    H116974   3.186   1.820   2.582
 5677TIP3    H216975   3.221   1.692   2.509
 5678TIP3   OH216976   4.024   1.991   2.412
 5678TIP3    H116977   4.053   2.066   2.359
 5678TIP3    H216978   3.941   1.965   2.373
 5679TIP3   OH216979   4.897   6.761   6.546
 5679TIP3    H116980   4.863   6.849   6.529
 5679TIP3    H216981   4.831   6.702   6.509
 5680TIP3   OH216982   3.294   2.030   4.932
 5680TIP3    H116983   3.375   2.049   4.885
 5680TIP3    H216984   3.317   2.040   5.025
 5681TIP3   OH216985   6.922   5.322   3.792
 5681TIP3    H116986   6.848   5.298   3.848
 5681TIP3    H216987   6.978   5.245   3.793
 5682TIP3   OH216988   7.357   1.013   1.412
 5682TIP3    H116989   7.282   1.016   1.351
 5682TIP3    H216990   7.334   0.945   1.475
 5683TIP3   OH216991   7.393   6.024   5.741
 5683TIP3    H116992   7.424   6.060   5.658
 5683TIP3    H216993   7.417   6.091   5.806
 5684TIP3   OH216994   5.039   7.136   0.179
 5684TIP3    H116995   5.104   7.071   0.152
 5684TIP3    H216996   4.994   7.095   0.253
 5685TIP3   OH216997   3.328   5.088   2.801
 5685TIP3    H116998   3.333   5.155   2.734
 5685TIP3    H216999   3.235   5.084   2.824
 5686TIP3   OH217000   7.825   3.484   4.652
 5686TIP3    H117001   7.793   3.468   4.741
 5686TIP3    H217002   7.780   3.419   4.598
 5687TIP3   OH217003   7.053   6.641   0.193
 5687TIP3    H117004   6.970   6.649   0.240
 5687TIP3    H217005   7.035   6.576   0.124
 5688TIP3   OH217006   2.541   0.595   2.012
 5688TIP3    H117007   2.632   0.583   1.983
 5688TIP3    H217008   2.488   0.560   1.940
 5689TIP3   OH217009   7.668   7.393   1.193
 5689TIP3    H117010   7.761   7.375   1.203
 5689TIP3    H217011   7.639   7.333   1.124
 5690TIP3   OH217012   2.382   1.678   3.675
 5690TIP3    H117013   2.324   1.700   3.602
 5690TIP3    H217014   2.425   1.597   3.647
 5691TIP3   OH217015   3.298   1.039   2.905
 5691TIP3    H117016   3.336   1.011   2.822
 5691TIP3    H217017   3.361   1.102   2.940
 5692TIP3   OH217018   4.044   3.637   5.367
 5692TIP3    H117019   3.950   3.651   5.368
 5692TIP3    H217020   4.055   3.547   5.335
 5693TIP3   OH217021   1.103   4.754   5.972
 5693TIP3    H117022   1.118   4.840   5.933
 5693TIP3    H217023   1.056   4.705   5.905
 5694TIP3   OH217024   7.769   4.879   5.295
 5694TIP3    H117025   7.687   4.873   5.343
 5694TIP3    H217026   7.828   4.926   5.354
 5695TIP3   OH217027   5.973   1.510   1.413
 5695TIP3    H117028   5.944   1.600   1.427
 5695TIP3    H217029   5.961   1.468   1.499
 5696TIP3   OH217030   1.514   3.836   4.911
 5696TIP3    H117031   1.552   3.867   4.829
 5696TIP3    H217032   1.476   3.915   4.951
 5697TIP3   OH217033   0.204   4.174   2.569
 5697TIP3    H117034   0.134   4.194   2.507
 5697TIP3    H217035   0.284   4.202   2.524
 5698TIP3   OH217036   3.940   4.406   6.671
 5698TIP3    H117037   3.990   4.435   6.594
 5698TIP3    H217038   3.854   4.444   6.660
 5699TIP3   OH217039   0.006   1.249   4.248
 5699TIP3    H117040   0.006   1.278   4.157
 5699TIP3    H217041   0.090   1.279   4.283
 5700TIP3   OH217042   4.501   2.331   3.302
 5700TIP3    H117043   4.471   2.261   3.360
 5700TIP3    H217044   4.426   2.347   3.244
 5701TIP3   OH217045   1.655   3.846   3.652
 5701TIP3    H117046   1.748   3.866   3.649
 5701TIP3    H217047   1.646   3.762   3.606
 5702TIP3   OH217048   6.592   2.028   0.911
 5702TIP3    H117049   6.683   2.029   0.883
 5702TIP3    H217050   6.579   2.113   0.953
 5703TIP3   OH217051   1.197   4.402   0.380
 5703TIP3    H117052   1.270   4.430   0.434
 5703TIP3    H217053   1.231   4.403   0.290
 5704TIP3   OH217054   0.298   3.961   0.394
 5704TIP3    H117055   0.242   3.958   0.471
 5704TIP3    H217056   0.382   3.925   0.424
 5705TIP3   OH217057   7.866   1.348   0.670
 5705TIP3    H117058   7.933   1.281   0.684
 5705TIP3    H217059   7.815   1.317   0.596
 5706TIP3   OH217060   7.460   3.708   1.764
 5706TIP3    H117061   7.392   3.643   1.748
 5706TIP3    H217062   7.415   3.780   1.809
 5707TIP3   OH217063   5.100   4.344   4.299
 5707TIP3    H117064   5.074   4.388   4.380
 5707TIP3    H217065   5.019   4.309   4.263
 5708TIP3   OH217066   3.605   5.985   4.085
 5708TIP3    H117067   3.624   5.900   4.044
 5708TIP3    H217068   3.655   6.048   4.033
 5709TIP3   OH217069   1.923   5.616   0.057
 5709TIP3    H117070   1.990   5.654   0.115
 5709TIP3    H217071   1.958   5.628  -0.031
 5710TIP3   OH217072   4.267  -0.031   6.108
 5710TIP3    H117073   4.211  -0.010   6.183
 5710TIP3    H217074   4.291   0.054   6.072
 5711TIP3   OH217075   4.883   4.030   1.966
 5711TIP3    H117076   4.888   4.050   2.060
 5711TIP3    H217077   4.919   4.108   1.923
 5712TIP3   OH217078   4.039   1.359   2.420
 5712TIP3    H117079   4.047   1.333   2.328
 5712TIP3    H217080   3.945   1.348   2.440
 5713TIP3   OH217081   1.637   6.813   5.368
 5713TIP3    H117082   1.717   6.766   5.393
 5713TIP3    H217083   1.572   6.786   5.433
 5714TIP3   OH217084   6.957   5.804   5.992
 5714TIP3    H117085   7.040   5.758   5.983
 5714TIP3    H217086   6.974   5.870   6.059
 5715TIP3   OH217087   4.680   2.837   3.534
 5715TIP3    H117088   4.682   2.741   3.537
 5715TIP3    H217089   4.593   2.859   3.502
 5716TIP3   OH217090   5.781   0.839   6.301
 5716TIP3    H117091   5.714   0.844   6.369
 5716TIP3    H217092   5.750   0.897   6.231
 5717TIP3   OH217093   7.486   6.177   2.515
 5717TIP3    H117094   7.472   6.109   2.581
 5717TIP3    H217095   7.576   6.164   2.486
 5718TIP3   OH217096   8.205   3.660   4.756
 5718TIP3    H117097   8.160   3.639   4.675
 5718TIP3    H217098   8.206   3.756   4.759
 5719TIP3   OH217099   1.412   2.900   2.065
 5719TIP3    H117100   1.335   2.850   2.092
 5719TIP3    H217101   1.391   2.990   2.088
 5720TIP3   OH217102   5.638   2.875   2.979
 5720TIP3    H117103   5.638   2.967   3.006
 5720TIP3    H217104   5.546   2.850   2.980
 5721TIP3   OH217105   1.462   7.239   6.212
 5721TIP3    H117106   1.456   7.187   6.132
 5721TIP3    H217107   1.392   7.303   6.205
 5722TIP3   OH217108   5.109   6.156   0.963
 5722TIP3    H117109   5.146   6.068   0.972
 5722TIP3    H217110   5.141   6.186   0.878
 5723TIP3   OH217111   0.159   7.598   2.445
 5723TIP3    H117112   0.208   7.602   2.527
 5723TIP3    H217113   0.091   7.533   2.460
 5724TIP3   OH217114   6.125   3.800   6.524
 5724TIP3    H117115   6.068   3.855   6.578
 5724TIP3    H217116   6.065   3.740   6.479
 5725TIP3   OH217117   7.931   0.985   4.468
 5725TIP3    H117118   7.983   1.056   4.430
 5725TIP3    H217119   7.898   0.937   4.392
 5726TIP3   OH217120   3.674   7.183   1.851
 5726TIP3    H117121   3.580   7.177   1.870
 5726TIP3    H217122   3.702   7.263   1.895
 5727TIP3   OH217123   1.343   3.916   6.772
 5727TIP3    H117124   1.282   3.983   6.800
 5727TIP3    H217125   1.415   3.964   6.731
 5728TIP3   OH217126   6.541   3.099   1.690
 5728TIP3    H117127   6.536   3.004   1.680
 5728TIP3    H217128   6.539   3.113   1.785
 5729TIP3   OH217129   0.913   2.651   1.676
 5729TIP3    H117130   0.964   2.649   1.757
 5729TIP3    H217131   0.826   2.620   1.701
 5730TIP3   OH217132   3.088   7.694   2.149
 5730TIP3    H117133   3.097   7.770   2.206
 5730TIP3    H217134   3.096   7.729   2.061
 5731TIP3   OH217135   4.561   7.736   5.322
 5731TIP3    H117136   4.599   7.823   5.314
 5731TIP3    H217137   4.637   7.677   5.324
 5732TIP3   OH217138   7.547   1.314   2.264
 5732TIP3    H117139   7.453   1.318   2.253
 5732TIP3    H217140   7.580   1.393   2.223
 5733TIP3   OH217141   7.824   2.177   6.030
 5733TIP3    H117142   7.828   2.103   5.969
 5733TIP3    H217143   7.850   2.140   6.115
 5734TIP3   OH217144   3.747   5.251   2.876
 5734TIP3    H117145   3.823   5.204   2.841
 5734TIP3    H217146   3.698   5.278   2.798
 5735TIP3   OH217147   1.125   2.539   5.967
 5735TIP3    H117148   1.043   2.589   5.974
 5735TIP3    H217149   1.121   2.477   6.040
 5736TIP3   OH217150   4.314   1.875   0.761
 5736TIP3    H117151   4.227   1.880   0.722
 5736TIP3    H217152   4.309   1.803   0.823
 5737TIP3   OH217153   3.996   7.043   0.721
 5737TIP3    H117154   4.068   7.034   0.659
 5737TIP3    H217155   4.009   7.129   0.761
 5738TIP3   OH217156   4.694   2.226   5.169
 5738TIP3    H117157   4.748   2.289   5.217
 5738TIP3    H217158   4.738   2.217   5.085
 5739TIP3   OH217159   4.592   5.232   3.572
 5739TIP3    H117160   4.651   5.289   3.523
 5739TIP3    H217161   4.524   5.208   3.510
 5740TIP3   OH217162   3.705   7.209   4.875
 5740TIP3    H117163   3.678   7.299   4.857
 5740TIP3    H217164   3.745   7.179   4.794
 5741TIP3   OH217165   7.105   3.081   4.685
 5741TIP3    H117166   7.086   3.014   4.619
 5741TIP3    H217167   7.196   3.065   4.709
 5742TIP3   OH217168   3.896   0.126   2.321
 5742TIP3    H117169   3.850   0.197   2.277
 5742TIP3    H217170   3.982   0.162   2.341
 5743TIP3   OH217171   0.235   4.264   5.466
 5743TIP3    H117172   0.147   4.245   5.434
 5743TIP3    H217173   0.244   4.209   5.545
 5744TIP3   OH217174   6.067   5.716   4.525
 5744TIP3    H117175   5.986   5.666   4.534
 5744TIP3    H217176   6.037   5.805   4.506
 5745TIP3   OH217177   5.752   6.535   0.466
 5745TIP3    H117178   5.725   6.578   0.385
 5745TIP3    H217179   5.727   6.443   0.455
 5746TIP3   OH217180   2.888   6.930   3.636
 5746TIP3    H117181   2.948   6.971   3.698
 5746TIP3    H217182   2.935   6.931   3.553
 5747TIP3   OH217183   4.975   7.449   5.212
 5747TIP3    H117184   4.912   7.522   5.212
 5747TIP3    H217185   4.948   7.394   5.285
 5748TIP3   OH217186   6.184   0.742   5.329
 5748TIP3    H117187   6.163   0.836   5.328
 5748TIP3    H217188   6.197   0.720   5.237
 5749TIP3   OH217189   0.986   7.142   6.748
 5749TIP3    H117190   0.949   7.120   6.662
 5749TIP3    H217191   0.994   7.058   6.793
 5750TIP3   OH217192   1.882   2.763   2.113
 5750TIP3    H117193   1.798   2.750   2.069
 5750TIP3    H217194   1.888   2.689   2.174
 5751TIP3   OH217195   0.646   2.480   6.501
 5751TIP3    H117196   0.668   2.544   6.433
 5751TIP3    H217197   0.557   2.502   6.527
 5752TIP3   OH217198   0.953   5.109   6.039
 5752TIP3    H117199   0.882   5.059   5.999
 5752TIP3    H217200   0.914   5.146   6.118
 5753TIP3   OH217201   4.793   2.134   0.117
 5753TIP3    H117202   4.716   2.156   0.170
 5753TIP3    H217203   4.784   2.041   0.099
 5754TIP3   OH217204   1.541   4.459   2.154
 5754TIP3    H117205   1.636   4.448   2.147
 5754TIP3    H217206   1.506   4.416   2.076
 5755TIP3   OH217207   5.925   6.862   5.405
 5755TIP3    H117208   5.910   6.829   5.493
 5755TIP3    H217209   5.838   6.887   5.373
 5756TIP3   OH217210   3.494   0.890   5.024
 5756TIP3    H117211   3.497   0.962   5.087
 5756TIP3    H217212   3.509   0.932   4.939
 5757TIP3   OH217213   3.710   7.641   2.421
 5757TIP3    H117214   3.723   7.548   2.403
 5757TIP3    H217215   3.782   7.665   2.479
 5758TIP3   OH217216   3.785   6.556   2.778
 5758TIP3    H117217   3.850   6.571   2.709
 5758TIP3    H217218   3.729   6.487   2.744
 5759TIP3   OH217219   3.080   2.132   6.785
 5759TIP3    H117220   3.163   2.147   6.830
 5759TIP3    H217221   3.105   2.107   6.696
 5760TIP3   OH217222   1.887   2.359   0.273
 5760TIP3    H117223   1.837   2.278   0.287
 5760TIP3    H217224   1.968   2.330   0.230
 5761TIP3   OH217225   7.813   5.921   3.038
 5761TIP3    H117226   7.733   5.950   2.995
 5761TIP3    H217227   7.845   5.998   3.085
 5762TIP3   OH217228   8.024   4.987   0.565
 5762TIP3    H117229   8.050   5.051   0.499
 5762TIP3    H217230   8.039   5.031   0.648
 5763TIP3   OH217231   0.755   0.973   4.760
 5763TIP3    H117232   0.695   1.040   4.793
 5763TIP3    H217233   0.796   0.936   4.839
 5764TIP3   OH217234   3.041   5.455   4.979
 5764TIP3    H117235   2.960   5.438   4.929
 5764TIP3    H217236   3.105   5.395   4.940
 5765TIP3   OH217237   3.978   0.308   4.289
 5765TIP3    H117238   3.954   0.225   4.330
 5765TIP3    H217239   3.894   0.352   4.271
 5766TIP3   OH217240   2.352   0.973   0.162
 5766TIP3    H117241   2.427   1.002   0.212
 5766TIP3    H217242   2.381   0.890   0.122
 5767TIP3   OH217243   4.285   7.524   0.672
 5767TIP3    H117244   4.345   7.508   0.745
 5767TIP3    H217245   4.204   7.554   0.714
 5768TIP3   OH217246   3.077   7.199   0.055
 5768TIP3    H117247   3.040   7.111   0.053
 5768TIP3    H217248   3.068   7.227   0.146
 5769TIP3   OH217249   2.947   5.545   2.939
 5769TIP3    H117250   3.025   5.493   2.958
 5769TIP3    H217251   2.939   5.604   3.014
 5770TIP3   OH217252   2.207   3.531   3.697
 5770TIP3    H117253   2.255   3.592   3.641
 5770TIP3    H217254   2.126   3.576   3.718
 5771TIP3   OH217255   2.733   0.756   4.114
 5771TIP3    H117256   2.745   0.850   4.104
 5771TIP3    H217257   2.822   0.720   4.109
 5772TIP3   OH217258   2.650   0.738   1.794
 5772TIP3    H117259   2.670   0.663   1.738
 5772TIP3    H217260   2.560   0.721   1.824
 5773TIP3   OH217261   5.470   3.255   3.549
 5773TIP3    H117262   5.513   3.325   3.598
 5773TIP3    H217263   5.435   3.197   3.617
 5774TIP3   OH217264   1.373   6.459   1.703
 5774TIP3    H117265   1.304   6.461   1.636
 5774TIP3    H217266   1.454   6.451   1.652
 5775TIP3   OH217267   6.241   4.070   3.985
 5775TIP3    H117268   6.306   4.126   3.944
 5775TIP3    H217269   6.262   4.072   4.078
 5776TIP3   OH217270   6.294   7.789   3.537
 5776TIP3    H117271   6.231   7.848   3.496
 5776TIP3    H217272   6.276   7.703   3.499
 5777TIP3   OH217273   4.062   3.552   5.666
 5777TIP3    H117274   4.043   3.614   5.595
 5777TIP3    H217275   4.070   3.607   5.744
 5778TIP3   OH217276   3.705   1.217   3.152
 5778TIP3    H117277   3.768   1.150   3.125
 5778TIP3    H217278   3.694   1.203   3.246
 5779TIP3   OH217279   7.246   6.386   4.329
 5779TIP3    H117280   7.299   6.346   4.260
 5779TIP3    H217281   7.157   6.357   4.310
 5780TIP3   OH217282   6.205   0.895   1.391
 5780TIP3    H117283   6.282   0.925   1.342
 5780TIP3    H217284   6.238   0.880   1.480
 5781TIP3   OH217285   5.093   6.728   2.523
 5781TIP3    H117286   5.031   6.800   2.511
 5781TIP3    H217287   5.067   6.663   2.457
 5782TIP3   OH217288   4.419   6.838   5.750
 5782TIP3    H117289   4.368   6.834   5.831
 5782TIP3    H217290   4.386   6.917   5.706
 5783TIP3   OH217291   8.165   0.205   2.869
 5783TIP3    H117292   8.237   0.142   2.857
 5783TIP3    H217293   8.207   0.283   2.905
 5784TIP3   OH217294   8.213   5.306   6.330
 5784TIP3    H117295   8.148   5.338   6.392
 5784TIP3    H217296   8.201   5.211   6.330
 5785TIP3   OH217297   3.585   6.928   2.529
 5785TIP3    H117298   3.657   6.875   2.494
 5785TIP3    H217299   3.628   6.996   2.580
 5786TIP3   OH217300   2.434   1.108   6.477
 5786TIP3    H117301   2.489   1.101   6.399
 5786TIP3    H217302   2.373   1.179   6.458
 5787TIP3   OH217303   6.309   6.969   2.626
 5787TIP3    H117304   6.230   6.931   2.587
 5787TIP3    H217305   6.379   6.947   2.565
 5788TIP3   OH217306   1.949   1.875   6.586
 5788TIP3    H117307   1.990   1.956   6.554
 5788TIP3    H217308   1.868   1.868   6.537
 5789TIP3   OH217309   5.932   7.386   2.481
 5789TIP3    H117310   5.878   7.434   2.417
 5789TIP3    H217311   5.880   7.385   2.561
 5790TIP3   OH217312   3.442   0.849   5.639
 5790TIP3    H117313   3.530   0.882   5.655
 5790TIP3    H217314   3.404   0.839   5.726
 5791TIP3   OH217315   7.329   1.730   3.781
 5791TIP3    H117316   7.256   1.779   3.819
 5791TIP3    H217317   7.324   1.643   3.822
 5792TIP3   OH217318   6.744   3.782   1.999
 5792TIP3    H117319   6.655   3.803   1.972
 5792TIP3    H217320   6.759   3.693   1.967
 5793TIP3   OH217321   4.158   3.123   2.867
 5793TIP3    H117322   4.215   3.107   2.943
 5793TIP3    H217323   4.194   3.202   2.827
 5794TIP3   OH217324   1.120   5.619   2.190
 5794TIP3    H117325   1.082   5.682   2.252
 5794TIP3    H217326   1.044   5.570   2.157
 5795TIP3   OH217327   4.828   0.129   4.149
 5795TIP3    H117328   4.909   0.105   4.105
 5795TIP3    H217329   4.798   0.047   4.189
 5796TIP3   OH217330   8.051   6.944   4.284
 5796TIP3    H117331   8.120   6.967   4.222
 5796TIP3    H217332   8.096   6.935   4.368
 5797TIP3   OH217333   4.705   3.970   1.622
 5797TIP3    H117334   4.776   3.907   1.624
 5797TIP3    H217335   4.734   4.037   1.560
 5798TIP3   OH217336   5.087   2.101   4.065
 5798TIP3    H117337   5.076   2.019   4.113
 5798TIP3    H217338   5.007   2.151   4.082
 5799TIP3   OH217339   0.871   0.802   4.175
 5799TIP3    H117340   0.790   0.853   4.172
 5799TIP3    H217341   0.895   0.789   4.083
 5800TIP3   OH217342   1.331   6.264   4.998
 5800TIP3    H117343   1.351   6.171   5.013
 5800TIP3    H217344   1.310   6.298   5.085
 5801TIP3   OH217345   0.722   6.532   3.609
 5801TIP3    H117346   0.716   6.452   3.662
 5801TIP3    H217347   0.633   6.566   3.609
 5802TIP3   OH217348   7.271   6.430   3.016
 5802TIP3    H117349   7.291   6.421   3.109
 5802TIP3    H217350   7.320   6.358   2.975
 5803TIP3   OH217351   4.999   4.678   0.398
 5803TIP3    H117352   4.956   4.601   0.361
 5803TIP3    H217353   5.045   4.645   0.476
 5804TIP3   OH217354   8.214   5.412   3.678
 5804TIP3    H117355   8.157   5.429   3.753
 5804TIP3    H217356   8.177   5.465   3.607
 5805TIP3   OH217357   1.932   3.660   4.581
 5805TIP3    H117358   1.946   3.573   4.545
 5805TIP3    H217359   1.896   3.644   4.669
 5806TIP3   OH217360   7.737   2.995   1.907
 5806TIP3    H117361   7.697   2.909   1.923
 5806TIP3    H217362   7.703   3.022   1.822
 5807TIP3   OH217363   5.312   2.597   6.268
 5807TIP3    H117364   5.259   2.568   6.195
 5807TIP3    H217365   5.250   2.614   6.339
 5808TIP3   OH217366   6.807   4.066   4.999
 5808TIP3    H117367   6.755   3.990   4.972
 5808TIP3    H217368   6.897   4.033   5.006
 5809TIP3   OH217369   2.733   3.442   1.981
 5809TIP3    H117370   2.652   3.467   2.025
 5809TIP3    H217371   2.800   3.447   2.050
 5810TIP3   OH217372   1.405   7.165   3.701
 5810TIP3    H117373   1.381   7.100   3.634
 5810TIP3    H217374   1.352   7.242   3.679
 5811TIP3   OH217375   7.171   6.492   0.816
 5811TIP3    H117376   7.127   6.577   0.810
 5811TIP3    H217377   7.113   6.439   0.871
 5812TIP3   OH217378   3.683   3.059   2.437
 5812TIP3    H117379   3.777   3.046   2.424
 5812TIP3    H217380   3.674   3.076   2.530
 5813TIP3   OH217381   3.196   3.377   3.567
 5813TIP3    H117382   3.129   3.315   3.541
 5813TIP3    H217383   3.256   3.382   3.492
 5814TIP3   OH217384   6.849   0.122   1.323
 5814TIP3    H117385   6.944   0.135   1.316
 5814TIP3    H217386   6.814   0.165   1.245
 5815TIP3   OH217387   6.417   5.998   6.430
 5815TIP3    H117388   6.511   6.008   6.415
 5815TIP3    H217389   6.403   5.903   6.432
 5816TIP3   OH217390   6.611   6.704   2.142
 5816TIP3    H117391   6.634   6.687   2.234
 5816TIP3    H217392   6.694   6.729   2.101
 5817TIP3   OH217393   6.786   6.759   4.756
 5817TIP3    H117394   6.818   6.761   4.847
 5817TIP3    H217395   6.811   6.673   4.724
 5818TIP3   OH217396   5.112   5.724   5.217
 5818TIP3    H117397   5.153   5.757   5.137
 5818TIP3    H217398   5.047   5.661   5.187
 5819TIP3   OH217399   4.563   5.142   4.712
 5819TIP3    H117400   4.624   5.069   4.726
 5819TIP3    H217401   4.569   5.159   4.618
 5820TIP3   OH217402   7.902   6.817   5.649
 5820TIP3    H117403   7.943   6.850   5.570
 5820TIP3    H217404   7.893   6.893   5.706
 5821TIP3   OH217405   4.121   2.298   1.603
 5821TIP3    H117406   4.141   2.236   1.673
 5821TIP3    H217407   4.117   2.244   1.524
 5822TIP3   OH217408   5.209   2.348   5.555
 5822TIP3    H117409   5.187   2.375   5.644
 5822TIP3    H217410   5.304   2.354   5.551
 5823TIP3   OH217411   2.708   0.252   0.119
 5823TIP3    H117412   2.798   0.269   0.091
 5823TIP3    H217413   2.703   0.287   0.208
 5824TIP3   OH217414   7.731   6.252   0.484
 5824TIP3    H117415   7.693   6.322   0.538
 5824TIP3    H217416   7.781   6.199   0.546
 5825TIP3   OH217417   4.376   5.380   0.261
 5825TIP3    H117418   4.373   5.471   0.232
 5825TIP3    H217419   4.468   5.361   0.274
 5826TIP3   OH217420   5.067   5.350   1.202
 5826TIP3    H117421   4.988   5.296   1.206
 5826TIP3    H217422   5.139   5.288   1.210
 5827TIP3   OH217423   7.535   5.628   1.271
 5827TIP3    H117424   7.493   5.681   1.203
 5827TIP3    H217425   7.608   5.585   1.226
 5828TIP3   OH217426   4.811   1.046   2.172
 5828TIP3    H117427   4.847   1.040   2.260
 5828TIP3    H217428   4.836   0.964   2.130
 5829TIP3   OH217429   1.541   2.719   0.601
 5829TIP3    H117430   1.573   2.684   0.518
 5829TIP3    H217431   1.581   2.664   0.668
 5830TIP3   OH217432   1.761   0.339   3.103
 5830TIP3    H117433   1.675   0.320   3.065
 5830TIP3    H217434   1.757   0.432   3.124
 5831TIP3   OH217435   5.426   1.678   2.713
 5831TIP3    H117436   5.457   1.767   2.727
 5831TIP3    H217437   5.363   1.686   2.642
 5832TIP3   OH217438   7.374   3.397   5.749
 5832TIP3    H117439   7.306   3.337   5.717
 5832TIP3    H217440   7.376   3.384   5.844
 5833TIP3   OH217441   5.538   5.866   0.165
 5833TIP3    H117442   5.598   5.815   0.219
 5833TIP3    H217443   5.457   5.814   0.162
 5834TIP3   OH217444   1.334   6.180   4.345
 5834TIP3    H117445   1.358   6.149   4.257
 5834TIP3    H217446   1.287   6.106   4.384
 5835TIP3   OH217447   3.427   2.695   0.496
 5835TIP3    H117448   3.414   2.714   0.589
 5835TIP3    H217449   3.508   2.740   0.474
 5836TIP3   OH217450   3.515   4.448   5.944
 5836TIP3    H117451   3.475   4.503   5.877
 5836TIP3    H217452   3.549   4.373   5.895
 5837TIP3   OH217453   7.676   1.716   2.762
 5837TIP3    H117454   7.625   1.755   2.832
 5837TIP3    H217455   7.735   1.785   2.733
 5838TIP3   OH217456   5.555   0.750   0.534
 5838TIP3    H117457   5.632   0.776   0.485
 5838TIP3    H217458   5.482   0.762   0.474
 5839TIP3   OH217459   5.244   7.183   3.192
 5839TIP3    H117460   5.164   7.139   3.219
 5839TIP3    H217461   5.217   7.240   3.120
 5840TIP3   OH217462   3.232   7.789   2.549
 5840TIP3    H117463   3.142   7.756   2.553
 5840TIP3    H217464   3.223   7.884   2.552
 5841TIP3   OH217465   4.781   3.639   4.911
 5841TIP3    H117466   4.860   3.586   4.921
 5841TIP3    H217467   4.716   3.578   4.877
 5842TIP3   OH217468   2.006   3.662   2.908
 5842TIP3    H117469   1.987   3.750   2.878
 5842TIP3    H217470   2.001   3.608   2.830
 5843TIP3   OH217471   1.019   2.970   0.023
 5843TIP3    H117472   0.937   2.967   0.072
 5843TIP3    H217473   0.994   3.003  -0.063
 5844TIP3   OH217474   3.689   0.796   1.265
 5844TIP3    H117475   3.683   0.823   1.356
 5844TIP3    H217476   3.599   0.794   1.234
 5845TIP3   OH217477   1.491   2.176   6.193
 5845TIP3    H117478   1.450   2.102   6.148
 5845TIP3    H217479   1.535   2.137   6.269
 5846TIP3   OH217480   2.709   3.158   0.146
 5846TIP3    H117481   2.675   3.230   0.199
 5846TIP3    H217482   2.804   3.165   0.155
 5847TIP3   OH217483   0.357   0.425   0.441
 5847TIP3    H117484   0.329   0.336   0.463
 5847TIP3    H217485   0.393   0.418   0.353
 5848TIP3   OH217486   4.050   2.393   3.433
 5848TIP3    H117487   4.023   2.301   3.440
 5848TIP3    H217488   4.095   2.411   3.515
 5849TIP3   OH217489   0.160   0.459   5.885
 5849TIP3    H117490   0.151   0.365   5.904
 5849TIP3    H217491   0.197   0.496   5.965
 5850TIP3   OH217492   6.457   7.764   6.064
 5850TIP3    H117493   6.473   7.827   6.134
 5850TIP3    H217494   6.539   7.763   6.014
 5851TIP3   OH217495   7.894   0.252   0.440
 5851TIP3    H117496   7.869   0.177   0.494
 5851TIP3    H217497   7.925   0.214   0.358
 5852TIP3   OH217498   4.400   2.653   2.149
 5852TIP3    H117499   4.375   2.719   2.214
 5852TIP3    H217500   4.408   2.701   2.067
 5853TIP3   OH217501   1.425   2.625   5.487
 5853TIP3    H117502   1.475   2.637   5.568
 5853TIP3    H217503   1.362   2.697   5.486
 5854TIP3   OH217504   2.212   5.389   2.020
 5854TIP3    H117505   2.146   5.326   2.047
 5854TIP3    H217506   2.219   5.376   1.925
 5855TIP3   OH217507   1.696   0.456   1.336
 5855TIP3    H117508   1.665   0.537   1.375
 5855TIP3    H217509   1.627   0.431   1.274
 5856TIP3   OH217510   3.793   1.551   3.406
 5856TIP3    H117511   3.751   1.567   3.491
 5856TIP3    H217512   3.885   1.573   3.419
 5857TIP3   OH217513   8.063   2.918   0.927
 5857TIP3    H117514   8.127   2.935   0.858
 5857TIP3    H217515   8.058   2.822   0.932
 5858TIP3   OH217516   3.762   6.688   4.308
 5858TIP3    H117517   3.838   6.690   4.250
 5858TIP3    H217518   3.786   6.627   4.377
 5859TIP3   OH217519   5.674   7.492   4.471
 5859TIP3    H117520   5.715   7.423   4.522
 5859TIP3    H217521   5.601   7.522   4.525
 5860TIP3   OH217522   0.574   1.650   5.477
 5860TIP3    H117523   0.561   1.744   5.492
 5860TIP3    H217524   0.553   1.638   5.384
 5861TIP3   OH217525   0.717   3.063   3.658
 5861TIP3    H117526   0.765   2.987   3.624
 5861TIP3    H217527   0.680   3.104   3.580
 5862TIP3   OH217528   3.187   3.801   1.559
 5862TIP3    H117529   3.207   3.893   1.578
 5862TIP3    H217530   3.206   3.791   1.466
 5863TIP3   OH217531   5.977   3.318   5.522
 5863TIP3    H117532   5.970   3.383   5.591
 5863TIP3    H217533   6.060   3.340   5.477
 5864TIP3   OH217534   5.103   4.746   4.754
 5864TIP3    H117535   5.009   4.748   4.741
 5864TIP3    H217536   5.139   4.740   4.665
 5865TIP3   OH217537   5.113   1.825   1.834
 5865TIP3    H117538   5.193   1.793   1.876
 5865TIP3    H217539   5.066   1.872   1.902
 5866TIP3   OH217540   1.068   7.150   6.458
 5866TIP3    H117541   1.018   7.075   6.426
 5866TIP3    H217542   1.106   7.189   6.380
 5867TIP3   OH217543   0.140   7.656   3.151
 5867TIP3    H117544   0.088   7.732   3.178
 5867TIP3    H217545   0.205   7.692   3.090
 5868TIP3   OH217546   6.992   7.124   5.137
 5868TIP3    H117547   6.991   7.219   5.142
 5868TIP3    H217548   7.045   7.096   5.212
 5869TIP3   OH217549   3.233   6.510   3.863
 5869TIP3    H117550   3.266   6.543   3.946
 5869TIP3    H217551   3.146   6.475   3.883
 5870TIP3   OH217552   6.009   3.362   4.174
 5870TIP3    H117553   5.943   3.361   4.106
 5870TIP3    H217554   5.961   3.345   4.255
 5871TIP3   OH217555   7.302   1.152   4.622
 5871TIP3    H117556   7.221   1.121   4.663
 5871TIP3    H217557   7.361   1.077   4.626
 5872TIP3   OH217558   1.129   4.614   5.329
 5872TIP3    H117559   1.079   4.610   5.247
 5872TIP3    H217560   1.118   4.704   5.360
 5873TIP3   OH217561   5.416   3.724   0.366
 5873TIP3    H117562   5.470   3.701   0.442
 5873TIP3    H217563   5.443   3.812   0.343
 5874TIP3   OH217564   8.223   4.561   5.738
 5874TIP3    H117565   8.301   4.533   5.689
 5874TIP3    H217566   8.208   4.491   5.801
 5875TIP3   OH217567   4.093   6.754   4.895
 5875TIP3    H117568   4.032   6.711   4.835
 5875TIP3    H217569   4.043   6.825   4.934
 5876TIP3   OH217570   6.238   7.225   1.559
 5876TIP3    H117571   6.202   7.242   1.646
 5876TIP3    H217572   6.198   7.142   1.533
 5877TIP3   OH217573   4.246   4.030   0.234
 5877TIP3    H117574   4.292   3.985   0.305
 5877TIP3    H217575   4.314   4.053   0.171
 5878TIP3   OH217576   5.573   6.477   4.528
 5878TIP3    H117577   5.496   6.470   4.584
 5878TIP3    H217578   5.597   6.569   4.530
 5879TIP3   OH217579   0.418   3.969   2.408
 5879TIP3    H117580   0.476   3.949   2.482
 5879TIP3    H217581   0.333   3.934   2.435
 5880TIP3   OH217582   3.484   2.803   3.678
 5880TIP3    H117583   3.415   2.761   3.730
 5880TIP3    H217584   3.462   2.782   3.587
 5881TIP3   OH217585   3.815   6.432   0.045
 5881TIP3    H117586   3.753   6.384  -0.011
 5881TIP3    H217587   3.843   6.506  -0.010
 5882TIP3   OH217588   3.477   6.924   3.512
 5882TIP3    H117589   3.500   6.861   3.443
 5882TIP3    H217590   3.561   6.948   3.551
 5883TIP3   OH217591   2.772   7.151   4.039
 5883TIP3    H117592   2.822   7.220   3.996
 5883TIP3    H217593   2.717   7.113   3.970
 5884TIP3   OH217594   4.675   6.129   3.593
 5884TIP3    H117595   4.584   6.150   3.610
 5884TIP3    H217596   4.714   6.210   3.560
 5885TIP3   OH217597   5.289   3.077   0.619
 5885TIP3    H117598   5.327   2.989   0.610
 5885TIP3    H217599   5.195   3.062   0.626
 5886TIP3   OH217600   1.726   0.044   6.363
 5886TIP3    H117601   1.657  -0.022   6.364
 5886TIP3    H217602   1.785   0.016   6.293
 5887TIP3   OH217603   2.823   5.193   4.732
 5887TIP3    H117604   2.787   5.217   4.817
 5887TIP3    H217605   2.813   5.098   4.727
 5888TIP3   OH217606   8.069   2.780   2.980
 5888TIP3    H117607   8.077   2.703   2.924
 5888TIP3    H217608   8.142   2.773   3.041
 5889TIP3   OH217609   2.837   1.421   3.383
 5889TIP3    H117610   2.897   1.459   3.447
 5889TIP3    H217611   2.891   1.360   3.333
 5890TIP3   OH217612   4.533   5.957   3.375
 5890TIP3    H117613   4.604   5.989   3.320
 5890TIP3    H217614   4.532   5.862   3.361
 5891TIP3   OH217615   2.495   7.335   0.944
 5891TIP3    H117616   2.455   7.288   1.018
 5891TIP3    H217617   2.528   7.265   0.887
 5892TIP3   OH217618   8.043   3.173   3.710
 5892TIP3    H117619   8.103   3.175   3.785
 5892TIP3    H217620   8.086   3.116   3.647
 5893TIP3   OH217621   1.712   5.773   4.413
 5893TIP3    H117622   1.676   5.790   4.326
 5893TIP3    H217623   1.638   5.787   4.473
 5894TIP3   OH217624   6.902   4.638   6.282
 5894TIP3    H117625   6.908   4.642   6.187
 5894TIP3    H217626   6.971   4.696   6.313
 5895TIP3   OH217627   0.996   3.146   1.496
 5895TIP3    H117628   0.932   3.081   1.526
 5895TIP3    H217629   1.045   3.101   1.427
 5896TIP3   OH217630   3.816   1.357   1.340
 5896TIP3    H117631   3.853   1.288   1.395
 5896TIP3    H217632   3.782   1.311   1.263
 5897TIP3   OH217633   1.778   2.782   3.594
 5897TIP3    H117634   1.766   2.873   3.622
 5897TIP3    H217635   1.872   2.772   3.584
 5898TIP3   OH217636   6.745   4.788   4.222
 5898TIP3    H117637   6.829   4.833   4.217
 5898TIP3    H217638   6.727   4.781   4.316
 5899TIP3   OH217639   5.938   1.221   1.514
 5899TIP3    H117640   5.991   1.211   1.594
 5899TIP3    H217641   5.852   1.186   1.538
 5900TIP3   OH217642   3.055   7.061   5.350
 5900TIP3    H117643   2.964   7.033   5.359
 5900TIP3    H217644   3.065   7.080   5.257
 5901TIP3   OH217645   7.129   2.580   0.981
 5901TIP3    H117646   7.095   2.639   1.048
 5901TIP3    H217647   7.053   2.559   0.927
 5902TIP3   OH217648   3.810   7.400   3.800
 5902TIP3    H117649   3.746   7.422   3.732
 5902TIP3    H217650   3.852   7.483   3.822
 5903TIP3   OH217651   4.488   1.321   4.057
 5903TIP3    H117652   4.579   1.333   4.033
 5903TIP3    H217653   4.491   1.294   4.149
 5904TIP3   OH217654   7.992   4.405   0.802
 5904TIP3    H117655   7.999   4.312   0.780
 5904TIP3    H217656   7.964   4.407   0.893
 5905TIP3   OH217657   6.642   5.814   6.174
 5905TIP3    H117658   6.570   5.839   6.232
 5905TIP3    H217659   6.623   5.723   6.151
 5906TIP3   OH217660   1.269   0.845   0.175
 5906TIP3    H117661   1.235   0.772   0.124
 5906TIP3    H217662   1.323   0.894   0.113
 5907TIP3   OH217663   4.067   2.463   2.006
 5907TIP3    H117664   4.006   2.404   1.961
 5907TIP3    H217665   4.010   2.524   2.053
 5908TIP3   OH217666   4.130   3.022   5.006
 5908TIP3    H117667   4.076   2.987   5.077
 5908TIP3    H217668   4.131   3.117   5.022
 5909TIP3   OH217669   4.533   5.401   6.509
 5909TIP3    H117670   4.548   5.395   6.603
 5909TIP3    H217671   4.438   5.392   6.499
 5910TIP3   OH217672   0.278   7.340   0.931
 5910TIP3    H117673   0.226   7.418   0.908
 5910TIP3    H217674   0.230   7.299   1.002
 5911TIP3   OH217675   0.697   5.343   5.319
 5911TIP3    H117676   0.771   5.294   5.354
 5911TIP3    H217677   0.719   5.359   5.227
 5912TIP3   OH217678   5.737   0.705   4.215
 5912TIP3    H117679   5.783   0.630   4.254
 5912TIP3    H217680   5.647   0.674   4.204
 5913TIP3   OH217681   5.696   3.446   1.241
 5913TIP3    H117682   5.775   3.496   1.265
 5913TIP3    H217683   5.651   3.433   1.324
 5914TIP3   OH217684   7.941   5.535   2.616
 5914TIP3    H117685   8.002   5.485   2.562
 5914TIP3    H217686   7.959   5.507   2.705
 5915TIP3   OH217687   3.898   7.723   1.375
 5915TIP3    H117688   3.968   7.788   1.369
 5915TIP3    H217689   3.821   7.772   1.404
 5916TIP3   OH217690   0.994   1.406   0.620
 5916TIP3    H117691   1.057   1.336   0.602
 5916TIP3    H217692   0.957   1.428   0.535
 5917TIP3   OH217693   3.743   6.302   4.109
 5917TIP3    H117694   3.767   6.257   4.189
 5917TIP3    H217695   3.744   6.234   4.042
 5918TIP3   OH217696   1.957   1.613   1.075
 5918TIP3    H117697   1.937   1.527   1.038
 5918TIP3    H217698   1.933   1.605   1.168
 5919TIP3   OH217699   2.907   7.315   1.073
 5919TIP3    H117700   2.983   7.373   1.080
 5919TIP3    H217701   2.888   7.289   1.163
 5920TIP3   OH217702   4.359   3.258   0.389
 5920TIP3    H117703   4.423   3.227   0.326
 5920TIP3    H217704   4.353   3.352   0.374
 5921TIP3   OH217705   0.057   6.339   5.247
 5921TIP3    H117706  -0.010   6.400   5.216
 5921TIP3    H217707   0.027   6.314   5.334
 5922TIP3   OH217708   7.503   1.823   2.945
 5922TIP3    H117709   7.505   1.791   3.035
 5922TIP3    H217710   7.442   1.897   2.948
 5923TIP3   OH217711   6.023   7.240   2.097
 5923TIP3    H117712   6.017   7.199   2.011
 5923TIP3    H217713   6.113   7.271   2.103
 5924TIP3   OH217714   2.042   5.634   2.886
 5924TIP3    H117715   2.110   5.567   2.885
 5924TIP3    H217716   2.041   5.669   2.797
 5925TIP3   OH217717   4.631   4.827   0.588
 5925TIP3    H117718   4.623   4.732   0.594
 5925TIP3    H217719   4.655   4.855   0.676
 5926TIP3   OH217720   4.677   6.890   4.327
 5926TIP3    H117721   4.596   6.891   4.378
 5926TIP3    H217722   4.665   6.956   4.259
 5927TIP3   OH217723   0.427   3.721   0.769
 5927TIP3    H117724   0.419   3.626   0.776
 5927TIP3    H217725   0.343   3.755   0.801
 5928TIP3   OH217726   8.186   0.779   4.095
 5928TIP3    H117727   8.115   0.833   4.130
 5928TIP3    H217728   8.262   0.803   4.148
 5929TIP3   OH217729   1.360   0.204   5.612
 5929TIP3    H117730   1.385   0.220   5.521
 5929TIP3    H217731   1.430   0.148   5.647
 5930TIP3   OH217732   6.099   3.206   2.445
 5930TIP3    H117733   6.013   3.229   2.482
 5930TIP3    H217734   6.147   3.289   2.444
 5931TIP3   OH217735   2.534   2.703   0.968
 5931TIP3    H117736   2.460   2.692   0.908
 5931TIP3    H217737   2.498   2.684   1.055
 5932TIP3   OH217738   1.008   0.761   5.202
 5932TIP3    H117739   0.939   0.697   5.185
 5932TIP3    H217740   0.975   0.813   5.276
 5933TIP3   OH217741   4.713   4.082   4.684
 5933TIP3    H117742   4.799   4.092   4.641
 5933TIP3    H217743   4.726   4.011   4.747
 5934TIP3   OH217744   6.252   3.083   5.791
 5934TIP3    H117745   6.336   3.038   5.798
 5934TIP3    H217746   6.187   3.012   5.791
 5935TIP3   OH217747   0.392   0.760   3.914
 5935TIP3    H117748   0.478   0.739   3.875
 5935TIP3    H217749   0.350   0.815   3.848
 5936TIP3   OH217750   3.579   4.227   3.249
 5936TIP3    H117751   3.569   4.176   3.169
 5936TIP3    H217752   3.628   4.170   3.308
 5937TIP3   OH217753   0.827   0.562   1.775
 5937TIP3    H117754   0.885   0.533   1.704
 5937TIP3    H217755   0.754   0.605   1.730
 5938TIP3   OH217756   7.010   1.310   6.376
 5938TIP3    H117757   7.025   1.226   6.420
 5938TIP3    H217758   6.978   1.286   6.289
 5939TIP3   OH217759   0.403   7.424   3.991
 5939TIP3    H117760   0.371   7.462   4.073
 5939TIP3    H217761   0.457   7.492   3.952
 5940TIP3   OH217762   3.763   6.125   5.905
 5940TIP3    H117763   3.780   6.107   5.997
 5940TIP3    H217764   3.826   6.071   5.857
 5941TIP3   OH217765   1.468   0.088   3.641
 5941TIP3    H117766   1.550   0.049   3.672
 5941TIP3    H217767   1.458   0.055   3.551
 5942TIP3   OH217768   3.510   1.754   2.454
 5942TIP3    H117769   3.448   1.793   2.393
 5942TIP3    H217770   3.473   1.771   2.540
 5943TIP3   OH217771   4.448   2.995   4.051
 5943TIP3    H117772   4.427   2.902   4.058
 5943TIP3    H217773   4.539   3.002   4.078
 5944TIP3   OH217774   0.540   2.686   5.054
 5944TIP3    H117775   0.552   2.727   5.140
 5944TIP3    H217776   0.615   2.715   5.003
 5945TIP3   OH217777   0.371   0.993   2.731
 5945TIP3    H117778   0.314   0.926   2.695
 5945TIP3    H217779   0.435   0.944   2.784
 5946TIP3   OH217780   3.735   3.250   0.860
 5946TIP3    H117781   3.827   3.225   0.868
 5946TIP3    H217782   3.729   3.294   0.776
 5947TIP3   OH217783   2.238   5.499   1.393
 5947TIP3    H117784   2.164   5.559   1.401
 5947TIP3    H217785   2.216   5.445   1.317
 5948TIP3   OH217786   7.670   7.727   6.325
 5948TIP3    H117787   7.614   7.752   6.251
 5948TIP3    H217788   7.610   7.690   6.389
 5949TIP3   OH217789   3.138   4.835   2.420
 5949TIP3    H117790   3.151   4.741   2.432
 5949TIP3    H217791   3.044   4.848   2.432
 5950TIP3   OH217792  -0.022   3.889   2.305
 5950TIP3    H117793   0.040   3.865   2.236
 5950TIP3    H217794  -0.018   3.817   2.367
 5951TIP3   OH217795   6.306   0.599   3.234
 5951TIP3    H117796   6.279   0.663   3.168
 5951TIP3    H217797   6.373   0.644   3.286
 5952TIP3   OH217798   4.732   5.324   2.925
 5952TIP3    H117799   4.672   5.364   2.861
 5952TIP3    H217800   4.695   5.237   2.941
 5953TIP3   OH217801   7.475   5.250   0.130
 5953TIP3    H117802   7.446   5.164   0.100
 5953TIP3    H217803   7.448   5.310   0.061
 5954TIP3   OH217804   3.342   7.205   1.755
 5954TIP3    H117805   3.340   7.176   1.846
 5954TIP3    H217806   3.289   7.285   1.754
 5955TIP3   OH217807   6.052   7.528   2.087
 5955TIP3    H117808   5.991   7.459   2.111
 5955TIP3    H217809   6.138   7.487   2.093
 5956TIP3   OH217810   5.367   5.767   2.683
 5956TIP3    H117811   5.440   5.705   2.684
 5956TIP3    H217812   5.407   5.851   2.661
 5957TIP3   OH217813   6.327   5.499   4.047
 5957TIP3    H117814   6.369   5.442   3.984
 5957TIP3    H217815   6.317   5.445   4.126
 5958TIP3   OH217816   0.591   2.666   3.791
 5958TIP3    H117817   0.608   2.595   3.853
 5958TIP3    H217818   0.496   2.672   3.786
 5959TIP3   OH217819   5.511   5.552   1.993
 5959TIP3    H117820   5.504   5.647   1.985
 5959TIP3    H217821   5.441   5.528   2.054
 5960TIP3   OH217822   2.386   6.140   4.454
 5960TIP3    H117823   2.337   6.059   4.468
 5960TIP3    H217824   2.440   6.149   4.534
 5961TIP3   OH217825   5.629   2.441   4.055
 5961TIP3    H117826   5.661   2.380   3.989
 5961TIP3    H217827   5.542   2.467   4.024
 5962TIP3   OH217828   2.642   3.316   0.338
 5962TIP3    H117829   2.574   3.377   0.367
 5962TIP3    H217830   2.641   3.246   0.403
 5963TIP3   OH217831   0.848   0.925   2.708
 5963TIP3    H117832   0.884   0.916   2.797
 5963TIP3    H217833   0.818   1.016   2.704
 5964TIP3   OH217834   2.341   2.251   6.063
 5964TIP3    H117835   2.259   2.204   6.076
 5964TIP3    H217836   2.325   2.337   6.102
 5965TIP3   OH217837   7.221   3.429   6.730
 5965TIP3    H117838   7.285   3.484   6.775
 5965TIP3    H217839   7.242   3.340   6.758
 5966TIP3   OH217840   1.959   4.390   1.687
 5966TIP3    H117841   1.868   4.386   1.717
 5966TIP3    H217842   2.011   4.380   1.767
 5967TIP3   OH217843   5.549   5.909   2.440
 5967TIP3    H117844   5.574   5.989   2.485
 5967TIP3    H217845   5.453   5.907   2.446
 5968TIP3   OH217846   4.458   5.987   1.639
 5968TIP3    H117847   4.439   5.901   1.601
 5968TIP3    H217848   4.517   6.028   1.576
 5969TIP3   OH217849   3.371   5.769   6.211
 5969TIP3    H117850   3.296   5.721   6.177
 5969TIP3    H217851   3.338   5.816   6.287
 5970TIP3   OH217852   1.305   5.895   4.423
 5970TIP3    H117853   1.262   5.896   4.508
 5970TIP3    H217854   1.272   5.816   4.380
 5971TIP3   OH217855   8.162   5.046   1.666
 5971TIP3    H117856   8.118   5.037   1.750
 5971TIP3    H217857   8.254   5.026   1.686
 5972TIP3   OH217858   3.791   0.904   3.102
 5972TIP3    H117859   3.830   0.822   3.071
 5972TIP3    H217860   3.779   0.892   3.196
 5973TIP3   OH217861   3.365   5.425   6.739
 5973TIP3    H117862   3.371   5.390   6.650
 5973TIP3    H217863   3.334   5.352   6.792
 5974TIP3   OH217864   3.490   2.880   1.014
 5974TIP3    H117865   3.486   2.975   1.013
 5974TIP3    H217866   3.584   2.859   1.019
 5975TIP3   OH217867   4.319   6.256   3.764
 5975TIP3    H117868   4.345   6.298   3.682
 5975TIP3    H217869   4.251   6.194   3.738
 5976TIP3   OH217870   2.054   6.938   2.650
 5976TIP3    H117871   2.087   6.890   2.574
 5976TIP3    H217872   1.979   6.887   2.679
 5977TIP3   OH217873   6.581   5.240   6.038
 5977TIP3    H117874   6.654   5.295   6.013
 5977TIP3    H217875   6.558   5.191   5.959
 5978TIP3   OH217876   7.255   3.592   1.990
 5978TIP3    H117877   7.218   3.515   2.034
 5978TIP3    H217878   7.199   3.665   2.017
 5979TIP3   OH217879   0.310   6.422   0.360
 5979TIP3    H117880   0.322   6.353   0.426
 5979TIP3    H217881   0.392   6.473   0.364
 5980TIP3   OH217882   4.504   4.667   2.005
 5980TIP3    H117883   4.582   4.693   2.054
 5980TIP3    H217884   4.495   4.735   1.938
 5981TIP3   OH217885   3.344   0.780   5.249
 5981TIP3    H117886   3.328   0.689   5.222
 5981TIP3    H217887   3.420   0.808   5.198
 5982TIP3   OH217888   6.843   7.471   6.283
 5982TIP3    H117889   6.799   7.512   6.357
 5982TIP3    H217890   6.786   7.488   6.208
 5983TIP3   OH217891   2.714   3.520   4.531
 5983TIP3    H117892   2.803   3.535   4.500
 5983TIP3    H217893   2.722   3.516   4.626
 5984TIP3   OH217894   4.499   7.009   6.582
 5984TIP3    H117895   4.469   7.089   6.626
 5984TIP3    H217896   4.539   6.958   6.651
 5985TIP3   OH217897   1.100   3.224   6.660
 5985TIP3    H117898   1.055   3.236   6.576
 5985TIP3    H217899   1.031   3.231   6.726
 5986TIP3   OH217900   3.954   1.221   5.660
 5986TIP3    H117901   3.926   1.194   5.747
 5986TIP3    H217902   4.004   1.146   5.626
 5987TIP3   OH217903   3.402   6.754   5.848
 5987TIP3    H117904   3.470   6.692   5.873
 5987TIP3    H217905   3.413   6.764   5.753
 5988TIP3   OH217906   6.165   3.673   1.279
 5988TIP3    H117907   6.146   3.579   1.280
 5988TIP3    H217908   6.247   3.681   1.326
 5989TIP3   OH217909   5.795   7.464   3.399
 5989TIP3    H117910   5.807   7.457   3.494
 5989TIP3    H217911   5.854   7.398   3.363
 5990TIP3   OH217912   7.378   2.465   1.989
 5990TIP3    H117913   7.471   2.454   1.966
 5990TIP3    H217914   7.337   2.384   1.959
 5991TIP3   OH217915   5.788   5.581   0.731
 5991TIP3    H117916   5.786   5.676   0.722
 5991TIP3    H217917   5.761   5.565   0.822
 5992TIP3   OH217918   3.141   4.795   2.130
 5992TIP3    H117919   3.148   4.819   2.223
 5992TIP3    H217920   3.065   4.736   2.127
 5993TIP3   OH217921   8.244   2.178   1.871
 5993TIP3    H117922   8.184   2.128   1.926
 5993TIP3    H217923   8.276   2.115   1.807
 5994TIP3   OH217924   8.201   6.120   5.784
 5994TIP3    H117925   8.245   6.205   5.792
 5994TIP3    H217926   8.271   6.056   5.793
 5995TIP3   OH217927   3.481   3.372   4.295
 5995TIP3    H117928   3.529   3.394   4.215
 5995TIP3    H217929   3.483   3.276   4.299
 5996TIP3   OH217930   0.736   7.809   6.326
 5996TIP3    H117931   0.816   7.859   6.342
 5996TIP3    H217932   0.718   7.764   6.408
 5997TIP3   OH217933   2.889   3.037   2.249
 5997TIP3    H117934   2.854   3.104   2.190
 5997TIP3    H217935   2.827   2.964   2.243
 5998TIP3   OH217936   7.591   2.653   3.896
 5998TIP3    H117937   7.684   2.676   3.893
 5998TIP3    H217938   7.546   2.736   3.909
 5999TIP3   OH217939   5.798   4.662   5.713
 5999TIP3    H117940   5.767   4.606   5.642
 5999TIP3    H217941   5.872   4.613   5.751
 6000TIP3   OH217942   6.497   3.747   1.895
 6000TIP3    H117943   6.448   3.669   1.922
 6000TIP3    H217944   6.446   3.820   1.930
 6001TIP3   OH217945   4.169   2.934   4.361
 6001TIP3    H117946   4.206   2.985   4.288
 6001TIP3    H217947   4.245   2.903   4.409
 6002TIP3   OH217948   0.695   5.460   4.497
 6002TIP3    H117949   0.657   5.540   4.460
 6002TIP3    H217950   0.628   5.393   4.484
 6003TIP3   OH217951   3.682   3.945   0.213
 6003TIP3    H117952   3.695   3.857   0.177
 6003TIP3    H217953   3.756   3.996   0.178
 6004TIP3   OH217954   7.338   2.341   2.564
 6004TIP3    H117955   7.248   2.373   2.556
 6004TIP3    H217956   7.391   2.420   2.572
 6005TIP3   OH217957   0.759   4.838   3.865
 6005TIP3    H117958   0.718   4.896   3.800
 6005TIP3    H217959   0.787   4.897   3.934
 6006TIP3   OH217960   1.707   1.995   1.962
 6006TIP3    H117961   1.680   1.903   1.971
 6006TIP3    H217962   1.625   2.045   1.973
 6007TIP3   OH217963   3.277   3.541   6.395
 6007TIP3    H117964   3.340   3.604   6.360
 6007TIP3    H217965   3.261   3.571   6.485
 6008TIP3   OH217966   5.461   2.621   2.657
 6008TIP3    H117967   5.392   2.678   2.692
 6008TIP3    H217968   5.527   2.682   2.624
 6009TIP3   OH217969   3.010   7.155   3.103
 6009TIP3    H117970   2.931   7.196   3.138
 6009TIP3    H217971   2.988   7.062   3.096
 6010TIP3   OH217972   4.882   2.944   3.100
 6010TIP3    H117973   4.905   3.015   3.161
 6010TIP3    H217974   4.830   2.883   3.153
 6011TIP3   OH217975   1.314   3.860   1.347
 6011TIP3    H117976   1.338   3.931   1.406
 6011TIP3    H217977   1.225   3.837   1.373
 6012TIP3   OH217978   2.256   0.198   5.230
 6012TIP3    H117979   2.351   0.197   5.246
 6012TIP3    H217980   2.247   0.172   5.138
 6013TIP3   OH217981   8.111   3.671   6.703
 6013TIP3    H117982   8.153   3.728   6.638
 6013TIP3    H217983   8.172   3.599   6.714
 6014TIP3   OH217984   1.822   1.057   6.719
 6014TIP3    H117985   1.802   1.091   6.632
 6014TIP3    H217986   1.917   1.057   6.725
 6015TIP3   OH217987   6.407   1.353   2.505
 6015TIP3    H117988   6.460   1.359   2.585
 6015TIP3    H217989   6.317   1.361   2.535
 6016TIP3   OH217990   1.501   7.226   3.314
 6016TIP3    H117991   1.535   7.199   3.228
 6016TIP3    H217992   1.406   7.225   3.303
 6017TIP3   OH217993   2.447   7.348   1.838
 6017TIP3    H117994   2.418   7.333   1.748
 6017TIP3    H217995   2.533   7.307   1.843
 6018TIP3   OH217996   7.681   3.744   4.645
 6018TIP3    H117997   7.715   3.660   4.612
 6018TIP3    H217998   7.711   3.747   4.736
 6019TIP3   OH217999   4.621   0.623   4.440
 6019TIP3    H118000   4.640   0.716   4.431
 6019TIP3    H218001   4.683   0.592   4.506
 6020TIP3   OH218002   0.806   4.560   2.821
 6020TIP3    H118003   0.828   4.602   2.905
 6020TIP3    H218004   0.847   4.615   2.755
 6021TIP3   OH218005   3.674   5.235   4.968
 6021TIP3    H118006   3.620   5.183   5.027
 6021TIP3    H218007   3.712   5.303   5.024
 6022TIP3   OH218008   5.704   5.951   4.442
 6022TIP3    H118009   5.797   5.953   4.463
 6022TIP3    H218010   5.692   5.867   4.397
 6023TIP3   OH218011   5.749   3.806   1.708
 6023TIP3    H118012   5.780   3.891   1.675
 6023TIP3    H218013   5.815   3.743   1.677
 6024TIP3   OH218014  -0.007   3.886   3.343
 6024TIP3    H118015  -0.069   3.920   3.279
 6024TIP3    H218016   0.079   3.911   3.308
 6025TIP3   OH218017   1.254   4.257   2.729
 6025TIP3    H118018   1.173   4.266   2.779
 6025TIP3    H218019   1.242   4.314   2.652
 6026TIP3   OH218020   4.554   6.604   4.474
 6026TIP3    H118021   4.500   6.567   4.404
 6026TIP3    H218022   4.517   6.691   4.489
 6027TIP3   OH218023   2.332   5.846   4.999
 6027TIP3    H118024   2.386   5.767   4.999
 6027TIP3    H218025   2.395   5.918   5.005
 6028TIP3   OH218026   0.784   0.210   1.872
 6028TIP3    H118027   0.744   0.192   1.787
 6028TIP3    H218028   0.878   0.207   1.856
 6029TIP3   OH218029   5.743   3.207   2.712
 6029TIP3    H118030   5.719   3.296   2.737
 6029TIP3    H218031   5.683   3.185   2.640
 6030TIP3   OH218032   4.367   5.116   6.612
 6030TIP3    H118033   4.450   5.068   6.601
 6030TIP3    H218034   4.308   5.051   6.650
 6031TIP3   OH218035   5.346   5.483   5.376
 6031TIP3    H118036   5.373   5.430   5.451
 6031TIP3    H218037   5.251   5.493   5.387
 6032TIP3   OH218038   6.910   0.136   1.609
 6032TIP3    H118039   6.830   0.148   1.559
 6032TIP3    H218040   6.928   0.222   1.647
 6033TIP3   OH218041   7.629   5.660   3.826
 6033TIP3    H118042   7.662   5.573   3.846
 6033TIP3    H218043   7.630   5.706   3.910
 6034TIP3   OH218044   0.433   5.801   0.331
 6034TIP3    H118045   0.455   5.863   0.263
 6034TIP3    H218046   0.517   5.764   0.359
 6035TIP3   OH218047   3.545   7.498   3.133
 6035TIP3    H118048   3.566   7.476   3.223
 6035TIP3    H218049   3.452   7.520   3.135
 6036TIP3   OH218050   8.277   4.872   5.130
 6036TIP3    H118051   8.362   4.910   5.149
 6036TIP3    H218052   8.216   4.946   5.135
 6037TIP3   OH218053   6.036   0.548   4.853
 6037TIP3    H118054   5.986   0.467   4.861
 6037TIP3    H218055   6.018   0.579   4.764
 6038TIP3   OH218056   5.098   5.811   5.484
 6038TIP3    H118057   5.107   5.816   5.389
 6038TIP3    H218058   5.144   5.887   5.517
 6039TIP3   OH218059   6.313   4.020   5.942
 6039TIP3    H118060   6.261   4.004   5.863
 6039TIP3    H218061   6.402   3.995   5.918
 6040TIP3   OH218062   6.850   2.853   6.230
 6040TIP3    H118063   6.757   2.870   6.213
 6040TIP3    H218064   6.870   2.901   6.310
 6041TIP3   OH218065   0.558   5.001   4.917
 6041TIP3    H118066   0.493   4.979   4.850
 6041TIP3    H218067   0.540   4.942   4.990
 6042TIP3   OH218068   6.634   7.236   0.816
 6042TIP3    H118069   6.659   7.313   0.867
 6042TIP3    H218070   6.550   7.260   0.776
 6043TIP3   OH218071   6.683   3.077   0.177
 6043TIP3    H118072   6.716   3.031   0.254
 6043TIP3    H218073   6.645   3.008   0.122
 6044TIP3   OH218074   5.860   6.293   5.840
 6044TIP3    H118075   5.952   6.307   5.864
 6044TIP3    H218076   5.822   6.246   5.915
 6045TIP3   OH218077   7.140   3.657   2.456
 6045TIP3    H118078   7.194   3.660   2.377
 6045TIP3    H218079   7.203   3.661   2.528
 6046TIP3   OH218080   7.094   2.117   4.064
 6046TIP3    H118081   7.129   2.200   4.098
 6046TIP3    H218082   7.140   2.049   4.113
 6047TIP3   OH218083   7.907   4.180   5.935
 6047TIP3    H118084   7.872   4.206   5.850
 6047TIP3    H218085   7.956   4.099   5.917
 6048TIP3   OH218086   6.679   5.115   3.551
 6048TIP3    H118087   6.608   5.140   3.492
 6048TIP3    H218088   6.757   5.112   3.496
 6049TIP3   OH218089   7.384   6.227   4.136
 6049TIP3    H118090   7.442   6.156   4.108
 6049TIP3    H218091   7.312   6.182   4.181
 6050TIP3   OH218092   0.566   2.656   6.112
 6050TIP3    H118093   0.499   2.724   6.111
 6050TIP3    H218094   0.606   2.659   6.025
 6051TIP3   OH218095   1.064   6.349   4.077
 6051TIP3    H118096   1.141   6.357   4.134
 6051TIP3    H218097   0.990   6.349   4.138
 6052TIP3   OH218098   4.763   0.577   1.287
 6052TIP3    H118099   4.678   0.577   1.244
 6052TIP3    H218100   4.825   0.553   1.217
 6053TIP3   OH218101   7.862   0.679   4.789
 6053TIP3    H118102   7.816   0.755   4.753
 6053TIP3    H218103   7.949   0.712   4.811
 6054TIP3   OH218104   1.572   5.737   1.830
 6054TIP3    H118105   1.550   5.726   1.922
 6054TIP3    H218106   1.587   5.831   1.820
 6055TIP3   OH218107   3.783   6.768   0.499
 6055TIP3    H118108   3.716   6.824   0.539
 6055TIP3    H218109   3.830   6.826   0.438
 6056TIP3   OH218110   7.649   3.932   2.428
 6056TIP3    H118111   7.640   3.981   2.509
 6056TIP3    H218112   7.561   3.932   2.390
 6057TIP3   OH218113   7.413   0.851   5.131
 6057TIP3    H118114   7.409   0.755   5.122
 6057TIP3    H218115   7.340   0.873   5.189
 6058TIP3   OH218116   0.969   4.210   1.257
 6058TIP3    H118117   0.883   4.182   1.224
 6058TIP3    H218118   1.024   4.217   1.179
 6059TIP3   OH218119   3.301   0.579   0.648
 6059TIP3    H118120   3.258   0.531   0.719
 6059TIP3    H218121   3.369   0.519   0.617
 6060TIP3   OH218122   6.121   6.248   3.501
 6060TIP3    H118123   6.040   6.286   3.467
 6060TIP3    H218124   6.113   6.256   3.596
 6061TIP3   OH218125   2.156   2.124   6.748
 6061TIP3    H118126   2.146   2.139   6.654
 6061TIP3    H218127   2.128   2.034   6.762
 6062TIP3   OH218128   3.373   6.783   0.118
 6062TIP3    H118129   3.366   6.699   0.163
 6062TIP3    H218130   3.431   6.766   0.044
 6063TIP3   OH218131   7.355   0.986   0.538
 6063TIP3    H118132   7.313   0.904   0.565
 6063TIP3    H218133   7.303   1.055   0.578
 6064TIP3   OH218134   7.471   5.617   1.773
 6064TIP3    H118135   7.389   5.616   1.723
 6064TIP3    H218136   7.516   5.537   1.746
 6065TIP3   OH218137   2.500   3.219   0.841
 6065TIP3    H118138   2.519   3.241   0.932
 6065TIP3    H218139   2.453   3.136   0.846
 6066TIP3   OH218140   6.681   1.571   0.821
 6066TIP3    H118141   6.726   1.628   0.883
 6066TIP3    H218142   6.593   1.560   0.857
 6067TIP3   OH218143   7.382   0.921   6.021
 6067TIP3    H118144   7.451   0.984   6.003
 6067TIP3    H218145   7.404   0.845   5.967
 6068TIP3   OH218146   0.607   5.827   2.512
 6068TIP3    H118147   0.513   5.815   2.502
 6068TIP3    H218148   0.633   5.883   2.439
 6069TIP3   OH218149   6.959   0.723   3.751
 6069TIP3    H118150   6.977   0.630   3.764
 6069TIP3    H218151   7.040   0.767   3.778
 6070TIP3   OH218152   3.122   1.085   3.920
 6070TIP3    H118153   3.198   1.120   3.875
 6070TIP3    H218154   3.054   1.079   3.852
 6071TIP3   OH218155   7.659   0.083   0.981
 6071TIP3    H118156   7.729   0.043   1.032
 6071TIP3    H218157   7.599   0.011   0.961
 6072TIP3   OH218158   4.537   4.057   3.242
 6072TIP3    H118159   4.612   4.017   3.286
 6072TIP3    H218160   4.575   4.101   3.165
 6073TIP3   OH218161   7.895   2.370   0.536
 6073TIP3    H118162   7.880   2.460   0.507
 6073TIP3    H218163   7.864   2.369   0.627
 6074TIP3   OH218164   2.627   1.532   3.243
 6074TIP3    H118165   2.548   1.538   3.296
 6074TIP3    H218166   2.698   1.517   3.306
 6075TIP3   OH218167   7.080   2.805   4.205
 6075TIP3    H118168   7.003   2.754   4.177
 6075TIP3    H218169   7.045   2.869   4.267
 6076TIP3   OH218170   7.434   0.803   2.838
 6076TIP3    H118171   7.429   0.783   2.744
 6076TIP3    H218172   7.473   0.890   2.842
 6077TIP3   OH218173   4.408   7.416   2.448
 6077TIP3    H118174   4.411   7.332   2.402
 6077TIP3    H218175   4.366   7.476   2.387
 6078TIP3   OH218176   4.878   0.018   5.631
 6078TIP3    H118177   4.864   0.070   5.710
 6078TIP3    H218178   4.970   0.032   5.609
 6079TIP3   OH218179   8.209   2.071   4.495
 6079TIP3    H118180   8.212   2.162   4.526
 6079TIP3    H218181   8.201   2.079   4.400
 6080TIP3   OH218182   0.219   5.582   3.168
 6080TIP3    H118183   0.183   5.493   3.161
 6080TIP3    H218184   0.153   5.638   3.127
 6081TIP3   OH218185   3.979   2.900   2.424
 6081TIP3    H118186   3.969   2.971   2.487
 6081TIP3    H218187   3.983   2.943   2.339
 6082TIP3   OH218188   5.240   1.190   1.349
 6082TIP3    H118189   5.287   1.115   1.312
 6082TIP3    H218190   5.244   1.176   1.444
 6083TIP3   OH218191   1.614   1.662   3.336
 6083TIP3    H118192   1.683   1.625   3.280
 6083TIP3    H218193   1.578   1.586   3.382
 6084TIP3   OH218194   2.346   7.160   0.358
 6084TIP3    H118195   2.318   7.207   0.436
 6084TIP3    H218196   2.399   7.223   0.310
 6085TIP3   OH218197   6.103   4.097   6.098
 6085TIP3    H118198   6.184   4.079   6.050
 6085TIP3    H218199   6.130   4.098   6.190
 6086TIP3   OH218200   6.831   7.212   3.529
 6086TIP3    H118201   6.899   7.186   3.592
 6086TIP3    H218202   6.803   7.299   3.558
 6087TIP3   OH218203   6.197   5.189   1.831
 6087TIP3    H118204   6.262   5.255   1.808
 6087TIP3    H218205   6.230   5.151   1.913
 6088TIP3   OH218206   6.275   1.676   3.449
 6088TIP3    H118207   6.369   1.680   3.430
 6088TIP3    H218208   6.246   1.594   3.411
 6089TIP3   OH218209   0.139   6.993   5.637
 6089TIP3    H118210   0.168   7.047   5.711
 6089TIP3    H218211   0.208   6.926   5.629
 6090TIP3   OH218212   6.117   5.722   3.138
 6090TIP3    H118213   6.079   5.747   3.223
 6090TIP3    H218214   6.135   5.629   3.147
 6091TIP3   OH218215   4.124   6.957   6.043
 6091TIP3    H118216   4.126   7.032   5.983
 6091TIP3    H218217   4.058   6.898   6.006
 6092TIP3   OH218218   1.117   4.947   2.044
 6092TIP3    H118219   1.095   5.006   2.116
 6092TIP3    H218220   1.055   4.970   1.974
 6093TIP3   OH218221   6.438   0.300   5.873
 6093TIP3    H118222   6.457   0.220   5.822
 6093TIP3    H218223   6.377   0.271   5.941
 6094TIP3   OH218224   5.044   5.435   2.338
 6094TIP3    H118225   5.055   5.496   2.411
 6094TIP3    H218226   5.034   5.349   2.381
 6095TIP3   OH218227   0.510   3.184   1.628
 6095TIP3    H118228   0.586   3.132   1.654
 6095TIP3    H218229   0.450   3.121   1.589
 6096TIP3   OH218230   0.810   5.859   4.200
 6096TIP3    H118231   0.791   5.945   4.161
 6096TIP3    H218232   0.875   5.821   4.142
 6097TIP3   OH218233   1.782   0.497   6.341
 6097TIP3    H118234   1.871   0.526   6.320
 6097TIP3    H218235   1.725   0.552   6.286
 6098TIP3   OH218236   1.179   6.096   0.233
 6098TIP3    H118237   1.116   6.049   0.178
 6098TIP3    H218238   1.196   6.178   0.186
 6099TIP3   OH218239   4.009   3.392   0.291
 6099TIP3    H118240   4.084   3.332   0.284
 6099TIP3    H218241   3.968   3.369   0.374
 6100TIP3   OH218242   2.850   1.899   4.778
 6100TIP3    H118243   2.804   1.816   4.786
 6100TIP3    H218244   2.929   1.888   4.832
 6101TIP3   OH218245   6.355   5.982   1.686
 6101TIP3    H118246   6.372   5.930   1.765
 6101TIP3    H218247   6.312   6.061   1.717
 6102TIP3   OH218248   0.499   5.741   3.081
 6102TIP3    H118249   0.425   5.798   3.057
 6102TIP3    H218250   0.528   5.775   3.166
 6103TIP3   OH218251   2.011   7.513   4.811
 6103TIP3    H118252   2.001   7.596   4.765
 6103TIP3    H218253   1.985   7.533   4.901
 6104TIP3   OH218254   6.279   7.237   2.361
 6104TIP3    H118255   6.339   7.247   2.435
 6104TIP3    H218256   6.202   7.193   2.398
 6105TIP3   OH218257   5.574   0.913   1.034
 6105TIP3    H118258   5.659   0.918   1.079
 6105TIP3    H218259   5.588   0.850   0.963
 6106TIP3   OH218260   7.875   6.528   3.870
 6106TIP3    H118261   7.952   6.474   3.889
 6106TIP3    H218262   7.863   6.582   3.948
 6107TIP3   OH218263   4.225   1.385   4.195
 6107TIP3    H118264   4.290   1.455   4.190
 6107TIP3    H218265   4.234   1.338   4.112
 6108TIP3   OH218266   6.583   4.498   5.195
 6108TIP3    H118267   6.532   4.476   5.273
 6108TIP3    H218268   6.548   4.441   5.126
 6109TIP3   OH218269   0.170   7.580   4.224
 6109TIP3    H118270   0.115   7.609   4.152
 6109TIP3    H218271   0.125   7.504   4.261
 6110TIP3   OH218272   2.268   7.259   5.007
 6110TIP3    H118273   2.297   7.254   5.098
 6110TIP3    H218274   2.335   7.313   4.963
 6111TIP3   OH218275   4.509   6.293   2.269
 6111TIP3    H118276   4.414   6.289   2.278
 6111TIP3    H218277   4.528   6.385   2.249
 6112TIP3   OH218278   6.155   0.654   5.844
 6112TIP3    H118279   6.129   0.741   5.874
 6112TIP3    H218280   6.079   0.599   5.863
 6113TIP3   OH218281   2.367   6.639   3.321
 6113TIP3    H118282   2.346   6.586   3.244
 6113TIP3    H218283   2.288   6.635   3.375
 6114TIP3   OH218284   6.690   7.390   1.821
 6114TIP3    H118285   6.603   7.366   1.789
 6114TIP3    H218286   6.749   7.368   1.749
 6115TIP3   OH218287   6.119   1.012   1.892
 6115TIP3    H118288   6.208   1.012   1.927
 6115TIP3    H218289   6.103   1.103   1.865
 6116TIP3   OH218290   6.067   1.134   0.593
 6116TIP3    H118291   6.110   1.098   0.515
 6116TIP3    H218292   5.975   1.112   0.582
 6117TIP3   OH218293   1.220   0.105   3.744
 6117TIP3    H118294   1.153   0.080   3.680
 6117TIP3    H218295   1.300   0.118   3.692
 6118TIP3   OH218296   8.208   0.343   4.077
 6118TIP3    H118297   8.151   0.420   4.072
 6118TIP3    H218298   8.204   0.317   4.169
 6119TIP3   OH218299   8.048   0.242   5.326
 6119TIP3    H118300   7.961   0.255   5.362
 6119TIP3    H218301   8.042   0.278   5.237
 6120TIP3   OH218302   3.621   3.373   1.312
 6120TIP3    H118303   3.636   3.349   1.220
 6120TIP3    H218304   3.691   3.329   1.360
 6121TIP3   OH218305   7.510   0.135   1.255
 6121TIP3    H118306   7.478   0.225   1.258
 6121TIP3    H218307   7.447   0.088   1.200
 6122TIP3   OH218308   2.567   1.488   1.149
 6122TIP3    H118309   2.504   1.478   1.077
 6122TIP3    H218310   2.514   1.508   1.225
 6123TIP3   OH218311   2.069   5.549   6.399
 6123TIP3    H118312   2.070   5.470   6.345
 6123TIP3    H218313   2.087   5.620   6.337
 6124TIP3   OH218314   2.968   4.728   2.820
 6124TIP3    H118315   2.931   4.640   2.805
 6124TIP3    H218316   2.918   4.785   2.762
 6125TIP3   OH218317   5.288   4.361   1.208
 6125TIP3    H118318   5.276   4.410   1.126
 6125TIP3    H218319   5.203   4.318   1.223
 6126TIP3   OH218320   1.736   3.090   4.951
 6126TIP3    H118321   1.807   3.154   4.949
 6126TIP3    H218322   1.691   3.108   5.034
 6127TIP3   OH218323   6.352   6.579   2.636
 6127TIP3    H118324   6.278   6.635   2.659
 6127TIP3    H218325   6.312   6.496   2.610
 6128TIP3   OH218326   3.749   2.333   3.309
 6128TIP3    H118327   3.768   2.421   3.278
 6128TIP3    H218328   3.672   2.305   3.259
 6129TIP3   OH218329   2.892   3.059   2.523
 6129TIP3    H118330   2.914   3.015   2.441
 6129TIP3    H218331   2.948   3.018   2.588
 6130TIP3   OH218332   2.552   2.658   2.143
 6130TIP3    H118333   2.555   2.680   2.050
 6130TIP3    H218334   2.554   2.562   2.144
 6131TIP3   OH218335   5.159   3.419   2.820
 6131TIP3    H118336   5.140   3.410   2.913
 6131TIP3    H218337   5.233   3.479   2.815
 6132TIP3   OH218338   7.591   4.519   3.161
 6132TIP3    H118339   7.520   4.455   3.153
 6132TIP3    H218340   7.589   4.568   3.079
 6133TIP3   OH218341   6.090   4.512   0.172
 6133TIP3    H118342   6.072   4.453   0.098
 6133TIP3    H218343   6.032   4.481   0.242
 6134TIP3   OH218344   3.504   7.792   4.994
 6134TIP3    H118345   3.494   7.699   4.975
 6134TIP3    H218346   3.432   7.834   4.948
 6135TIP3   OH218347   5.645  -0.024   1.608
 6135TIP3    H118348   5.586   0.041   1.570
 6135TIP3    H218349   5.731  -0.001   1.574
 6136TIP3   OH218350   1.954   2.461   3.414
 6136TIP3    H118351   1.874   2.423   3.450
 6136TIP3    H218352   1.947   2.448   3.320
 6137TIP3   OH218353   1.505   4.549   2.936
 6137TIP3    H118354   1.547   4.557   2.850
 6137TIP3    H218355   1.411   4.550   2.917
 6138TIP3   OH218356   4.933   5.297   1.570
 6138TIP3    H118357   5.022   5.271   1.547
 6138TIP3    H218358   4.889   5.215   1.591
 6139TIP3   OH218359   5.696   2.553   5.483
 6139TIP3    H118360   5.697   2.632   5.429
 6139TIP3    H218361   5.738   2.486   5.429
 6140TIP3   OH218362   6.505   7.669   5.351
 6140TIP3    H118363   6.567   7.705   5.415
 6140TIP3    H218364   6.558   7.652   5.274
 6141TIP3   OH218365   1.327   6.144   6.658
 6141TIP3    H118366   1.363   6.206   6.721
 6141TIP3    H218367   1.324   6.193   6.576
 6142TIP3   OH218368   5.951   3.851   3.298
 6142TIP3    H118369   5.984   3.772   3.256
 6142TIP3    H218370   5.892   3.890   3.233
 6143TIP3   OH218371   7.882   7.792   5.455
 6143TIP3    H118372   7.855   7.804   5.364
 6143TIP3    H218373   7.956   7.852   5.467
 6144TIP3   OH218374   4.753   1.514   0.688
 6144TIP3    H118375   4.828   1.457   0.703
 6144TIP3    H218376   4.789   1.591   0.643
 6145TIP3   OH218377   6.792   6.534   5.386
 6145TIP3    H118378   6.758   6.623   5.378
 6145TIP3    H218379   6.804   6.505   5.296
 6146TIP3   OH218380   2.084   4.897   3.979
 6146TIP3    H118381   2.139   4.925   3.906
 6146TIP3    H218382   1.999   4.880   3.939
 6147TIP3   OH218383   6.885   3.182   5.979
 6147TIP3    H118384   6.862   3.098   5.939
 6147TIP3    H218385   6.867   3.246   5.910
 6148TIP3   OH218386   4.316   2.749   4.054
 6148TIP3    H118387   4.269   2.709   3.981
 6148TIP3    H218388   4.274   2.711   4.132
 6149TIP3   OH218389   1.295   4.433   6.476
 6149TIP3    H118390   1.290   4.513   6.424
 6149TIP3    H218391   1.376   4.391   6.447
 6150TIP3   OH218392   3.470   3.686   6.311
 6150TIP3    H118393   3.448   3.750   6.244
 6150TIP3    H218394   3.555   3.651   6.285
 6151TIP3   OH218395   8.004   6.777   4.677
 6151TIP3    H118396   8.049   6.717   4.736
 6151TIP3    H218397   8.058   6.778   4.598
 6152TIP3   OH218398   8.200   2.406   6.273
 6152TIP3    H118399   8.191   2.501   6.281
 6152TIP3    H218400   8.294   2.390   6.280
 6153TIP3   OH218401   6.899   4.543   0.915
 6153TIP3    H118402   6.964   4.521   0.981
 6153TIP3    H218403   6.933   4.505   0.834
 6154TIP3   OH218404   6.320   3.882   0.837
 6154TIP3    H118405   6.225   3.897   0.836
 6154TIP3    H218406   6.352   3.937   0.908
 6155TIP3   OH218407   4.256   4.321   3.733
 6155TIP3    H118408   4.189   4.333   3.801
 6155TIP3    H218409   4.209   4.277   3.662
 6156TIP3   OH218410   3.173   0.931   4.883
 6156TIP3    H118411   3.173   1.023   4.911
 6156TIP3    H218412   3.227   0.930   4.803
 6157TIP3   OH218413   6.627   6.297   2.749
 6157TIP3    H118414   6.688   6.228   2.724
 6157TIP3    H218415   6.544   6.251   2.765
 6158TIP3   OH218416   6.106   2.676   1.803
 6158TIP3    H118417   6.189   2.695   1.847
 6158TIP3    H218418   6.040   2.686   1.872
 6159TIP3   OH218419   1.889   6.954   5.025
 6159TIP3    H118420   1.899   7.049   5.026
 6159TIP3    H218421   1.804   6.939   5.067
 6160TIP3   OH218422   6.998   4.242   6.366
 6160TIP3    H118423   7.009   4.238   6.271
 6160TIP3    H218424   6.907   4.267   6.379
 6161TIP3   OH218425   5.252   7.698   2.266
 6161TIP3    H118426   5.311   7.773   2.271
 6161TIP3    H218427   5.213   7.705   2.179
 6162TIP3   OH218428   3.215   6.635   6.737
 6162TIP3    H118429   3.257   6.580   6.802
 6162TIP3    H218430   3.217   6.584   6.656
 6163TIP3   OH218431   1.256   1.438   6.002
 6163TIP3    H118432   1.329   1.399   6.050
 6163TIP3    H218433   1.178   1.411   6.050
 6164TIP3   OH218434   0.214   0.183   3.409
 6164TIP3    H118435   0.150   0.253   3.394
 6164TIP3    H218436   0.293   0.214   3.364
 6165TIP3   OH218437   7.107   3.414   2.971
 6165TIP3    H118438   7.143   3.488   3.020
 6165TIP3    H218439   7.184   3.369   2.936
 6166TIP3   OH218440   5.433   0.923   5.465
 6166TIP3    H118441   5.464   0.834   5.446
 6166TIP3    H218442   5.359   0.936   5.405
 6167TIP3   OH218443   1.928   5.899   5.810
 6167TIP3    H118444   1.946   5.924   5.900
 6167TIP3    H218445   1.849   5.948   5.787
 6168TIP3   OH218446   2.504   6.184   2.588
 6168TIP3    H118447   2.525   6.091   2.595
 6168TIP3    H218448   2.409   6.187   2.578
 6169TIP3   OH218449   7.500   1.966   4.913
 6169TIP3    H118450   7.544   1.922   4.985
 6169TIP3    H218451   7.425   1.910   4.893
 6170TIP3   OH218452   3.699   6.601   5.461
 6170TIP3    H118453   3.725   6.551   5.384
 6170TIP3    H218454   3.768   6.584   5.525
 6171TIP3   OH218455   0.893   0.629   5.741
 6171TIP3    H118456   0.919   0.719   5.761
 6171TIP3    H218457   0.800   0.625   5.761
 6172TIP3   OH218458   0.477   0.595   2.234
 6172TIP3    H118459   0.534   0.550   2.296
 6172TIP3    H218460   0.403   0.625   2.286
 6173TIP3   OH218461   1.657   2.660   0.346
 6173TIP3    H118462   1.635   2.745   0.308
 6173TIP3    H218463   1.749   2.647   0.325
 6174TIP3   OH218464   4.964   2.960   4.763
 6174TIP3    H118465   5.047   3.006   4.754
 6174TIP3    H218466   4.972   2.910   4.844
 6175TIP3   OH218467   2.324   0.771   3.240
 6175TIP3    H118468   2.247   0.731   3.280
 6175TIP3    H218469   2.382   0.791   3.313
 6176TIP3   OH218470   5.675   6.272   3.839
 6176TIP3    H118471   5.591   6.306   3.807
 6176TIP3    H218472   5.723   6.349   3.867
 6177TIP3   OH218473   7.594   7.491   5.766
 6177TIP3    H118474   7.686   7.509   5.751
 6177TIP3    H218475   7.556   7.484   5.678
 6178TIP3   OH218476   5.769   0.222   6.696
 6178TIP3    H118477   5.849   0.263   6.664
 6178TIP3    H218478   5.799   0.145   6.743
 6179TIP3   OH218479   1.644   5.626   4.049
 6179TIP3    H118480   1.689   5.581   3.977
 6179TIP3    H218481   1.652   5.566   4.123
 6180TIP3   OH218482   5.828   5.028   2.697
 6180TIP3    H118483   5.856   5.022   2.605
 6180TIP3    H218484   5.867   5.110   2.729
 6181TIP3   OH218485   1.777   5.830   1.038
 6181TIP3    H118486   1.848   5.852   1.098
 6181TIP3    H218487   1.821   5.804   0.957
 6182TIP3   OH218488   5.939   5.525   4.242
 6182TIP3    H118489   5.989   5.601   4.212
 6182TIP3    H218490   5.873   5.511   4.175
 6183TIP3   OH218491   2.212   1.023   0.553
 6183TIP3    H118492   2.164   1.004   0.634
 6183TIP3    H218493   2.148   1.005   0.484
 6184TIP3   OH218494   1.623   2.658   3.211
 6184TIP3    H118495   1.704   2.707   3.201
 6184TIP3    H218496   1.614   2.644   3.305
 6185TIP3   OH218497   1.763   5.340   6.495
 6185TIP3    H118498   1.833   5.405   6.499
 6185TIP3    H218499   1.765   5.296   6.580
 6186TIP3   OH218500   4.978   2.853   5.033
 6186TIP3    H118501   5.073   2.865   5.040
 6186TIP3    H218502   4.967   2.763   5.002
 6187TIP3   OH218503   2.105   5.024   2.790
 6187TIP3    H118504   2.135   5.071   2.712
 6187TIP3    H218505   2.144   5.071   2.863
 6188TIP3   OH218506   0.037   1.760   6.138
 6188TIP3    H118507  -0.029   1.739   6.203
 6188TIP3    H218508   0.097   1.685   6.139
 6189TIP3   OH218509   5.842   4.658   3.214
 6189TIP3    H118510   5.793   4.587   3.257
 6189TIP3    H218511   5.778   4.729   3.206
 6190TIP3   OH218512   2.948   4.622   0.325
 6190TIP3    H118513   2.920   4.542   0.280
 6190TIP3    H218514   2.966   4.684   0.254
 6191TIP3   OH218515   5.314   0.721   4.213
 6191TIP3    H118516   5.266   0.641   4.193
 6191TIP3    H218517   5.247   0.783   4.242
 6192TIP3   OH218518   3.312   6.308   4.194
 6192TIP3    H118519   3.278   6.382   4.245
 6192TIP3    H218520   3.391   6.341   4.152
 6193TIP3   OH218521   5.961   0.231   6.474
 6193TIP3    H118522   5.919   0.287   6.409
 6193TIP3    H218523   6.003   0.292   6.535
 6194TIP3   OH218524   2.481   6.626   4.849
 6194TIP3    H118525   2.460   6.536   4.826
 6194TIP3    H218526   2.396   6.665   4.872
 6195TIP3   OH218527   0.866   4.935   4.289
 6195TIP3    H118528   0.863   4.842   4.270
 6195TIP3    H218529   0.916   4.941   4.371
 6196TIP3   OH218530   0.382   5.031   6.548
 6196TIP3    H118531   0.470   5.001   6.525
 6196TIP3    H218532   0.345   5.062   6.466
 6197TIP3   OH218533   4.991   0.936   2.405
 6197TIP3    H118534   4.914   0.891   2.439
 6197TIP3    H218535   5.065   0.898   2.453
 6198TIP3   OH218536   2.901   1.214   2.920
 6198TIP3    H118537   2.941   1.198   3.006
 6198TIP3    H218538   2.846   1.291   2.933
 6199TIP3   OH218539   2.969   3.804   5.809
 6199TIP3    H118540   3.054   3.842   5.782
 6199TIP3    H218541   2.906   3.875   5.794
 6200TIP3   OH218542   3.741   6.982   0.313
 6200TIP3    H118543   3.731   6.990   0.218
 6200TIP3    H218544   3.754   7.072   0.343
 6201TIP3   OH218545   3.876   5.309   1.059
 6201TIP3    H118546   3.877   5.402   1.036
 6201TIP3    H218547   3.876   5.264   0.974
 6202TIP3   OH218548   4.163   0.104   5.753
 6202TIP3    H118549   4.144   0.022   5.799
 6202TIP3    H218550   4.198   0.162   5.820
 6203TIP3   OH218551   6.411   1.039   4.125
 6203TIP3    H118552   6.375   1.096   4.193
 6203TIP3    H218553   6.336   1.017   4.070
 6204TIP3   OH218554   8.256   0.844   5.021
 6204TIP3    H118555   8.344   0.818   5.047
 6204TIP3    H218556   8.227   0.902   5.092
 6205TIP3   OH218557   5.393   2.368   3.339
 6205TIP3    H118558   5.346   2.329   3.264
 6205TIP3    H218559   5.330   2.430   3.376
 6206TIP3   OH218560   4.960   2.407   1.449
 6206TIP3    H118561   4.902   2.430   1.521
 6206TIP3    H218562   5.030   2.355   1.490
 6207TIP3   OH218563   2.525   7.219   2.203
 6207TIP3    H118564   2.433   7.208   2.178
 6207TIP3    H218565   2.558   7.130   2.212
 6208TIP3   OH218566   8.098   5.878   1.549
 6208TIP3    H118567   8.019   5.859   1.498
 6208TIP3    H218568   8.084   5.834   1.633
 6209TIP3   OH218569   4.845   6.962   4.817
 6209TIP3    H118570   4.917   6.998   4.764
 6209TIP3    H218571   4.777   6.943   4.753
 6210TIP3   OH218572   1.523   2.631  -0.004
 6210TIP3    H118573   1.603   2.589   0.028
 6210TIP3    H218574   1.463   2.558  -0.020
 6211TIP3   OH218575   4.717   6.647   3.558
 6211TIP3    H118576   4.755   6.700   3.488
 6211TIP3    H218577   4.627   6.681   3.568
 6212TIP3   OH218578   7.449   5.364   2.905
 6212TIP3    H118579   7.433   5.457   2.923
 6212TIP3    H218580   7.361   5.325   2.900
 6213TIP3   OH218581   6.435   2.927   1.137
 6213TIP3    H118582   6.439   3.016   1.171
 6213TIP3    H218583   6.494   2.876   1.193
 6214TIP3   OH218584   4.998   7.602   3.332
 6214TIP3    H118585   5.045   7.680   3.304
 6214TIP3    H218586   5.062   7.531   3.325
 6215TIP3   OH218587   0.608   4.711   0.534
 6215TIP3    H118588   0.621   4.621   0.505
 6215TIP3    H218589   0.578   4.703   0.624
 6216TIP3   OH218590   5.446   2.673   4.922
 6216TIP3    H118591   5.539   2.651   4.923
 6216TIP3    H218592   5.402   2.589   4.903
 6217TIP3   OH218593   4.725   0.034   0.055
 6217TIP3    H118594   4.766   0.116   0.027
 6217TIP3    H218595   4.646   0.027   0.002
 6218TIP3   OH218596   1.042   3.603   2.664
 6218TIP3    H118597   1.004   3.515   2.651
 6218TIP3    H218598   1.092   3.619   2.584
 6219TIP3   OH218599   0.909   5.569   6.466
 6219TIP3    H118600   0.968   5.493   6.463
 6219TIP3    H218601   0.822   5.531   6.459
 6220TIP3   OH218602   1.256   2.600   2.103
 6220TIP3    H118603   1.286   2.605   2.013
 6220TIP3    H218604   1.308   2.665   2.150
 6221TIP3   OH218605   4.817   2.643   4.338
 6221TIP3    H118606   4.808   2.610   4.427
 6221TIP3    H218607   4.811   2.738   4.347
 6222TIP3   OH218608   6.538   0.991   3.893
 6222TIP3    H118609   6.632   1.004   3.905
 6222TIP3    H218610   6.502   0.991   3.981
 6223TIP3   OH218611   2.041   5.912   1.346
 6223TIP3    H118612   2.002   5.986   1.301
 6223TIP3    H218613   2.040   5.841   1.282
 6224TIP3   OH218614   5.368   2.237   6.320
 6224TIP3    H118615   5.373   2.194   6.235
 6224TIP3    H218616   5.403   2.324   6.305
 6225TIP3   OH218617   1.807   4.504   4.444
 6225TIP3    H118618   1.828   4.415   4.419
 6225TIP3    H218619   1.721   4.498   4.486
 6226TIP3   OH218620   2.194   3.704   5.996
 6226TIP3    H118621   2.257   3.769   6.028
 6226TIP3    H218622   2.248   3.640   5.950
 6227TIP3   OH218623   7.039   1.096   3.446
 6227TIP3    H118624   7.018   1.189   3.435
 6227TIP3    H218625   6.988   1.052   3.378
 6228TIP3   OH218626   4.555   2.306   6.354
 6228TIP3    H118627   4.545   2.278   6.263
 6228TIP3    H218628   4.647   2.327   6.363
 6229TIP3   OH218629   7.976   0.942   1.152
 6229TIP3    H118630   7.906   0.989   1.197
 6229TIP3    H218631   8.011   1.005   1.089
 6230TIP3   OH218632   0.991   7.164   4.265
 6230TIP3    H118633   1.026   7.207   4.188
 6230TIP3    H218634   0.896   7.167   4.254
 6231TIP3   OH218635   6.319   0.648   2.021
 6231TIP3    H118636   6.333   0.554   2.013
 6231TIP3    H218637   6.355   0.685   1.941
 6232TIP3   OH218638   6.119   7.510   0.335
 6232TIP3    H118639   6.088   7.600   0.337
 6232TIP3    H218640   6.205   7.515   0.294
 6233TIP3   OH218641   7.200   4.042   4.848
 6233TIP3    H118642   7.279   3.991   4.829
 6233TIP3    H218643   7.170   4.010   4.933
 6234TIP3   OH218644   8.064   2.849   5.177
 6234TIP3    H118645   8.023   2.767   5.206
 6234TIP3    H218646   7.994   2.914   5.184
 6235TIP3   OH218647   7.027   7.305   4.913
 6235TIP3    H118648   7.059   7.215   4.921
 6235TIP3    H218649   7.106   7.358   4.902
 6236TIP3   OH218650   0.048   2.777   1.195
 6236TIP3    H118651   0.141   2.759   1.188
 6236TIP3    H218652   0.039   2.869   1.169
 6237TIP3   OH218653   8.077   3.249   3.302
 6237TIP3    H118654   8.104   3.215   3.387
 6237TIP3    H218655   8.006   3.191   3.274
 6238TIP3   OH218656   7.262   5.914   1.287
 6238TIP3    H118657   7.260   6.000   1.246
 6238TIP3    H218658   7.336   5.918   1.348
 6239TIP3   OH218659   4.915   0.799   1.056
 6239TIP3    H118660   4.852   0.732   1.031
 6239TIP3    H218661   5.000   0.761   1.038
 6240TIP3   OH218662   0.269   3.285   2.495
 6240TIP3    H118663   0.340   3.340   2.528
 6240TIP3    H218664   0.210   3.274   2.570
 6241TIP3   OH218665   7.255   1.916   1.430
 6241TIP3    H118666   7.226   1.995   1.383
 6241TIP3    H218667   7.301   1.865   1.363
 6242TIP3   OH218668   7.193   7.671   0.545
 6242TIP3    H118669   7.127   7.651   0.478
 6242TIP3    H218670   7.231   7.754   0.516
 6243TIP3   OH218671   5.517   1.464   1.734
 6243TIP3    H118672   5.541   1.507   1.652
 6243TIP3    H218673   5.587   1.401   1.750
 6244TIP3   OH218674   6.180   7.128   3.368
 6244TIP3    H118675   6.232   7.166   3.439
 6244TIP3    H218676   6.226   7.152   3.288
 6245TIP3   OH218677   2.623   5.643   4.714
 6245TIP3    H118678   2.601   5.733   4.693
 6245TIP3    H218679   2.682   5.615   4.644
 6246TIP3   OH218680   8.284   4.714   1.649
 6246TIP3    H118681   8.339   4.790   1.670
 6246TIP3    H218682   8.216   4.748   1.592
 6247TIP3   OH218683   6.581   0.279   6.365
 6247TIP3    H118684   6.507   0.314   6.315
 6247TIP3    H218685   6.609   0.202   6.317
 6248TIP3   OH218686   6.295   1.611   6.098
 6248TIP3    H118687   6.278   1.595   6.005
 6248TIP3    H218688   6.298   1.523   6.137
 6249TIP3   OH218689   5.657   5.591   1.380
 6249TIP3    H118690   5.728   5.649   1.352
 6249TIP3    H218691   5.674   5.575   1.472
 6250TIP3   OH218692   6.081   1.417   0.882
 6250TIP3    H118693   6.142   1.389   0.813
 6250TIP3    H218694   6.104   1.363   0.957
 6251TIP3   OH218695   7.990   4.688   3.773
 6251TIP3    H118696   8.023   4.772   3.805
 6251TIP3    H218697   8.059   4.626   3.796
 6252TIP3   OH218698   1.794   3.500   0.809
 6252TIP3    H118699   1.825   3.520   0.897
 6252TIP3    H218700   1.826   3.572   0.755
 6253TIP3   OH218701   2.572   0.830   5.274
 6253TIP3    H118702   2.527   0.911   5.299
 6253TIP3    H218703   2.537   0.808   5.188
 6254TIP3   OH218704   5.690   0.003   2.820
 6254TIP3    H118705   5.697   0.072   2.886
 6254TIP3    H218706   5.605  -0.037   2.836
 6255TIP3   OH218707   2.259   3.500   3.953
 6255TIP3    H118708   2.186   3.525   4.010
 6255TIP3    H218709   2.222   3.504   3.864
 6256TIP3   OH218710   7.013   3.737   4.665
 6256TIP3    H118711   6.957   3.810   4.639
 6256TIP3    H218712   7.089   3.743   4.607
 6257TIP3   OH218713   1.604   4.124   4.110
 6257TIP3    H118714   1.699   4.133   4.121
 6257TIP3    H218715   1.589   4.030   4.105
 6258TIP3   OH218716   6.354   5.942   5.944
 6258TIP3    H118717   6.348   5.847   5.933
 6258TIP3    H218718   6.307   5.959   6.026
 6259TIP3   OH218719   6.605   6.866   3.765
 6259TIP3    H118720   6.658   6.833   3.691
 6259TIP3    H218721   6.663   6.927   3.811
 6260TIP3   OH218722   7.104   4.735   6.449
 6260TIP3    H118723   7.127   4.700   6.535
 6260TIP3    H218724   7.181   4.787   6.423
 6261TIP3   OH218725   0.957   3.738   5.620
 6261TIP3    H118726   0.920   3.661   5.662
 6261TIP3    H218727   0.929   3.731   5.528
 6262TIP3   OH218728   0.727   1.194   1.601
 6262TIP3    H118729   0.772   1.237   1.528
 6262TIP3    H218730   0.701   1.109   1.566
 6263TIP3   OH218731   5.372   2.946   6.231
 6263TIP3    H118732   5.356   2.886   6.158
 6263TIP3    H218733   5.428   2.897   6.291
 6264TIP3   OH218734   7.434   7.546   5.984
 6264TIP3    H118735   7.348   7.505   5.987
 6264TIP3    H218736   7.479   7.502   5.912
 6265TIP3   OH218737   5.699   7.246   1.170
 6265TIP3    H118738   5.735   7.174   1.119
 6265TIP3    H218739   5.670   7.309   1.105
 6266TIP3   OH218740   4.919   5.207   2.162
 6266TIP3    H118741   4.998   5.167   2.197
 6266TIP3    H218742   4.946   5.247   2.080
 6267TIP3   OH218743   2.530   3.570   1.056
 6267TIP3    H118744   2.442   3.559   1.093
 6267TIP3    H218745   2.574   3.629   1.118
 6268TIP3   OH218746   4.916   7.686   1.785
 6268TIP3    H118747   4.870   7.623   1.730
 6268TIP3    H218748   5.002   7.646   1.801
 6269TIP3   OH218749   2.621   3.160   2.570
 6269TIP3    H118750   2.657   3.208   2.645
 6269TIP3    H218751   2.697   3.133   2.520
 6270TIP3   OH218752   1.204   0.838   3.566
 6270TIP3    H118753   1.122   0.878   3.595
 6270TIP3    H218754   1.240   0.796   3.644
 6271TIP3   OH218755   7.687   5.603   4.299
 6271TIP3    H118756   7.602   5.608   4.342
 6271TIP3    H218757   7.750   5.625   4.367
 6272TIP3   OH218758   7.422   4.154   5.438
 6272TIP3    H118759   7.503   4.124   5.479
 6272TIP3    H218760   7.439   4.148   5.344
 6273TIP3   OH218761   1.003   5.734   3.972
 6273TIP3    H118762   0.940   5.704   3.907
 6273TIP3    H218763   1.054   5.801   3.926
 6274TIP3   OH218764   7.126   7.450   2.536
 6274TIP3    H118765   7.197   7.413   2.484
 6274TIP3    H218766   7.136   7.544   2.527
 6275TIP3   OH218767   1.447   2.326   1.852
 6275TIP3    H118768   1.536   2.302   1.827
 6275TIP3    H218769   1.391   2.279   1.791
 6276TIP3   OH218770   1.697   2.361   3.488
 6276TIP3    H118771   1.658   2.445   3.465
 6276TIP3    H218772   1.636   2.322   3.550
 6277TIP3   OH218773   0.613   0.755   0.230
 6277TIP3    H118774   0.645   0.675   0.271
 6277TIP3    H218775   0.531   0.729   0.187
 6278TIP3   OH218776   2.703   4.602   1.546
 6278TIP3    H118777   2.742   4.577   1.630
 6278TIP3    H218778   2.637   4.668   1.569
 6279TIP3   OH218779   2.894   3.635   1.088
 6279TIP3    H118780   2.911   3.672   1.001
 6279TIP3    H218781   2.884   3.711   1.145
 6280TIP3   OH218782   2.835   4.672   3.475
 6280TIP3    H118783   2.860   4.589   3.515
 6280TIP3    H218784   2.760   4.702   3.526
 6281TIP3   OH218785   5.571   4.143   0.554
 6281TIP3    H118786   5.508   4.104   0.615
 6281TIP3    H218787   5.609   4.069   0.507
 6282TIP3   OH218788   5.822   7.818   6.356
 6282TIP3    H118789   5.803   7.728   6.383
 6282TIP3    H218790   5.736   7.858   6.343
 6283TIP3   OH218791   3.211   1.024   1.767
 6283TIP3    H118792   3.289   0.985   1.727
 6283TIP3    H218793   3.205   1.111   1.728
 6284TIP3   OH218794   4.309   7.383   4.113
 6284TIP3    H118795   4.343   7.304   4.069
 6284TIP3    H218796   4.241   7.416   4.054
 6285TIP3   OH218797   5.107   2.451   5.259
 6285TIP3    H118798   5.141   2.540   5.265
 6285TIP3    H218799   5.179   2.400   5.222
 6286TIP3   OH218800   6.500   0.391   0.676
 6286TIP3    H118801   6.516   0.397   0.582
 6286TIP3    H218802   6.424   0.334   0.684
 6287TIP3   OH218803   6.961   1.856   6.045
 6287TIP3    H118804   7.021   1.922   6.012
 6287TIP3    H218805   7.004   1.819   6.121
 6288TIP3   OH218806   2.058   3.054   6.514
 6288TIP3    H118807   1.989   3.033   6.576
 6288TIP3    H218808   2.087   3.141   6.540
 6289TIP3   OH218809   6.810   1.030   1.457
 6289TIP3    H118810   6.739   0.969   1.477
 6289TIP3    H218811   6.778   1.115   1.486
 6290TIP3   OH218812   0.237   7.640   3.869
 6290TIP3    H118813   0.267   7.670   3.783
 6290TIP3    H218814   0.277   7.553   3.878
 6291TIP3   OH218815   4.397   7.659   4.721
 6291TIP3    H118816   4.434   7.616   4.798
 6291TIP3    H218817   4.471   7.666   4.660
 6292TIP3   OH218818   6.709   1.721   4.129
 6292TIP3    H118819   6.693   1.733   4.035
 6292TIP3    H218820   6.786   1.664   4.133
 6293TIP3   OH218821   2.202   2.162   5.674
 6293TIP3    H118822   2.258   2.175   5.751
 6293TIP3    H218823   2.170   2.072   5.682
 6294TIP3   OH218824   5.361   2.716   3.227
 6294TIP3    H118825   5.337   2.808   3.214
 6294TIP3    H218826   5.357   2.678   3.139
 6295TIP3   OH218827   2.642   6.280   0.426
 6295TIP3    H118828   2.612   6.299   0.515
 6295TIP3    H218829   2.716   6.339   0.412
 6296TIP3   OH218830   5.465   1.198   5.291
 6296TIP3    H118831   5.382   1.160   5.263
 6296TIP3    H218832   5.487   1.261   5.222
 6297TIP3   OH218833   7.302   5.847   6.581
 6297TIP3    H118834   7.350   5.814   6.505
 6297TIP3    H218835   7.224   5.888   6.545
 6298TIP3   OH218836   0.803   6.575   1.377
 6298TIP3    H118837   0.765   6.641   1.436
 6298TIP3    H218838   0.786   6.608   1.289
 6299TIP3   OH218839   4.208   1.211   6.047
 6299TIP3    H118840   4.240   1.233   5.960
 6299TIP3    H218841   4.244   1.124   6.065
 6300TIP3   OH218842   2.111   7.070   1.348
 6300TIP3    H118843   2.138   7.053   1.439
 6300TIP3    H218844   2.170   7.140   1.319
 6301TIP3   OH218845   1.133   1.138   6.493
 6301TIP3    H118846   1.190   1.211   6.518
 6301TIP3    H218847   1.060   1.180   6.448
 6302TIP3   OH218848   5.976   2.362   5.112
 6302TIP3    H118849   6.057   2.393   5.072
 6302TIP3    H218850   5.924   2.329   5.039
 6303TIP3   OH218851   2.042   0.206   4.855
 6303TIP3    H118852   1.990   0.285   4.868
 6303TIP3    H218853   2.072   0.212   4.764
 6304TIP3   OH218854   1.240   1.828   5.461
 6304TIP3    H118855   1.191   1.751   5.491
 6304TIP3    H218856   1.270   1.805   5.373
 6305TIP3   OH218857   2.841   6.188   0.848
 6305TIP3    H118858   2.826   6.179   0.942
 6305TIP3    H218859   2.930   6.223   0.841
 6306TIP3   OH218860   0.135   0.128   4.987
 6306TIP3    H118861   0.102   0.138   5.076
 6306TIP3    H218862   0.229   0.112   4.997
 6307TIP3   OH218863   6.383   1.762   0.721
 6307TIP3    H118864   6.393   1.688   0.781
 6307TIP3    H218865   6.289   1.768   0.705
 6308TIP3   OH218866   3.800   6.900   5.618
 6308TIP3    H118867   3.767   6.879   5.706
 6308TIP3    H218868   3.723   6.929   5.570
 6309TIP3   OH218869   3.212   0.449   6.296
 6309TIP3    H118870   3.273   0.393   6.344
 6309TIP3    H218871   3.159   0.490   6.364
 6310TIP3   OH218872   4.143   7.497   6.352
 6310TIP3    H118873   4.165   7.580   6.309
 6310TIP3    H218874   4.063   7.516   6.401
 6311TIP3   OH218875   1.406   2.108   0.040
 6311TIP3    H118876   1.462   2.043   0.082
 6311TIP3    H218877   1.400   2.079  -0.051
 6312TIP3   OH218878   2.134   5.047   2.382
 6312TIP3    H118879   2.043   5.073   2.393
 6312TIP3    H218880   2.181   5.093   2.451
 6313TIP3   OH218881   4.772   3.958   3.337
 6313TIP3    H118882   4.831   3.901   3.386
 6313TIP3    H218883   4.795   4.046   3.365
 6314TIP3   OH218884   0.172   4.571   5.077
 6314TIP3    H118885   0.107   4.608   5.137
 6314TIP3    H218886   0.172   4.630   5.002
 6315TIP3   OH218887   4.078   3.891   4.158
 6315TIP3    H118888   4.133   3.940   4.220
 6315TIP3    H218889   4.000   3.868   4.208
 6316TIP3   OH218890   3.708   2.002   2.630
 6316TIP3    H118891   3.697   2.001   2.535
 6316TIP3    H218892   3.640   1.943   2.663
 6317TIP3   OH218893   1.278   6.877   0.736
 6317TIP3    H118894   1.240   6.961   0.763
 6317TIP3    H218895   1.235   6.813   0.792
 6318TIP3   OH218896   7.552   5.818   0.525
 6318TIP3    H118897   7.467   5.845   0.490
 6318TIP3    H218898   7.555   5.856   0.612
 6319TIP3   OH218899   0.252   5.343   4.561
 6319TIP3    H118900   0.267   5.350   4.655
 6319TIP3    H218901   0.158   5.328   4.553
 6320TIP3   OH218902   5.826   5.578   3.915
 6320TIP3    H118903   5.920   5.562   3.925
 6320TIP3    H218904   5.821   5.654   3.857
 6321TIP3   OH218905   5.324   3.681   6.503
 6321TIP3    H118906   5.247   3.637   6.466
 6321TIP3    H218907   5.303   3.691   6.596
 6322TIP3   OH218908   7.034   5.397   5.130
 6322TIP3    H118909   7.064   5.485   5.151
 6322TIP3    H218910   7.018   5.355   5.215
 6323TIP3   OH218911   5.837   6.053   1.261
 6323TIP3    H118912   5.863   6.132   1.215
 6323TIP3    H218913   5.870   6.066   1.351
 6324TIP3   OH218914   3.557   4.361   3.959
 6324TIP3    H118915   3.602   4.281   3.934
 6324TIP3    H218916   3.599   4.387   4.041
 6325TIP3   OH218917   6.527   5.400   0.284
 6325TIP3    H118918   6.502   5.327   0.228
 6325TIP3    H218919   6.524   5.365   0.373
 6326TIP3   OH218920   1.736   6.315   4.675
 6326TIP3    H118921   1.740   6.410   4.678
 6326TIP3    H218922   1.825   6.287   4.697
 6327TIP3   OH218923   7.422   1.292   1.336
 6327TIP3    H118924   7.408   1.212   1.387
 6327TIP3    H218925   7.343   1.301   1.284
 6328TIP3   OH218926   4.272   2.764   2.367
 6328TIP3    H118927   4.189   2.811   2.359
 6328TIP3    H218928   4.255   2.696   2.432
 6329TIP3   OH218929   4.348   0.739   6.468
 6329TIP3    H118930   4.313   0.810   6.521
 6329TIP3    H218931   4.352   0.663   6.527
 6330TIP3   OH218932   2.622   4.530   4.170
 6330TIP3    H118933   2.654   4.580   4.245
 6330TIP3    H218934   2.700   4.521   4.114
 6331TIP3   OH218935   6.099   1.857   4.801
 6331TIP3    H118936   6.133   1.909   4.729
 6331TIP3    H218937   6.148   1.886   4.878
 6332TIP3   OH218938   2.296   6.478   1.816
 6332TIP3    H118939   2.210   6.444   1.791
 6332TIP3    H218940   2.351   6.465   1.739
 6333TIP3   OH218941   6.550   2.717   5.019
 6333TIP3    H118942   6.553   2.638   4.965
 6333TIP3    H218943   6.479   2.769   4.982
 6334TIP3   OH218944   2.240   1.397   3.218
 6334TIP3    H118945   2.266   1.439   3.136
 6334TIP3    H218946   2.259   1.462   3.285
 6335TIP3   OH218947   7.222   0.194   0.500
 6335TIP3    H118948   7.211   0.099   0.496
 6335TIP3    H218949   7.317   0.206   0.494
 6336TIP3   OH218950   2.386   6.709   0.191
 6336TIP3    H118951   2.424   6.674   0.110
 6336TIP3    H218952   2.292   6.711   0.174
 6337TIP3   OH218953   0.467   4.978   3.983
 6337TIP3    H118954   0.409   4.902   3.993
 6337TIP3    H218955   0.518   4.959   3.904
 6338TIP3   OH218956   2.929   5.971   3.465
 6338TIP3    H118957   2.937   5.989   3.371
 6338TIP3    H218958   2.977   6.041   3.507
 6339TIP3   OH218959   3.925   2.273   5.224
 6339TIP3    H118960   4.016   2.261   5.248
 6339TIP3    H218961   3.895   2.345   5.280
 6340TIP3   OH218962   6.798   2.573   5.893
 6340TIP3    H118963   6.732   2.507   5.913
 6340TIP3    H218964   6.872   2.551   5.950
 6341TIP3   OH218965   1.405   1.506   5.741
 6341TIP3    H118966   1.364   1.472   5.820
 6341TIP3    H218967   1.499   1.497   5.757
 6342TIP3   OH218968   0.461   1.932   5.504
 6342TIP3    H118969   0.483   1.932   5.411
 6342TIP3    H218970   0.423   2.018   5.520
 6343TIP3   OH218971   1.405   4.573   1.836
 6343TIP3    H118972   1.400   4.643   1.901
 6343TIP3    H218973   1.443   4.613   1.759
 6344TIP3   OH218974   1.262   6.711   3.414
 6344TIP3    H118975   1.168   6.699   3.405
 6344TIP3    H218976   1.273   6.764   3.492
 6345TIP3   OH218977   4.476   6.029   4.751
 6345TIP3    H118978   4.448   6.081   4.676
 6345TIP3    H218979   4.527   5.957   4.712
 6346TIP3   OH218980   2.014   2.153   3.206
 6346TIP3    H118981   1.956   2.161   3.282
 6346TIP3    H218982   2.066   2.075   3.224
 6347TIP3   OH218983   6.654   5.943   1.938
 6347TIP3    H118984   6.695   5.918   1.855
 6347TIP3    H218985   6.715   5.913   2.005
 6348TIP3   OH218986   1.056   0.728   4.396
 6348TIP3    H118987   1.008   0.695   4.472
 6348TIP3    H218988   0.992   0.730   4.325
 6349TIP3   OH218989   3.289   2.576   0.797
 6349TIP3    H118990   3.228   2.616   0.860
 6349TIP3    H218991   3.267   2.483   0.800
 6350TIP3   OH218992   1.250   0.687   6.655
 6350TIP3    H118993   1.342   0.713   6.646
 6350TIP3    H218994   1.208   0.719   6.575
 6351TIP3   OH218995   5.540   2.070   5.551
 6351TIP3    H118996   5.449   2.049   5.572
 6351TIP3    H218997   5.571   1.995   5.500
 6352TIP3   OH218998   6.977   6.283   4.286
 6352TIP3    H118999   6.914   6.268   4.215
 6352TIP3    H219000   6.923   6.294   4.364
 6353TIP3   OH219001   3.011   0.295   0.062
 6353TIP3    H119002   3.015   0.382   0.102
 6353TIP3    H219003   3.099   0.281   0.026
 6354TIP3   OH219004   4.529   5.745   0.420
 6354TIP3    H119005   4.613   5.743   0.465
 6354TIP3    H219006   4.469   5.784   0.483
 6355TIP3   OH219007   1.942   7.336   5.779
 6355TIP3    H119008   1.972   7.294   5.859
 6355TIP3    H219009   1.846   7.334   5.784
 6356TIP3   OH219010   4.619   1.231   3.007
 6356TIP3    H119011   4.680   1.303   3.026
 6356TIP3    H219012   4.592   1.246   2.917
 6357TIP3   OH219013   8.113   1.005   1.526
 6357TIP3    H119014   8.053   1.055   1.471
 6357TIP3    H219015   8.143   0.933   1.469
 6358TIP3   OH219016   7.156   0.434   2.462
 6358TIP3    H119017   7.176   0.525   2.483
 6358TIP3    H219018   7.233   0.385   2.489
 6359TIP3   OH219019   3.496   1.222   2.987
 6359TIP3    H119020   3.571   1.196   3.040
 6359TIP3    H219021   3.533   1.240   2.900
 6360TIP3   OH219022   7.575   0.537   6.094
 6360TIP3    H119023   7.554   0.481   6.020
 6360TIP3    H219024   7.574   0.626   6.058
 6361TIP3   OH219025   5.394   2.953   2.608
 6361TIP3    H119026   5.472   2.928   2.557
 6361TIP3    H219027   5.428   3.008   2.679
 6362TIP3   OH219028   5.203   3.354   3.098
 6362TIP3    H119029   5.274   3.404   3.141
 6362TIP3    H219030   5.154   3.315   3.171
 6363TIP3   OH219031   3.207   1.494   3.804
 6363TIP3    H119032   3.295   1.473   3.774
 6363TIP3    H219033   3.151   1.478   3.728
 6364TIP3   OH219034   2.475   7.809   3.096
 6364TIP3    H119035   2.449   7.718   3.087
 6364TIP3    H219036   2.454   7.831   3.187
 6365TIP3   OH219037   1.901   5.043   3.654
 6365TIP3    H119038   1.871   5.060   3.564
 6365TIP3    H219039   1.884   5.125   3.701
 6366TIP3   OH219040   2.453   5.268   4.400
 6366TIP3    H119041   2.532   5.272   4.346
 6366TIP3    H219042   2.416   5.356   4.396
 6367TIP3   OH219043   3.024   0.300   1.182
 6367TIP3    H119044   3.067   0.334   1.260
 6367TIP3    H219045   2.968   0.372   1.152
 6368TIP3   OH219046   4.783   0.692   3.822
 6368TIP3    H119047   4.855   0.753   3.839
 6368TIP3    H219048   4.767   0.650   3.906
 6369TIP3   OH219049   2.354   5.442   5.107
 6369TIP3    H119050   2.376   5.533   5.090
 6369TIP3    H219051   2.360   5.399   5.021
 6370TIP3   OH219052   4.780   6.264   2.308
 6370TIP3    H119053   4.802   6.172   2.292
 6370TIP3    H219054   4.686   6.269   2.291
 6371TIP3   OH219055   2.474   4.597   2.263
 6371TIP3    H119056   2.415   4.594   2.188
 6371TIP3    H219057   2.439   4.668   2.317
 6372TIP3   OH219058   6.219   7.564   3.136
 6372TIP3    H119059   6.193   7.656   3.143
 6372TIP3    H219060   6.155   7.516   3.189
 6373TIP3   OH219061   5.577   6.408   5.193
 6373TIP3    H119062   5.624   6.448   5.266
 6373TIP3    H219063   5.638   6.417   5.119
 6374TIP3   OH219064   7.928   0.618   4.307
 6374TIP3    H119065   7.927   0.573   4.392
 6374TIP3    H219066   7.840   0.604   4.272
 6375TIP3   OH219067   0.755   6.123   3.587
 6375TIP3    H119068   0.797   6.043   3.556
 6375TIP3    H219069   0.819   6.192   3.569
 6376TIP3   OH219070   1.097   6.885   3.635
 6376TIP3    H119071   1.140   6.886   3.720
 6376TIP3    H219072   1.006   6.864   3.654
 6377TIP3   OH219073   5.796   1.170   4.841
 6377TIP3    H119074   5.843   1.157   4.759
 6377TIP3    H219075   5.706   1.144   4.822
 6378TIP3   OH219076   7.203   0.319   3.039
 6378TIP3    H119077   7.277   0.263   3.015
 6378TIP3    H219078   7.182   0.366   2.958
 6379TIP3   OH219079   8.250   4.422   4.564
 6379TIP3    H119080   8.335   4.425   4.607
 6379TIP3    H219081   8.192   4.470   4.622
 6380TIP3   OH219082   4.870   4.382   5.857
 6380TIP3    H119083   4.881   4.336   5.774
 6380TIP3    H219084   4.929   4.337   5.918
 6381TIP3   OH219085   6.966   3.312   3.446
 6381TIP3    H119086   6.991   3.404   3.442
 6381TIP3    H219087   7.019   3.276   3.517
 6382TIP3   OH219088   4.822   1.531   3.603
 6382TIP3    H119089   4.911   1.498   3.589
 6382TIP3    H219090   4.832   1.626   3.600
 6383TIP3   OH219091   7.252   1.456   3.842
 6383TIP3    H119092   7.161   1.473   3.819
 6383TIP3    H219093   7.247   1.404   3.922
 6384TIP3   OH219094   1.116   2.025   0.813
 6384TIP3    H119095   1.104   2.119   0.825
 6384TIP3    H219096   1.198   2.017   0.764
 6385TIP3   OH219097   1.116   3.002   1.296
 6385TIP3    H119098   1.208   2.996   1.319
 6385TIP3    H219099   1.085   2.912   1.293
 6386TIP3   OH219100   8.125   4.087   2.070
 6386TIP3    H119101   8.118   4.131   2.154
 6386TIP3    H219102   8.211   4.111   2.036
 6387TIP3   OH219103   6.122   2.464   4.442
 6387TIP3    H119104   6.161   2.387   4.401
 6387TIP3    H219105   6.052   2.490   4.382
 6388TIP3   OH219106   0.143   0.390   4.515
 6388TIP3    H119107   0.138   0.307   4.563
 6388TIP3    H219108   0.088   0.450   4.565
 6389TIP3   OH219109   3.768   4.369   1.987
 6389TIP3    H119110   3.698   4.408   2.040
 6389TIP3    H219111   3.784   4.433   1.917
 6390TIP3   OH219112   1.146   3.781   2.869
 6390TIP3    H119113   1.162   3.857   2.812
 6390TIP3    H219114   1.108   3.716   2.810
 6391TIP3   OH219115   6.741   1.220   2.966
 6391TIP3    H119116   6.657   1.180   2.990
 6391TIP3    H219117   6.803   1.147   2.968
 6392TIP3   OH219118   2.935   3.374   0.475
 6392TIP3    H119119   2.852   3.344   0.439
 6392TIP3    H219120   2.994   3.300   0.464
 6393TIP3   OH219121   2.617   3.814   2.939
 6393TIP3    H119122   2.592   3.895   2.894
 6393TIP3    H219123   2.587   3.744   2.882
 6394TIP3   OH219124   1.924   0.683   2.523
 6394TIP3    H119125   1.860   0.703   2.454
 6394TIP3    H219126   1.956   0.769   2.552
 6395TIP3   OH219127   5.571   7.432   2.463
 6395TIP3    H119128   5.490   7.456   2.508
 6395TIP3    H219129   5.633   7.416   2.534
 6396TIP3   OH219130   6.146   2.537   6.123
 6396TIP3    H119131   6.141   2.521   6.029
 6396TIP3    H219132   6.168   2.451   6.160
 6397TIP3   OH219133   5.660   0.379   4.113
 6397TIP3    H119134   5.738   0.390   4.167
 6397TIP3    H219135   5.668   0.446   4.045
 6398TIP3   OH219136   2.522   7.315   0.611
 6398TIP3    H119137   2.573   7.269   0.677
 6398TIP3    H219138   2.588   7.346   0.548
 6399TIP3   OH219139   7.221   7.653   1.708
 6399TIP3    H119140   7.220   7.559   1.688
 6399TIP3    H219141   7.312   7.671   1.732
 6400TIP3   OH219142   7.438   4.131   0.646
 6400TIP3    H119143   7.406   4.189   0.576
 6400TIP3    H219144   7.502   4.184   0.694
 6401TIP3   OH219145   7.111   5.211   3.242
 6401TIP3    H119146   7.155   5.127   3.236
 6401TIP3    H219147   7.149   5.263   3.171
 6402TIP3   OH219148   0.901   5.580   1.863
 6402TIP3    H119149   0.815   5.621   1.868
 6402TIP3    H219150   0.916   5.545   1.951
 6403TIP3   OH219151   1.193   1.071   5.613
 6403TIP3    H119152   1.180   0.984   5.651
 6403TIP3    H219153   1.107   1.094   5.577
 6404TIP3   OH219154   5.490   1.071   4.085
 6404TIP3    H119155   5.496   0.976   4.074
 6404TIP3    H219156   5.401   1.085   4.118
 6405TIP3   OH219157   6.607   6.548   2.648
 6405TIP3    H119158   6.588   6.455   2.643
 6405TIP3    H219159   6.521   6.590   2.642
 6406TIP3   OH219160   7.440   5.817   3.690
 6406TIP3    H119161   7.486   5.758   3.749
 6406TIP3    H219162   7.351   5.821   3.723
 6407TIP3   OH219163   2.657   1.793   4.428
 6407TIP3    H119164   2.613   1.712   4.400
 6407TIP3    H219165   2.611   1.863   4.382
 6408TIP3   OH219166   6.636   7.429   6.062
 6408TIP3    H119167   6.618   7.340   6.091
 6408TIP3    H219168   6.693   7.418   5.985
 6409TIP3   OH219169   3.241   4.868   0.302
 6409TIP3    H119170   3.154   4.907   0.309
 6409TIP3    H219171   3.229   4.793   0.244
 6410TIP3   OH219172   6.863   3.373   5.785
 6410TIP3    H119173   6.887   3.466   5.792
 6410TIP3    H219174   6.945   3.326   5.793
 6411TIP3   OH219175   5.446   1.176   1.604
 6411TIP3    H119176   5.376   1.179   1.669
 6411TIP3    H219177   5.514   1.234   1.639
 6412TIP3   OH219178   7.760   2.288   2.615
 6412TIP3    H119179   7.733   2.354   2.551
 6412TIP3    H219180   7.855   2.282   2.606
 6413TIP3   OH219181   2.595   7.166   1.271
 6413TIP3    H119182   2.512   7.212   1.289
 6413TIP3    H219183   2.582   7.079   1.309
 6414TIP3   OH219184   4.097   6.740   5.682
 6414TIP3    H119185   4.080   6.646   5.678
 6414TIP3    H219186   4.060   6.767   5.766
 6415TIP3   OH219187   4.176   4.272   2.708
 6415TIP3    H119188   4.089   4.273   2.749
 6415TIP3    H219189   4.225   4.341   2.752
 6416TIP3   OH219190   6.150   0.914   6.522
 6416TIP3    H119191   6.158   0.887   6.430
 6416TIP3    H219192   6.077   0.976   6.522
 6417TIP3   OH219193   4.105   4.046   2.933
 6417TIP3    H119194   4.131   3.967   2.981
 6417TIP3    H219195   4.164   4.114   2.966
 6418TIP3   OH219196   6.215   1.881   1.255
 6418TIP3    H119197   6.256   1.960   1.291
 6418TIP3    H219198   6.245   1.878   1.164
 6419TIP3   OH219199   0.468   2.884   1.384
 6419TIP3    H119200   0.522   2.834   1.445
 6419TIP3    H219201   0.508   2.867   1.298
 6420TIP3   OH219202   6.661   7.769   2.564
 6420TIP3    H119203   6.622   7.732   2.485
 6420TIP3    H219204   6.750   7.735   2.565
 6421TIP3   OH219205   3.625   3.957   1.748
 6421TIP3    H119206   3.621   3.868   1.714
 6421TIP3    H219207   3.696   3.955   1.812
 6422TIP3   OH219208   3.381   3.429   2.754
 6422TIP3    H119209   3.365   3.371   2.679
 6422TIP3    H219210   3.471   3.409   2.781
 6423TIP3   OH219211   5.001   7.363   2.039
 6423TIP3    H119212   5.060   7.314   2.096
 6423TIP3    H219213   5.051   7.377   1.959
 6424TIP3   OH219214   4.968   2.088   2.509
 6424TIP3    H119215   4.874   2.077   2.521
 6424TIP3    H219216   5.006   2.067   2.594
 6425TIP3   OH219217   0.856   1.674   0.358
 6425TIP3    H119218   0.854   1.634   0.445
 6425TIP3    H219219   0.782   1.635   0.312
 6426TIP3   OH219220   6.432   5.832   2.300
 6426TIP3    H119221   6.346   5.803   2.330
 6426TIP3    H219222   6.458   5.767   2.234
 6427TIP3   OH219223   5.260   0.827   1.580
 6427TIP3    H119224   5.277   0.776   1.500
 6427TIP3    H219225   5.179   0.874   1.562
 6428TIP3   OH219226   2.267   1.758   6.285
 6428TIP3    H119227   2.263   1.686   6.222
 6428TIP3    H219228   2.360   1.766   6.307
 6429TIP3   OH219229   5.445   0.423   6.651
 6429TIP3    H119230   5.386   0.499   6.645
 6429TIP3    H219231   5.454   0.393   6.561
 6430TIP3   OH219232   1.208   5.080   5.046
 6430TIP3    H119233   1.121   5.092   5.084
 6430TIP3    H219234   1.196   5.090   4.952
 6431TIP3   OH219235   5.094   1.846   5.547
 6431TIP3    H119236   5.026   1.831   5.482
 6431TIP3    H219237   5.064   1.923   5.596
 6432TIP3   OH219238   3.105   1.397   5.508
 6432TIP3    H119239   3.166   1.465   5.537
 6432TIP3    H219240   3.160   1.334   5.462
 6433TIP3   OH219241   7.330   1.433   6.499
 6433TIP3    H119242   7.351   1.511   6.448
 6433TIP3    H219243   7.336   1.361   6.436
 6434TIP3   OH219244   4.977   0.618   3.117
 6434TIP3    H119245   5.036   0.627   3.192
 6434TIP3    H219246   4.957   0.707   3.091
 6435TIP3   OH219247   2.588   5.647   4.372
 6435TIP3    H119248   2.635   5.565   4.383
 6435TIP3    H219249   2.653   5.715   4.388
 6436TIP3   OH219250   5.259   7.064   3.989
 6436TIP3    H119251   5.304   7.016   4.058
 6436TIP3    H219252   5.187   7.109   4.034
 6437TIP3   OH219253   8.136   3.547  -0.009
 6437TIP3    H119254   8.181   3.623   0.026
 6437TIP3    H219255   8.200   3.476  -0.002
 6438TIP3   OH219256   5.241   7.094   3.629
 6438TIP3    H119257   5.188   7.026   3.672
 6438TIP3    H219258   5.177   7.157   3.598
 6439TIP3   OH219259   7.717   6.953   5.038
 6439TIP3    H119260   7.626   6.926   5.049
 6439TIP3    H219261   7.752   6.892   4.974
 6440TIP3   OH219262   4.202   7.765   1.806
 6440TIP3    H119263   4.187   7.839   1.748
 6440TIP3    H219264   4.187   7.688   1.752
 6441TIP3   OH219265   2.965   0.271   3.180
 6441TIP3    H119266   2.909   0.348   3.187
 6441TIP3    H219267   3.008   0.264   3.266
 6442TIP3   OH219268   5.819   0.824   0.468
 6442TIP3    H119269   5.838   0.847   0.559
 6442TIP3    H219270   5.844   0.902   0.418
 6443TIP3   OH219271   1.855   7.767   4.192
 6443TIP3    H119272   1.819   7.760   4.280
 6443TIP3    H219273   1.779   7.759   4.134
 6444TIP3   OH219274   7.505   3.460   3.765
 6444TIP3    H119275   7.580   3.426   3.718
 6444TIP3    H219276   7.434   3.399   3.744
 6445TIP3   OH219277   1.313   5.382   2.310
 6445TIP3    H119278   1.264   5.384   2.392
 6445TIP3    H219279   1.354   5.468   2.305
 6446TIP3   OH219280   2.213   2.612   5.389
 6446TIP3    H119281   2.208   2.563   5.471
 6446TIP3    H219282   2.285   2.673   5.402
 6447TIP3   OH219283   2.271   6.796   3.677
 6447TIP3    H119284   2.205   6.859   3.650
 6447TIP3    H219285   2.294   6.822   3.766
 6448TIP3   OH219286   1.941   3.297   0.171
 6448TIP3    H119287   2.018   3.352   0.186
 6448TIP3    H219288   1.867   3.350   0.199
 6449TIP3   OH219289   1.427   4.342   0.787
 6449TIP3    H119290   1.482   4.402   0.838
 6449TIP3    H219291   1.421   4.263   0.840
 6450TIP3   OH219292   1.285   4.429   2.532
 6450TIP3    H119293   1.319   4.406   2.446
 6450TIP3    H219294   1.340   4.502   2.560
 6451TIP3   OH219295   3.478   6.463   0.970
 6451TIP3    H119296   3.546   6.528   0.988
 6451TIP3    H219297   3.461   6.472   0.876
 6452TIP3   OH219298   8.255   2.976   1.777
 6452TIP3    H119299   8.257   2.880   1.778
 6452TIP3    H219300   8.345   3.001   1.759
 6453TIP3   OH219301   7.408   2.763   3.206
 6453TIP3    H119302   7.428   2.786   3.116
 6453TIP3    H219303   7.355   2.837   3.238
 6454TIP3   OH219304   6.423   3.491   1.127
 6454TIP3    H119305   6.497   3.497   1.067
 6454TIP3    H219306   6.350   3.533   1.080
 6455TIP3   OH219307   0.999   5.881   6.407
 6455TIP3    H119308   1.072   5.912   6.461
 6455TIP3    H219309   0.963   5.807   6.456
 6456TIP3   OH219310   3.484   6.784   2.774
 6456TIP3    H119311   3.511   6.819   2.689
 6456TIP3    H219312   3.500   6.690   2.767
 6457TIP3   OH219313   7.239   1.165   6.745
 6457TIP3    H119314   7.192   1.245   6.722
 6457TIP3    H219315   7.283   1.139   6.665
 6458TIP3   OH219316   1.883   0.337   4.246
 6458TIP3    H119317   1.806   0.317   4.300
 6458TIP3    H219318   1.877   0.432   4.232
 6459TIP3   OH219319   0.375   4.157   5.234
 6459TIP3    H119320   0.312   4.197   5.295
 6459TIP3    H219321   0.334   4.075   5.208
 6460TIP3   OH219322   0.853   7.709   5.512
 6460TIP3    H119323   0.888   7.668   5.591
 6460TIP3    H219324   0.892   7.797   5.511
 6461TIP3   OH219325   6.071   5.642   1.017
 6461TIP3    H119326   6.094   5.720   1.068
 6461TIP3    H219327   5.975   5.642   1.016
 6462TIP3   OH219328   1.967   3.291   5.988
 6462TIP3    H119329   1.926   3.377   5.976
 6462TIP3    H219330   1.997   3.267   5.900
 6463TIP3   OH219331   5.070   3.401   5.000
 6463TIP3    H119332   5.004   3.385   4.933
 6463TIP3    H219333   5.066   3.495   5.017
 6464TIP3   OH219334   6.000   7.803   0.964
 6464TIP3    H119335   6.064   7.855   0.916
 6464TIP3    H219336   6.038   7.715   0.966
 6465TIP3   OH219337   6.839   5.944   1.441
 6465TIP3    H119338   6.870   6.018   1.389
 6465TIP3    H219339   6.745   5.958   1.450
 6466TIP3   OH219340   8.029   7.012   3.009
 6466TIP3    H119341   8.123   6.995   3.009
 6466TIP3    H219342   8.020   7.101   3.042
 6467TIP3   OH219343   6.550   7.689   1.147
 6467TIP3    H119344   6.528   7.777   1.116
 6467TIP3    H219345   6.639   7.697   1.183
 6468TIP3   OH219346   8.107   6.064   0.998
 6468TIP3    H119347   8.108   5.979   1.041
 6468TIP3    H219348   8.028   6.063   0.944
 6469TIP3   OH219349   3.637   6.975   5.400
 6469TIP3    H119350   3.612   6.909   5.335
 6469TIP3    H219351   3.660   7.052   5.348
 6470TIP3   OH219352   7.505   0.137   6.171
 6470TIP3    H119353   7.419   0.176   6.155
 6470TIP3    H219354   7.538   0.182   6.249
 6471TIP3   OH219355   3.462   2.221   1.458
 6471TIP3    H119356   3.423   2.136   1.438
 6471TIP3    H219357   3.435   2.278   1.385
 6472TIP3   OH219358   4.759   1.013   1.824
 6472TIP3    H119359   4.847   0.994   1.857
 6472TIP3    H219360   4.741   0.944   1.761
 6473TIP3   OH219361   2.519   4.496   4.540
 6473TIP3    H119362   2.605   4.489   4.498
 6473TIP3    H219363   2.489   4.585   4.520
 6474TIP3   OH219364   4.307   4.183   2.045
 6474TIP3    H119365   4.372   4.242   2.005
 6474TIP3    H219366   4.223   4.226   2.029
 6475TIP3   OH219367   3.962   2.292   5.663
 6475TIP3    H119368   3.921   2.275   5.578
 6475TIP3    H219369   3.893   2.275   5.727
 6476TIP3   OH219370   2.977   0.738   6.710
 6476TIP3    H119371   2.886   0.718   6.731
 6476TIP3    H219372   2.972   0.790   6.630
 6477TIP3   OH219373   4.648   7.228   1.060
 6477TIP3    H119374   4.712   7.200   1.126
 6477TIP3    H219375   4.577   7.164   1.068
 6478TIP3   OH219376   3.100   0.986   5.980
 6478TIP3    H119377   3.028   0.977   6.042
 6478TIP3    H219378   3.102   0.902   5.934
 6479TIP3   OH219379   1.116   5.382   3.234
 6479TIP3    H119380   1.135   5.294   3.266
 6479TIP3    H219381   1.184   5.399   3.169
 6480TIP3   OH219382   3.067   1.640   6.450
 6480TIP3    H119383   3.034   1.583   6.381
 6480TIP3    H219384   3.099   1.580   6.517
 6481TIP3   OH219385   4.431   1.325   4.570
 6481TIP3    H119386   4.366   1.395   4.584
 6481TIP3    H219387   4.512   1.361   4.605
 6482TIP3   OH219388   3.466   0.451   4.680
 6482TIP3    H119389   3.435   0.506   4.607
 6482TIP3    H219390   3.472   0.512   4.754
 6483TIP3   OH219391   0.198   3.077   6.300
 6483TIP3    H119392   0.219   3.129   6.223
 6483TIP3    H219393   0.254   3.114   6.369
 6484TIP3   OH219394   1.433   0.923   1.337
 6484TIP3    H119395   1.503   0.871   1.296
 6484TIP3    H219396   1.469   1.011   1.343
 6485TIP3   OH219397   6.265   1.734   5.796
 6485TIP3    H119398   6.267   1.640   5.812
 6485TIP3    H219399   6.296   1.745   5.707
 6486TIP3   OH219400   3.044   0.297   4.907
 6486TIP3    H119401   3.006   0.278   4.822
 6486TIP3    H219402   3.135   0.321   4.888
 6487TIP3   OH219403   3.512   5.261   4.724
 6487TIP3    H119404   3.567   5.260   4.803
 6487TIP3    H219405   3.528   5.347   4.686
 6488TIP3   OH219406   6.645   4.045   6.215
 6488TIP3    H119407   6.698   4.022   6.139
 6488TIP3    H219408   6.582   4.109   6.181
 6489TIP3   OH219409   4.533   0.597   1.142
 6489TIP3    H119410   4.551   0.544   1.064
 6489TIP3    H219411   4.440   0.585   1.158
 6490TIP3   OH219412   2.912   5.270   0.629
 6490TIP3    H119413   2.980   5.323   0.670
 6490TIP3    H219414   2.830   5.304   0.665
 6491TIP3   OH219415   6.998   4.651   2.135
 6491TIP3    H119416   6.974   4.591   2.205
 6491TIP3    H219417   6.956   4.615   2.057
 6492TIP3   OH219418   7.040   2.540   0.165
 6492TIP3    H119419   7.048   2.635   0.154
 6492TIP3    H219420   7.002   2.529   0.252
 6493TIP3   OH219421   5.463   7.775   6.597
 6493TIP3    H119422   5.506   7.719   6.662
 6493TIP3    H219423   5.400   7.717   6.554
 6494TIP3   OH219424   3.591   5.247   1.963
 6494TIP3    H119425   3.658   5.181   1.945
 6494TIP3    H219426   3.639   5.323   1.996
 6495TIP3   OH219427   3.767   1.467   2.561
 6495TIP3    H119428   3.712   1.447   2.484
 6495TIP3    H219429   3.801   1.555   2.543
 6496TIP3   OH219430   2.649   7.627   1.400
 6496TIP3    H119431   2.739   7.631   1.369
 6496TIP3    H219432   2.599   7.592   1.326
 6497TIP3   OH219433   6.141   1.518   6.672
 6497TIP3    H119434   6.129   1.598   6.620
 6497TIP3    H219435   6.059   1.509   6.721
 6498TIP3   OH219436   3.280   1.616   1.240
 6498TIP3    H119437   3.360   1.668   1.248
 6498TIP3    H219438   3.215   1.677   1.205
 6499TIP3   OH219439   2.426   0.264   0.967
 6499TIP3    H119440   2.342   0.311   0.964
 6499TIP3    H219441   2.473   0.293   0.890
 6500TIP3   OH219442   7.537   5.740   5.359
 6500TIP3    H119443   7.549   5.813   5.420
 6500TIP3    H219444   7.618   5.738   5.307
 6501TIP3   OH219445   1.043   0.211   5.612
 6501TIP3    H119446   1.120   0.207   5.556
 6501TIP3    H219447   0.971   0.230   5.553
 6502TIP3   OH219448   6.729   6.000   6.381
 6502TIP3    H119449   6.783   6.075   6.355
 6502TIP3    H219450   6.780   5.924   6.355
 6503TIP3   OH219451   5.325   3.119   3.741
 6503TIP3    H119452   5.363   3.061   3.807
 6503TIP3    H219453   5.299   3.197   3.790
 6504TIP3   OH219454   6.154   1.382   5.517
 6504TIP3    H119455   6.171   1.413   5.428
 6504TIP3    H219456   6.093   1.447   5.553
 6505TIP3   OH219457   1.794   5.115   1.757
 6505TIP3    H119458   1.722   5.105   1.820
 6505TIP3    H219459   1.751   5.145   1.677
 6506TIP3   OH219460   5.215   3.896   5.859
 6506TIP3    H119461   5.187   3.812   5.822
 6506TIP3    H219462   5.151   3.914   5.928
 6507TIP3   OH219463   3.095   1.875   6.154
 6507TIP3    H119464   3.133   1.963   6.155
 6507TIP3    H219465   3.143   1.827   6.222
 6508TIP3   OH219466   1.819   1.081   1.867
 6508TIP3    H119467   1.778   1.055   1.785
 6508TIP3    H219468   1.763   1.149   1.902
 6509TIP3   OH219469   3.127   6.577   5.853
 6509TIP3    H119470   3.187   6.503   5.852
 6509TIP3    H219471   3.123   6.606   5.761
 6510TIP3   OH219472   0.637   2.265   0.188
 6510TIP3    H119473   0.593   2.277   0.272
 6510TIP3    H219474   0.568   2.280   0.123
 6511TIP3   OH219475   7.110   2.685   3.263
 6511TIP3    H119476   7.135   2.641   3.345
 6511TIP3    H219477   7.192   2.691   3.214
 6512TIP3   OH219478   3.261   7.213   4.401
 6512TIP3    H119479   3.351   7.222   4.432
 6512TIP3    H219480   3.207   7.244   4.473
 6513TIP3   OH219481   1.965   0.786   1.586
 6513TIP3    H119482   1.915   0.769   1.666
 6513TIP3    H219483   1.898   0.808   1.521
 6514TIP3   OH219484   1.996   5.482   4.982
 6514TIP3    H119485   2.024   5.448   4.897
 6514TIP3    H219486   2.010   5.577   4.976
 6515TIP3   OH219487   2.176   2.744   0.202
 6515TIP3    H119488   2.189   2.815   0.138
 6515TIP3    H219489   2.265   2.720   0.228
 6516TIP3   OH219490   5.113   0.898   0.557
 6516TIP3    H119491   5.096   0.806   0.540
 6516TIP3    H219492   5.117   0.938   0.469
 6517TIP3   OH219493   7.461   7.690   5.442
 6517TIP3    H119494   7.418   7.719   5.361
 6517TIP3    H219495   7.404   7.621   5.476
 6518TIP3   OH219496   6.241   0.231   6.034
 6518TIP3    H119497   6.161   0.278   6.012
 6518TIP3    H219498   6.211   0.146   6.066
 6519TIP3   OH219499   6.026   0.632   1.569
 6519TIP3    H119500   5.998   0.644   1.659
 6519TIP3    H219501   5.945   0.630   1.518
 6520TIP3   OH219502   3.311   7.032   5.097
 6520TIP3    H119503   3.330   7.115   5.141
 6520TIP3    H219504   3.360   7.035   5.016
 6521TIP3   OH219505   7.498   6.360   6.464
 6521TIP3    H119506   7.591   6.375   6.449
 6521TIP3    H219507   7.484   6.269   6.440
 6522TIP3   OH219508   1.517   5.781   0.445
 6522TIP3    H119509   1.531   5.789   0.539
 6522TIP3    H219510   1.481   5.866   0.419
 6523TIP3   OH219511   2.076   3.504   5.030
 6523TIP3    H119512   2.054   3.549   5.112
 6523TIP3    H219513   2.061   3.570   4.963
 6524TIP3   OH219514   5.474   5.737   5.345
 6524TIP3    H119515   5.546   5.734   5.408
 6524TIP3    H219516   5.421   5.660   5.363
 6525TIP3   OH219517   0.801   0.830   2.436
 6525TIP3    H119518   0.885   0.867   2.410
 6525TIP3    H219519   0.767   0.891   2.502
 6526TIP3   OH219520   3.505   0.539   2.308
 6526TIP3    H119521   3.454   0.590   2.245
 6526TIP3    H219522   3.473   0.449   2.296
 6527TIP3   OH219523   0.318   2.372   5.020
 6527TIP3    H119524   0.331   2.467   5.029
 6527TIP3    H219525   0.245   2.353   5.078
 6528TIP3   OH219526   3.532   3.067   6.660
 6528TIP3    H119527   3.587   2.989   6.648
 6528TIP3    H219528   3.451   3.047   6.613
 6529TIP3   OH219529   6.849   4.694   5.432
 6529TIP3    H119530   6.880   4.732   5.349
 6529TIP3    H219531   6.898   4.612   5.440
 6530TIP3   OH219532   1.229   5.688   6.515
 6530TIP3    H119533   1.252   5.738   6.437
 6530TIP3    H219534   1.177   5.749   6.568
 6531TIP3   OH219535   3.168   3.262   6.028
 6531TIP3    H119536   3.150   3.168   6.032
 6531TIP3    H219537   3.115   3.294   5.956
 6532TIP3   OH219538   8.182   4.815   3.232
 6532TIP3    H119539   8.196   4.855   3.318
 6532TIP3    H219540   8.088   4.825   3.216
 6533TIP3   OH219541   3.553   0.377   1.994
 6533TIP3    H119542   3.531   0.307   1.932
 6533TIP3    H219543   3.637   0.411   1.962
 6534TIP3   OH219544   4.166   5.374   3.933
 6534TIP3    H119545   4.226   5.328   3.874
 6534TIP3    H219546   4.207   5.367   4.019
 6535TIP3   OH219547   2.499   4.200   0.908
 6535TIP3    H119548   2.516   4.106   0.920
 6535TIP3    H219549   2.522   4.216   0.816
 6536TIP3   OH219550   8.178   2.002   6.445
 6536TIP3    H119551   8.242   1.989   6.515
 6536TIP3    H219552   8.104   2.046   6.488
 6537TIP3   OH219553   2.048   4.514   2.223
 6537TIP3    H119554   2.084   4.600   2.201
 6537TIP3    H219555   2.125   4.458   2.235
 6538TIP3   OH219556   3.864   0.641   2.963
 6538TIP3    H119557   3.955   0.635   2.934
 6538TIP3    H219558   3.869   0.637   3.059
 6539TIP3   OH219559   0.864   5.022   0.073
 6539TIP3    H119560   0.778   5.066   0.069
 6539TIP3    H219561   0.925   5.089   0.043
 6540TIP3   OH219562   0.717   6.455   0.467
 6540TIP3    H119563   0.721   6.550   0.467
 6540TIP3    H219564   0.644   6.434   0.525
 6541TIP3   OH219565   0.816   1.629   4.999
 6541TIP3    H119566   0.852   1.717   4.995
 6541TIP3    H219567   0.767   1.619   4.917
 6542TIP3   OH219568   7.040   0.430   6.127
 6542TIP3    H119569   6.993   0.458   6.048
 6542TIP3    H219570   6.974   0.386   6.180
 6543TIP3   OH219571   7.810   1.750   5.488
 6543TIP3    H119572   7.735   1.763   5.429
 6543TIP3    H219573   7.878   1.711   5.432
 6544TIP3   OH219574   6.829   5.393   4.489
 6544TIP3    H119575   6.834   5.405   4.584
 6544TIP3    H219576   6.876   5.311   4.473
 6545TIP3   OH219577   4.279   2.713   6.123
 6545TIP3    H119578   4.317   2.637   6.167
 6545TIP3    H219579   4.219   2.676   6.059
 6546TIP3   OH219580   3.409   4.625   5.725
 6546TIP3    H119581   3.379   4.713   5.746
 6546TIP3    H219582   3.329   4.575   5.710
 6547TIP3   OH219583   1.731   5.101   6.365
 6547TIP3    H119584   1.731   5.168   6.433
 6547TIP3    H219585   1.745   5.019   6.412
 6548TIP3   OH219586   6.024   2.470   0.372
 6548TIP3    H119587   6.028   2.469   0.276
 6548TIP3    H219588   6.114   2.487   0.400
 6549TIP3   OH219589   5.922   4.685   1.551
 6549TIP3    H119590   6.013   4.653   1.550
 6549TIP3    H219591   5.929   4.777   1.575
 6550TIP3   OH219592   7.454   0.405   2.699
 6550TIP3    H119593   7.372   0.446   2.728
 6550TIP3    H219594   7.498   0.474   2.648
 6551TIP3   OH219595   1.366   0.066   1.252
 6551TIP3    H119596   1.429   0.045   1.183
 6551TIP3    H219597   1.331  -0.019   1.278
 6552TIP3   OH219598   1.890   0.822   0.171
 6552TIP3    H119599   1.848   0.830   0.086
 6552TIP3    H219600   1.959   0.757   0.158
 6553TIP3   OH219601   1.315   0.204   1.853
 6553TIP3    H119602   1.331   0.215   1.759
 6553TIP3    H219603   1.366   0.128   1.878
 6554TIP3   OH219604   6.950   1.180   2.526
 6554TIP3    H119605   6.959   1.199   2.433
 6554TIP3    H219606   6.872   1.229   2.553
 6555TIP3   OH219607   7.269   2.464   5.353
 6555TIP3    H119608   7.209   2.391   5.366
 6555TIP3    H219609   7.224   2.540   5.390
 6556TIP3   OH219610   5.907   5.662   1.617
 6556TIP3    H119611   5.941   5.696   1.534
 6556TIP3    H219612   5.984   5.631   1.664
 6557TIP3   OH219613   3.553   5.976   3.443
 6557TIP3    H119614   3.502   6.058   3.442
 6557TIP3    H219615   3.579   5.966   3.535
 6558TIP3   OH219616   4.815   3.452   4.096
 6558TIP3    H119617   4.773   3.449   4.010
 6558TIP3    H219618   4.743   3.460   4.158
 6559TIP3   OH219619   2.490   0.753   5.025
 6559TIP3    H119620   2.410   0.784   4.985
 6559TIP3    H219621   2.545   0.725   4.952
 6560TIP3   OH219622   4.814   2.919   3.940
 6560TIP3    H119623   4.877   2.966   3.885
 6560TIP3    H219624   4.865   2.848   3.980
 6561TIP3   OH219625   8.177   0.928   4.612
 6561TIP3    H119626   8.101   0.935   4.554
 6561TIP3    H219627   8.233   0.862   4.570
 6562TIP3   OH219628   1.085   7.778   1.260
 6562TIP3    H119629   1.081   7.752   1.352
 6562TIP3    H219630   1.109   7.871   1.263
 6563TIP3   OH219631   5.022   5.466   3.645
 6563TIP3    H119632   5.042   5.549   3.602
 6563TIP3    H219633   5.011   5.488   3.738
 6564TIP3   OH219634   1.748   4.334   4.906
 6564TIP3    H119635   1.799   4.342   4.987
 6564TIP3    H219636   1.799   4.275   4.851
 6565TIP3   OH219637   6.444   7.430   4.481
 6565TIP3    H119638   6.487   7.412   4.397
 6565TIP3    H219639   6.464   7.523   4.498
 6566TIP3   OH219640   7.082   5.463   3.953
 6566TIP3    H119641   7.035   5.411   3.888
 6566TIP3    H219642   7.062   5.554   3.932
 6567TIP3   OH219643   7.048   6.366   1.924
 6567TIP3    H119644   6.959   6.369   1.890
 6567TIP3    H219645   7.104   6.371   1.847
 6568TIP3   OH219646   2.282   4.372   2.211
 6568TIP3    H119647   2.335   4.376   2.290
 6568TIP3    H219648   2.345   4.379   2.139
 6569TIP3   OH219649   5.598   0.225   6.444
 6569TIP3    H119650   5.575   0.313   6.417
 6569TIP3    H219651   5.682   0.236   6.490
 6570TIP3   OH219652   4.504   7.264   2.112
 6570TIP3    H119653   4.515   7.273   2.017
 6570TIP3    H219654   4.590   7.284   2.148
 6571TIP3   OH219655   6.778   1.389   6.518
 6571TIP3    H119656   6.873   1.396   6.513
 6571TIP3    H219657   6.761   1.295   6.510
 6572TIP3   OH219658   1.189   7.685   4.085
 6572TIP3    H119659   1.116   7.703   4.143
 6572TIP3    H219660   1.210   7.769   4.045
 6573TIP3   OH219661   1.259   7.299   1.717
 6573TIP3    H119662   1.229   7.211   1.697
 6573TIP3    H219663   1.198   7.357   1.670
 6574TIP3   OH219664   4.218   4.904   3.473
 6574TIP3    H119665   4.133   4.943   3.491
 6574TIP3    H219666   4.241   4.937   3.386
 6575TIP3   OH219667   1.594   3.134   3.632
 6575TIP3    H119668   1.606   3.188   3.554
 6575TIP3    H219669   1.648   3.177   3.699
 6576TIP3   OH219670   0.349   6.444   5.606
 6576TIP3    H119671   0.343   6.474   5.697
 6576TIP3    H219672   0.308   6.357   5.608
 6577TIP3   OH219673   7.656   2.413   1.922
 6577TIP3    H119674   7.719   2.366   1.866
 6577TIP3    H219675   7.593   2.346   1.948
 6578TIP3   OH219676   5.158   7.188   2.666
 6578TIP3    H119677   5.148   7.174   2.572
 6578TIP3    H219678   5.096   7.258   2.687
 6579TIP3   OH219679   6.869   5.111   5.774
 6579TIP3    H119680   6.831   5.128   5.688
 6579TIP3    H219681   6.854   5.191   5.823
 6580TIP3   OH219682   3.621   5.233   4.199
 6580TIP3    H119683   3.686   5.165   4.216
 6580TIP3    H219684   3.664   5.290   4.135
 6581TIP3   OH219685   5.692   4.006   5.937
 6581TIP3    H119686   5.632   3.932   5.943
 6581TIP3    H219687   5.717   4.010   5.845
 6582TIP3   OH219688   6.161   6.167   5.275
 6582TIP3    H119689   6.139   6.074   5.270
 6582TIP3    H219690   6.077   6.212   5.276
 6583TIP3   OH219691   4.905   6.170   0.655
 6583TIP3    H119692   4.908   6.266   0.645
 6583TIP3    H219693   4.934   6.155   0.745
 6584TIP3   OH219694   0.588   6.072   6.529
 6584TIP3    H119695   0.508   6.054   6.577
 6584TIP3    H219696   0.567   6.050   6.438
 6585TIP3   OH219697   0.770   2.778   3.630
 6585TIP3    H119698   0.710   2.724   3.682
 6585TIP3    H219699   0.769   2.739   3.543
 6586TIP3   OH219700   2.629   1.682   0.365
 6586TIP3    H119701   2.660   1.764   0.402
 6586TIP3    H219702   2.559   1.654   0.423
 6587TIP3   OH219703   0.360   5.036   0.806
 6587TIP3    H119704   0.281   5.000   0.765
 6587TIP3    H219705   0.384   5.110   0.751
 6588TIP3   OH219706   4.233   5.385   5.585
 6588TIP3    H119707   4.288   5.363   5.509
 6588TIP3    H219708   4.146   5.400   5.548
 6589TIP3   OH219709   6.113   5.823   6.296
 6589TIP3    H119710   6.080   5.834   6.385
 6589TIP3    H219711   6.138   5.731   6.291
 6590TIP3   OH219712   7.734   6.554   4.866
 6590TIP3    H119713   7.712   6.643   4.836
 6590TIP3    H219714   7.704   6.552   4.958
 6591TIP3   OH219715   7.696   6.011  -0.012
 6591TIP3    H119716   7.769   5.949  -0.003
 6591TIP3    H219717   7.699   6.063   0.068
 6592TIP3   OH219718   4.602   5.481   0.618
 6592TIP3    H119719   4.626   5.509   0.529
 6592TIP3    H219720   4.630   5.554   0.674
 6593TIP3   OH219721   7.086   0.778   3.191
 6593TIP3    H119722   7.010   0.820   3.231
 6593TIP3    H219723   7.049   0.721   3.123
 6594TIP3   OH219724   0.310   0.133   0.263
 6594TIP3    H119725   0.232   0.123   0.208
 6594TIP3    H219726   0.359   0.204   0.222
 6595TIP3   OH219727   1.506   2.492   3.773
 6595TIP3    H119728   1.494   2.431   3.845
 6595TIP3    H219729   1.431   2.476   3.715
 6596TIP3   OH219730   2.767   4.655   1.081
 6596TIP3    H119731   2.725   4.740   1.093
 6596TIP3    H219732   2.799   4.631   1.169
 6597TIP3   OH219733   1.470   6.982   2.287
 6597TIP3    H119734   1.483   6.893   2.255
 6597TIP3    H219735   1.425   6.971   2.371
 6598TIP3   OH219736   1.709   6.592   4.936
 6598TIP3    H119737   1.740   6.610   4.847
 6598TIP3    H219738   1.614   6.583   4.927
 6599TIP3   OH219739   0.914   6.311   0.623
 6599TIP3    H119740   0.880   6.227   0.654
 6599TIP3    H219741   0.838   6.355   0.584
 6600TIP3   OH219742   3.767   0.685   3.906
 6600TIP3    H119743   3.773   0.731   3.822
 6600TIP3    H219744   3.677   0.700   3.935
 6601TIP3   OH219745   7.907   1.754   0.835
 6601TIP3    H119746   7.822   1.719   0.809
 6601TIP3    H219747   7.894   1.848   0.838
 6602TIP3   OH219748   4.851   5.900   2.908
 6602TIP3    H119749   4.929   5.853   2.880
 6602TIP3    H219750   4.782   5.833   2.910
 6603TIP3   OH219751   0.557   3.341   5.787
 6603TIP3    H119752   0.516   3.310   5.706
 6603TIP3    H219753   0.562   3.436   5.776
 6604TIP3   OH219754   4.808   1.594   5.525
 6604TIP3    H119755   4.795   1.665   5.463
 6604TIP3    H219756   4.900   1.569   5.514
 6605TIP3   OH219757   6.546   3.440   6.713
 6605TIP3    H119758   6.524   3.360   6.665
 6605TIP3    H219759   6.561   3.505   6.645
 6606TIP3   OH219760   3.018   1.630   0.275
 6606TIP3    H119761   3.012   1.655   0.183
 6606TIP3    H219762   3.095   1.677   0.308
 6607TIP3   OH219763   6.748   4.464   1.330
 6607TIP3    H119764   6.817   4.398   1.335
 6607TIP3    H219765   6.685   4.429   1.267
 6608TIP3   OH219766   8.259   5.836   2.660
 6608TIP3    H119767   8.173   5.819   2.699
 6608TIP3    H219768   8.321   5.797   2.722
 6609TIP3   OH219769   6.702   6.444   6.650
 6609TIP3    H119770   6.712   6.351   6.628
 6609TIP3    H219771   6.660   6.444   6.736
 6610TIP3   OH219772   4.421   1.564   4.245
 6610TIP3    H119773   4.401   1.611   4.325
 6610TIP3    H219774   4.496   1.508   4.267
 6611TIP3   OH219775   1.020   3.949   6.593
 6611TIP3    H119776   1.055   4.016   6.534
 6611TIP3    H219777   1.069   3.870   6.571
 6612TIP3   OH219778   5.469   4.046   2.418
 6612TIP3    H119779   5.377   4.054   2.442
 6612TIP3    H219780   5.489   4.127   2.372
 6613TIP3   OH219781   6.033   1.491   2.285
 6613TIP3    H119782   6.034   1.576   2.329
 6613TIP3    H219783   5.945   1.483   2.250
 6614TIP3   OH219784   0.113   7.148   4.275
 6614TIP3    H119785   0.180   7.083   4.295
 6614TIP3    H219786   0.121   7.163   4.180
 6615TIP3   OH219787   1.934   4.455   3.046
 6615TIP3    H119788   1.920   4.361   3.056
 6615TIP3    H219789   1.851   4.495   3.071
 6616TIP3   OH219790   4.240   6.800   0.243
 6616TIP3    H119791   4.276   6.882   0.210
 6616TIP3    H219792   4.309   6.764   0.298
 6617TIP3   OH219793   8.254   2.302   4.018
 6617TIP3    H119794   8.254   2.332   3.927
 6617TIP3    H219795   8.344   2.276   4.035
 6618TIP3   OH219796   2.573   6.623   4.194
 6618TIP3    H119797   2.545   6.533   4.176
 6618TIP3    H219798   2.669   6.616   4.201
 6619TIP3   OH219799   1.581   6.734   0.857
 6619TIP3    H119800   1.617   6.767   0.776
 6619TIP3    H219801   1.528   6.658   0.831
 6620TIP3   OH219802   2.404   7.662   3.362
 6620TIP3    H119803   2.326   7.613   3.387
 6620TIP3    H219804   2.470   7.596   3.344
 6621TIP3   OH219805   1.696   3.933   0.890
 6621TIP3    H119806   1.787   3.946   0.915
 6621TIP3    H219807   1.694   3.946   0.796
 6622TIP3   OH219808   4.177   4.738   1.742
 6622TIP3    H119809   4.173   4.642   1.737
 6622TIP3    H219810   4.223   4.764   1.662
 6623TIP3   OH219811   4.137   0.394   5.941
 6623TIP3    H119812   4.044   0.378   5.924
 6623TIP3    H219813   4.166   0.317   5.990
 6624TIP3   OH219814   0.625   4.882   1.815
 6624TIP3    H119815   0.679   4.949   1.773
 6624TIP3    H219816   0.623   4.809   1.753
 6625TIP3   OH219817   0.526   0.956   5.593
 6625TIP3    H119818   0.541   0.982   5.684
 6625TIP3    H219819   0.464   0.883   5.598
 6626TIP3   OH219820   6.332   5.848   3.021
 6626TIP3    H119821   6.259   5.796   3.055
 6626TIP3    H219822   6.392   5.854   3.095
 6627TIP3   OH219823   7.945   3.671   1.123
 6627TIP3    H119824   7.882   3.658   1.194
 6627TIP3    H219825   7.982   3.584   1.107
 6628TIP3   OH219826   3.752   5.462   5.117
 6628TIP3    H119827   3.683   5.522   5.088
 6628TIP3    H219828   3.832   5.495   5.077
 6629TIP3   OH219829   2.579   3.150   0.559
 6629TIP3    H119830   2.600   3.057   0.565
 6629TIP3    H219831   2.484   3.154   0.561
 6630TIP3   OH219832   7.329   2.695   2.113
 6630TIP3    H119833   7.303   2.690   2.205
 6630TIP3    H219834   7.344   2.604   2.087
 6631TIP3   OH219835   0.883   2.352   0.518
 6631TIP3    H119836   0.793   2.385   0.512
 6631TIP3    H219837   0.887   2.310   0.604
 6632TIP3   OH219838   2.887   0.808   1.940
 6632TIP3    H119839   2.907   0.781   1.850
 6632TIP3    H219840   2.829   0.883   1.929
 6633TIP3   OH219841   4.726   2.040   6.612
 6633TIP3    H119842   4.812   2.042   6.654
 6633TIP3    H219843   4.686   2.124   6.634
 6634TIP3   OH219844   3.466   5.916   6.675
 6634TIP3    H119845   3.515   5.835   6.688
 6634TIP3    H219846   3.457   5.953   6.762
 6635TIP3   OH219847   2.381   6.248   3.068
 6635TIP3    H119848   2.465   6.203   3.068
 6635TIP3    H219849   2.317   6.179   3.088
 6636TIP3   OH219850   7.473   0.813   2.190
 6636TIP3    H119851   7.458   0.724   2.157
 6636TIP3    H219852   7.493   0.864   2.112
 6637TIP3   OH219853   2.383   1.778   1.177
 6637TIP3    H119854   2.359   1.750   1.089
 6637TIP3    H219855   2.474   1.808   1.168
 6638TIP3   OH219856   0.513   6.869   4.505
 6638TIP3    H119857   0.578   6.874   4.434
 6638TIP3    H219858   0.562   6.896   4.583
 6639TIP3   OH219859   1.378   3.856   3.857
 6639TIP3    H119860   1.435   3.790   3.816
 6639TIP3    H219861   1.417   3.940   3.833
 6640TIP3   OH219862   5.515   1.269   4.475
 6640TIP3    H119863   5.536   1.309   4.391
 6640TIP3    H219864   5.504   1.343   4.535
 6641TIP3   OH219865   0.409   5.475   0.099
 6641TIP3    H119866   0.341   5.435   0.153
 6641TIP3    H219867   0.375   5.563   0.080
 6642TIP3   OH219868   0.417   0.719   1.447
 6642TIP3    H119869   0.372   0.762   1.520
 6642TIP3    H219870   0.448   0.791   1.392
 6643TIP3   OH219871   5.611   0.531   2.680
 6643TIP3    H119872   5.676   0.584   2.634
 6643TIP3    H219873   5.579   0.587   2.751
 6644TIP3   OH219874   5.721   7.615   6.062
 6644TIP3    H119875   5.648   7.588   6.005
 6644TIP3    H219876   5.749   7.699   6.024
 6645TIP3   OH219877   1.746   4.722   5.284
 6645TIP3    H119878   1.838   4.707   5.264
 6645TIP3    H219879   1.736   4.818   5.280
 6646TIP3   OH219880   5.018   4.005   2.902
 6646TIP3    H119881   5.079   4.018   2.830
 6646TIP3    H219882   5.054   3.931   2.951
 6647TIP3   OH219883   2.921   7.687   1.059
 6647TIP3    H119884   2.835   7.647   1.070
 6647TIP3    H219885   2.950   7.706   1.148
 6648TIP3   OH219886   6.709   2.463   2.912
 6648TIP3    H119887   6.702   2.369   2.897
 6648TIP3    H219888   6.784   2.473   2.971
 6649TIP3   OH219889   3.534   3.841   4.052
 6649TIP3    H119890   3.549   3.820   4.144
 6649TIP3    H219891   3.621   3.834   4.012
 6650TIP3   OH219892   0.529   1.569   6.654
 6650TIP3    H119893   0.535   1.638   6.719
 6650TIP3    H219894   0.444   1.527   6.670
 6651TIP3   OH219895   2.405   2.280   0.573
 6651TIP3    H119896   2.471   2.212   0.557
 6651TIP3    H219897   2.342   2.270   0.501
 6652TIP3   OH219898   2.503   0.391   5.849
 6652TIP3    H119899   2.547   0.382   5.934
 6652TIP3    H219900   2.501   0.301   5.814
 6653TIP3   OH219901   2.010   5.040   6.024
 6653TIP3    H119902   2.082   5.100   6.044
 6653TIP3    H219903   2.006   5.040   5.928
 6654TIP3   OH219904   1.647   5.815   3.446
 6654TIP3    H119905   1.589   5.745   3.414
 6654TIP3    H219906   1.590   5.891   3.455
 6655TIP3   OH219907   0.278   1.132   4.351
 6655TIP3    H119908   0.364   1.126   4.392
 6655TIP3    H219909   0.218   1.089   4.413
 6656TIP3   OH219910   5.537   3.779   1.972
 6656TIP3    H119911   5.509   3.856   2.022
 6656TIP3    H219912   5.585   3.725   2.035
 6657TIP3   OH219913   4.726   3.285   6.695
 6657TIP3    H119914   4.678   3.340   6.633
 6657TIP3    H219915   4.688   3.305   6.780
 6658TIP3   OH219916   1.024   0.460   2.337
 6658TIP3    H119917   1.019   0.367   2.360
 6658TIP3    H219918   1.014   0.506   2.420
 6659TIP3   OH219919   0.697   6.651   5.142
 6659TIP3    H119920   0.708   6.556   5.136
 6659TIP3    H219921   0.783   6.686   5.117
 6660TIP3   OH219922   4.810   5.289   2.522
 6660TIP3    H119923   4.828   5.197   2.543
 6660TIP3    H219924   4.808   5.292   2.427
 6661TIP3   OH219925   4.718   1.212   5.697
 6661TIP3    H119926   4.709   1.290   5.643
 6661TIP3    H219927   4.811   1.189   5.689
 6662TIP3   OH219928   3.366   4.075   1.465
 6662TIP3    H119929   3.430   4.105   1.530
 6662TIP3    H219930   3.373   4.139   1.394
 6663TIP3   OH219931   2.434   2.875   1.726
 6663TIP3    H119932   2.472   2.888   1.639
 6663TIP3    H219933   2.454   2.956   1.773
 6664TIP3   OH219934   7.888   0.698   0.344
 6664TIP3    H119935   7.976   0.685   0.308
 6664TIP3    H219936   7.881   0.792   0.359
 6665TIP3   OH219937   6.456   4.283   0.652
 6665TIP3    H119938   6.464   4.375   0.624
 6665TIP3    H219939   6.362   4.267   0.655
 6666TIP3   OH219940   4.956   3.708   3.963
 6666TIP3    H119941   4.865   3.723   3.936
 6666TIP3    H219942   5.005   3.777   3.919
 6667TIP3   OH219943   5.832   3.715   2.620
 6667TIP3    H119944   5.891   3.735   2.547
 6667TIP3    H219945   5.885   3.729   2.698
 6668TIP3   OH219946   5.026   0.266   2.020
 6668TIP3    H119947   5.093   0.276   2.088
 6668TIP3    H219948   5.000   0.174   2.026
 6669TIP3   OH219949   0.670   4.024   0.397
 6669TIP3    H119950   0.617   3.982   0.466
 6669TIP3    H219951   0.739   4.070   0.445
 6670TIP3   OH219952   4.349   0.922   1.332
 6670TIP3    H119953   4.321   0.991   1.393
 6670TIP3    H219954   4.282   0.854   1.342
 6671TIP3   OH219955   0.534   6.895   0.207
 6671TIP3    H119956   0.594   6.965   0.233
 6671TIP3    H219957   0.470   6.939   0.151
 6672TIP3   OH219958   3.231   0.897   3.612
 6672TIP3    H119959   3.221   0.801   3.612
 6672TIP3    H219960   3.147   0.930   3.581
 6673TIP3   OH219961   2.000   7.189   1.085
 6673TIP3    H119962   2.071   7.240   1.124
 6673TIP3    H219963   1.963   7.140   1.158
 6674TIP3   OH219964   1.272   5.645   4.243
 6674TIP3    H119965   1.178   5.658   4.256
 6674TIP3    H219966   1.291   5.561   4.283
 6675TIP3   OH219967   4.824   5.563   2.054
 6675TIP3    H119968   4.816   5.548   1.960
 6675TIP3    H219969   4.790   5.652   2.067
 6676TIP3   OH219970   1.632   4.471   5.277
 6676TIP3    H119971   1.652   4.564   5.266
 6676TIP3    H219972   1.695   4.440   5.341
 6677TIP3   OH219973   1.543   7.138   5.133
 6677TIP3    H119974   1.532   7.189   5.053
 6677TIP3    H219975   1.629   7.163   5.166
 6678TIP3   OH219976   2.051   4.280   2.440
 6678TIP3    H119977   2.016   4.290   2.351
 6678TIP3    H219978   2.080   4.368   2.464
 6679TIP3   OH219979   3.851   0.364   5.505
 6679TIP3    H119980   3.926   0.411   5.541
 6679TIP3    H219981   3.794   0.432   5.469
 6680TIP3   OH219982   4.382   6.105   6.421
 6680TIP3    H119983   4.309   6.054   6.457
 6680TIP3    H219984   4.442   6.040   6.385
 6681TIP3   OH219985   6.211   2.794   2.768
 6681TIP3    H119986   6.153   2.773   2.842
 6681TIP3    H219987   6.201   2.721   2.708
 6682TIP3   OH219988   2.357   4.012   2.316
 6682TIP3    H119989   2.351   3.917   2.318
 6682TIP3    H219990   2.406   4.032   2.236
 6683TIP3   OH219991   5.007   7.658   1.423
 6683TIP3    H119992   5.003   7.575   1.471
 6683TIP3    H219993   5.041   7.721   1.487
 6684TIP3   OH219994   4.803   4.893   4.174
 6684TIP3    H119995   4.809   4.874   4.081
 6684TIP3    H219996   4.828   4.810   4.216
 6685TIP3   OH219997   2.832   3.414   4.750
 6685TIP3    H119998   2.871   3.326   4.749
 6685TIP3    H219999   2.900   3.471   4.713
 6686TIP3   OH220000   7.291   0.626   1.778
 6686TIP3    H120001   7.353   0.623   1.850
 6686TIP3    H220002   7.274   0.534   1.757
 6687TIP3   OH220003   8.150   4.073   6.183
 6687TIP3    H120004   8.108   4.010   6.123
 6687TIP3    H220005   8.077   4.110   6.233
 6688TIP3   OH220006   1.864   0.748   1.854
 6688TIP3    H120007   1.930   0.780   1.916
 6688TIP3    H220008   1.780   0.770   1.895
 6689TIP3   OH220009   7.137   1.764   5.411
 6689TIP3    H120010   7.147   1.807   5.496
 6689TIP3    H220011   7.147   1.671   5.430
 6690TIP3   OH220012   1.153   6.711   5.339
 6690TIP3    H120013   1.181   6.753   5.420
 6690TIP3    H220014   1.058   6.710   5.344
 6691TIP3   OH220015   0.043   2.090   1.642
 6691TIP3    H120016   0.053   2.000   1.609
 6691TIP3    H220017   0.011   2.140   1.567
 6692TIP3   OH220018   4.646   0.431   5.586
 6692TIP3    H120019   4.671   0.444   5.495
 6692TIP3    H220020   4.585   0.501   5.606
 6693TIP3   OH220021   1.370   7.441   5.162
 6693TIP3    H120022   1.330   7.360   5.193
 6693TIP3    H220023   1.418   7.475   5.238
 6694TIP3   OH220024   4.036   7.107   4.818
 6694TIP3    H120025   3.980   7.046   4.771
 6694TIP3    H220026   4.002   7.194   4.795
 6695TIP3   OH220027   6.310   0.490   6.535
 6695TIP3    H120028   6.395   0.522   6.564
 6695TIP3    H220029   6.326   0.455   6.448
 6696TIP3   OH220030   6.056   1.954   5.688
 6696TIP3    H120031   5.969   1.974   5.654
 6696TIP3    H220032   6.042   1.880   5.747
 6697TIP3   OH220033   3.803   2.570   3.176
 6697TIP3    H120034   3.868   2.597   3.241
 6697TIP3    H220035   3.754   2.649   3.157
 6698TIP3   OH220036   3.465  -0.025   0.734
 6698TIP3    H120037   3.466   0.069   0.718
 6698TIP3    H220038   3.463  -0.034   0.829
 6699TIP3   OH220039   6.924   5.312   6.691
 6699TIP3    H120040   6.856   5.259   6.648
 6699TIP3    H220041   6.932   5.390   6.636
 6700TIP3   OH220042   3.070   4.004   3.951
 6700TIP3    H120043   3.025   4.054   4.018
 6700TIP3    H220044   3.163   4.022   3.965
 6701TIP3   OH220045   2.431   3.339   5.637
 6701TIP3    H120046   2.526   3.337   5.634
 6701TIP3    H220047   2.405   3.250   5.660
 6702TIP3   OH220048   5.965   7.279   3.314
 6702TIP3    H120049   6.031   7.229   3.363
 6702TIP3    H220050   6.010   7.305   3.234
 6703TIP3   OH220051   2.426   7.002   6.072
 6703TIP3    H120052   2.490   6.960   6.014
 6703TIP3    H220053   2.470   7.081   6.104
 6704TIP3   OH220054   2.168   0.007   6.623
 6704TIP3    H120055   2.173   0.084   6.567
 6704TIP3    H220056   2.226   0.027   6.696
 6705TIP3   OH220057   5.892   0.150   0.183
 6705TIP3    H120058   5.903   0.245   0.172
 6705TIP3    H220059   5.828   0.142   0.255
 6706TIP3   OH220060   2.821   2.067   2.103
 6706TIP3    H120061   2.907   2.079   2.062
 6706TIP3    H220062   2.759   2.074   2.031
 6707TIP3   OH220063   5.341   3.592   2.942
 6707TIP3    H120064   5.388   3.662   2.896
 6707TIP3    H220065   5.395   3.572   3.018
 6708TIP3   OH220066   4.471   4.492   2.557
 6708TIP3    H120067   4.557   4.521   2.526
 6708TIP3    H220068   4.484   4.400   2.581
 6709TIP3   OH220069   5.516   6.743   3.907
 6709TIP3    H120070   5.554   6.787   3.831
 6709TIP3    H220071   5.487   6.658   3.875
 6710TIP3   OH220072   3.710   5.826   5.858
 6710TIP3    H120073   3.739   5.902   5.807
 6710TIP3    H220074   3.651   5.862   5.924
 6711TIP3   OH220075   6.865   2.896   3.299
 6711TIP3    H120076   6.929   2.961   3.270
 6711TIP3    H220077   6.793   2.904   3.236
 6712TIP3   OH220078   0.174   5.329   2.095
 6712TIP3    H120079   0.101   5.298   2.041
 6712TIP3    H220080   0.147   5.310   2.185
 6713TIP3   OH220081   6.830   0.662   5.389
 6713TIP3    H120082   6.810   0.594   5.324
 6713TIP3    H220083   6.926   0.668   5.387
 6714TIP3   OH220084   7.385   7.416   4.751
 6714TIP3    H120085   7.449   7.486   4.764
 6714TIP3    H220086   7.301   7.457   4.767
 6715TIP3   OH220087   3.784   2.042   6.443
 6715TIP3    H120088   3.702   2.044   6.492
 6715TIP3    H220089   3.847   2.004   6.503
 6716TIP3   OH220090   7.641   5.169   6.137
 6716TIP3    H120091   7.646   5.092   6.080
 6716TIP3    H220092   7.678   5.139   6.220
 6717TIP3   OH220093   6.141   7.454   4.498
 6717TIP3    H120094   6.122   7.542   4.530
 6717TIP3    H220095   6.236   7.451   4.489
 6718TIP3   OH220096   6.456   5.745   4.030
 6718TIP3    H120097   6.428   5.654   4.031
 6718TIP3    H220098   6.381   5.793   3.994
 6719TIP3   OH220099   3.651   3.578   4.975
 6719TIP3    H120100   3.646   3.594   4.881
 6719TIP3    H220101   3.619   3.659   5.015
 6720TIP3   OH220102   5.177   0.735   5.633
 6720TIP3    H120103   5.087   0.763   5.619
 6720TIP3    H220104   5.190   0.743   5.728
 6721TIP3   OH220105   0.809   6.313   1.515
 6721TIP3    H120106   0.786   6.386   1.458
 6721TIP3    H220107   0.783   6.235   1.466
 6722TIP3   OH220108   0.163   6.954   5.000
 6722TIP3    H120109   0.201   6.872   4.969
 6722TIP3    H220110   0.070   6.934   5.013
 6723TIP3   OH220111   2.462   7.586   0.633
 6723TIP3    H120112   2.535   7.629   0.676
 6723TIP3    H220113   2.502   7.515   0.583
 6724TIP3   OH220114   3.768   1.592   2.087
 6724TIP3    H120115   3.791   1.585   1.994
 6724TIP3    H220116   3.674   1.610   2.086
 6725TIP3   OH220117   5.955   2.314   2.527
 6725TIP3    H120118   5.923   2.398   2.558
 6725TIP3    H220119   5.970   2.328   2.433
 6726TIP3   OH220120   7.349   6.437   5.722
 6726TIP3    H120121   7.392   6.387   5.791
 6726TIP3    H220122   7.293   6.375   5.677
 6727TIP3   OH220123   1.453   5.865   6.782
 6727TIP3    H120124   1.512   5.814   6.727
 6727TIP3    H220125   1.455   5.953   6.744
 6728TIP3   OH220126   5.080   7.377   3.629
 6728TIP3    H120127   5.127   7.390   3.711
 6728TIP3    H220128   5.148   7.380   3.562
 6729TIP3   OH220129   3.383   6.974   0.403
 6729TIP3    H120130   3.404   7.061   0.370
 6729TIP3    H220131   3.380   6.918   0.325
 6730TIP3   OH220132   4.425   7.293   5.096
 6730TIP3    H120133   4.481   7.218   5.116
 6730TIP3    H220134   4.337   7.255   5.086
 6731TIP3   OH220135   5.165   2.616   0.612
 6731TIP3    H120136   5.129   2.565   0.540
 6731TIP3    H220137   5.260   2.614   0.597
 6732TIP3   OH220138   1.246   2.210   2.856
 6732TIP3    H120139   1.182   2.180   2.792
 6732TIP3    H220140   1.197   2.212   2.939
 6733TIP3   OH220141   3.228   7.399   4.076
 6733TIP3    H120142   3.189   7.320   4.115
 6733TIP3    H220143   3.249   7.455   4.151
 6734TIP3   OH220144   2.110   6.364   0.281
 6734TIP3    H120145   2.060   6.446   0.283
 6734TIP3    H220146   2.123   6.341   0.373
 6735TIP3   OH220147   4.086   3.755  -0.009
 6735TIP3    H120148   4.181   3.767   0.001
 6735TIP3    H220149   4.061   3.701   0.066
 6736TIP3   OH220150   0.319   2.276   2.481
 6736TIP3    H120151   0.398   2.223   2.480
 6736TIP3    H220152   0.349   2.365   2.462
 6737TIP3   OH220153   1.819   6.360   0.226
 6737TIP3    H120154   1.871   6.294   0.272
 6737TIP3    H220155   1.880   6.400   0.165
 6738TIP3   OH220156   3.166   4.643   3.467
 6738TIP3    H120157   3.093   4.585   3.490
 6738TIP3    H220158   3.170   4.639   3.371
 6739TIP3   OH220159   5.681   0.430   6.007
 6739TIP3    H120160   5.753   0.424   5.945
 6739TIP3    H220161   5.711   0.381   6.084
 6740TIP3   OH220162   0.727   1.380   4.568
 6740TIP3    H120163   0.694   1.397   4.480
 6740TIP3    H220164   0.651   1.347   4.617
 6741TIP3   OH220165   4.623   7.394   5.280
 6741TIP3    H120166   4.671   7.347   5.348
 6741TIP3    H220167   4.550   7.337   5.258
 6742TIP3   OH220168   6.767   2.508   1.831
 6742TIP3    H120169   6.836   2.533   1.770
 6742TIP3    H220170   6.810   2.505   1.916
 6743TIP3   OH220171   8.075   7.336   0.002
 6743TIP3    H120172   8.162   7.371   0.020
 6743TIP3    H220173   8.019   7.413  -0.005
 6744TIP3   OH220174   4.697   4.781   2.142
 6744TIP3    H120175   4.692   4.875   2.129
 6744TIP3    H220176   4.790   4.765   2.160
 6745TIP3   OH220177   3.995   5.459   5.422
 6745TIP3    H120178   3.980   5.552   5.408
 6745TIP3    H220179   3.908   5.419   5.414
 6746TIP3   OH220180   2.141   7.677   0.168
 6746TIP3    H120181   2.062   7.705   0.122
 6746TIP3    H220182   2.212   7.693   0.106
 6747TIP3   OH220183   1.336   4.727   6.631
 6747TIP3    H120184   1.293   4.643   6.644
 6747TIP3    H220185   1.407   4.710   6.569
 6748TIP3   OH220186   1.639   2.003   1.393
 6748TIP3    H120187   1.551   2.003   1.356
 6748TIP3    H220188   1.677   2.086   1.364
 6749TIP3   OH220189   0.745   3.584   0.710
 6749TIP3    H120190   0.750   3.670   0.670
 6749TIP3    H220191   0.739   3.602   0.804
 6750TIP3   OH220192   6.293   3.401   2.575
 6750TIP3    H120193   6.310   3.311   2.603
 6750TIP3    H220194   6.353   3.416   2.503
 6751TIP3   OH220195   5.915   4.984   3.095
 6751TIP3    H120196   5.908   4.893   3.067
 6751TIP3    H220197   6.003   5.011   3.068
 6752TIP3   OH220198   0.173   4.275   3.306
 6752TIP3    H120199   0.181   4.235   3.219
 6752TIP3    H220200   0.148   4.366   3.288
 6753TIP3   OH220201   7.401   3.808   1.489
 6753TIP3    H120202   7.431   3.771   1.572
 6753TIP3    H220203   7.459   3.768   1.424
 6754TIP3   OH220204   1.647   2.309   4.021
 6754TIP3    H120205   1.618   2.309   4.112
 6754TIP3    H220206   1.711   2.380   4.017
 6755TIP3   OH220207   3.611   1.133   4.390
 6755TIP3    H120208   3.592   1.040   4.389
 6755TIP3    H220209   3.705   1.139   4.373
 6756TIP3   OH220210   7.714   5.873   6.614
 6756TIP3    H120211   7.767   5.796   6.631
 6756TIP3    H220212   7.644   5.869   6.680
 6757TIP3   OH220213   5.313   5.041   5.026
 6757TIP3    H120214   5.387   5.060   4.969
 6757TIP3    H220215   5.339   5.076   5.112
 6758TIP3   OH220216   5.094   0.137   5.288
 6758TIP3    H120217   5.073   0.211   5.345
 6758TIP3    H220218   5.043   0.064   5.324
 6759TIP3   OH220219   6.198   7.634   2.869
 6759TIP3    H120220   6.277   7.653   2.820
 6759TIP3    H220221   6.226   7.577   2.941
 6760TIP3   OH220222   6.901   3.224   0.963
 6760TIP3    H120223   6.974   3.286   0.962
 6760TIP3    H220224   6.905   3.179   0.879
 6761TIP3   OH220225   3.756   7.712   6.664
 6761TIP3    H120226   3.741   7.691   6.756
 6761TIP3    H220227   3.753   7.808   6.661
 6762TIP3   OH220228   0.584   6.933   3.841
 6762TIP3    H120229   0.653   6.901   3.900
 6762TIP3    H220230   0.618   7.016   3.808
 6763TIP3   OH220231   0.329   7.588   3.334
 6763TIP3    H120232   0.248   7.599   3.284
 6763TIP3    H220233   0.380   7.526   3.283
 6764TIP3   OH220234   1.810   4.440   2.057
 6764TIP3    H120235   1.883   4.475   2.110
 6764TIP3    H220236   1.781   4.515   2.006
 6765TIP3   OH220237   6.026   2.253   3.900
 6765TIP3    H120238   5.979   2.249   3.983
 6765TIP3    H220239   5.962   2.226   3.835
 6766TIP3   OH220240   3.181   4.108   0.516
 6766TIP3    H120241   3.125   4.034   0.493
 6766TIP3    H220242   3.188   4.160   0.436
 6767TIP3   OH220243   1.548   2.533   4.822
 6767TIP3    H120244   1.452   2.526   4.819
 6767TIP3    H220245   1.565   2.625   4.838
 6768TIP3   OH220246   0.517   1.797   3.940
 6768TIP3    H120247   0.451   1.865   3.926
 6768TIP3    H220248   0.586   1.840   3.990
 6769TIP3   OH220249   2.162   4.035   6.768
 6769TIP3    H120250   2.111   4.109   6.799
 6769TIP3    H220251   2.149   4.035   6.673
 6770TIP3   OH220252   8.187   1.153   3.300
 6770TIP3    H120253   8.157   1.063   3.287
 6770TIP3    H220254   8.126   1.190   3.364
 6771TIP3   OH220255   3.400   4.078   0.710
 6771TIP3    H120256   3.343   4.042   0.642
 6771TIP3    H220257   3.425   4.003   0.764
 6772TIP3   OH220258   2.805   1.865   3.875
 6772TIP3    H120259   2.885   1.829   3.837
 6772TIP3    H220260   2.739   1.797   3.863
 6773TIP3   OH220261   8.252   4.992   0.791
 6773TIP3    H120262   8.264   5.084   0.814
 6773TIP3    H220263   8.208   4.955   0.868
 6774TIP3   OH220264   1.440   3.401   0.136
 6774TIP3    H120265   1.405   3.482   0.099
 6774TIP3    H220266   1.397   3.392   0.220
 6775TIP3   OH220267   3.536   2.609   3.952
 6775TIP3    H120268   3.545   2.549   4.027
 6775TIP3    H220269   3.443   2.608   3.931
 6776TIP3   OH220270   2.490   6.940   0.366
 6776TIP3    H120271   2.430   6.877   0.327
 6776TIP3    H220272   2.438   7.021   0.373
 6777TIP3   OH220273   5.366   6.695   3.374
 6777TIP3    H120274   5.431   6.742   3.427
 6777TIP3    H220275   5.360   6.608   3.416
 6778TIP3   OH220276   3.176   3.722   0.934
 6778TIP3    H120277   3.183   3.636   0.892
 6778TIP3    H220278   3.084   3.747   0.924
 6779TIP3   OH220279   1.195   5.004   5.733
 6779TIP3    H120280   1.194   5.029   5.825
 6779TIP3    H220281   1.271   4.948   5.724
 6780TIP3   OH220282   8.029   2.605   0.884
 6780TIP3    H120283   8.009   2.511   0.886
 6780TIP3    H220284   8.035   2.626   0.791
 6781TIP3   OH220285   1.361   4.916   0.515
 6781TIP3    H120286   1.404   4.990   0.473
 6781TIP3    H220287   1.301   4.956   0.578
 6782TIP3   OH220288   7.445   3.965   1.148
 6782TIP3    H120289   7.481   3.876   1.155
 6782TIP3    H220290   7.500   4.018   1.205
 6783TIP3   OH220291   5.915   5.581   0.417
 6783TIP3    H120292   5.994   5.610   0.463
 6783TIP3    H220293   5.926   5.611   0.327
 6784TIP3   OH220294   1.085   1.316   4.394
 6784TIP3    H120295   1.024   1.376   4.439
 6784TIP3    H220296   1.030   1.242   4.368
 6785TIP3   OH220297   4.850   1.330   2.592
 6785TIP3    H120298   4.867   1.424   2.585
 6785TIP3    H220299   4.934   1.292   2.618
 6786TIP3   OH220300   7.752   7.219   4.752
 6786TIP3    H120301   7.788   7.136   4.720
 6786TIP3    H220302   7.754   7.277   4.676
 6787TIP3   OH220303   6.963   7.746   4.799
 6787TIP3    H120304   6.906   7.778   4.729
 6787TIP3    H220305   7.021   7.820   4.817
 6788TIP3   OH220306   6.634   5.390   2.437
 6788TIP3    H120307   6.710   5.372   2.492
 6788TIP3    H220308   6.661   5.367   2.349
 6789TIP3   OH220309   2.760   7.243   4.304
 6789TIP3    H120310   2.772   7.229   4.210
 6789TIP3    H220311   2.667   7.265   4.313
 6790TIP3   OH220312   3.346   4.081   6.011
 6790TIP3    H120313   3.266   4.029   6.009
 6790TIP3    H220314   3.390   4.058   5.929
 6791TIP3   OH220315   5.710   0.660   4.523
 6791TIP3    H120316   5.622   0.671   4.486
 6791TIP3    H220317   5.699   0.594   4.591
 6792TIP3   OH220318   5.276   3.111   4.803
 6792TIP3    H120319   5.330   3.033   4.793
 6792TIP3    H220320   5.269   3.123   4.897
 6793TIP3   OH220321   2.437   7.053   4.860
 6793TIP3    H120322   2.379   6.995   4.909
 6793TIP3    H220323   2.441   7.133   4.913
 6794TIP3   OH220324   2.163   5.957   2.194
 6794TIP3    H120325   2.143   6.028   2.134
 6794TIP3    H220326   2.211   5.893   2.142
 6795TIP3   OH220327   6.683   0.570   0.354
 6795TIP3    H120328   6.750   0.564   0.422
 6795TIP3    H220329   6.683   0.484   0.312
 6796TIP3   OH220330   0.779   1.417   5.814
 6796TIP3    H120331   0.775   1.323   5.798
 6796TIP3    H220332   0.805   1.455   5.729
 6797TIP3   OH220333   2.004   1.726   4.294
 6797TIP3    H120334   1.914   1.744   4.268
 6797TIP3    H220335   2.042   1.813   4.310
 6798TIP3   OH220336   2.628   6.331   2.017
 6798TIP3    H120337   2.558   6.387   2.050
 6798TIP3    H220338   2.707   6.384   2.026
 6799TIP3   OH220339   5.016   6.968   1.904
 6799TIP3    H120340   4.975   6.911   1.839
 6799TIP3    H220341   5.106   6.938   1.908
 6800TIP3   OH220342   7.709   6.206   2.345
 6800TIP3    H120343   7.779   6.208   2.279
 6800TIP3    H220344   7.633   6.242   2.300
 6801TIP3   OH220345   6.150   0.323   0.702
 6801TIP3    H120346   6.175   0.415   0.705
 6801TIP3    H220347   6.084   0.318   0.633
 6802TIP3   OH220348   7.022   7.335   1.470
 6802TIP3    H120349   6.960   7.393   1.514
 6802TIP3    H220350   7.019   7.363   1.378
 6803TIP3   OH220351   5.136   4.049   0.871
 6803TIP3    H120352   5.170   3.962   0.852
 6803TIP3    H220353   5.167   4.103   0.798
 6804TIP3   OH220354   3.560   0.278   5.050
 6804TIP3    H120355   3.653   0.294   5.034
 6804TIP3    H220356   3.553   0.183   5.058
 6805TIP3   OH220357   4.664   4.299   3.989
 6805TIP3    H120358   4.657   4.266   3.899
 6805TIP3    H220359   4.574   4.306   4.019
 6806TIP3   OH220360   7.353   1.977   0.732
 6806TIP3    H120361   7.274   2.031   0.733
 6806TIP3    H220362   7.378   1.973   0.640
 6807TIP3   OH220363   7.703   0.905   5.113
 6807TIP3    H120364   7.754   0.827   5.132
 6807TIP3    H220365   7.622   0.872   5.073
 6808TIP3   OH220366   4.370   0.205   2.802
 6808TIP3    H120367   4.343   0.263   2.731
 6808TIP3    H220368   4.383   0.263   2.877
 6809TIP3   OH220369   0.203   6.733   2.159
 6809TIP3    H120370   0.124   6.736   2.214
 6809TIP3    H220371   0.232   6.642   2.163
 6810TIP3   OH220372   2.313   2.032   2.799
 6810TIP3    H120373   2.335   1.961   2.859
 6810TIP3    H220374   2.259   2.091   2.850
 6811TIP3   OH220375   5.900   5.561   5.858
 6811TIP3    H120376   5.895   5.647   5.899
 6811TIP3    H220377   5.892   5.499   5.931
 6812TIP3   OH220378   0.353   7.048   0.061
 6812TIP3    H120379   0.293   7.060  -0.013
 6812TIP3    H220380   0.296   7.035   0.137
 6813TIP3   OH220381   5.866   6.528   4.528
 6813TIP3    H120382   5.838   6.607   4.575
 6813TIP3    H220383   5.953   6.550   4.493
 6814TIP3   OH220384   0.660   1.042   1.934
 6814TIP3    H120385   0.568   1.017   1.924
 6814TIP3    H220386   0.665   1.077   2.023
 6815TIP3   OH220387   7.326   7.488   2.829
 6815TIP3    H120388   7.417   7.462   2.816
 6815TIP3    H220389   7.307   7.548   2.756
 6816TIP3   OH220390   4.993   7.147   5.921
 6816TIP3    H120391   5.046   7.186   5.851
 6816TIP3    H220392   4.986   7.055   5.898
 6817TIP3   OH220393   0.009   7.059   0.905
 6817TIP3    H120394  -0.041   7.135   0.936
 6817TIP3    H220395   0.048   7.088   0.822
 6818TIP3   OH220396   3.104   6.715   5.297
 6818TIP3    H120397   3.098   6.621   5.282
 6818TIP3    H220398   3.194   6.737   5.274
 6819TIP3   OH220399   3.983   0.919   6.534
 6819TIP3    H120400   4.029   0.858   6.592
 6819TIP3    H220401   3.890   0.905   6.554
 6820TIP3   OH220402   0.052   1.107   1.863
 6820TIP3    H120403   0.082   1.022   1.894
 6820TIP3    H220404  -0.044   1.104   1.872
 6821TIP3   OH220405   6.219   3.561   4.526
 6821TIP3    H120406   6.293   3.594   4.575
 6821TIP3    H220407   6.168   3.639   4.503
 6822TIP3   OH220408   2.260   3.985   4.146
 6822TIP3    H120409   2.270   4.013   4.055
 6822TIP3    H220410   2.340   3.936   4.165
 6823TIP3   OH220411   4.892   3.409   5.470
 6823TIP3    H120412   4.842   3.363   5.403
 6823TIP3    H220413   4.946   3.341   5.511
 6824TIP3   OH220414   5.317   2.271   1.010
 6824TIP3    H120415   5.321   2.254   1.104
 6824TIP3    H220416   5.361   2.355   0.999
 6825TIP3   OH220417   3.193   2.141   6.123
 6825TIP3    H120418   3.275   2.112   6.163
 6825TIP3    H220419   3.183   2.231   6.153
 6826TIP3   OH220420   3.660   6.319   6.382
 6826TIP3    H120421   3.617   6.245   6.424
 6826TIP3    H220422   3.652   6.390   6.445
 6827TIP3   OH220423   0.332   4.937   4.440
 6827TIP3    H120424   0.339   5.023   4.400
 6827TIP3    H220425   0.366   4.876   4.374
 6828TIP3   OH220426   2.964   3.646   1.448
 6828TIP3    H120427   3.017   3.693   1.383
 6828TIP3    H220428   3.007   3.666   1.531
 6829TIP3   OH220429   4.259   2.871   1.039
 6829TIP3    H120430   4.327   2.931   1.008
 6829TIP3    H220431   4.229   2.909   1.121
 6830TIP3   OH220432   0.570   5.220   6.304
 6830TIP3    H120433   0.617   5.142   6.276
 6830TIP3    H220434   0.477   5.196   6.299
 6831TIP3   OH220435   1.696   4.668   1.975
 6831TIP3    H120436   1.723   4.725   1.903
 6831TIP3    H220437   1.600   4.674   1.975
 6832TIP3   OH220438   4.794   3.543   0.761
 6832TIP3    H120439   4.807   3.465   0.708
 6832TIP3    H220440   4.864   3.603   0.733
 6833TIP3   OH220441   3.410   1.776   4.560
 6833TIP3    H120442   3.498   1.749   4.587
 6833TIP3    H220443   3.402   1.746   4.470
 6834TIP3   OH220444   0.468   3.593   3.152
 6834TIP3    H120445   0.395   3.576   3.211
 6834TIP3    H220446   0.506   3.676   3.183
 6835TIP3   OH220447   6.318   7.044   0.307
 6835TIP3    H120448   6.345   6.957   0.337
 6835TIP3    H220449   6.276   7.084   0.383
 6836TIP3   OH220450   1.692   5.076   3.988
 6836TIP3    H120451   1.762   5.031   4.036
 6836TIP3    H220452   1.629   5.101   4.055
 6837TIP3   OH220453   3.507   1.609   5.359
 6837TIP3    H120454   3.476   1.550   5.428
 6837TIP3    H220455   3.428   1.651   5.326
 6838TIP3   OH220456   6.195   3.456   5.193
 6838TIP3    H120457   6.254   3.404   5.138
 6838TIP3    H220458   6.210   3.424   5.282
 6839TIP3   OH220459   3.125   0.241   1.869
 6839TIP3    H120460   3.161   0.201   1.948
 6839TIP3    H220461   3.079   0.319   1.900
 6840TIP3   OH220462   5.445   4.071   3.274
 6840TIP3    H120463   5.504   3.998   3.292
 6840TIP3    H220464   5.405   4.049   3.190
 6841TIP3   OH220465   1.252   0.433   6.382
 6841TIP3    H120466   1.280   0.524   6.381
 6841TIP3    H220467   1.311   0.390   6.444
 6842TIP3   OH220468   1.008   6.750   0.434
 6842TIP3    H120469   1.012   6.842   0.408
 6842TIP3    H220470   0.917   6.724   0.418
 6843TIP3   OH220471   1.416   5.964   0.240
 6843TIP3    H120472   1.324   5.970   0.265
 6843TIP3    H220473   1.462   6.024   0.299
 6844TIP3   OH220474   7.922   0.887   0.754
 6844TIP3    H120475   7.997   0.829   0.762
 6844TIP3    H220476   7.908   0.895   0.660
 6845TIP3   OH220477   2.296   6.746   1.824
 6845TIP3    H120478   2.265   6.771   1.911
 6845TIP3    H220479   2.279   6.652   1.818
 6846TIP3   OH220480   3.044   0.912   5.197
 6846TIP3    H120481   3.102   0.862   5.140
 6846TIP3    H220482   3.045   0.865   5.280
 6847TIP3   OH220483   2.992   2.293   3.997
 6847TIP3    H120484   2.973   2.229   3.929
 6847TIP3    H220485   2.945   2.372   3.970
 6848TIP3   OH220486   8.022   2.270   6.409
 6848TIP3    H120487   7.992   2.331   6.476
 6848TIP3    H220488   8.090   2.318   6.361
 6849TIP3   OH220489   6.118   7.449   1.834
 6849TIP3    H120490   6.052   7.483   1.895
 6849TIP3    H220491   6.182   7.404   1.890
 6850TIP3   OH220492   6.295   1.250   2.012
 6850TIP3    H120493   6.318   1.264   1.920
 6850TIP3    H220494   6.345   1.173   2.038
 6851TIP3   OH220495   5.849   0.543   3.499
 6851TIP3    H120496   5.853   0.462   3.447
 6851TIP3    H220497   5.913   0.529   3.569
 6852TIP3   OH220498   8.274   6.838   0.484
 6852TIP3    H120499   8.292   6.780   0.410
 6852TIP3    H220500   8.197   6.801   0.527
 6853TIP3   OH220501   2.661   0.293   1.357
 6853TIP3    H120502   2.695   0.362   1.300
 6853TIP3    H220503   2.700   0.311   1.442
 6854TIP3   OH220504   3.823   1.919   3.715
 6854TIP3    H120505   3.822   1.837   3.764
 6854TIP3    H220506   3.735   1.925   3.676
 6855TIP3   OH220507   1.552   7.295   3.896
 6855TIP3    H120508   1.534   7.387   3.875
 6855TIP3    H220509   1.513   7.246   3.824
 6856TIP3   OH220510   7.311   4.564   3.463
 6856TIP3    H120511   7.242   4.620   3.498
 6856TIP3    H220512   7.264   4.497   3.414
 6857TIP3   OH220513   2.132   0.631   2.119
 6857TIP3    H120514   2.122   0.610   2.212
 6857TIP3    H220515   2.172   0.552   2.082
 6858TIP3   OH220516   0.385   5.549   4.939
 6858TIP3    H120517   0.304   5.600   4.930
 6858TIP3    H220518   0.359   5.459   4.921
 6859TIP3   OH220519   6.509   6.743   1.315
 6859TIP3    H120520   6.452   6.711   1.245
 6859TIP3    H220521   6.555   6.817   1.276
 6860TIP3   OH220522   3.754   4.459   0.412
 6860TIP3    H120523   3.659   4.461   0.418
 6860TIP3    H220524   3.776   4.365   0.417
 6861TIP3   OH220525   6.023   1.064   1.263
 6861TIP3    H120526   6.079   0.996   1.300
 6861TIP3    H220527   5.982   1.105   1.339
 6862TIP3   OH220528   0.118   7.828   4.338
 6862TIP3    H120529   0.028   7.808   4.363
 6862TIP3    H220530   0.155   7.744   4.310
 6863TIP3   OH220531   2.351   3.743   2.263
 6863TIP3    H120532   2.444   3.743   2.241
 6863TIP3    H220533   2.344   3.689   2.341
 6864TIP3   OH220534   1.783   1.702   0.038
 6864TIP3    H120535   1.763   1.609   0.045
 6864TIP3    H220536   1.775   1.735   0.128
 6865TIP3   OH220537   3.630   6.406   1.936
 6865TIP3    H120538   3.617   6.495   1.902
 6865TIP3    H220539   3.547   6.361   1.918
 6866TIP3   OH220540   8.107   1.736   2.320
 6866TIP3    H120541   8.140   1.748   2.231
 6866TIP3    H220542   8.151   1.657   2.352
 6867TIP3   OH220543   7.333   4.342   0.982
 6867TIP3    H120544   7.312   4.251   0.961
 6867TIP3    H220545   7.343   4.384   0.896
 6868TIP3   OH220546   3.538   2.094   4.773
 6868TIP3    H120547   3.506   2.175   4.733
 6868TIP3    H220548   3.627   2.084   4.739
 6869TIP3   OH220549   1.012   0.593   6.539
 6869TIP3    H120550   1.031   0.663   6.477
 6869TIP3    H220551   1.056   0.620   6.620
 6870TIP3   OH220552   5.859   0.454   5.469
 6870TIP3    H120553   5.850   0.446   5.374
 6870TIP3    H220554   5.924   0.523   5.482
 6871TIP3   OH220555   1.451   0.320   1.294
 6871TIP3    H120556   1.431   0.227   1.282
 6871TIP3    H220557   1.384   0.366   1.244
 6872TIP3   OH220558   3.792   6.924   6.255
 6872TIP3    H120559   3.701   6.936   6.229
 6872TIP3    H220560   3.790   6.845   6.310
 6873TIP3   OH220561   1.456   7.837   1.336
 6873TIP3    H120562   1.422   7.781   1.406
 6873TIP3    H220563   1.452   7.783   1.258
 6874TIP3   OH220564   8.293   6.167   1.205
 6874TIP3    H120565   8.250   6.116   1.136
 6874TIP3    H220566   8.325   6.101   1.267
 6875TIP3   OH220567   3.035   5.467   0.757
 6875TIP3    H120568   2.980   5.505   0.826
 6875TIP3    H220569   3.114   5.439   0.802
 6876TIP3   OH220570   3.834   2.194   6.152
 6876TIP3    H120571   3.929   2.199   6.148
 6876TIP3    H220572   3.816   2.149   6.235
 6877TIP3   OH220573   3.929   7.524   0.789
 6877TIP3    H120574   3.845   7.480   0.779
 6877TIP3    H220575   3.936   7.579   0.711
 6878TIP3   OH220576   0.166   0.854   2.610
 6878TIP3    H120577   0.155   0.948   2.594
 6878TIP3    H220578   0.095   0.832   2.670
 6879TIP3   OH220579   6.916   6.996   0.428
 6879TIP3    H120580   6.856   7.028   0.496
 6879TIP3    H220581   6.985   7.062   0.425
 6880TIP3   OH220582   2.793   1.674   6.579
 6880TIP3    H120583   2.767   1.740   6.516
 6880TIP3    H220584   2.880   1.701   6.608
 6881TIP3   OH220585   2.652   3.649   5.262
 6881TIP3    H120586   2.696   3.567   5.282
 6881TIP3    H220587   2.698   3.684   5.186
 6882TIP3   OH220588   7.446   6.931   5.009
 6882TIP3    H120589   7.361   6.897   4.983
 6882TIP3    H220590   7.487   6.960   4.927
 6883TIP3   OH220591   4.918   3.102   6.526
 6883TIP3    H120592   4.872   3.024   6.494
 6883TIP3    H220593   4.938   3.152   6.448
 6884TIP3   OH220594   2.211   6.837   5.938
 6884TIP3    H120595   2.254   6.752   5.937
 6884TIP3    H220596   2.243   6.880   6.018
 6885TIP3   OH220597   4.108   0.040   6.346
 6885TIP3    H120598   4.031   0.080   6.386
 6885TIP3    H220599   4.120  -0.042   6.393
 6886TIP3   OH220600   6.358   1.713   5.514
 6886TIP3    H120601   6.417   1.643   5.541
 6886TIP3    H220602   6.417   1.784   5.487
 6887TIP3   OH220603   4.088   4.882   4.772
 6887TIP3    H120604   4.182   4.901   4.778
 6887TIP3    H220605   4.045   4.966   4.790
 6888TIP3   OH220606   7.048   5.955   3.255
 6888TIP3    H120607   7.050   5.865   3.287
 6888TIP3    H220608   6.992   5.951   3.178
 6889TIP3   OH220609   3.108   3.330   3.243
 6889TIP3    H120610   3.203   3.320   3.239
 6889TIP3    H220611   3.092   3.416   3.206
 6890TIP3   OH220612   5.730   2.674   4.913
 6890TIP3    H120613   5.721   2.721   4.996
 6890TIP3    H220614   5.823   2.677   4.893
 6891TIP3   OH220615   6.941   4.807   5.025
 6891TIP3    H120616   6.903   4.749   4.958
 6891TIP3    H220617   6.999   4.866   4.976
 6892TIP3   OH220618   4.993   6.569   2.321
 6892TIP3    H120619   4.904   6.556   2.289
 6892TIP3    H220620   5.035   6.624   2.255
 6893TIP3   OH220621   8.225   3.702   3.719
 6893TIP3    H120622   8.210   3.797   3.720
 6893TIP3    H220623   8.160   3.667   3.779
 6894TIP3   OH220624   7.349   7.440   1.062
 6894TIP3    H120625   7.269   7.461   1.110
 6894TIP3    H220626   7.344   7.494   0.983
 6895TIP3   OH220627   4.614   0.374   3.528
 6895TIP3    H120628   4.552   0.302   3.513
 6895TIP3    H220629   4.563   0.440   3.576
 6896TIP3   OH220630   3.335   0.665   4.552
 6896TIP3    H120631   3.363   0.662   4.460
 6896TIP3    H220632   3.239   0.665   4.547
 6897TIP3   OH220633   0.630   5.565   2.209
 6897TIP3    H120634   0.614   5.647   2.163
 6897TIP3    H220635   0.552   5.552   2.263
 6898TIP3   OH220636   2.099   3.298   1.144
 6898TIP3    H120637   2.071   3.222   1.195
 6898TIP3    H220638   2.063   3.282   1.057
 6899TIP3   OH220639   1.436   1.006   3.646
 6899TIP3    H120640   1.458   0.914   3.637
 6899TIP3    H220641   1.489   1.050   3.579
 6900TIP3   OH220642   0.971   6.854   6.371
 6900TIP3    H120643   0.895   6.894   6.330
 6900TIP3    H220644   0.936   6.779   6.419
 6901TIP3   OH220645   0.068   4.076   0.794
 6901TIP3    H120646   0.073   4.145   0.860
 6901TIP3    H220647   0.040   3.999   0.843
 6902TIP3   OH220648   0.094   0.055   2.924
 6902TIP3    H120649   0.182   0.094   2.919
 6902TIP3    H220650   0.077   0.047   3.018
 6903TIP3   OH220651   6.260   0.937   1.664
 6903TIP3    H120652   6.276   0.871   1.732
 6903TIP3    H220653   6.241   1.017   1.712
 6904TIP3   OH220654   3.695   1.923   5.995
 6904TIP3    H120655   3.747   1.897   5.919
 6904TIP3    H220656   3.759   1.938   6.064
 6905TIP3   OH220657   2.641   2.562   2.771
 6905TIP3    H120658   2.613   2.570   2.680
 6905TIP3    H220659   2.725   2.517   2.767
 6906TIP3   OH220660   2.834   0.127   5.545
 6906TIP3    H120661   2.879   0.126   5.460
 6906TIP3    H220662   2.752   0.174   5.528
 6907TIP3   OH220663   5.840   3.259   3.032
 6907TIP3    H120664   5.768   3.200   3.055
 6907TIP3    H220665   5.822   3.283   2.941
 6908TIP3   OH220666   1.454   4.741   0.690
 6908TIP3    H120667   1.387   4.746   0.758
 6908TIP3    H220668   1.413   4.783   0.614
 6909TIP3   OH220669   0.576   2.315   0.754
 6909TIP3    H120670   0.494   2.288   0.712
 6909TIP3    H220671   0.567   2.410   0.764
 6910TIP3   OH220672   4.608   5.366   2.689
 6910TIP3    H120673   4.661   5.316   2.627
 6910TIP3    H220674   4.556   5.425   2.635
 6911TIP3   OH220675   6.632   2.039   0.321
 6911TIP3    H120676   6.689   1.974   0.281
 6911TIP3    H220677   6.593   1.994   0.396
 6912TIP3   OH220678   4.798   3.504   1.840
 6912TIP3    H120679   4.720   3.543   1.879
 6912TIP3    H220680   4.856   3.485   1.914
 6913TIP3   OH220681   2.735   2.794   2.905
 6913TIP3    H120682   2.789   2.723   2.870
 6913TIP3    H220683   2.710   2.846   2.829
 6914TIP3   OH220684   5.548   5.516   0.196
 6914TIP3    H120685   5.627   5.487   0.151
 6914TIP3    H220686   5.574   5.594   0.244
 6915TIP3   OH220687   7.224   6.190   1.078
 6915TIP3    H120688   7.160   6.250   1.039
 6915TIP3    H220689   7.297   6.190   1.018
 6916TIP3   OH220690   5.694   1.864   1.901
 6916TIP3    H120691   5.713   1.776   1.933
 6916TIP3    H220692   5.742   1.871   1.819
 6917TIP3   OH220693   6.889   3.513   2.433
 6917TIP3    H120694   6.837   3.547   2.506
 6917TIP3    H220695   6.974   3.555   2.443
 6918TIP3   OH220696   3.421   0.822   3.839
 6918TIP3    H120697   3.492   0.868   3.794
 6918TIP3    H220698   3.353   0.813   3.772
 6919TIP3   OH220699   4.456   1.571   2.486
 6919TIP3    H120700   4.477   1.509   2.415
 6919TIP3    H220701   4.361   1.580   2.483
 6920TIP3   OH220702   2.259   5.382   0.806
 6920TIP3    H120703   2.263   5.318   0.735
 6920TIP3    H220704   2.313   5.345   0.875
 6921TIP3   OH220705   1.152   1.123   4.631
 6921TIP3    H120706   1.100   1.050   4.663
 6921TIP3    H220707   1.090   1.176   4.580
 6922TIP3   OH220708   0.933   0.683   0.214
 6922TIP3    H120709   0.977   0.761   0.248
 6922TIP3    H220710   0.955   0.680   0.121
 6923TIP3   OH220711   5.047   4.504   0.929
 6923TIP3    H120712   5.142   4.498   0.929
 6923TIP3    H220713   5.018   4.412   0.929
 6924TIP3   OH220714   0.203   6.099   1.860
 6924TIP3    H120715   0.146   6.085   1.785
 6924TIP3    H220716   0.144   6.127   1.930
 6925TIP3   OH220717   0.097   0.902   4.238
 6925TIP3    H120718   0.163   0.881   4.172
 6925TIP3    H220719   0.092   0.997   4.238
 6926TIP3   OH220720   5.288   0.500   1.368
 6926TIP3    H120721   5.279   0.429   1.432
 6926TIP3    H220722   5.203   0.543   1.368
 6927TIP3   OH220723   2.512   6.181   5.190
 6927TIP3    H120724   2.519   6.192   5.095
 6927TIP3    H220725   2.461   6.257   5.219
 6928TIP3   OH220726   4.331   3.697   2.701
 6928TIP3    H120727   4.312   3.756   2.627
 6928TIP3    H220728   4.420   3.666   2.685
 6929TIP3   OH220729   6.096   3.729   1.940
 6929TIP3    H120730   6.023   3.746   2.000
 6929TIP3    H220731   6.095   3.805   1.881
 6930TIP3   OH220732   3.839   4.161   6.406
 6930TIP3    H120733   3.823   4.092   6.471
 6930TIP3    H220734   3.818   4.242   6.451
 6931TIP3   OH220735   3.079   5.777   4.189
 6931TIP3    H120736   3.130   5.700   4.164
 6931TIP3    H220737   3.061   5.822   4.107
 6932TIP3   OH220738   1.985   2.716   1.867
 6932TIP3    H120739   1.964   2.752   1.953
 6932TIP3    H220740   1.944   2.776   1.804
 6933TIP3   OH220741   8.049   2.382   5.113
 6933TIP3    H120742   8.060   2.460   5.059
 6933TIP3    H220743   8.110   2.394   5.186
 6934TIP3   OH220744   8.240   3.798   5.443
 6934TIP3    H120745   8.198   3.883   5.460
 6934TIP3    H220746   8.175   3.734   5.471
 6935TIP3   OH220747   1.526   5.286   1.962
 6935TIP3    H120748   1.434   5.309   1.970
 6935TIP3    H220749   1.561   5.346   1.897
 6936TIP3   OH220750   5.596   2.567   4.312
 6936TIP3    H120751   5.566   2.657   4.298
 6936TIP3    H220752   5.601   2.529   4.224
 6937TIP3   OH220753   6.395   1.547   0.869
 6937TIP3    H120754   6.358   1.559   0.957
 6937TIP3    H220755   6.388   1.453   0.853
 6938TIP3   OH220756   5.723   6.550   5.395
 6938TIP3    H120757   5.733   6.625   5.454
 6938TIP3    H220758   5.732   6.474   5.452
 6939TIP3   OH220759   2.230   0.761   1.700
 6939TIP3    H120760   2.276   0.839   1.731
 6939TIP3    H220761   2.139   0.789   1.689
 6940TIP3   OH220762   2.509   3.697   6.296
 6940TIP3    H120763   2.596   3.690   6.255
 6940TIP3    H220764   2.457   3.631   6.252
 6941TIP3   OH220765   3.826   0.921   5.919
 6941TIP3    H120766   3.795   0.928   6.009
 6941TIP3    H220767   3.919   0.898   5.927
 6942TIP3   OH220768   7.738   1.272   3.771
 6942TIP3    H120769   7.659   1.323   3.791
 6942TIP3    H220770   7.748   1.280   3.676
 6943TIP3   OH220771   3.569   2.462   0.980
 6943TIP3    H120772   3.501   2.525   0.956
 6943TIP3    H220773   3.527   2.377   0.976
 6944TIP3   OH220774   4.975   1.314   0.335
 6944TIP3    H120775   4.963   1.403   0.371
 6944TIP3    H220776   5.019   1.266   0.405
 6945TIP3   OH220777   4.874   3.775   1.319
 6945TIP3    H120778   4.876   3.679   1.309
 6945TIP3    H220779   4.781   3.795   1.329
 6946TIP3   OH220780   4.269   6.365   5.213
 6946TIP3    H120781   4.226   6.422   5.276
 6946TIP3    H220782   4.204   6.299   5.191
 6947TIP3   OH220783   8.155   4.079   0.396
 6947TIP3    H120784   8.170   4.172   0.415
 6947TIP3    H220785   8.129   4.077   0.304
 6948TIP3   OH220786   8.165   3.967   3.740
 6948TIP3    H120787   8.157   4.029   3.812
 6948TIP3    H220788   8.186   4.021   3.663
 6949TIP3   OH220789   0.288   4.658   1.367
 6949TIP3    H120790   0.224   4.729   1.366
 6949TIP3    H220791   0.305   4.642   1.460
 6950TIP3   OH220792   3.917   4.057   5.815
 6950TIP3    H120793   3.848   4.114   5.850
 6950TIP3    H220794   3.942   4.002   5.889
 6951TIP3   OH220795   2.001   6.457   2.359
 6951TIP3    H120796   1.929   6.519   2.344
 6951TIP3    H220797   1.961   6.386   2.409
 6952TIP3   OH220798   3.395   1.838   2.693
 6952TIP3    H120799   3.354   1.776   2.754
 6952TIP3    H220800   3.370   1.924   2.726
 6953TIP3   OH220801   0.135   3.877   5.940
 6953TIP3    H120802   0.170   3.879   5.851
 6953TIP3    H220803   0.124   3.969   5.964
 6954TIP3   OH220804   8.247   3.502   2.365
 6954TIP3    H120805   8.338   3.517   2.393
 6954TIP3    H220806   8.195   3.561   2.419
 6955TIP3   OH220807   4.134   4.342   2.447
 6955TIP3    H120808   4.131   4.304   2.535
 6955TIP3    H220809   4.148   4.267   2.389
 6956TIP3   OH220810   1.575   4.874   4.487
 6956TIP3    H120811   1.629   4.847   4.562
 6956TIP3    H220812   1.608   4.823   4.414
 6957TIP3   OH220813   1.393   0.915   2.195
 6957TIP3    H120814   1.390   0.825   2.227
 6957TIP3    H220815   1.459   0.957   2.249
 6958TIP3   OH220816   6.189   2.835   4.680
 6958TIP3    H120817   6.250   2.761   4.676
 6958TIP3    H220818   6.103   2.795   4.689
 6959TIP3   OH220819   7.099   5.426   3.443
 6959TIP3    H120820   7.101   5.361   3.372
 6959TIP3    H220821   7.007   5.454   3.447
 6960TIP3   OH220822   7.618   4.939   2.688
 6960TIP3    H120823   7.643   4.855   2.724
 6960TIP3    H220824   7.658   4.941   2.601
 6961TIP3   OH220825   5.608   4.011   1.404
 6961TIP3    H120826   5.642   4.061   1.478
 6961TIP3    H220827   5.515   4.033   1.401
 6962TIP3   OH220828   4.551   2.924   3.092
 6962TIP3    H120829   4.606   2.850   3.118
 6962TIP3    H220830   4.548   2.979   3.170
 6963TIP3   OH220831   4.584   2.177   2.345
 6963TIP3    H120832   4.581   2.150   2.437
 6963TIP3    H220833   4.493   2.197   2.322
 6964TIP3   OH220834   4.105   2.203   6.209
 6964TIP3    H120835   4.084   2.245   6.292
 6964TIP3    H220836   4.200   2.190   6.212
 6965TIP3   OH220837   5.817   6.572   4.108
 6965TIP3    H120838   5.844   6.659   4.137
 6965TIP3    H220839   5.779   6.586   4.021
 6966TIP3   OH220840   1.174   4.515   6.752
 6966TIP3    H120841   1.105   4.462   6.712
 6966TIP3    H220842   1.154   4.514   6.846
 6967TIP3   OH220843   0.069   6.387   6.218
 6967TIP3    H120844  -0.012   6.384   6.268
 6967TIP3    H220845   0.060   6.464   6.162
 6968TIP3   OH220846   4.884   1.487   6.422
 6968TIP3    H120847   4.842   1.510   6.339
 6968TIP3    H220848   4.915   1.570   6.457
 6969TIP3   OH220849   3.165   4.823   6.413
 6969TIP3    H120850   3.239   4.774   6.447
 6969TIP3    H220851   3.088   4.778   6.448
 6970TIP3   OH220852   7.589   7.736   0.565
 6970TIP3    H120853   7.540   7.656   0.546
 6970TIP3    H220854   7.673   7.705   0.597
 6971TIP3   OH220855   7.400   7.226   5.568
 6971TIP3    H120856   7.414   7.146   5.518
 6971TIP3    H220857   7.389   7.197   5.659
 6972TIP3   OH220858   1.079   1.079   0.067
 6972TIP3    H120859   1.012   1.068   0.135
 6972TIP3    H220860   1.110   1.169   0.078
 6973TIP3   OH220861   4.197   1.290   6.308
 6973TIP3    H120862   4.204   1.202   6.347
 6973TIP3    H220863   4.200   1.274   6.213
 6974TIP3   OH220864   5.363   1.269   0.878
 6974TIP3    H120865   5.285   1.254   0.825
 6974TIP3    H220866   5.420   1.194   0.860
 6975TIP3   OH220867  -0.021   5.413   2.891
 6975TIP3    H120868  -0.030   5.504   2.917
 6975TIP3    H220869   0.072   5.393   2.904
 6976TIP3   OH220870   2.018   2.090   5.484
 6976TIP3    H120871   1.996   2.019   5.545
 6976TIP3    H220872   2.069   2.152   5.537
 6977TIP3   OH220873   7.079   1.854   6.289
 6977TIP3    H120874   7.151   1.797   6.316
 6977TIP3    H220875   7.111   1.943   6.309
 6978TIP3   OH220876   0.265   2.319   1.504
 6978TIP3    H120877   0.324   2.246   1.483
 6978TIP3    H220878   0.246   2.308   1.597
 6979TIP3   OH220879   0.087   7.133   2.378
 6979TIP3    H120880   0.118   7.055   2.425
 6979TIP3    H220881   0.167   7.176   2.348
 6980TIP3   OH220882   4.096   4.852   6.168
 6980TIP3    H120883   4.070   4.929   6.117
 6980TIP3    H220884   4.082   4.778   6.109
 6981TIP3   OH220885   2.576   6.650   2.590
 6981TIP3    H120886   2.531   6.637   2.673
 6981TIP3    H220887   2.669   6.660   2.614
 6982TIP3   OH220888   1.160   7.442   1.298
 6982TIP3    H120889   1.243   7.402   1.325
 6982TIP3    H220890   1.186   7.517   1.245
 6983TIP3   OH220891   7.639   5.242   3.143
 6983TIP3    H120892   7.545   5.225   3.153
 6983TIP3    H220893   7.647   5.337   3.150
 6984TIP3   OH220894   4.546   0.036   2.593
 6984TIP3    H120895   4.451   0.039   2.588
 6984TIP3    H220896   4.565   0.045   2.687
 6985TIP3   OH220897   3.284   4.859   5.820
 6985TIP3    H120898   3.332   4.873   5.901
 6985TIP3    H220899   3.197   4.831   5.849
 6986TIP3   OH220900   7.874   3.410   5.427
 6986TIP3    H120901   7.785   3.387   5.454
 6986TIP3    H220902   7.883   3.372   5.339
 6987TIP3   OH220903   1.191   3.928   1.940
 6987TIP3    H120904   1.277   3.944   1.978
 6987TIP3    H220905   1.133   3.918   2.016
 6988TIP3   OH220906   7.519   3.442   2.690
 6988TIP3    H120907   7.551   3.377   2.628
 6988TIP3    H220908   7.596   3.466   2.741
 6989TIP3   OH220909   4.140   6.512   4.382
 6989TIP3    H120910   4.114   6.585   4.326
 6989TIP3    H220911   4.057   6.480   4.419
 6990TIP3   OH220912   1.898   6.851   5.594
 6990TIP3    H120913   1.838   6.788   5.633
 6990TIP3    H220914   1.950   6.801   5.532
 6991TIP3   OH220915   3.188   2.071   0.968
 6991TIP3    H120916   3.154   2.102   0.884
 6991TIP3    H220917   3.122   2.097   1.032
 6992TIP3   OH220918   6.836   6.457   5.764
 6992TIP3    H120919   6.862   6.412   5.684
 6992TIP3    H220920   6.772   6.398   5.805
 6993TIP3   OH220921   3.713   6.153   3.883
 6993TIP3    H120922   3.635   6.172   3.830
 6993TIP3    H220923   3.786   6.187   3.831
 6994TIP3   OH220924   2.273   6.932   2.140
 6994TIP3    H120925   2.267   7.009   2.083
 6994TIP3    H220926   2.361   6.936   2.177
 6995TIP3   OH220927   6.329   2.974   2.240
 6995TIP3    H120928   6.309   2.910   2.308
 6995TIP3    H220929   6.376   3.044   2.285
 6996TIP3   OH220930   6.185   1.565   3.206
 6996TIP3    H120931   6.148   1.651   3.188
 6996TIP3    H220932   6.109   1.508   3.218
 6997TIP3   OH220933   0.946   1.791   5.790
 6997TIP3    H120934   1.029   1.751   5.816
 6997TIP3    H220935   0.941   1.775   5.696
 6998TIP3   OH220936   1.392   6.072   1.751
 6998TIP3    H120937   1.462   6.103   1.693
 6998TIP3    H220938   1.374   5.983   1.722
 6999TIP3   OH220939   5.571   1.475   6.696
 6999TIP3    H120940   5.478   1.460   6.676
 6999TIP3    H220941   5.573   1.491   6.790
 7000TIP3   OH220942   0.745   2.443   2.028
 7000TIP3    H120943   0.767   2.369   2.085
 7000TIP3    H220944   0.764   2.411   1.939
 7001TIP3   OH220945   2.925   0.403   2.178
 7001TIP3    H120946   2.834   0.371   2.177
 7001TIP3    H220947   2.930   0.459   2.255
 7002TIP3   OH220948   7.831   5.027   0.928
 7002TIP3    H120949   7.901   4.976   0.970
 7002TIP3    H220950   7.755   5.014   0.984
 7003TIP3   OH220951   1.064   4.646   6.465
 7003TIP3    H120952   1.100   4.649   6.554
 7003TIP3    H220953   1.109   4.573   6.423
 7004TIP3   OH220954   4.509   1.140   5.869
 7004TIP3    H120955   4.579   1.180   5.817
 7004TIP3    H220956   4.429   1.184   5.839
 7005TIP3   OH220957   4.863   3.141   0.331
 7005TIP3    H120958   4.820   3.100   0.256
 7005TIP3    H220959   4.875   3.069   0.394
 7006TIP3   OH220960   5.798   4.690   6.333
 7006TIP3    H120961   5.793   4.679   6.428
 7006TIP3    H220962   5.891   4.679   6.312
 7007TIP3   OH220963   6.936   4.530   1.865
 7007TIP3    H120964   6.846   4.533   1.898
 7007TIP3    H220965   6.951   4.438   1.844
 7008TIP3   OH220966   6.367   0.398   6.227
 7008TIP3    H120967   6.308   0.340   6.177
 7008TIP3    H220968   6.378   0.474   6.170
 7009TIP3   OH220969   2.744   5.886   0.444
 7009TIP3    H120970   2.702   5.825   0.505
 7009TIP3    H220971   2.834   5.855   0.437
 7010TIP3   OH220972   2.400   1.217   4.551
 7010TIP3    H120973   2.334   1.264   4.500
 7010TIP3    H220974   2.350   1.170   4.617
 7011TIP3   OH220975   1.525   1.342   6.124
 7011TIP3    H120976   1.493   1.255   6.099
 7011TIP3    H220977   1.596   1.324   6.186
 7012TIP3   OH220978   5.519   7.754   0.750
 7012TIP3    H120979   5.497   7.739   0.842
 7012TIP3    H220980   5.605   7.796   0.753
 7013TIP3   OH220981   0.821   5.087   4.051
 7013TIP3    H120982   0.853   5.043   4.129
 7013TIP3    H220983   0.819   5.180   4.075
 7014TIP3   OH220984   3.652   6.357   4.986
 7014TIP3    H120985   3.588   6.291   5.011
 7014TIP3    H220986   3.608   6.408   4.917
 7015TIP3   OH220987   3.276   2.476   1.934
 7015TIP3    H120988   3.289   2.392   1.978
 7015TIP3    H220989   3.325   2.539   1.987
 7016TIP3   OH220990   4.690   6.114   6.326
 7016TIP3    H120991   4.718   6.043   6.384
 7016TIP3    H220992   4.618   6.076   6.275
 7017TIP3   OH220993   0.586   6.581   3.148
 7017TIP3    H120994   0.574   6.490   3.176
 7017TIP3    H220995   0.584   6.632   3.229
 7018TIP3   OH220996   5.757   7.447   5.517
 7018TIP3    H120997   5.688   7.497   5.473
 7018TIP3    H220998   5.718   7.361   5.532
 7019TIP3   OH220999   1.382   7.681   1.516
 7019TIP3    H121000   1.300   7.658   1.561
 7019TIP3    H221001   1.436   7.603   1.524
 7020TIP3   OH221002   3.647   3.703   0.075
 7020TIP3    H121003   3.555   3.730   0.074
 7020TIP3    H221004   3.658   3.652  -0.005
 7021TIP3   OH221005   6.841   4.168   0.486
 7021TIP3    H121006   6.875   4.106   0.421
 7021TIP3    H221007   6.750   4.181   0.462
 7022TIP3   OH221008   6.283   5.649   4.378
 7022TIP3    H121009   6.238   5.636   4.295
 7022TIP3    H221010   6.214   5.668   4.441
 7023TIP3   OH221011   3.374   5.650   0.129
 7023TIP3    H121012   3.338   5.610   0.208
 7023TIP3    H221013   3.465   5.671   0.152
 7024TIP3   OH221014   3.191   2.315   5.090
 7024TIP3    H121015   3.254   2.256   5.131
 7024TIP3    H221016   3.123   2.328   5.157
 7025TIP3   OH221017   3.898   2.078   4.625
 7025TIP3    H121018   3.937   2.013   4.567
 7025TIP3    H221019   3.956   2.081   4.701
 7026TIP3   OH221020   5.777   3.424   4.049
 7026TIP3    H121021   5.793   3.482   3.975
 7026TIP3    H221022   5.756   3.340   4.010
 7027TIP3   OH221023   6.566   4.792   1.803
 7027TIP3    H121024   6.521   4.719   1.761
 7027TIP3    H221025   6.625   4.751   1.866
 7028TIP3   OH221026   5.154   5.050   2.280
 7028TIP3    H121027   5.204   5.017   2.355
 7028TIP3    H221028   5.201   5.129   2.253
 7029TIP3   OH221029   3.712   2.844   6.681
 7029TIP3    H121030   3.731   2.804   6.766
 7029TIP3    H221031   3.761   2.791   6.618
 7030TIP3   OH221032   3.843   3.741   2.263
 7030TIP3    H121033   3.799   3.826   2.268
 7030TIP3    H221034   3.771   3.677   2.259
 7031TIP3   OH221035   3.920   6.250   5.053
 7031TIP3    H121036   4.010   6.281   5.044
 7031TIP3    H221037   3.867   6.314   5.005
 7032TIP3   OH221038   6.405   5.439   4.512
 7032TIP3    H121039   6.457   5.388   4.450
 7032TIP3    H221040   6.364   5.507   4.459
 7033TIP3   OH221041   3.020   7.628   4.821
 7033TIP3    H121042   3.075   7.566   4.868
 7033TIP3    H221043   3.037   7.611   4.729
 7034TIP3   OH221044   7.822   2.018   0.567
 7034TIP3    H121045   7.840   2.090   0.506
 7034TIP3    H221046   7.872   2.040   0.646
 7035TIP3   OH221047   1.387   6.983   1.875
 7035TIP3    H121048   1.435   6.998   1.794
 7035TIP3    H221049   1.346   7.068   1.895
 7036TIP3   OH221050   4.244   7.424   2.665
 7036TIP3    H121051   4.329   7.424   2.620
 7036TIP3    H221052   4.183   7.386   2.602
 7037TIP3   OH221053   3.016   5.651   2.513
 7037TIP3    H121054   3.004   5.569   2.465
 7037TIP3    H221055   2.928   5.687   2.522
 7038TIP3   OH221056   7.470   0.940   4.734
 7038TIP3    H121057   7.403   0.903   4.793
 7038TIP3    H221058   7.536   0.975   4.793
 7039TIP3   OH221059   5.010   4.338   0.295
 7039TIP3    H121060   5.000   4.271   0.227
 7039TIP3    H221061   4.957   4.411   0.265
 7040TIP3   OH221062   0.384   1.202   0.271
 7040TIP3    H121063   0.320   1.131   0.267
 7040TIP3    H221064   0.467   1.159   0.292
 7041TIP3   OH221065   7.957   0.918   1.756
 7041TIP3    H121066   8.023   0.943   1.691
 7041TIP3    H221067   7.891   0.870   1.707
 7042TIP3   OH221068   2.791   3.732   1.921
 7042TIP3    H121069   2.711   3.758   1.876
 7042TIP3    H221070   2.769   3.650   1.965
 7043TIP3   OH221071   6.575   3.928   5.889
 7043TIP3    H121072   6.570   3.843   5.933
 7043TIP3    H221073   6.643   3.916   5.823
 7044TIP3   OH221074   3.992   3.822   4.425
 7044TIP3    H121075   3.967   3.790   4.512
 7044TIP3    H221076   3.908   3.841   4.382
 7045TIP3   OH221077   2.108   6.069   3.799
 7045TIP3    H121078   2.070   6.108   3.878
 7045TIP3    H221079   2.126   6.144   3.742
 7046TIP3   OH221080   3.297   4.020   5.221
 7046TIP3    H121081   3.239   4.086   5.184
 7046TIP3    H221082   3.240   3.961   5.270
 7047TIP3   OH221083   0.154   7.231   3.823
 7047TIP3    H121084   0.243   7.197   3.831
 7047TIP3    H221085   0.162   7.305   3.764
 7048TIP3   OH221086   5.019   0.291   3.773
 7048TIP3    H121087   4.974   0.369   3.740
 7048TIP3    H221088   4.993   0.221   3.713
 7049TIP3   OH221089   6.615   1.965   2.702
 7049TIP3    H121090   6.608   1.869   2.707
 7049TIP3    H221091   6.594   1.995   2.790
 7050TIP3   OH221092   8.034   0.902   5.934
 7050TIP3    H121093   7.946   0.915   5.898
 7050TIP3    H221094   8.076   0.840   5.874
 7051TIP3   OH221095   6.966   1.457   3.869
 7051TIP3    H121096   6.925   1.440   3.784
 7051TIP3    H221097   6.938   1.385   3.924
 7052TIP3   OH221098   2.419   6.645   2.818
 7052TIP3    H121099   2.362   6.703   2.869
 7052TIP3    H221100   2.373   6.561   2.818
 7053TIP3   OH221101   5.552   0.487   5.648
 7053TIP3    H121102   5.475   0.437   5.675
 7053TIP3    H221103   5.617   0.420   5.624
 7054TIP3   OH221104   0.159   1.411   2.220
 7054TIP3    H121105   0.131   1.406   2.128
 7054TIP3    H221106   0.178   1.503   2.234
 7055TIP3   OH221107   4.978   6.791   6.087
 7055TIP3    H121108   4.894   6.825   6.119
 7055TIP3    H221109   4.978   6.699   6.113
 7056TIP3   OH221110   6.880   3.237   4.192
 7056TIP3    H121111   6.905   3.329   4.187
 7056TIP3    H221112   6.785   3.237   4.186
 7057TIP3   OH221113   3.599   3.459   4.717
 7057TIP3    H121114   3.687   3.435   4.688
 7057TIP3    H221115   3.541   3.404   4.663
 7058TIP3   OH221116   1.304   3.746   1.077
 7058TIP3    H121117   1.307   3.768   1.171
 7058TIP3    H221118   1.392   3.766   1.045
 7059TIP3   OH221119   7.784   7.426   5.050
 7059TIP3    H121120   7.875   7.408   5.074
 7059TIP3    H221121   7.735   7.351   5.082
 7060TIP3   OH221122   3.790   5.885   0.380
 7060TIP3    H121123   3.766   5.831   0.455
 7060TIP3    H221124   3.850   5.950   0.416
 7061TIP3   OH221125   6.794   7.402   0.193
 7061TIP3    H121126   6.706   7.401   0.231
 7061TIP3    H221127   6.788   7.343   0.118
 7062TIP3   OH221128   4.276   2.894   5.208
 7062TIP3    H121129   4.248   2.924   5.294
 7062TIP3    H221130   4.289   2.975   5.158
 7063TIP3   OH221131   1.356   6.923   2.849
 7063TIP3    H121132   1.433   6.866   2.848
 7063TIP3    H221133   1.318   6.911   2.936
 7064TIP3   OH221134   0.504   7.564   3.754
 7064TIP3    H121135   0.531   7.481   3.715
 7064TIP3    H221136   0.532   7.631   3.691
 7065TIP3   OH221137   0.746   2.030   6.471
 7065TIP3    H121138   0.726   1.975   6.395
 7065TIP3    H221139   0.677   2.008   6.535
 7066TIP3   OH221140   2.780   4.620   5.459
 7066TIP3    H121141   2.821   4.534   5.456
 7066TIP3    H221142   2.688   4.603   5.478
 7067TIP3   OH221143   4.766   0.619   5.770
 7067TIP3    H121144   4.675   0.613   5.740
 7067TIP3    H221145   4.798   0.529   5.765
 7068TIP3   OH221146   1.022   3.768   0.211
 7068TIP3    H121147   0.938   3.787   0.254
 7068TIP3    H221148   1.029   3.673   0.216
 7069TIP3   OH221149   2.600   7.111   5.248
 7069TIP3    H121150   2.581   7.096   5.155
 7069TIP3    H221151   2.569   7.200   5.265
 7070TIP3   OH221152   5.619   5.380   4.966
 7070TIP3    H121153   5.664   5.461   4.941
 7070TIP3    H221154   5.682   5.332   5.019
 7071TIP3   OH221155   3.826   4.009   6.634
 7071TIP3    H121156   3.823   3.914   6.634
 7071TIP3    H221157   3.919   4.030   6.649
 7072TIP3   OH221158   5.348   0.150   5.105
 7072TIP3    H121159   5.276   0.155   5.168
 7072TIP3    H221160   5.373   0.058   5.104
 7073TIP3   OH221161   0.967   3.039   4.620
 7073TIP3    H121162   0.986   3.067   4.710
 7073TIP3    H221163   0.913   3.109   4.584
 7074TIP3   OH221164   0.278   0.500   6.135
 7074TIP3    H121165   0.243   0.567   6.195
 7074TIP3    H221166   0.298   0.426   6.192
 7075TIP3   OH221167   7.209   7.847   0.793
 7075TIP3    H121168   7.249   7.811   0.872
 7075TIP3    H221169   7.138   7.787   0.772
 7076TIP3   OH221170   7.239   6.167   0.558
 7076TIP3    H121171   7.221   6.260   0.544
 7076TIP3    H221172   7.153   6.125   0.553
 7077TIP3   OH221173   4.342   0.987   4.141
 7077TIP3    H121174   4.398   1.062   4.161
 7077TIP3    H221175   4.395   0.911   4.162
 7078TIP3   OH221176   5.654   6.313   3.336
 7078TIP3    H121177   5.569   6.293   3.376
 7078TIP3    H221178   5.651   6.271   3.250
 7079TIP3   OH221179   6.031   0.952   3.717
 7079TIP3    H121180   6.074   0.890   3.657
 7079TIP3    H221181   5.966   0.996   3.662
 7080TIP3   OH221182   1.072   1.855   1.417
 7080TIP3    H121183   1.029   1.798   1.481
 7080TIP3    H221184   1.012   1.858   1.342
 7081TIP3   OH221185   4.607   6.419   2.850
 7081TIP3    H121186   4.686   6.374   2.882
 7081TIP3    H221187   4.611   6.506   2.889
 7082TIP3   OH221188   6.523   7.302   2.825
 7082TIP3    H121189   6.581   7.228   2.841
 7082TIP3    H221190   6.581   7.377   2.817
 7083TIP3   OH221191   0.936   0.768   0.755
 7083TIP3    H121192   1.004   0.764   0.688
 7083TIP3    H221193   0.882   0.691   0.739
 7084TIP3   OH221194   1.939   7.478   4.087
 7084TIP3    H121195   1.999   7.549   4.111
 7084TIP3    H221196   1.882   7.468   4.163
 7085TIP3   OH221197   8.131   4.852   6.193
 7085TIP3    H121198   8.122   4.757   6.203
 7085TIP3    H221199   8.222   4.870   6.216
 7086TIP3   OH221200   0.154   0.911   5.552
 7086TIP3    H121201   0.132   0.926   5.644
 7086TIP3    H221202   0.101   0.836   5.526
 7087TIP3   OH221203   1.069   5.907   5.229
 7087TIP3    H121204   0.979   5.913   5.196
 7087TIP3    H221205   1.099   5.822   5.201
 7088TIP3   OH221206   0.326   2.341   3.304
 7088TIP3    H121207   0.387   2.389   3.248
 7088TIP3    H221208   0.375   2.325   3.385
 7089TIP3   OH221209   0.665   1.267   3.598
 7089TIP3    H121210   0.695   1.317   3.674
 7089TIP3    H221211   0.740   1.211   3.576
 7090TIP3   OH221212   2.300   3.756   1.318
 7090TIP3    H121213   2.390   3.728   1.305
 7090TIP3    H221214   2.307   3.846   1.350
 7091TIP3   OH221215   4.306   0.227   0.712
 7091TIP3    H121216   4.264   0.155   0.758
 7091TIP3    H221217   4.250   0.242   0.635
 7092TIP3   OH221218   3.832   3.585   1.724
 7092TIP3    H121219   3.818   3.648   1.653
 7092TIP3    H221220   3.748   3.540   1.733
 7093TIP3   OH221221   8.110   1.395   5.442
 7093TIP3    H121222   8.198   1.366   5.467
 7093TIP3    H221223   8.055   1.317   5.452
 7094TIP3   OH221224   4.945   4.885   2.213
 7094TIP3    H121225   4.881   4.937   2.262
 7094TIP3    H221226   5.027   4.934   2.222
 7095TIP3   OH221227   1.235   0.659   2.558
 7095TIP3    H121228   1.285   0.583   2.530
 7095TIP3    H221229   1.283   0.734   2.521
 7096TIP3   OH221230   1.102   5.293   4.611
 7096TIP3    H121231   1.036   5.361   4.628
 7096TIP3    H221232   1.176   5.341   4.574
 7097TIP3   OH221233   0.904   5.123   6.336
 7097TIP3    H121234   0.878   5.133   6.427
 7097TIP3    H221235   0.986   5.174   6.328
 7098TIP3   OH221236   5.431   1.283   0.178
 7098TIP3    H121237   5.461   1.286   0.087
 7098TIP3    H221238   5.340   1.312   0.174
 7099TIP3   OH221239   5.838   7.584   1.567
 7099TIP3    H121240   5.880   7.662   1.531
 7099TIP3    H221241   5.797   7.541   1.492
 7100TIP3   OH221242   6.426   1.364   4.906
 7100TIP3    H121243   6.477   1.378   4.827
 7100TIP3    H221244   6.470   1.292   4.951
 7101TIP3   OH221245   5.286   1.519   4.974
 7101TIP3    H121246   5.191   1.503   4.973
 7101TIP3    H221247   5.300   1.579   4.901
 7102TIP3   OH221248   4.910   4.419   2.726
 7102TIP3    H121249   4.975   4.467   2.675
 7102TIP3    H221250   4.843   4.484   2.747
 7103TIP3   OH221251   1.438   1.703   2.980
 7103TIP3    H121252   1.395   1.620   2.961
 7103TIP3    H221253   1.397   1.765   2.919
 7104TIP3   OH221254   2.240   7.644   6.219
 7104TIP3    H121255   2.174   7.712   6.204
 7104TIP3    H221256   2.231   7.621   6.311
 7105TIP3   OH221257   3.762   2.385   5.436
 7105TIP3    H121258   3.771   2.465   5.487
 7105TIP3    H221259   3.697   2.406   5.369
 7106TIP3   OH221260   1.750   4.928   6.094
 7106TIP3    H121261   1.828   4.984   6.099
 7106TIP3    H221262   1.677   4.989   6.087
 7107TIP3   OH221263   6.117   2.586   2.617
 7107TIP3    H121264   6.149   2.503   2.583
 7107TIP3    H221265   6.022   2.580   2.609
 7108TIP3   OH221266   2.111   6.935   6.646
 7108TIP3    H121267   2.092   7.028   6.643
 7108TIP3    H221268   2.197   6.926   6.604
 7109TIP3   OH221269   3.159   5.022   5.339
 7109TIP3    H121270   3.159   4.993   5.431
 7109TIP3    H221271   3.071   5.054   5.323
 7110TIP3   OH221272   5.317   5.703   0.283
 7110TIP3    H121273   5.383   5.695   0.352
 7110TIP3    H221274   5.271   5.619   0.283
 7111TIP3   OH221275   4.295   2.920   3.021
 7111TIP3    H121276   4.264   2.831   3.008
 7111TIP3    H221277   4.388   2.911   3.041
 7112TIP3   OH221278   7.567   7.305   0.951
 7112TIP3    H121279   7.524   7.325   0.868
 7112TIP3    H221280   7.524   7.362   1.015
 7113TIP3   OH221281   2.526   0.223   5.233
 7113TIP3    H121282   2.551   0.309   5.200
 7113TIP3    H221283   2.563   0.161   5.170
 7114TIP3   OH221284   1.018   5.152   0.570
 7114TIP3    H121285   1.085   5.178   0.507
 7114TIP3    H221286   0.935   5.174   0.528
 7115TIP3   OH221287   2.960   1.044   4.142
 7115TIP3    H121288   2.968   1.116   4.205
 7115TIP3    H221289   3.039   1.049   4.089
 7116TIP3   OH221290   7.541   5.619   0.952
 7116TIP3    H121291   7.454   5.636   0.988
 7116TIP3    H221292   7.550   5.524   0.954
 7117TIP3   OH221293   0.418   2.850   6.292
 7117TIP3    H121294   0.497   2.904   6.285
 7117TIP3    H221295   0.346   2.913   6.290
 7118TIP3   OH221296   8.186   7.658   1.782
 7118TIP3    H121297   8.196   7.734   1.725
 7118TIP3    H221298   8.162   7.695   1.867
 7119TIP3   OH221299   0.764   3.109   1.293
 7119TIP3    H121300   0.698   3.041   1.309
 7119TIP3    H221301   0.722   3.171   1.234
 7120TIP3   OH221302   6.239   4.531   0.626
 7120TIP3    H121303   6.165   4.473   0.644
 7120TIP3    H221304   6.266   4.564   0.711
 7121TIP3   OH221305   6.483   3.797   1.222
 7121TIP3    H121306   6.510   3.711   1.190
 7121TIP3    H221307   6.562   3.835   1.259
 7122TIP3   OH221308   4.008   5.913   4.191
 7122TIP3    H121309   4.022   5.941   4.281
 7122TIP3    H221310   3.955   5.834   4.199
 7123TIP3   OH221311   8.136   0.882   3.237
 7123TIP3    H121312   8.181   0.841   3.163
 7123TIP3    H221313   8.043   0.873   3.216
 7124TIP3   OH221314   0.250   4.715   0.944
 7124TIP3    H121315   0.193   4.779   0.987
 7124TIP3    H221316   0.339   4.744   0.966
 7125TIP3   OH221317   2.838   1.269   6.088
 7125TIP3    H121318   2.898   1.280   6.014
 7125TIP3    H221319   2.867   1.188   6.130
 7126TIP3   OH221320   6.362   3.949   1.709
 7126TIP3    H121321   6.455   3.949   1.732
 7126TIP3    H221322   6.360   3.964   1.615
 7127TIP3   OH221323   4.642   4.208   3.039
 7127TIP3    H121324   4.597   4.191   2.956
 7127TIP3    H221325   4.735   4.214   3.015
 7128TIP3   OH221326   4.526   2.924   2.061
 7128TIP3    H121327   4.612   2.902   2.097
 7128TIP3    H221328   4.497   2.998   2.114
 7129TIP3   OH221329   6.434   6.908   2.068
 7129TIP3    H121330   6.438   6.905   1.972
 7129TIP3    H221331   6.499   6.845   2.097
 7130TIP3   OH221332   3.121   3.258   4.433
 7130TIP3    H121333   3.183   3.263   4.505
 7130TIP3    H221334   3.174   3.236   4.357
 7131TIP3   OH221335   2.829   1.903   2.508
 7131TIP3    H121336   2.840   1.824   2.456
 7131TIP3    H221337   2.754   1.884   2.565
 7132TIP3   OH221338   7.742   0.541   3.224
 7132TIP3    H121339   7.826   0.512   3.260
 7132TIP3    H221340   7.699   0.461   3.195
 7133TIP3   OH221341   1.099   2.666   0.298
 7133TIP3    H121342   1.183   2.711   0.283
 7133TIP3    H221343   1.074   2.692   0.387
 7134TIP3   OH221344   3.155   2.765   1.710
 7134TIP3    H121345   3.189   2.724   1.630
 7134TIP3    H221346   3.113   2.693   1.758
 7135TIP3   OH221347   3.213   4.511   0.384
 7135TIP3    H121348   3.179   4.583   0.332
 7135TIP3    H221349   3.170   4.521   0.470
 7136TIP3   OH221350   7.795   0.455   6.254
 7136TIP3    H121351   7.713   0.446   6.206
 7136TIP3    H221352   7.823   0.545   6.237
 7137TIP3   OH221353   1.400   5.203   1.661
 7137TIP3    H121354   1.338   5.275   1.677
 7137TIP3    H221355   1.374   5.135   1.723
 7138TIP3   OH221356   6.910   2.705   2.673
 7138TIP3    H121357   6.909   2.621   2.720
 7138TIP3    H221358   6.845   2.694   2.604
 7139TIP3   OH221359   1.583   6.552   2.622
 7139TIP3    H121360   1.646   6.515   2.560
 7139TIP3    H221361   1.592   6.499   2.701
 7140TIP3   OH221362   5.153   2.703   6.468
 7140TIP3    H121363   5.217   2.734   6.531
 7140TIP3    H221364   5.130   2.780   6.416
 7141TIP3   OH221365   1.575   5.967   1.204
 7141TIP3    H121366   1.653   5.945   1.153
 7141TIP3    H221367   1.610   6.001   1.287
 7142TIP3   OH221368   1.103   7.119   5.611
 7142TIP3    H121369   1.149   7.198   5.640
 7142TIP3    H221370   1.049   7.148   5.538
 7143TIP3   OH221371   2.785   2.121   6.138
 7143TIP3    H121372   2.819   2.045   6.186
 7143TIP3    H221373   2.692   2.123   6.159
 7144TIP3   OH221374   0.441   6.604   1.802
 7144TIP3    H121375   0.458   6.512   1.821
 7144TIP3    H221376   0.348   6.616   1.820
 7145TIP3   OH221377   3.445   4.959   3.735
 7145TIP3    H121378   3.460   4.898   3.808
 7145TIP3    H221379   3.408   5.037   3.776
 7146TIP3   OH221380   4.585   6.880   4.686
 7146TIP3    H121381   4.521   6.820   4.725
 7146TIP3    H221382   4.533   6.952   4.651
 7147TIP3   OH221383   2.613   1.836   1.359
 7147TIP3    H121384   2.680   1.773   1.332
 7147TIP3    H221385   2.550   1.784   1.409
 7148TIP3   OH221386   6.270   3.430   0.749
 7148TIP3    H121387   6.265   3.350   0.801
 7148TIP3    H221388   6.287   3.400   0.660
 7149TIP3   OH221389   6.088   1.592   2.019
 7149TIP3    H121390   6.028   1.573   1.946
 7149TIP3    H221391   6.033   1.591   2.097
 7150TIP3   OH221392   0.233   7.688   3.571
 7150TIP3    H121393   0.286   7.768   3.566
 7150TIP3    H221394   0.257   7.638   3.494
 7151TIP3   OH221395   0.107   0.265  -0.015
 7151TIP3    H121396   0.100   0.282   0.079
 7151TIP3    H221397   0.018   0.275  -0.047
 7152TIP3   OH221398   6.533   5.954   0.187
 7152TIP3    H121399   6.578   5.952   0.271
 7152TIP3    H221400   6.603   5.949   0.122
 7153TIP3   OH221401   1.029   2.459   2.167
 7153TIP3    H121402   1.118   2.486   2.190
 7153TIP3    H221403   1.038   2.370   2.132
 7154TIP3   OH221404   6.330   4.370   2.952
 7154TIP3    H121405   6.255   4.312   2.960
 7154TIP3    H221406   6.304   4.434   2.885
 7155TIP3   OH221407   4.665   2.079   5.761
 7155TIP3    H121408   4.691   2.114   5.846
 7155TIP3    H221409   4.652   2.156   5.706
 7156TIP3   OH221410   6.781   3.508   1.938
 7156TIP3    H121411   6.851   3.459   1.895
 7156TIP3    H221412   6.700   3.471   1.902
 7157TIP3   OH221413   8.023   2.918   6.602
 7157TIP3    H121414   8.037   3.010   6.624
 7157TIP3    H221415   8.103   2.874   6.634
 7158TIP3   OH221416   2.078   6.515   1.212
 7158TIP3    H121417   2.097   6.438   1.159
 7158TIP3    H221418   2.023   6.570   1.156
 7159TIP3   OH221419   5.961   3.299   3.631
 7159TIP3    H121420   6.055   3.295   3.612
 7159TIP3    H221421   5.926   3.215   3.601
 7160TIP3   OH221422   2.153   7.007   5.160
 7160TIP3    H121423   2.065   6.986   5.127
 7160TIP3    H221424   2.157   7.103   5.158
 7161TIP3   OH221425   6.888   3.097   6.390
 7161TIP3    H121426   6.813   3.156   6.385
 7161TIP3    H221427   6.964   3.155   6.399
 7162TIP3   OH221428   3.562   1.491   2.372
 7162TIP3    H121429   3.553   1.576   2.328
 7162TIP3    H221430   3.512   1.431   2.317
 7163TIP3   OH221431   4.739   6.920   1.086
 7163TIP3    H121432   4.687   6.935   1.164
 7163TIP3    H221433   4.821   6.967   1.101
 7164TIP3   OH221434   0.275   5.361   0.333
 7164TIP3    H121435   0.308   5.271   0.336
 7164TIP3    H221436   0.345   5.413   0.373
 7165TIP3   OH221437   0.022   3.819   4.471
 7165TIP3    H121438   0.059   3.739   4.435
 7165TIP3    H221439  -0.071   3.799   4.483
 7166TIP3   OH221440   3.330   7.179   3.421
 7166TIP3    H121441   3.342   7.085   3.412
 7166TIP3    H221442   3.349   7.196   3.514
 7167TIP3   OH221443   7.103   5.973   1.663
 7167TIP3    H121444   7.171   5.990   1.729
 7167TIP3    H221445   7.051   6.053   1.661
 7168TIP3   OH221446   3.658   7.121   2.274
 7168TIP3    H121447   3.580   7.067   2.286
 7168TIP3    H221448   3.710   7.105   2.353
 7169TIP3   OH221449   7.934   2.664   1.220
 7169TIP3    H121450   8.014   2.618   1.246
 7169TIP3    H221451   7.965   2.752   1.197
 7170TIP3   OH221452   2.735   1.324   1.825
 7170TIP3    H121453   2.769   1.236   1.840
 7170TIP3    H221454   2.780   1.378   1.891
 7171TIP3   OH221455   1.731   0.570   2.105
 7171TIP3    H121456   1.773   0.638   2.157
 7171TIP3    H221457   1.649   0.611   2.075
 7172TIP3   OH221458   5.449   3.276   1.188
 7172TIP3    H121459   5.370   3.319   1.156
 7172TIP3    H221460   5.428   3.251   1.278
 7173TIP3   OH221461   5.414   6.341   1.335
 7173TIP3    H121462   5.356   6.276   1.296
 7173TIP3    H221463   5.482   6.290   1.379
 7174TIP3   OH221464   3.438   4.989   1.168
 7174TIP3    H121465   3.470   4.994   1.258
 7174TIP3    H221466   3.439   5.080   1.137
 7175TIP3   OH221467   8.030   6.411   2.581
 7175TIP3    H121468   8.039   6.444   2.671
 7175TIP3    H221469   8.120   6.393   2.553
 7176TIP3   OH221470   4.052   1.143   3.795
 7176TIP3    H121471   4.147   1.148   3.806
 7176TIP3    H221472   4.017   1.194   3.867
 7177TIP3   OH221473   2.770   0.646   5.334
 7177TIP3    H121474   2.686   0.689   5.320
 7177TIP3    H221475   2.806   0.690   5.412
 7178TIP3   OH221476   5.209   3.443   1.186
 7178TIP3    H121477   5.252   3.509   1.240
 7178TIP3    H221478   5.149   3.398   1.245
 7179TIP3   OH221479   6.918   6.606   6.597
 7179TIP3    H121480   6.922   6.652   6.681
 7179TIP3    H221481   6.842   6.549   6.604
 7180TIP3   OH221482   1.872   0.429   1.701
 7180TIP3    H121483   1.960   0.395   1.689
 7180TIP3    H221484   1.884   0.517   1.737
 7181TIP3   OH221485   1.834   5.550   0.422
 7181TIP3    H121486   1.882   5.488   0.367
 7181TIP3    H221487   1.819   5.503   0.504
 7182TIP3   OH221488   7.871   3.960   1.506
 7182TIP3    H121489   7.861   3.884   1.449
 7182TIP3    H221490   7.952   4.002   1.477
 7183TIP3   OH221491   4.117   7.732   2.365
 7183TIP3    H121492   4.095   7.803   2.425
 7183TIP3    H221493   4.050   7.665   2.380
 7184TIP3   OH221494   4.922   5.118   3.854
 7184TIP3    H121495   4.861   5.185   3.887
 7184TIP3    H221496   4.986   5.108   3.925
 7185TIP3   OH221497   7.460   7.726   2.641
 7185TIP3    H121498   7.504   7.801   2.602
 7185TIP3    H221499   7.500   7.716   2.727
 7186TIP3   OH221500   2.269   5.441   2.879
 7186TIP3    H121501   2.293   5.504   2.811
 7186TIP3    H221502   2.307   5.476   2.959
 7187TIP3   OH221503   3.840   0.649   2.701
 7187TIP3    H121504   3.813   0.636   2.793
 7187TIP3    H221505   3.774   0.602   2.651
 7188TIP3   OH221506   8.184   2.207   5.339
 7188TIP3    H121507   8.122   2.240   5.404
 7188TIP3    H221508   8.236   2.283   5.314
 7189TIP3   OH221509   5.111   0.308   4.654
 7189TIP3    H121510   5.057   0.374   4.698
 7189TIP3    H221511   5.184   0.358   4.617
 7190TIP3   OH221512   0.756   4.553   3.926
 7190TIP3    H121513   0.787   4.488   3.863
 7190TIP3    H221514   0.784   4.637   3.890
 7191TIP3   OH221515   5.116   2.918   2.557
 7191TIP3    H121516   5.103   3.001   2.603
 7191TIP3    H221517   5.211   2.903   2.561
 7192TIP3   OH221518   5.111   2.083   6.413
 7192TIP3    H121519   5.085   2.157   6.467
 7192TIP3    H221520   5.165   2.121   6.344
 7193TIP3   OH221521   3.615   5.599   1.702
 7193TIP3    H121522   3.546   5.579   1.765
 7193TIP3    H221523   3.578   5.669   1.648
 7194TIP3   OH221524   4.915   6.779   3.403
 7194TIP3    H121525   4.973   6.736   3.466
 7194TIP3    H221526   4.968   6.787   3.324
 7195TIP3   OH221527   1.485   1.574   4.053
 7195TIP3    H121528   1.390   1.568   4.045
 7195TIP3    H221529   1.501   1.581   4.147
 7196TIP3   OH221530   7.744   2.184   1.043
 7196TIP3    H121531   7.753   2.238   1.122
 7196TIP3    H221532   7.650   2.176   1.030
 7197TIP3   OH221533   2.809   6.058   6.352
 7197TIP3    H121534   2.873   6.128   6.366
 7197TIP3    H221535   2.750   6.064   6.428
 7198TIP3   OH221536   7.666   0.344   1.973
 7198TIP3    H121537   7.714   0.330   2.055
 7198TIP3    H221538   7.654   0.256   1.937
 7199TIP3   OH221539   5.390   4.885   6.521
 7199TIP3    H121540   5.458   4.935   6.564
 7199TIP3    H221541   5.315   4.945   6.515
 7200TIP3   OH221542   1.066   6.941   4.397
 7200TIP3    H121543   1.045   7.019   4.345
 7200TIP3    H221544   1.067   6.972   4.487
 7201TIP3   OH221545   0.315   0.583   4.665
 7201TIP3    H121546   0.282   0.560   4.751
 7201TIP3    H221547   0.405   0.613   4.681
 7202TIP3   OH221548   3.954   4.457   1.194
 7202TIP3    H121549   3.885   4.401   1.230
 7202TIP3    H221550   3.992   4.502   1.270
 7203TIP3   OH221551   7.773   1.710   3.242
 7203TIP3    H121552   7.859   1.675   3.265
 7203TIP3    H221553   7.790   1.774   3.174
 7204TIP3   OH221554   0.700   3.797   3.744
 7204TIP3    H121555   0.700   3.863   3.674
 7204TIP3    H221556   0.614   3.807   3.786
 7205TIP3   OH221557   7.974   6.242   3.486
 7205TIP3    H121558   7.990   6.294   3.407
 7205TIP3    H221559   7.986   6.151   3.457
 7206TIP3   OH221560   6.756   7.741   5.540
 7206TIP3    H121561   6.834   7.764   5.591
 7206TIP3    H221562   6.744   7.647   5.555
 7207TIP3   OH221563   6.579   4.768   5.195
 7207TIP3    H121564   6.489   4.754   5.165
 7207TIP3    H221565   6.612   4.679   5.212
 7208TIP3   OH221566   5.637   4.687   1.048
 7208TIP3    H121567   5.715   4.633   1.037
 7208TIP3    H221568   5.575   4.652   0.983
 7209TIP3   OH221569   6.368   1.307   0.267
 7209TIP3    H121570   6.343   1.333   0.355
 7209TIP3    H221571   6.361   1.211   0.268
 7210TIP3   OH221572   3.441   3.695   4.824
 7210TIP3    H121573   3.450   3.616   4.771
 7210TIP3    H221574   3.351   3.693   4.855
 7211TIP3   OH221575   7.549   1.385   6.658
 7211TIP3    H121576   7.483   1.401   6.591
 7211TIP3    H221577   7.622   1.345   6.611
 7212TIP3   OH221578   7.557   7.710   1.057
 7212TIP3    H121579   7.587   7.767   1.128
 7212TIP3    H221580   7.628   7.712   0.993
 7213TIP3   OH221581   6.512   5.112   3.774
 7213TIP3    H121582   6.572   5.098   3.701
 7213TIP3    H221583   6.455   5.034   3.773
 7214TIP3   OH221584   2.827   6.140   1.107
 7214TIP3    H121585   2.827   6.197   1.184
 7214TIP3    H221586   2.887   6.070   1.129
 7215TIP3   OH221587   5.327   1.042   4.449
 7215TIP3    H121588   5.299   1.055   4.359
 7215TIP3    H221589   5.378   1.121   4.470
 7216TIP3   OH221590   2.311   7.516   0.948
 7216TIP3    H121591   2.385   7.456   0.939
 7216TIP3    H221592   2.351   7.603   0.949
 7217TIP3   OH221593   0.216   7.290   2.900
 7217TIP3    H121594   0.208   7.342   2.980
 7217TIP3    H221595   0.170   7.342   2.834
 7218TIP3   OH221596   2.525   5.446   3.935
 7218TIP3    H121597   2.544   5.356   3.908
 7218TIP3    H221598   2.607   5.493   3.919
 7219TIP3   OH221599   1.521   6.334   1.480
 7219TIP3    H121600   1.588   6.298   1.538
 7219TIP3    H221601   1.571   6.369   1.406
 7220TIP3   OH221602   0.952   7.328   5.127
 7220TIP3    H121603   0.878   7.273   5.152
 7220TIP3    H221604   0.984   7.290   5.045
 7221TIP3   OH221605   1.306   1.513   4.729
 7221TIP3    H121606   1.256   1.438   4.761
 7221TIP3    H221607   1.342   1.484   4.645
 7222TIP3   OH221608   0.914   2.966   0.515
 7222TIP3    H121609   0.951   2.982   0.428
 7222TIP3    H221610   0.978   3.004   0.576
 7223TIP3   OH221611   0.311   0.530   4.947
 7223TIP3    H121612   0.293   0.617   4.981
 7223TIP3    H221613   0.248   0.473   4.991
 7224TIP3   OH221614   6.820   6.116   2.667
 7224TIP3    H121615   6.745   6.057   2.661
 7224TIP3    H221616   6.857   6.117   2.579
 7225TIP3   OH221617   8.137   5.403   2.473
 7225TIP3    H121618   8.132   5.346   2.550
 7225TIP3    H221619   8.224   5.443   2.479
 7226TIP3   OH221620   0.953   4.063   4.657
 7226TIP3    H121621   0.971   4.063   4.752
 7226TIP3    H221622   0.959   3.971   4.632
 7227TIP3   OH221623   3.395   0.347   6.091
 7227TIP3    H121624   3.337   0.392   6.153
 7227TIP3    H221625   3.442   0.284   6.145
 7228TIP3   OH221626   1.996   4.508   2.781
 7228TIP3    H121627   1.957   4.494   2.868
 7228TIP3    H221628   2.001   4.420   2.743
 7229TIP3   OH221629   2.278   7.612   2.532
 7229TIP3    H121630   2.328   7.676   2.481
 7229TIP3    H221631   2.188   7.624   2.502
 7230TIP3   OH221632   5.564   2.166   4.903
 7230TIP3    H121633   5.599   2.228   4.839
 7230TIP3    H221634   5.497   2.117   4.855
 7231TIP3   OH221635   6.267   0.009   6.228
 7231TIP3    H121636   6.361   0.004   6.211
 7231TIP3    H221637   6.258   0.071   6.301
 7232TIP3   OH221638   3.421   7.631   1.841
 7232TIP3    H121639   3.402   7.723   1.861
 7232TIP3    H221640   3.516   7.625   1.839
 7233TIP3   OH221641   1.490   6.509   1.093
 7233TIP3    H121642   1.546   6.550   1.160
 7233TIP3    H221643   1.450   6.583   1.047
 7234TIP3   OH221644   4.493   3.391   1.767
 7234TIP3    H121645   4.512   3.297   1.765
 7234TIP3    H221646   4.556   3.427   1.829
 7235TIP3   OH221647   5.653   6.550   1.581
 7235TIP3    H121648   5.563   6.584   1.591
 7235TIP3    H221649   5.708   6.626   1.596
 7236TIP3   OH221650   5.110   7.151   6.531
 7236TIP3    H121651   5.025   7.111   6.549
 7236TIP3    H221652   5.113   7.158   6.436
 7237TIP3   OH221653   7.152   6.593   1.308
 7237TIP3    H121654   7.084   6.592   1.240
 7237TIP3    H221655   7.209   6.520   1.285
 7238TIP3   OH221656   7.277   0.670   5.631
 7238TIP3    H121657   7.270   0.664   5.726
 7238TIP3    H221658   7.310   0.585   5.604
 7239TIP3   OH221659   4.419   2.870   3.455
 7239TIP3    H121660   4.375   2.943   3.410
 7239TIP3    H221661   4.349   2.806   3.469
 7240TIP3   OH221662   4.025   5.629   3.944
 7240TIP3    H121663   4.028   5.643   3.849
 7240TIP3    H221664   4.064   5.543   3.957
 7241TIP3   OH221665   3.121   2.977   4.671
 7241TIP3    H121666   3.076   2.933   4.599
 7241TIP3    H221667   3.166   2.906   4.717
 7242TIP3   OH221668   0.104   4.511   1.045
 7242TIP3    H121669   0.124   4.603   1.024
 7242TIP3    H221670   0.186   4.476   1.079
 7243TIP3   OH221671   0.742   6.711   2.388
 7243TIP3    H121672   0.766   6.685   2.300
 7243TIP3    H221673   0.653   6.745   2.379
 7244TIP3   OH221674   6.738   6.799   1.898
 7244TIP3    H121675   6.733   6.895   1.896
 7244TIP3    H221676   6.797   6.777   1.826
 7245TIP3   OH221677   6.480   6.981   6.620
 7245TIP3    H121678   6.468   7.076   6.617
 7245TIP3    H221679   6.454   6.958   6.709
 7246TIP3   OH221680   0.959   6.065   4.070
 7246TIP3    H121681   1.007   6.146   4.051
 7246TIP3    H221682   1.026   5.997   4.073
 7247TIP3   OH221683   0.442   6.754   0.655
 7247TIP3    H121684   0.485   6.831   0.619
 7247TIP3    H221685   0.495   6.730   0.731
 7248TIP3   OH221686   8.059   3.279   5.583
 7248TIP3    H121687   8.026   3.287   5.672
 7248TIP3    H221688   7.999   3.330   5.530
 7249TIP3   OH221689   0.305   2.720   1.188
 7249TIP3    H121690   0.340   2.689   1.272
 7249TIP3    H221691   0.339   2.658   1.123
 7250TIP3   OH221692   5.706   3.570   6.013
 7250TIP3    H121693   5.754   3.633   5.958
 7250TIP3    H221694   5.671   3.506   5.950
 7251TIP3   OH221695   2.551   2.484   4.843
 7251TIP3    H121696   2.613   2.455   4.776
 7251TIP3    H221697   2.606   2.517   4.914
 7252TIP3   OH221698   7.325   0.569   5.099
 7252TIP3    H121699   7.296   0.494   5.150
 7252TIP3    H221700   7.269   0.569   5.022
 7253TIP3   OH221701   6.022   1.899   2.551
 7253TIP3    H121702   6.027   1.990   2.582
 7253TIP3    H221703   5.985   1.851   2.625
 7254TIP3   OH221704   5.811   0.394   4.540
 7254TIP3    H121705   5.904   0.386   4.560
 7254TIP3    H221706   5.770   0.411   4.625
 7255TIP3   OH221707   3.052   2.233   6.475
 7255TIP3    H121708   2.963   2.265   6.493
 7255TIP3    H221709   3.050   2.141   6.502
 7256TIP3   OH221710   6.217   4.991   1.093
 7256TIP3    H121711   6.165   5.060   1.054
 7256TIP3    H221712   6.285   5.037   1.142
 7257TIP3   OH221713   0.431   7.736   5.087
 7257TIP3    H121714   0.435   7.689   5.170
 7257TIP3    H221715   0.438   7.667   5.020
 7258TIP3   OH221716   6.038   3.649   0.548
 7258TIP3    H121717   6.033   3.656   0.643
 7258TIP3    H221718   6.131   3.660   0.528
 7259TIP3   OH221719   1.605   0.673   5.307
 7259TIP3    H121720   1.577   0.764   5.318
 7259TIP3    H221721   1.570   0.628   5.384
 7260TIP3   OH221722   4.198   1.910   3.287
 7260TIP3    H121723   4.138   1.910   3.361
 7260TIP3    H221724   4.188   1.824   3.247
 7261TIP3   OH221725   3.334   6.712   1.067
 7261TIP3    H121726   3.264   6.647   1.079
 7261TIP3    H221727   3.296   6.794   1.099
 7262TIP3   OH221728   0.600   0.422   0.907
 7262TIP3    H121729   0.529   0.380   0.956
 7262TIP3    H221730   0.679   0.376   0.936
 7263TIP3   OH221731   0.873   5.161   5.439
 7263TIP3    H121732   0.824   5.153   5.521
 7263TIP3    H221733   0.965   5.154   5.464
 7264TIP3   OH221734   5.198   2.297   4.225
 7264TIP3    H121735   5.169   2.240   4.154
 7264TIP3    H221736   5.133   2.367   4.227
 7265TIP3   OH221737   2.636   4.982   2.500
 7265TIP3    H121738   2.571   4.928   2.455
 7265TIP3    H221739   2.604   5.072   2.488
 7266TIP3   OH221740   5.090   2.039   1.053
 7266TIP3    H121741   5.002   2.076   1.048
 7266TIP3    H221742   5.135   2.076   0.977
 7267TIP3   OH221743   3.289   1.752   0.640
 7267TIP3    H121744   3.263   1.742   0.549
 7267TIP3    H221745   3.313   1.845   0.648
 7268TIP3   OH221746   1.279   2.436   3.594
 7268TIP3    H121747   1.267   2.435   3.499
 7268TIP3    H221748   1.191   2.424   3.629
 7269TIP3   OH221749   5.445   5.308   3.315
 7269TIP3    H121750   5.458   5.256   3.394
 7269TIP3    H221751   5.350   5.317   3.307
 7270TIP3   OH221752   6.566   1.314   6.734
 7270TIP3    H121753   6.508   1.288   6.661
 7270TIP3    H221754   6.647   1.340   6.691
 7271TIP3   OH221755   5.880   3.134   6.140
 7271TIP3    H121756   5.952   3.140   6.076
 7271TIP3    H221757   5.829   3.213   6.124
 7272TIP3   OH221758   1.552   2.806   4.837
 7272TIP3    H121759   1.510   2.892   4.827
 7272TIP3    H221760   1.612   2.818   4.910
 7273TIP3   OH221761   1.976   5.181   0.370
 7273TIP3    H121762   1.965   5.108   0.309
 7273TIP3    H221763   1.898   5.177   0.425
 7274TIP3   OH221764   2.329   2.697   4.331
 7274TIP3    H121765   2.329   2.646   4.250
 7274TIP3    H221766   2.326   2.632   4.401
 7275TIP3   OH221767   4.001   6.062   1.106
 7275TIP3    H121768   3.972   6.145   1.068
 7275TIP3    H221769   3.928   6.002   1.093
 7276TIP3   OH221770   7.595   6.403   1.554
 7276TIP3    H121771   7.529   6.469   1.533
 7276TIP3    H221772   7.545   6.326   1.579
 7277TIP3   OH221773   5.489   2.361   5.540
 7277TIP3    H121774   5.555   2.430   5.546
 7277TIP3    H221775   5.533   2.284   5.575
 7278TIP3   OH221776   3.266   4.039   2.540
 7278TIP3    H121777   3.197   3.973   2.528
 7278TIP3    H221778   3.257   4.097   2.465
 7279TIP3   OH221779   4.378   2.445   0.753
 7279TIP3    H121780   4.449   2.407   0.806
 7279TIP3    H221781   4.328   2.499   0.815
 7280TIP3   OH221782   3.505   1.598   2.062
 7280TIP3    H121783   3.471   1.513   2.032
 7280TIP3    H221784   3.427   1.652   2.074
 7281TIP3   OH221785   0.785   3.881   4.949
 7281TIP3    H121786   0.739   3.817   5.003
 7281TIP3    H221787   0.816   3.947   5.010
 7282TIP3   OH221788   3.949   4.017   2.420
 7282TIP3    H121789   3.877   4.028   2.358
 7282TIP3    H221790   4.028   4.021   2.366
 7283TIP3   OH221791   0.450   5.550   5.330
 7283TIP3    H121792   0.479   5.509   5.249
 7283TIP3    H221793   0.505   5.509   5.398
 7284TIP3   OH221794   3.940   5.148   4.900
 7284TIP3    H121795   3.871   5.212   4.880
 7284TIP3    H221796   3.896   5.082   4.954
 7285TIP3   OH221797   2.964   6.658   3.293
 7285TIP3    H121798   2.992   6.636   3.204
 7285TIP3    H221799   2.898   6.592   3.314
 7286TIP3   OH221800   4.627   5.321   2.282
 7286TIP3    H121801   4.594   5.311   2.193
 7286TIP3    H221802   4.590   5.404   2.312
 7287TIP3   OH221803   1.208   6.609   5.094
 7287TIP3    H121804   1.289   6.616   5.042
 7287TIP3    H221805   1.230   6.650   5.178
 7288TIP3   OH221806   0.616   5.032   6.760
 7288TIP3    H121807   0.680   5.052   6.692
 7288TIP3    H221808   0.547   4.984   6.714
 7289TIP3   OH221809   6.366   4.020   1.084
 7289TIP3    H121810   6.426   3.952   1.115
 7289TIP3    H221811   6.285   4.005   1.132
 7290TIP3   OH221812   4.570   3.682   6.110
 7290TIP3    H121813   4.544   3.754   6.167
 7290TIP3    H221814   4.562   3.604   6.164
 7291TIP3   OH221815   5.569   3.103   3.333
 7291TIP3    H121816   5.655   3.068   3.358
 7291TIP3    H221817   5.535   3.143   3.413
 7292TIP3   OH221818   0.870   3.789   5.341
 7292TIP3    H121819   0.947   3.818   5.292
 7292TIP3    H221820   0.859   3.855   5.410
 7293TIP3   OH221821   5.754   1.802   3.046
 7293TIP3    H121822   5.702   1.875   3.011
 7293TIP3    H221823   5.812   1.778   2.974
 7294TIP3   OH221824   4.773   6.943   0.804
 7294TIP3    H121825   4.754   6.956   0.897
 7294TIP3    H221826   4.738   7.021   0.761
 7295TIP3   OH221827   7.450   0.612   4.161
 7295TIP3    H121828   7.385   0.584   4.096
 7295TIP3    H221829   7.415   0.581   4.244
 7296TIP3   OH221830   7.697   2.400   0.771
 7296TIP3    H121831   7.739   2.469   0.822
 7296TIP3    H221832   7.646   2.447   0.705
 7297TIP3   OH221833   6.167   2.708   6.323
 7297TIP3    H121834   6.245   2.763   6.327
 7297TIP3    H221835   6.178   2.656   6.244
 7298TIP3   OH221836   2.234   7.097   5.782
 7298TIP3    H121837   2.202   7.014   5.815
 7298TIP3    H221838   2.196   7.105   5.694
 7299TIP3   OH221839   6.733   0.803   2.091
 7299TIP3    H121840   6.698   0.761   2.012
 7299TIP3    H221841   6.739   0.896   2.067
 7300TIP3   OH221842   7.601   5.992   2.845
 7300TIP3    H121843   7.648   5.958   2.769
 7300TIP3    H221844   7.511   5.959   2.833
 7301TIP3   OH221845   2.317   3.375   3.486
 7301TIP3    H121846   2.267   3.413   3.559
 7301TIP3    H221847   2.395   3.338   3.527
 7302TIP3   OH221848   7.698   5.950   2.573
 7302TIP3    H121849   7.774   5.998   2.541
 7302TIP3    H221850   7.714   5.859   2.548
 7303TIP3   OH221851   5.877   5.356   2.174
 7303TIP3    H121852   5.845   5.327   2.089
 7303TIP3    H221853   5.889   5.275   2.224
 7304TIP3   OH221854   6.980   3.636   1.635
 7304TIP3    H121855   6.986   3.610   1.544
 7304TIP3    H221856   6.887   3.650   1.651
 7305TIP3   OH221857   2.891   3.659   2.351
 7305TIP3    H121858   2.850   3.746   2.354
 7305TIP3    H221859   2.856   3.614   2.428
 7306TIP3   OH221860   5.082   5.928   6.622
 7306TIP3    H121861   5.050   5.838   6.621
 7306TIP3    H221862   5.099   5.946   6.714
 7307TIP3   OH221863   5.373   0.097   2.192
 7307TIP3    H121864   5.313   0.171   2.180
 7307TIP3    H221865   5.407   0.108   2.281
 7308TIP3   OH221866   4.157   0.037   2.920
 7308TIP3    H121867   4.226   0.094   2.888
 7308TIP3    H221868   4.097   0.028   2.846
 7309TIP3   OH221869   5.480   1.847   0.249
 7309TIP3    H121870   5.428   1.798   0.311
 7309TIP3    H221871   5.439   1.830   0.164
 7310TIP3   OH221872   4.993   1.363   2.245
 7310TIP3    H121873   5.048   1.284   2.249
 7310TIP3    H221874   4.909   1.336   2.283
 7311TIP3   OH221875   6.782   6.099   0.808
 7311TIP3    H121876   6.689   6.123   0.811
 7311TIP3    H221877   6.820   6.159   0.744
 7312TIP3   OH221878   4.195   4.444   0.997
 7312TIP3    H121879   4.273   4.418   0.948
 7312TIP3    H221880   4.229   4.475   1.081
 7313TIP3   OH221881   5.245   2.736   2.781
 7313TIP3    H121882   5.152   2.754   2.765
 7313TIP3    H221883   5.274   2.808   2.837
 7314TIP3   OH221884   0.959   1.060   4.260
 7314TIP3    H121885   1.034   1.076   4.201
 7314TIP3    H221886   0.961   0.966   4.275
 7315TIP3   OH221887   4.769   5.199   5.344
 7315TIP3    H121888   4.729   5.132   5.400
 7315TIP3    H221889   4.861   5.200   5.370
 7316TIP3   OH221890   4.832   2.760   5.292
 7316TIP3    H121891   4.746   2.761   5.332
 7316TIP3    H221892   4.843   2.669   5.263
 7317TIP3   OH221893   4.375   5.489   4.479
 7317TIP3    H121894   4.424   5.564   4.513
 7317TIP3    H221895   4.287   5.500   4.515
 7318TIP3   OH221896   6.900   0.425   6.576
 7318TIP3    H121897   6.868   0.488   6.640
 7318TIP3    H221898   6.947   0.360   6.628
 7319TIP3   OH221899   6.151   6.194   5.606
 7319TIP3    H121900   6.122   6.169   5.518
 7319TIP3    H221901   6.153   6.111   5.655
 7320TIP3   OH221902   0.643   6.333   0.742
 7320TIP3    H121903   0.599   6.257   0.780
 7320TIP3    H221904   0.574   6.380   0.695
 7321TIP3   OH221905   3.729   5.683   6.411
 7321TIP3    H121906   3.713   5.598   6.369
 7321TIP3    H221907   3.674   5.681   6.489
 7322TIP3   OH221908   4.208   6.079   5.442
 7322TIP3    H121909   4.147   6.142   5.403
 7322TIP3    H221910   4.153   6.004   5.464
 7323TIP3   OH221911   7.773   7.020   3.353
 7323TIP3    H121912   7.716   6.995   3.426
 7323TIP3    H221913   7.724   7.088   3.307
 7324TIP3   OH221914   0.139   2.566   0.575
 7324TIP3    H121915   0.119   2.660   0.573
 7324TIP3    H221916   0.126   2.540   0.666
 7325TIP3   OH221917   1.376   1.126   0.330
 7325TIP3    H121918   1.366   1.132   0.235
 7325TIP3    H221919   1.436   1.053   0.343
 7326TIP3   OH221920   2.110   4.789   2.128
 7326TIP3    H121921   2.020   4.816   2.108
 7326TIP3    H221922   2.158   4.870   2.141
 7327TIP3   OH221923   3.267   6.479   0.003
 7327TIP3    H121924   3.254   6.386   0.019
 7327TIP3    H221925   3.361   6.492   0.009
 7328TIP3   OH221926   4.628   3.001   4.410
 7328TIP3    H121927   4.713   2.985   4.451
 7328TIP3    H221928   4.648   3.015   4.317
 7329TIP3   OH221929   7.806   2.910   2.999
 7329TIP3    H121930   7.794   2.966   2.922
 7329TIP3    H221931   7.896   2.877   2.990
 7330TIP3   OH221932   2.744   0.051   6.482
 7330TIP3    H121933   2.822   0.047   6.426
 7330TIP3    H221934   2.778   0.069   6.570
 7331TIP3   OH221935   1.971   0.583   3.716
 7331TIP3    H121936   1.930   0.506   3.677
 7331TIP3    H221937   1.911   0.655   3.696
 7332TIP3   OH221938   5.149   2.512   1.169
 7332TIP3    H121939   5.215   2.450   1.200
 7332TIP3    H221940   5.112   2.470   1.090
 7333TIP3   OH221941   4.981   5.139   4.553
 7333TIP3    H121942   5.038   5.128   4.630
 7333TIP3    H221943   5.041   5.135   4.479
 7334TIP3   OH221944   7.680   2.065   3.841
 7334TIP3    H121945   7.745   2.009   3.800
 7334TIP3    H221946   7.655   2.018   3.921
 7335TIP3   OH221947   5.289   4.223   4.518
 7335TIP3    H121948   5.296   4.135   4.482
 7335TIP3    H221949   5.219   4.217   4.583
 7336TIP3   OH221950   6.110   5.200   0.914
 7336TIP3    H121951   6.022   5.237   0.923
 7336TIP3    H221952   6.156   5.228   0.993
 7337TIP3   OH221953   4.592   0.467   3.837
 7337TIP3    H121954   4.636   0.533   3.890
 7337TIP3    H221955   4.590   0.389   3.892
 7338TIP3   OH221956   1.079   6.100   4.706
 7338TIP3    H121957   1.029   6.092   4.787
 7338TIP3    H221958   1.029   6.162   4.653
 7339TIP3   OH221959   8.175   4.641   0.116
 7339TIP3    H121960   8.175   4.642   0.212
 7339TIP3    H221961   8.098   4.588   0.093
 7340TIP3   OH221962   7.634   3.248   2.556
 7340TIP3    H121963   7.592   3.218   2.476
 7340TIP3    H221964   7.707   3.302   2.527
 7341TIP3   OH221965   4.614   7.513   0.329
 7341TIP3    H121966   4.520   7.527   0.340
 7341TIP3    H221967   4.646   7.594   0.290
 7342TIP3   OH221968   0.766   5.909   1.682
 7342TIP3    H121969   0.817   5.922   1.601
 7342TIP3    H221970   0.795   5.979   1.740
 7343TIP3   OH221971   4.949   6.833   1.380
 7343TIP3    H121972   5.031   6.870   1.347
 7343TIP3    H221973   4.969   6.741   1.399
 7344TIP3   OH221974   4.392   0.359   5.167
 7344TIP3    H121975   4.409   0.272   5.130
 7344TIP3    H221976   4.352   0.408   5.095
 7345TIP3   OH221977   3.975   2.674   6.211
 7345TIP3    H121978   4.033   2.599   6.227
 7345TIP3    H221979   3.892   2.634   6.184
 7346TIP3   OH221980   6.079   3.167   5.975
 7346TIP3    H121981   6.122   3.235   6.026
 7346TIP3    H221982   6.150   3.126   5.924
 7347TIP3   OH221983   0.085   2.121   2.944
 7347TIP3    H121984   0.155   2.058   2.924
 7347TIP3    H221985   0.005   2.069   2.943
 7348TIP3   OH221986   2.419   7.524   4.439
 7348TIP3    H121987   2.431   7.435   4.405
 7348TIP3    H221988   2.354   7.563   4.380
 7349TIP3   OH221989   4.279   7.120   3.608
 7349TIP3    H121990   4.260   7.203   3.652
 7349TIP3    H221991   4.364   7.093   3.643
 7350TIP3   OH221992   4.256   2.593   0.922
 7350TIP3    H121993   4.171   2.550   0.934
 7350TIP3    H221994   4.250   2.674   0.972
 7351TIP3   OH221995   5.296   1.652   6.168
 7351TIP3    H121996   5.351   1.688   6.099
 7351TIP3    H221997   5.215   1.628   6.124
 7352TIP3   OH221998   5.831   1.190   2.380
 7352TIP3    H121999   5.845   1.095   2.384
 7352TIP3    H222000   5.737   1.201   2.398
 7353TIP3   OH222001   6.106   5.574   3.878
 7353TIP3    H122002   6.085   5.580   3.785
 7353TIP3    H222003   6.201   5.582   3.882
 7354TIP3   OH222004   0.727   3.631   6.633
 7354TIP3    H122005   0.720   3.722   6.605
 7354TIP3    H222006   0.677   3.628   6.715
 7355TIP3   OH222007   3.301   2.364   6.653
 7355TIP3    H122008   3.254   2.388   6.573
 7355TIP3    H222009   3.391   2.346   6.624
 7356TIP3   OH222010   2.360   7.472   4.700
 7356TIP3    H122011   2.409   7.492   4.620
 7356TIP3    H222012   2.319   7.387   4.682
 7357TIP3   OH222013   3.171   4.164   4.677
 7357TIP3    H122014   3.240   4.167   4.611
 7357TIP3    H222015   3.100   4.217   4.641
 7358TIP3   OH222016   3.899   7.260   1.094
 7358TIP3    H122017   3.864   7.340   1.133
 7358TIP3    H222018   3.823   7.202   1.089
 7359TIP3   OH222019   7.021   5.765   1.496
 7359TIP3    H122020   7.053   5.808   1.576
 7359TIP3    H222021   6.947   5.820   1.468
 7360TIP3   OH222022   1.165   6.734   5.940
 7360TIP3    H122023   1.146   6.817   5.897
 7360TIP3    H222024   1.255   6.714   5.915
 7361TIP3   OH222025   1.420   2.655   5.214
 7361TIP3    H122026   1.409   2.648   5.309
 7361TIP3    H222027   1.341   2.698   5.184
 7362TIP3   OH222028   1.182   4.135   0.550
 7362TIP3    H122029   1.167   4.190   0.627
 7362TIP3    H222030   1.169   4.194   0.476
 7363TIP3   OH222031   7.705   2.744   4.271
 7363TIP3    H122032   7.744   2.763   4.356
 7363TIP3    H222033   7.693   2.829   4.229
 7364TIP3   OH222034   1.758   5.761   1.419
 7364TIP3    H122035   1.685   5.822   1.414
 7364TIP3    H222036   1.794   5.759   1.330
 7365TIP3   OH222037   3.072   7.388   6.746
 7365TIP3    H122038   3.130   7.344   6.684
 7365TIP3    H222039   2.990   7.340   6.742
 7366TIP3   OH222040   7.594   2.147   0.731
 7366TIP3    H122041   7.610   2.233   0.768
 7366TIP3    H222042   7.635   2.150   0.644
 7367TIP3   OH222043   4.193   5.036   1.818
 7367TIP3    H122044   4.161   4.960   1.771
 7367TIP3    H222045   4.220   5.002   1.903
 7368TIP3   OH222046   2.506   2.914   4.312
 7368TIP3    H122047   2.461   2.992   4.280
 7368TIP3    H222048   2.435   2.851   4.328
 7369TIP3   OH222049   1.114   0.810   3.174
 7369TIP3    H122050   1.089   0.734   3.225
 7369TIP3    H222051   1.198   0.838   3.211
 7370TIP3   OH222052   7.394   2.096   0.241
 7370TIP3    H122053   7.335   2.022   0.224
 7370TIP3    H222054   7.338   2.162   0.282
 7371TIP3   OH222055   3.932   1.460   6.614
 7371TIP3    H122056   3.869   1.434   6.547
 7371TIP3    H222057   3.986   1.381   6.628
 7372TIP3   OH222058   3.372   2.657   1.129
 7372TIP3    H122059   3.397   2.740   1.089
 7372TIP3    H222060   3.426   2.652   1.208
 7373TIP3   OH222061   2.526   6.922   0.926
 7373TIP3    H122062   2.601   6.916   0.985
 7373TIP3    H222063   2.458   6.966   0.977
 7374TIP3   OH222064   2.498   5.792   0.861
 7374TIP3    H122065   2.472   5.864   0.803
 7374TIP3    H222066   2.572   5.750   0.816
 7375TIP3   OH222067   3.456   6.597   1.298
 7375TIP3    H122068   3.410   6.630   1.375
 7375TIP3    H222069   3.415   6.644   1.225
 7376TIP3   OH222070   7.866   6.169   6.727
 7376TIP3    H122071   7.853   6.234   6.658
 7376TIP3    H222072   7.944   6.121   6.700
 7377TIP3   OH222073   5.659   2.981   2.488
 7377TIP3    H122074   5.733   2.932   2.526
 7377TIP3    H222075   5.650   2.946   2.400
 7378TIP3   OH222076   6.508   4.219   5.151
 7378TIP3    H122077   6.483   4.147   5.093
 7378TIP3    H222078   6.588   4.188   5.194
 7379TIP3   OH222079   0.071   5.096   5.589
 7379TIP3    H122080   0.115   5.017   5.559
 7379TIP3    H222081   0.036   5.073   5.675
 7380TIP3   OH222082   2.312   3.709   0.522
 7380TIP3    H122083   2.352   3.791   0.493
 7380TIP3    H222084   2.326   3.708   0.616
 7381TIP3   OH222085   6.405   0.662   6.152
 7381TIP3    H122086   6.367   0.741   6.112
 7381TIP3    H222087   6.499   0.678   6.153
 7382TIP3   OH222088   2.753   2.823   1.118
 7382TIP3    H122089   2.664   2.851   1.098
 7382TIP3    H222090   2.808   2.894   1.084
 7383TIP3   OH222091   1.976   7.258   4.493
 7383TIP3    H122092   1.915   7.201   4.448
 7383TIP3    H222093   2.059   7.210   4.494
 7384TIP3   OH222094   5.609   6.961   2.106
 7384TIP3    H122095   5.656   7.042   2.123
 7384TIP3    H222096   5.625   6.907   2.184
 7385TIP3   OH222097   6.844   1.613   4.511
 7385TIP3    H122098   6.787   1.614   4.588
 7385TIP3    H222099   6.804   1.548   4.453
 7386TIP3   OH222100   0.587   6.721   3.389
 7386TIP3    H122101   0.646   6.792   3.414
 7386TIP3    H222102   0.513   6.729   3.449
 7387TIP3   OH222103   4.221   5.529   6.269
 7387TIP3    H122104   4.160   5.601   6.251
 7387TIP3    H222105   4.164   5.454   6.289
 7388TIP3   OH222106   6.340   1.968   5.966
 7388TIP3    H122107   6.313   1.879   5.943
 7388TIP3    H222108   6.416   1.955   6.023
 7389TIP3   OH222109   3.242   6.984   5.541
 7389TIP3    H122110   3.220   7.023   5.456
 7389TIP3    H222111   3.162   6.937   5.567
 7390TIP3   OH222112   3.901   0.630   1.132
 7390TIP3    H122113   3.850   0.703   1.169
 7390TIP3    H222114   3.920   0.574   1.207
 7391TIP3   OH222115   3.322   3.706   5.387
 7391TIP3    H122116   3.362   3.622   5.366
 7391TIP3    H222117   3.393   3.759   5.422
 7392TIP3   OH222118   5.466   5.524   3.731
 7392TIP3    H122119   5.410   5.450   3.755
 7392TIP3    H222120   5.511   5.548   3.811
 7393TIP3   OH222121   5.745   0.260   5.609
 7393TIP3    H122122   5.814   0.312   5.569
 7393TIP3    H222123   5.727   0.190   5.546
 7394TIP3   OH222124   0.965   2.026   5.202
 7394TIP3    H122125   0.913   2.014   5.281
 7394TIP3    H222126   0.985   2.120   5.200
 7395TIP3   OH222127   6.681   1.331   2.297
 7395TIP3    H122128   6.722   1.415   2.317
 7395TIP3    H222129   6.590   1.341   2.326
 7396TIP3   OH222130   4.912   7.598   0.690
 7396TIP3    H122131   4.980   7.583   0.624
 7396TIP3    H222132   4.951   7.570   0.773
 7397TIP3   OH222133   5.978   1.762   1.378
 7397TIP3    H122134   6.057   1.804   1.345
 7397TIP3    H222135   5.919   1.758   1.303
 7398TIP3   OH222136   3.450   4.622   2.678
 7398TIP3    H122137   3.463   4.626   2.773
 7398TIP3    H222138   3.522   4.672   2.642
 7399TIP3   OH222139   3.334   3.475   0.094
 7399TIP3    H122140   3.332   3.404   0.029
 7399TIP3    H222141   3.325   3.555   0.042
 7400TIP3   OH222142   2.993   7.093   2.817
 7400TIP3    H122143   2.999   7.120   2.909
 7400TIP3    H222144   3.045   7.159   2.771
 7401TIP3   OH222145   3.695   0.727   2.004
 7401TIP3    H122146   3.764   0.661   2.010
 7401TIP3    H222147   3.633   0.692   1.940
 7402TIP3   OH222148   4.588   2.323   0.863
 7402TIP3    H122149   4.660   2.377   0.896
 7402TIP3    H222150   4.572   2.259   0.932
 7403TIP3   OH222151   5.249   1.403   4.342
 7403TIP3    H122152   5.167   1.409   4.293
 7403TIP3    H222153   5.223   1.366   4.427
 7404TIP3   OH222154   5.852   4.429   1.631
 7404TIP3    H122155   5.802   4.401   1.554
 7404TIP3    H222156   5.864   4.523   1.618
 7405TIP3   OH222157   6.816   0.142   6.487
 7405TIP3    H122158   6.820   0.123   6.581
 7405TIP3    H222159   6.764   0.222   6.481
 7406TIP3   OH222160   7.308   1.139   4.148
 7406TIP3    H122161   7.326   1.045   4.151
 7406TIP3    H222162   7.394   1.181   4.157
 7407TIP3   OH222163   1.434   2.381   6.585
 7407TIP3    H122164   1.420   2.287   6.598
 7407TIP3    H222165   1.399   2.422   6.664
 7408TIP3   OH222166   3.810   0.872   1.018
 7408TIP3    H122167   3.761   0.898   1.096
 7408TIP3    H222168   3.873   0.943   1.005
 7409TIP3   OH222169   3.889   6.368   0.641
 7409TIP3    H122170   3.951   6.424   0.689
 7409TIP3    H222171   3.815   6.425   0.620
 7410TIP3   OH222172   5.877   4.175   5.081
 7410TIP3    H122173   5.851   4.169   5.173
 7410TIP3    H222174   5.846   4.261   5.053
 7411TIP3   OH222175   1.767   6.636   6.233
 7411TIP3    H122176   1.804   6.723   6.217
 7411TIP3    H222177   1.769   6.626   6.328
 7412TIP3   OH222178   6.326   6.488   0.653
 7412TIP3    H122179   6.322   6.395   0.633
 7412TIP3    H222180   6.417   6.512   0.638
 7413TIP3   OH222181   3.186   5.425   6.208
 7413TIP3    H122182   3.128   5.473   6.149
 7413TIP3    H222183   3.253   5.387   6.151
 7414TIP3   OH222184   8.182   4.135   3.531
 7414TIP3    H122185   8.115   4.193   3.566
 7414TIP3    H222186   8.191   4.162   3.440
 7415TIP3   OH222187   1.217   6.344   3.872
 7415TIP3    H122188   1.300   6.349   3.919
 7415TIP3    H222189   1.150   6.360   3.938
 7416TIP3   OH222190   0.337   4.941   4.747
 7416TIP3    H122191   0.346   4.907   4.658
 7416TIP3    H222192   0.249   4.979   4.749
 7417TIP3   OH222193   6.791   3.282   1.376
 7417TIP3    H122194   6.838   3.210   1.419
 7417TIP3    H222195   6.736   3.319   1.445
 7418TIP3   OH222196   4.582   1.154   0.498
 7418TIP3    H122197   4.595   1.172   0.404
 7418TIP3    H222198   4.542   1.068   0.500
 7419TIP3   OH222199   6.424   0.743   1.792
 7419TIP3    H122200   6.439   0.721   1.700
 7419TIP3    H222201   6.510   0.734   1.833
 7420TIP3   OH222202   1.728   1.194   5.555
 7420TIP3    H122203   1.633   1.182   5.557
 7420TIP3    H222204   1.741   1.265   5.491
 7421TIP3   OH222205   0.147   3.400   6.325
 7421TIP3    H122206   0.198   3.409   6.405
 7421TIP3    H222207   0.207   3.428   6.255
 7422TIP3   OH222208   0.221   2.648   3.322
 7422TIP3    H122209   0.245   2.575   3.265
 7422TIP3    H222210   0.304   2.674   3.363
 7423TIP3   OH222211   5.492   7.721   2.037
 7423TIP3    H122212   5.433   7.712   1.962
 7423TIP3    H222213   5.454   7.792   2.089
 7424TIP3   OH222214   6.323   2.180   4.937
 7424TIP3    H122215   6.412   2.215   4.933
 7424TIP3    H222216   6.318   2.137   5.022
 7425TIP3   OH222217   0.665   7.467   0.455
 7425TIP3    H122218   0.601   7.524   0.498
 7425TIP3    H222219   0.662   7.493   0.363
 7426TIP3   OH222220   7.597   6.038   4.081
 7426TIP3    H122221   7.646   5.973   4.132
 7426TIP3    H222222   7.606   6.009   3.991
 7427TIP3   OH222223   2.136   3.340   1.826
 7427TIP3    H122224   2.042   3.351   1.837
 7427TIP3    H222225   2.150   3.348   1.732
 7428TIP3   OH222226   8.243   4.813   2.318
 7428TIP3    H122227   8.168   4.864   2.285
 7428TIP3    H222228   8.295   4.794   2.240
 7429TIP3   OH222229   7.884   3.437   0.073
 7429TIP3    H122230   7.905   3.347   0.099
 7429TIP3    H222231   7.969   3.475   0.052
 7430TIP3   OH222232   7.476   3.235   2.134
 7430TIP3    H122233   7.445   3.174   2.067
 7430TIP3    H222234   7.500   3.180   2.208
 7431TIP3   OH222235   3.846   0.046   5.098
 7431TIP3    H122236   3.860   0.084   5.185
 7431TIP3    H222237   3.793  -0.032   5.114
 7432TIP3   OH222238   6.950   2.466   3.092
 7432TIP3    H122239   7.043   2.472   3.113
 7432TIP3    H222240   6.907   2.450   3.176
 7433TIP3   OH222241   4.895   6.102   4.698
 7433TIP3    H122242   4.897   6.016   4.741
 7433TIP3    H222243   4.893   6.081   4.604
 7434TIP3   OH222244   1.711   0.747   2.296
 7434TIP3    H122245   1.623   0.737   2.334
 7434TIP3    H222246   1.710   0.834   2.257
 7435TIP3   OH222247   6.635   1.818   1.187
 7435TIP3    H122248   6.650   1.802   1.094
 7435TIP3    H222249   6.611   1.910   1.192
 7436TIP3   OH222250   0.067   0.442   5.043
 7436TIP3    H122251  -0.007   0.449   4.983
 7436TIP3    H222252   0.060   0.354   5.079
 7437TIP3   OH222253   1.595   7.773   4.067
 7437TIP3    H122254   1.597   7.807   3.978
 7437TIP3    H222255   1.591   7.851   4.122
 7438TIP3   OH222256   3.896   1.480   0.379
 7438TIP3    H122257   3.939   1.469   0.464
 7438TIP3    H222258   3.961   1.451   0.315
 7439TIP3   OH222259   5.922   6.579   3.605
 7439TIP3    H122260   5.912   6.484   3.598
 7439TIP3    H222261   5.970   6.604   3.526
 7440TIP3   OH222262   7.931   3.522   6.380
 7440TIP3    H122263   8.010   3.560   6.418
 7440TIP3    H222264   7.955   3.500   6.290
 7441TIP3   OH222265   8.147   7.718   0.604
 7441TIP3    H122266   8.137   7.648   0.669
 7441TIP3    H222267   8.071   7.708   0.546
 7442TIP3   OH222268   6.297   1.857   3.644
 7442TIP3    H122269   6.325   1.804   3.718
 7442TIP3    H222270   6.316   1.803   3.567
 7443TIP3   OH222271   8.278   0.480   1.779
 7443TIP3    H122272   8.288   0.389   1.805
 7443TIP3    H222273   8.200   0.481   1.723
 7444TIP3   OH222274   2.608   7.592   4.143
 7444TIP3    H122275   2.614   7.625   4.233
 7444TIP3    H222276   2.698   7.571   4.120
 7445TIP3   OH222277   4.700   2.766   0.313
 7445TIP3    H122278   4.732   2.784   0.225
 7445TIP3    H222279   4.775   2.727   0.358
 7446TIP3   OH222280   6.189   2.664   0.707
 7446TIP3    H122281   6.283   2.665   0.723
 7446TIP3    H222282   6.161   2.577   0.736
 7447TIP3   OH222283   7.834   2.863   5.414
 7447TIP3    H122284   7.894   2.922   5.460
 7447TIP3    H222285   7.765   2.845   5.477
 7448TIP3   OH222286   4.440   6.841   2.961
 7448TIP3    H122287   4.474   6.923   2.927
 7448TIP3    H222288   4.377   6.867   3.028
 7449TIP3   OH222289   2.257   6.116   2.556
 7449TIP3    H122290   2.251   6.155   2.469
 7449TIP3    H222291   2.202   6.038   2.551
 7450TIP3   OH222292   7.279   6.901   6.768
 7450TIP3    H122293   7.252   6.874   6.680
 7450TIP3    H222294   7.228   6.980   6.786
 7451TIP3   OH222295   0.146   7.183   5.830
 7451TIP3    H122296   0.160   7.211   5.921
 7451TIP3    H222297   0.149   7.264   5.779
 7452TIP3   OH222298   1.009   3.017   4.072
 7452TIP3    H122299   0.932   2.995   4.018
 7452TIP3    H222300   1.044   3.096   4.032
 7453TIP3   OH222301   1.646   5.468   0.892
 7453TIP3    H122302   1.605   5.541   0.939
 7453TIP3    H222303   1.582   5.397   0.896
 7454TIP3   OH222304   2.023   7.792   1.473
 7454TIP3    H122305   1.943   7.758   1.434
 7454TIP3    H222306   2.091   7.728   1.449
 7455TIP3   OH222307   4.856   6.434   5.034
 7455TIP3    H122308   4.890   6.399   4.952
 7455TIP3    H222309   4.771   6.471   5.012
 7456TIP3   OH222310   0.827   0.103   5.460
 7456TIP3    H122311   0.854   0.046   5.532
 7456TIP3    H222312   0.868   0.066   5.382
 7457TIP3   OH222313   2.848   2.901   5.463
 7457TIP3    H122314   2.763   2.943   5.471
 7457TIP3    H222315   2.876   2.919   5.373
 7458TIP3   OH222316   2.906   5.340   6.508
 7458TIP3    H122317   2.894   5.279   6.580
 7458TIP3    H222318   2.903   5.286   6.429
 7459TIP3   OH222319   5.612   7.226   0.400
 7459TIP3    H122320   5.639   7.300   0.345
 7459TIP3    H222321   5.526   7.252   0.433
 7460TIP3   OH222322   3.934   0.866   4.057
 7460TIP3    H122323   3.988   0.787   4.060
 7460TIP3    H222324   3.846   0.834   4.037
 7461TIP3   OH222325   6.019   2.612   6.760
 7461TIP3    H122326   6.012   2.607   6.665
 7461TIP3    H222327   6.065   2.695   6.776
 7462TIP3   OH222328   1.869   2.587   4.755
 7462TIP3    H122329   1.842   2.675   4.780
 7462TIP3    H222330   1.885   2.542   4.838
 7463TIP3   OH222331   0.994   4.011   4.248
 7463TIP3    H122332   0.920   4.019   4.309
 7463TIP3    H222333   1.022   4.101   4.232
 7464TIP3   OH222334   1.494   0.734   0.764
 7464TIP3    H122335   1.546   0.675   0.710
 7464TIP3    H222336   1.443   0.676   0.821
 7465TIP3   OH222337   5.681   1.568   5.931
 7465TIP3    H122338   5.641   1.526   5.855
 7465TIP3    H222339   5.674   1.503   6.001
 7466TIP3   OH222340   6.830   2.286   5.636
 7466TIP3    H122341   6.814   2.380   5.647
 7466TIP3    H222342   6.837   2.251   5.725
 7467TIP3   OH222343   7.905   2.887   3.874
 7467TIP3    H122344   7.862   2.804   3.894
 7467TIP3    H222345   7.886   2.902   3.781
 7468TIP3   OH222346   7.399   7.195   6.455
 7468TIP3    H122347   7.432   7.246   6.529
 7468TIP3    H222348   7.468   7.200   6.389
 7469TIP3   OH222349   2.553   1.379   2.279
 7469TIP3    H122350   2.631   1.382   2.334
 7469TIP3    H222351   2.499   1.453   2.309
 7470TIP3   OH222352   3.083   2.407   0.252
 7470TIP3    H122353   3.062   2.479   0.192
 7470TIP3    H222354   3.089   2.449   0.338
 7471TIP3   OH222355   4.268   3.901   1.752
 7471TIP3    H122356   4.226   3.986   1.766
 7471TIP3    H222357   4.320   3.913   1.673
 7472TIP3   OH222358   3.864   6.086   0.546
 7472TIP3    H122359   3.882   6.180   0.548
 7472TIP3    H222360   3.801   6.072   0.616
 7473TIP3   OH222361   1.085   0.119   4.559
 7473TIP3    H122362   1.133   0.195   4.591
 7473TIP3    H222363   1.038   0.152   4.482
 7474TIP3   OH222364   5.272   2.697   5.320
 7474TIP3    H122365   5.341   2.630   5.325
 7474TIP3    H222366   5.216   2.678   5.395
 7475TIP3   OH222367   4.805   5.595   4.291
 7475TIP3    H122368   4.815   5.677   4.243
 7475TIP3    H222369   4.712   5.575   4.285
 7476TIP3   OH222370   3.989   4.053   1.745
 7476TIP3    H122371   3.971   4.010   1.828
 7476TIP3    H222372   4.011   4.143   1.769
 7477TIP3   OH222373   1.612   4.108   3.033
 7477TIP3    H122374   1.528   4.152   3.020
 7477TIP3    H222375   1.607   4.075   3.123
 7478TIP3   OH222376   4.496   0.406   0.882
 7478TIP3    H122377   4.459   0.368   0.802
 7478TIP3    H222378   4.430   0.470   0.910
 7479TIP3   OH222379   0.214   6.136   0.716
 7479TIP3    H122380   0.145   6.087   0.760
 7479TIP3    H222381   0.253   6.072   0.655
 7480TIP3   OH222382   3.906   3.365   3.499
 7480TIP3    H122383   3.982   3.409   3.537
 7480TIP3    H222384   3.940   3.282   3.466
 7481TIP3   OH222385   3.851   6.395   2.461
 7481TIP3    H122386   3.769   6.389   2.413
 7481TIP3    H222387   3.904   6.323   2.428
 7482TIP3   OH222388   5.939   5.147   4.370
 7482TIP3    H122389   5.958   5.158   4.277
 7482TIP3    H222390   5.979   5.224   4.412
 7483TIP3   OH222391   5.915   0.008   5.182
 7483TIP3    H122392   5.958   0.058   5.252
 7483TIP3    H222393   5.825   0.040   5.182
 7484TIP3   OH222394   3.086   7.163   0.935
 7484TIP3    H122395   3.021   7.217   0.979
 7484TIP3    H222396   3.112   7.214   0.859
 7485TIP3   OH222397   7.664   2.677   2.993
 7485TIP3    H122398   7.697   2.766   3.008
 7485TIP3    H222399   7.669   2.666   2.898
 7486TIP3   OH222400   3.053   6.174   2.048
 7486TIP3    H122401   3.102   6.099   2.014
 7486TIP3    H222402   3.006   6.140   2.124
 7487TIP3   OH222403   6.700   0.112   0.652
 7487TIP3    H122404   6.751   0.174   0.704
 7487TIP3    H222405   6.634   0.167   0.609
 7488TIP3   OH222406   6.613   5.759   4.849
 7488TIP3    H122407   6.550   5.711   4.795
 7488TIP3    H222408   6.618   5.846   4.808
 7489TIP3   OH222409   0.979   5.231   0.850
 7489TIP3    H122410   1.034   5.283   0.910
 7489TIP3    H222411   1.031   5.224   0.770
 7490TIP3   OH222412   2.453   4.670   3.903
 7490TIP3    H122413   2.424   4.737   3.840
 7490TIP3    H222414   2.400   4.686   3.981
 7491TIP3   OH222415   1.152   5.196   4.094
 7491TIP3    H122416   1.146   5.193   4.189
 7491TIP3    H222417   1.123   5.284   4.071
 7492TIP3   OH222418   2.953   0.802   2.407
 7492TIP3    H122419   2.899   0.780   2.330
 7492TIP3    H222420   3.037   0.762   2.388
 7493TIP3   OH222421   4.916   3.796   2.320
 7493TIP3    H122422   4.891   3.726   2.259
 7493TIP3    H222423   4.921   3.753   2.405
 7494TIP3   OH222424   7.442   2.904   0.539
 7494TIP3    H122425   7.460   2.831   0.599
 7494TIP3    H222426   7.391   2.966   0.591
 7495TIP3   OH222427   3.548   1.397   1.404
 7495TIP3    H122428   3.515   1.320   1.358
 7495TIP3    H222429   3.637   1.374   1.431
 7496TIP3   OH222430   2.941   1.434   6.309
 7496TIP3    H122431   2.916   1.405   6.221
 7496TIP3    H222432   2.878   1.391   6.366
 7497TIP3   OH222433   5.990   5.285   3.103
 7497TIP3    H122434   6.015   5.196   3.128
 7497TIP3    H222435   5.895   5.280   3.090
 7498TIP3   OH222436   0.311   6.621   5.352
 7498TIP3    H122437   0.272   6.592   5.435
 7498TIP3    H222438   0.236   6.646   5.298
 7499TIP3   OH222439   2.457   6.551   2.009
 7499TIP3    H122440   2.401   6.599   2.069
 7499TIP3    H222441   2.401   6.531   1.934
 7500TIP3   OH222442   0.782   7.229   0.532
 7500TIP3    H122443   0.746   7.312   0.503
 7500TIP3    H222444   0.749   7.217   0.621
 7501TIP3   OH222445   7.489   6.609   6.565
 7501TIP3    H122446   7.516   6.627   6.475
 7501TIP3    H222447   7.482   6.514   6.571
 7502TIP3   OH222448   0.082   1.147   2.630
 7502TIP3    H122449   0.104   1.148   2.537
 7502TIP3    H222450   0.116   1.230   2.663
 7503TIP3   OH222451   1.463   0.527   4.661
 7503TIP3    H122452   1.393   0.544   4.598
 7503TIP3    H222453   1.495   0.613   4.685
 7504TIP3   OH222454   2.454   7.042   1.685
 7504TIP3    H122455   2.531   7.022   1.631
 7504TIP3    H222456   2.488   7.095   1.756
 7505TIP3   OH222457   7.978   3.721   4.214
 7505TIP3    H122458   7.945   3.765   4.136
 7505TIP3    H222459   8.037   3.785   4.255
 7506TIP3   OH222460   2.716   5.490   3.615
 7506TIP3    H122461   2.794   5.545   3.626
 7506TIP3    H222462   2.642   5.550   3.626
 7507TIP3   OH222463   1.003   0.270   3.216
 7507TIP3    H122464   1.019   0.364   3.224
 7507TIP3    H222465   1.049   0.231   3.290
 7508TIP3   OH222466   4.725   0.624   5.067
 7508TIP3    H122467   4.688   0.592   4.985
 7508TIP3    H222468   4.717   0.719   5.061
 7509TIP3   OH222469   3.658   7.726   5.387
 7509TIP3    H122470   3.745   7.738   5.348
 7509TIP3    H222471   3.637   7.810   5.426
 7510TIP3   OH222472   6.760   5.627   5.885
 7510TIP3    H122473   6.703   5.702   5.866
 7510TIP3    H222474   6.817   5.657   5.955
 7511TIP3   OH222475   6.064   0.293   3.201
 7511TIP3    H122476   6.108   0.223   3.152
 7511TIP3    H222477   6.052   0.363   3.137
 7512TIP3   OH222478   2.396   6.748   4.368
 7512TIP3    H122479   2.309   6.729   4.333
 7512TIP3    H222480   2.455   6.693   4.317
 7513TIP3   OH222481   3.038   3.224   1.642
 7513TIP3    H122482   3.043   3.290   1.711
 7513TIP3    H222483   2.961   3.171   1.664
 7514TIP3   OH222484   3.175   2.976   0.865
 7514TIP3    H122485   3.157   2.884   0.884
 7514TIP3    H222486   3.202   3.013   0.949
 7515TIP3   OH222487   0.032   4.036   0.131
 7515TIP3    H122488   0.079   4.045   0.049
 7515TIP3    H222489   0.007   4.126   0.155
 7516TIP3   OH222490   7.260   3.334   3.802
 7516TIP3    H122491   7.216   3.418   3.815
 7516TIP3    H222492   7.285   3.307   3.890
 7517TIP3   OH222493   2.547   4.957   2.081
 7517TIP3    H122494   2.626   4.994   2.041
 7517TIP3    H222495   2.518   4.890   2.020
 7518TIP3   OH222496   5.973   7.050   1.381
 7518TIP3    H122497   5.962   7.087   1.469
 7518TIP3    H222498   5.903   6.984   1.375
 7519TIP3   OH222499   0.775   3.773   2.704
 7519TIP3    H122500   0.818   3.754   2.787
 7519TIP3    H222501   0.846   3.774   2.640
 7520TIP3   OH222502   6.469   5.549   4.766
 7520TIP3    H122503   6.390   5.598   4.790
 7520TIP3    H222504   6.440   5.486   4.700
 7521TIP3   OH222505   6.166   5.319   4.279
 7521TIP3    H122506   6.139   5.279   4.197
 7521TIP3    H222507   6.097   5.382   4.299
 7522TIP3   OH222508   1.861   2.443   0.553
 7522TIP3    H122509   1.837   2.419   0.464
 7522TIP3    H222510   1.931   2.382   0.577
 7523TIP3   OH222511   0.885   6.726   1.095
 7523TIP3    H122512   0.979   6.705   1.093
 7523TIP3    H222513   0.849   6.683   1.018
 7524TIP3   OH222514   4.093   1.629   4.399
 7524TIP3    H122515   4.166   1.606   4.457
 7524TIP3    H222516   4.133   1.685   4.333
 7525TIP3   OH222517   8.190   0.801   1.914
 7525TIP3    H122518   8.117   0.824   1.857
 7525TIP3    H222519   8.149   0.779   1.998
 7526TIP3   OH222520   2.273   3.747   1.992
 7526TIP3    H122521   2.283   3.777   2.083
 7526TIP3    H222522   2.202   3.683   1.996
 7527TIP3   OH222523   2.664   0.253   2.952
 7527TIP3    H122524   2.616   0.200   3.016
 7527TIP3    H222525   2.680   0.337   2.997
 7528TIP3   OH222526   0.165   2.941   4.742
 7528TIP3    H122527   0.095   2.934   4.806
 7528TIP3    H222528   0.190   3.033   4.744
 7529TIP3   OH222529   6.380   1.112   4.553
 7529TIP3    H122530   6.367   1.163   4.473
 7529TIP3    H222531   6.339   1.027   4.534
 7530TIP3   OH222532   2.878   1.563   4.073
 7530TIP3    H122533   2.906   1.633   4.131
 7530TIP3    H222534   2.954   1.504   4.069
 7531TIP3   OH222535   2.653   3.673   0.814
 7531TIP3    H122536   2.668   3.628   0.897
 7531TIP3    H222537   2.636   3.602   0.751
 7532TIP3   OH222538   6.945   5.013   3.732
 7532TIP3    H122539   6.888   4.949   3.688
 7532TIP3    H222540   7.028   5.007   3.685
 7533TIP3   OH222541   1.795   0.747   5.130
 7533TIP3    H122542   1.765   0.826   5.175
 7533TIP3    H222543   1.890   0.756   5.126
 7534TIP3   OH222544   7.450   2.131   1.000
 7534TIP3    H122545   7.370   2.184   0.999
 7534TIP3    H222546   7.464   2.108   0.908
 7535TIP3   OH222547   3.708   7.556   6.220
 7535TIP3    H122548   3.732   7.616   6.148
 7535TIP3    H222549   3.782   7.562   6.281
 7536TIP3   OH222550   5.845   2.416   2.803
 7536TIP3    H122551   5.826   2.322   2.806
 7536TIP3    H222552   5.801   2.452   2.880
 7537TIP3   OH222553   7.454   4.723   6.059
 7537TIP3    H122554   7.536   4.770   6.040
 7537TIP3    H222555   7.456   4.710   6.154
 7538TIP3   OH222556   1.015   7.003   0.328
 7538TIP3    H122557   1.105   7.030   0.309
 7538TIP3    H222558   0.964   7.041   0.257
 7539TIP3   OH222559   7.023   1.053   0.397
 7539TIP3    H122560   6.998   0.995   0.325
 7539TIP3    H222561   7.053   0.994   0.465
 7540TIP3   OH222562   4.286   4.586   4.809
 7540TIP3    H122563   4.292   4.659   4.747
 7540TIP3    H222564   4.346   4.610   4.879
 7541TIP3   OH222565   4.799   3.600   2.132
 7541TIP3    H122566   4.732   3.562   2.189
 7541TIP3    H222567   4.750   3.650   2.067
 7542TIP3   OH222568   6.284   5.038   5.682
 7542TIP3    H122569   6.241   4.954   5.698
 7542TIP3    H222570   6.214   5.094   5.649
 7543TIP3   OH222571   4.607   7.597   2.507
 7543TIP3    H122572   4.681   7.568   2.560
 7543TIP3    H222573   4.563   7.515   2.482
 7544TIP3   OH222574   7.604   7.217   5.012
 7544TIP3    H122575   7.642   7.243   4.928
 7544TIP3    H222576   7.619   7.122   5.017
 7545TIP3   OH222577   6.467   0.762   4.843
 7545TIP3    H122578   6.473   0.856   4.825
 7545TIP3    H222579   6.558   0.731   4.841
 7546TIP3   OH222580   1.816  -0.007   2.187
 7546TIP3    H122581   1.880   0.053   2.149
 7546TIP3    H222582   1.854  -0.031   2.272
 7547TIP3   OH222583   5.940   7.083   0.550
 7547TIP3    H122584   5.907   7.157   0.498
 7547TIP3    H222585   5.862   7.045   0.590
 7548TIP3   OH222586   4.224   5.235   2.042
 7548TIP3    H122587   4.242   5.249   1.949
 7548TIP3    H222588   4.130   5.220   2.047
 7549TIP3   OH222589   3.107   6.833   4.663
 7549TIP3    H122590   3.128   6.836   4.756
 7549TIP3    H222591   3.120   6.923   4.632
 7550TIP3   OH222592   6.611   6.373   4.977
 7550TIP3    H122593   6.546   6.400   5.043
 7550TIP3    H222594   6.597   6.278   4.968
 7551TIP3   OH222595   3.893   7.739   5.267
 7551TIP3    H122596   3.876   7.831   5.245
 7551TIP3    H222597   3.986   7.726   5.247
 7552TIP3   OH222598   7.318   2.806   6.212
 7552TIP3    H122599   7.307   2.732   6.152
 7552TIP3    H222600   7.301   2.884   6.158
 7553TIP3   OH222601   4.634   6.085   5.929
 7553TIP3    H122602   4.638   6.088   5.834
 7553TIP3    H222603   4.543   6.061   5.948
 7554TIP3   OH222604   5.417   0.508   2.285
 7554TIP3    H122605   5.468   0.427   2.273
 7554TIP3    H222606   5.472   0.562   2.342
 7555TIP3   OH222607   3.793   2.800   0.133
 7555TIP3    H122608   3.766   2.892   0.134
 7555TIP3    H222609   3.804   2.780   0.040
 7556TIP3   OH222610   4.126   6.143   6.197
 7556TIP3    H122611   4.157   6.192   6.273
 7556TIP3    H222612   4.055   6.196   6.161
 7557TIP3   OH222613   5.688   3.971   6.369
 7557TIP3    H122614   5.607   3.966   6.420
 7557TIP3    H222615   5.690   3.890   6.319
 7558TIP3   OH222616   7.257   6.726   5.330
 7558TIP3    H122617   7.193   6.663   5.364
 7558TIP3    H222618   7.207   6.780   5.269
 7559TIP3   OH222619   6.415   4.855   2.905
 7559TIP3    H122620   6.329   4.840   2.944
 7559TIP3    H222621   6.402   4.834   2.812
 7560TIP3   OH222622   1.262   1.571   1.763
 7560TIP3    H122623   1.245   1.665   1.760
 7560TIP3    H222624   1.251   1.542   1.672
 7561TIP3   OH222625   2.546   4.457   0.548
 7561TIP3    H122626   2.497   4.538   0.563
 7561TIP3    H222627   2.592   4.441   0.630
 7562TIP3   OH222628   5.752   3.453   3.212
 7562TIP3    H122629   5.757   3.387   3.143
 7562TIP3    H222630   5.839   3.455   3.250
 7563TIP3   OH222631   2.243   5.007   4.328
 7563TIP3    H122632   2.286   5.020   4.244
 7563TIP3    H222633   2.311   4.972   4.385
 7564TIP3   OH222634   2.936   5.308   4.515
 7564TIP3    H122635   3.027   5.288   4.535
 7564TIP3    H222636   2.888   5.282   4.593
 7565TIP3   OH222637   5.742   5.087   4.575
 7565TIP3    H122638   5.776   5.115   4.489
 7565TIP3    H222639   5.686   5.159   4.603
 7566TIP3   OH222640   6.842   5.105   5.108
 7566TIP3    H122641   6.790   5.166   5.057
 7566TIP3    H222642   6.855   5.030   5.050
 7567TIP3   OH222643   0.529   7.250   6.698
 7567TIP3    H122644   0.515   7.193   6.622
 7567TIP3    H222645   0.577   7.325   6.663
 7568TIP3   OH222646   8.305   6.668   5.703
 7568TIP3    H122647   8.277   6.729   5.635
 7568TIP3    H222648   8.232   6.605   5.709
 7569TIP3   OH222649   5.229  -0.005   5.970
 7569TIP3    H122650   5.190   0.073   6.009
 7569TIP3    H222651   5.302  -0.027   6.028
 7570TIP3   OH222652   4.257   7.501   5.681
 7570TIP3    H122653   4.233   7.493   5.589
 7570TIP3    H222654   4.215   7.582   5.710
 7571TIP3   OH222655   3.273   0.583   5.505
 7571TIP3    H122656   3.251   0.511   5.446
 7571TIP3    H222657   3.218   0.656   5.476
 7572TIP3   OH222658   3.576   1.785   4.863
 7572TIP3    H122659   3.579   1.689   4.860
 7572TIP3    H222660   3.615   1.812   4.780
 7573TIP3   OH222661   0.589   3.354   6.601
 7573TIP3    H122662   0.583   3.432   6.658
 7573TIP3    H222663   0.642   3.292   6.652
 7574TIP3   OH222664   4.047   3.419   1.006
 7574TIP3    H122665   4.024   3.341   0.956
 7574TIP3    H222666   3.964   3.464   1.020
 7575TIP3   OH222667   4.080   1.542   0.965
 7575TIP3    H122668   4.042   1.595   0.896
 7575TIP3    H222669   4.065   1.591   1.045
 7576TIP3   OH222670   6.817   3.508   6.377
 7576TIP3    H122671   6.846   3.591   6.339
 7576TIP3    H222672   6.861   3.504   6.462
 7577TIP3   OH222673   5.365   1.599   4.192
 7577TIP3    H122674   5.333   1.527   4.246
 7577TIP3    H222675   5.344   1.573   4.102
 7578TIP3   OH222676   3.990   5.739   1.186
 7578TIP3    H122677   4.002   5.671   1.252
 7578TIP3    H222678   3.896   5.756   1.187
 7579TIP3   OH222679   1.290   4.946   1.401
 7579TIP3    H122680   1.342   5.021   1.371
 7579TIP3    H222681   1.200   4.967   1.376
 7580TIP3   OH222682   2.227   1.200   0.112
 7580TIP3    H122683   2.247   1.255   0.188
 7580TIP3    H222684   2.260   1.113   0.136
 7581TIP3   OH222685   8.251   2.208   0.757
 7581TIP3    H122686   8.175   2.196   0.813
 7581TIP3    H222687   8.265   2.123   0.715
 7582TIP3   OH222688   0.604   2.376   6.043
 7582TIP3    H122689   0.620   2.459   6.088
 7582TIP3    H222690   0.539   2.332   6.098
 7583TIP3   OH222691   1.538   1.081   3.402
 7583TIP3    H122692   1.602   1.137   3.447
 7583TIP3    H222693   1.584   1.049   3.325
 7584TIP3   OH222694   4.979   1.835   6.376
 7584TIP3    H122695   5.000   1.927   6.395
 7584TIP3    H222696   4.961   1.796   6.462
 7585TIP3   OH222697   0.268   4.840   0.006
 7585TIP3    H122698   0.184   4.859  -0.036
 7585TIP3    H222699   0.257   4.753   0.044
 7586TIP3   OH222700   5.442   7.303   0.816
 7586TIP3    H122701   5.383   7.231   0.837
 7586TIP3    H222702   5.492   7.317   0.896
 7587TIP3   OH222703   0.799   4.029   5.179
 7587TIP3    H122704   0.727   4.000   5.233
 7587TIP3    H222705   0.856   4.077   5.238
 7588TIP3   OH222706   3.414   1.924   0.926
 7588TIP3    H122707   3.326   1.950   0.952
 7588TIP3    H222708   3.420   1.949   0.833
 7589TIP3   OH222709   7.827   3.029   5.200
 7589TIP3    H122710   7.800   2.984   5.280
 7589TIP3    H222711   7.761   3.004   5.135
 7590TIP3   OH222712   5.259   1.474   1.428
 7590TIP3    H122713   5.319   1.399   1.423
 7590TIP3    H222714   5.257   1.497   1.521
 7591TIP3   OH222715   1.946   1.656   5.448
 7591TIP3    H122716   1.945   1.678   5.542
 7591TIP3    H222717   1.942   1.741   5.404
 7592TIP3   OH222718   4.700   4.871   0.336
 7592TIP3    H122719   4.663   4.840   0.419
 7592TIP3    H222720   4.632   4.853   0.271
 7593TIP3   OH222721   1.336   4.836   4.221
 7593TIP3    H122722   1.251   4.792   4.227
 7593TIP3    H222723   1.400   4.766   4.233
 7594TIP3   OH222724   3.152   1.407   6.586
 7594TIP3    H122725   3.075   1.381   6.636
 7594TIP3    H222726   3.226   1.391   6.645
 7595TIP3   OH222727   5.762   6.382   2.534
 7595TIP3    H122728   5.715   6.464   2.549
 7595TIP3    H222729   5.853   6.409   2.520
 7596TIP3   OH222730   7.603   7.032   5.717
 7596TIP3    H122731   7.601   6.961   5.652
 7596TIP3    H222732   7.691   7.029   5.753
 7597TIP3   OH222733   0.790   2.673   3.367
 7597TIP3    H122734   0.833   2.615   3.303
 7597TIP3    H222735   0.771   2.753   3.318
 7598TIP3   OH222736   0.794   4.873   5.976
 7598TIP3    H122737   0.851   4.850   5.904
 7598TIP3    H222738   0.708   4.841   5.950
 7599TIP3   OH222739   1.522   0.899   5.486
 7599TIP3    H122740   1.447   0.840   5.495
 7599TIP3    H222741   1.484   0.983   5.461
 7600TIP3   OH222742   6.257   0.260   2.498
 7600TIP3    H122743   6.306   0.336   2.529
 7600TIP3    H222744   6.310   0.185   2.525
 7601TIP3   OH222745   2.340   0.250   2.245
 7601TIP3    H122746   2.305   0.261   2.333
 7601TIP3    H222747   2.422   0.203   2.257
 7602TIP3   OH222748   4.895   2.951   0.537
 7602TIP3    H122749   4.963   2.916   0.595
 7602TIP3    H222750   4.813   2.919   0.574
 7603TIP3   OH222751   3.687   2.909   1.466
 7603TIP3    H122752   3.693   3.004   1.456
 7603TIP3    H222753   3.762   2.875   1.417
 7604TIP3   OH222754   7.392   0.374   1.785
 7604TIP3    H122755   7.389   0.293   1.735
 7604TIP3    H222756   7.443   0.352   1.864
 7605TIP3   OH222757   7.845   0.313   2.539
 7605TIP3    H122758   7.935   0.292   2.565
 7605TIP3    H222759   7.826   0.250   2.469
 7606TIP3   OH222760   7.265   0.508   3.590
 7606TIP3    H122761   7.233   0.420   3.570
 7606TIP3    H222762   7.299   0.502   3.679
 7607TIP3   OH222763   2.073   3.618   6.240
 7607TIP3    H122764   2.087   3.635   6.147
 7607TIP3    H222765   2.158   3.585   6.271
 7608TIP3   OH222766   3.409   3.054   3.772
 7608TIP3    H122767   3.432   2.973   3.726
 7608TIP3    H222768   3.316   3.066   3.754
 7609TIP3   OH222769   5.468   0.303   0.338
 7609TIP3    H122770   5.459   0.215   0.299
 7609TIP3    H222771   5.408   0.357   0.287
 7610TIP3   OH222772   7.344   1.789   6.018
 7610TIP3    H122773   7.272   1.734   6.050
 7610TIP3    H222774   7.423   1.740   6.041
 7611TIP3   OH222775   1.871   2.513   5.686
 7611TIP3    H122776   1.785   2.481   5.713
 7611TIP3    H222777   1.865   2.520   5.591
 7612TIP3   OH222778   2.343   0.188   4.004
 7612TIP3    H122779   2.387   0.267   3.971
 7612TIP3    H222780   2.415   0.134   4.037
 7613TIP3   OH222781   0.367   3.954   0.107
 7613TIP3    H122782   0.320   3.883   0.062
 7613TIP3    H222783   0.340   3.946   0.198
 7614TIP3   OH222784   5.328   5.349   2.602
 7614TIP3    H122785   5.271   5.295   2.547
 7614TIP3    H222786   5.298   5.332   2.691
 7615TIP3   OH222787   6.736   4.873   5.875
 7615TIP3    H122788   6.764   4.954   5.832
 7615TIP3    H222789   6.694   4.823   5.806
 7616TIP3   OH222790   5.272   7.803   0.439
 7616TIP3    H122791   5.259   7.845   0.354
 7616TIP3    H222792   5.364   7.778   0.440
 7617TIP3   OH222793   6.208   2.778   4.147
 7617TIP3    H122794   6.254   2.744   4.224
 7617TIP3    H222795   6.241   2.867   4.137
 7618TIP3   OH222796   5.953   5.328   3.502
 7618TIP3    H122797   5.919   5.375   3.426
 7618TIP3    H222798   5.930   5.237   3.486
 7619TIP3   OH222799   0.828   2.584   5.363
 7619TIP3    H122800   0.919   2.588   5.334
 7619TIP3    H222801   0.823   2.648   5.434
 7620TIP3   OH222802   5.258   4.329   0.390
 7620TIP3    H122803   5.320   4.393   0.354
 7620TIP3    H222804   5.176   4.347   0.345
 7621TIP3   OH222805   6.670   7.723   4.336
 7621TIP3    H122806   6.634   7.635   4.325
 7621TIP3    H222807   6.675   7.758   4.247
 7622TIP3   OH222808   6.499   2.362   4.485
 7622TIP3    H122809   6.532   2.386   4.398
 7622TIP3    H222810   6.459   2.443   4.518
 7623TIP3   OH222811   3.311   3.120   4.896
 7623TIP3    H122812   3.304   3.028   4.923
 7623TIP3    H222813   3.232   3.161   4.932
 7624TIP3   OH222814   2.748   3.716   6.170
 7624TIP3    H122815   2.727   3.800   6.129
 7624TIP3    H222816   2.805   3.672   6.107
 7625TIP3   OH222817   8.231   6.658   4.556
 7625TIP3    H122818   8.276   6.674   4.472
 7625TIP3    H222819   8.292   6.603   4.605
 7626TIP3   OH222820   5.228   4.071   3.453
 7626TIP3    H122821   5.196   4.158   3.431
 7626TIP3    H222822   5.310   4.063   3.406
 7627TIP3   OH222823   7.180   2.406   4.533
 7627TIP3    H122824   7.121   2.351   4.482
 7627TIP3    H222825   7.173   2.372   4.622
 7628TIP3   OH222826   7.881   7.010   6.416
 7628TIP3    H122827   7.890   6.975   6.505
 7628TIP3    H222828   7.879   7.105   6.428
 7629TIP3   OH222829   7.613   0.964   0.618
 7629TIP3    H122830   7.621   1.043   0.672
 7629TIP3    H222831   7.529   0.975   0.572
 7630TIP3   OH222832   2.568   2.501   5.794
 7630TIP3    H122833   2.514   2.575   5.823
 7630TIP3    H222834   2.651   2.513   5.840
 7631TIP3   OH222835   3.448   0.535   5.869
 7631TIP3    H122836   3.486   0.481   5.938
 7631TIP3    H222837   3.521   0.551   5.808
 7632TIP3   OH222838   2.634   7.138   1.888
 7632TIP3    H122839   2.685   7.199   1.942
 7632TIP3    H222840   2.653   7.052   1.924
 7633TIP3   OH222841   3.137   5.283   2.019
 7633TIP3    H122842   3.055   5.304   2.065
 7633TIP3    H222843   3.124   5.316   1.931
 7634TIP3   OH222844   1.727   7.642   1.246
 7634TIP3    H122845   1.672   7.677   1.176
 7634TIP3    H222846   1.763   7.561   1.210
 7635TIP3   OH222847   2.257   0.694   4.206
 7635TIP3    H122848   2.341   0.650   4.189
 7635TIP3    H222849   2.266   0.779   4.163
 7636TIP3   OH222850   8.086   2.820   3.380
 7636TIP3    H122851   8.040   2.770   3.312
 7636TIP3    H222852   8.176   2.825   3.348
 7637TIP3   OH222853   4.044   5.189   4.156
 7637TIP3    H122854   3.967   5.137   4.182
 7637TIP3    H222855   4.061   5.245   4.232
 7638TIP3   OH222856   0.100   1.292   0.454
 7638TIP3    H122857   0.085   1.309   0.547
 7638TIP3    H222858   0.161   1.360   0.426
 7639TIP3   OH222859   4.205   3.307   5.064
 7639TIP3    H122860   4.236   3.356   5.140
 7639TIP3    H222861   4.217   3.367   4.991
 7640TIP3   OH222862   5.623   3.807   3.958
 7640TIP3    H122863   5.672   3.796   4.040
 7640TIP3    H222864   5.619   3.902   3.946
 7641TIP3   OH222865   5.791   2.386   0.425
 7641TIP3    H122866   5.878   2.420   0.409
 7641TIP3    H222867   5.788   2.371   0.519
 7642TIP3   OH222868   0.862   5.514   0.029
 7642TIP3    H122869   0.768   5.499   0.024
 7642TIP3    H222870   0.891   5.458   0.101
 7643TIP3   OH222871   7.513   3.110   6.467
 7643TIP3    H122872   7.419   3.103   6.449
 7643TIP3    H222873   7.527   3.202   6.490
 7644TIP3   OH222874   2.289   6.280   0.574
 7644TIP3    H122875   2.206   6.322   0.597
 7644TIP3    H222876   2.346   6.352   0.550
 7645TIP3   OH222877   7.711   0.717   0.816
 7645TIP3    H122878   7.734   0.647   0.754
 7645TIP3    H222879   7.748   0.796   0.778
 7646TIP3   OH222880   5.262   6.931   4.233
 7646TIP3    H122881   5.190   6.869   4.247
 7646TIP3    H222882   5.341   6.877   4.235
 7647TIP3   OH222883   6.207   5.201   5.933
 7647TIP3    H122884   6.242   5.112   5.944
 7647TIP3    H222885   6.176   5.203   5.843
 7648TIP3   OH222886   6.927   7.711   2.714
 7648TIP3    H122887   6.906   7.774   2.784
 7648TIP3    H222888   6.928   7.626   2.758
 7649TIP3   OH222889   4.240   0.422   2.658
 7649TIP3    H122890   4.305   0.492   2.663
 7649TIP3    H222891   4.172   0.455   2.600
 7650TIP3   OH222892   4.707   1.496   3.207
 7650TIP3    H122893   4.793   1.474   3.241
 7650TIP3    H222894   4.725   1.547   3.128
 7651TIP3   OH222895   0.044   7.490   5.982
 7651TIP3    H122896   0.090   7.470   6.063
 7651TIP3    H222897  -0.007   7.568   6.003
 7652TIP3   OH222898   6.706   0.230   1.906
 7652TIP3    H122899   6.726   0.298   1.970
 7652TIP3    H222900   6.734   0.149   1.949
 7653TIP3   OH222901   2.194   5.860   4.110
 7653TIP3    H122902   2.263   5.794   4.097
 7653TIP3    H222903   2.124   5.832   4.052
 7654TIP3   OH222904   2.830   4.818   6.551
 7654TIP3    H122905   2.750   4.849   6.592
 7654TIP3    H222906   2.802   4.747   6.493
 7655TIP3   OH222907   0.382   0.533   3.648
 7655TIP3    H122908   0.363   0.589   3.573
 7655TIP3    H222909   0.298   0.495   3.673
 7656TIP3   OH222910   0.271   2.398   5.351
 7656TIP3    H122911   0.365   2.402   5.369
 7656TIP3    H222912   0.235   2.347   5.423
 7657TIP3   OH222913   0.047   0.153   6.358
 7657TIP3    H122914   0.073   0.225   6.415
 7657TIP3    H222915   0.041   0.077   6.416
 7658TIP3   OH222916   8.258   1.650   2.721
 7658TIP3    H122917   8.201   1.708   2.671
 7658TIP3    H222918   8.338   1.645   2.669
 7659TIP3   OH222919   5.014   6.828   0.115
 7659TIP3    H122920   5.062   6.874   0.046
 7659TIP3    H222921   5.080   6.773   0.157
 7660TIP3   OH222922   6.034   5.402   6.415
 7660TIP3    H122923   5.949   5.358   6.416
 7660TIP3    H222924   6.097   5.334   6.436
 7661TIP3   OH222925   0.232   2.763   1.669
 7661TIP3    H122926   0.271   2.844   1.635
 7661TIP3    H222927   0.183   2.727   1.595
 7662TIP3   OH222928   5.553   5.951   5.213
 7662TIP3    H122929   5.516   5.873   5.254
 7662TIP3    H222930   5.641   5.925   5.186
 7663TIP3   OH222931   2.341   6.180   1.688
 7663TIP3    H122932   2.385   6.139   1.762
 7663TIP3    H222933   2.393   6.258   1.670
 7664TIP3   OH222934   6.525   5.633   0.173
 7664TIP3    H122935   6.606   5.683   0.175
 7664TIP3    H222936   6.548   5.549   0.213
 7665TIP3   OH222937   2.066   3.151   0.648
 7665TIP3    H122938   2.037   3.224   0.593
 7665TIP3    H222939   1.985   3.108   0.674
 7666TIP3   OH222940   6.860   3.851   5.810
 7666TIP3    H122941   6.800   3.826   5.740
 7666TIP3    H222942   6.904   3.929   5.778
 7667TIP3   OH222943   1.149   6.689   1.965
 7667TIP3    H122944   1.210   6.615   1.964
 7667TIP3    H222945   1.165   6.731   2.050
 7668TIP3   OH222946   0.319   0.665   2.435
 7668TIP3    H122947   0.290   0.746   2.476
 7668TIP3    H222948   0.238   0.617   2.418
 7669TIP3   OH222949   6.505   0.764   3.341
 7669TIP3    H122950   6.566   0.693   3.320
 7669TIP3    H222951   6.531   0.792   3.429
 7670TIP3   OH222952   2.356   1.761   4.790
 7670TIP3    H122953   2.314   1.787   4.872
 7670TIP3    H222954   2.414   1.834   4.767
 7671TIP3   OH222955   2.789   1.271   3.750
 7671TIP3    H122956   2.723   1.270   3.681
 7671TIP3    H222957   2.869   1.302   3.707
 7672TIP3   OH222958   1.698   4.870   2.932
 7672TIP3    H122959   1.703   4.794   2.990
 7672TIP3    H222960   1.768   4.856   2.868
 7673TIP3   OH222961   2.569   1.726   6.029
 7673TIP3    H122962   2.627   1.651   6.014
 7673TIP3    H222963   2.565   1.770   5.945
 7674TIP3   OH222964   2.458   5.182   3.826
 7674TIP3    H122965   2.390   5.200   3.761
 7674TIP3    H222966   2.535   5.159   3.774
 7675TIP3   OH222967   7.514   4.184   4.845
 7675TIP3    H122968   7.452   4.163   4.775
 7675TIP3    H222969   7.593   4.133   4.824
 7676TIP3   OH222970   0.481   7.570   1.078
 7676TIP3    H122971   0.553   7.541   1.023
 7676TIP3    H222972   0.452   7.491   1.124
 7677TIP3   OH222973   0.405   0.008   6.694
 7677TIP3    H122974   0.461   0.058   6.753
 7677TIP3    H222975   0.329   0.063   6.680
 7678TIP3   OH222976   1.488   4.087   4.984
 7678TIP3    H122977   1.492   4.103   5.079
 7678TIP3    H222978   1.482   4.175   4.946
 7679TIP3   OH222979   5.506   6.382   0.713
 7679TIP3    H122980   5.423   6.346   0.682
 7679TIP3    H222981   5.555   6.306   0.744
 7680TIP3   OH222982   2.190   6.075   3.143
 7680TIP3    H122983   2.189   5.979   3.145
 7680TIP3    H222984   2.168   6.101   3.233
 7681TIP3   OH222985   6.649   0.128   0.080
 7681TIP3    H122986   6.607   0.065   0.139
 7681TIP3    H222987   6.589   0.135   0.006
 7682TIP3   OH222988   8.191   4.446   3.809
 7682TIP3    H122989   8.167   4.437   3.901
 7682TIP3    H222990   8.252   4.374   3.792
 7683TIP3   OH222991   1.373   5.635   0.695
 7683TIP3    H122992   1.465   5.648   0.717
 7683TIP3    H222993   1.326   5.692   0.756
 7684TIP3   OH222994   2.493   3.022   0.075
 7684TIP3    H122995   2.563   3.084   0.099
 7684TIP3    H222996   2.521   2.986  -0.009
 7685TIP3   OH222997   5.110   3.736   3.010
 7685TIP3    H122998   5.100   3.715   3.103
 7685TIP3    H222999   5.191   3.691   2.985
 7686TIP3   OH223000   4.199   4.644   0.229
 7686TIP3    H123001   4.213   4.568   0.173
 7686TIP3    H223002   4.105   4.664   0.218
 7687TIP3   OH223003   4.930   5.156   6.245
 7687TIP3    H123004   5.010   5.198   6.214
 7687TIP3    H223005   4.871   5.159   6.170
 7688TIP3   OH223006   3.823   4.783   3.303
 7688TIP3    H123007   3.731   4.785   3.329
 7688TIP3    H223008   3.870   4.813   3.381
 7689TIP3   OH223009   0.159   3.487   1.234
 7689TIP3    H123010   0.184   3.433   1.308
 7689TIP3    H223011   0.216   3.458   1.163
 7690TIP3   OH223012   7.050   6.269   2.993
 7690TIP3    H123013   7.098   6.213   3.054
 7690TIP3    H223014   7.092   6.355   3.000
 7691TIP3   OH223015   6.472   3.143   3.326
 7691TIP3    H123016   6.539   3.207   3.351
 7691TIP3    H223017   6.513   3.092   3.256
 7692TIP3   OH223018   1.227   5.710   5.512
 7692TIP3    H123019   1.163   5.779   5.530
 7692TIP3    H223020   1.250   5.723   5.420
 7693TIP3   OH223021   5.825   2.596   2.593
 7693TIP3    H123022   5.843   2.672   2.648
 7693TIP3    H223023   5.806   2.526   2.656
 7694TIP3   OH223024   3.558   3.547   0.703
 7694TIP3    H123025   3.508   3.627   0.718
 7694TIP3    H223026   3.493   3.477   0.708
 7695TIP3   OH223027   0.414   0.084   4.964
 7695TIP3    H123028   0.404   0.000   4.921
 7695TIP3    H223029   0.426   0.063   5.057
 7696TIP3   OH223030   8.087   4.080   1.399
 7696TIP3    H123031   8.095   4.009   1.335
 7696TIP3    H223032   8.173   4.085   1.440
 7697TIP3   OH223033   3.601   1.311   0.137
 7697TIP3    H123034   3.602   1.224   0.097
 7697TIP3    H223035   3.628   1.297   0.227
 7698TIP3   OH223036   2.533   6.052   4.239
 7698TIP3    H123037   2.448   6.094   4.250
 7698TIP3    H223038   2.563   6.081   4.153
 7699TIP3   OH223039   6.185   6.133   6.516
 7699TIP3    H123040   6.227   6.048   6.502
 7699TIP3    H223041   6.178   6.170   6.428
 7700TIP3   OH223042   8.281   5.232   4.972
 7700TIP3    H123043   8.238   5.316   4.954
 7700TIP3    H223044   8.229   5.192   5.041
 7701TIP3   OH223045   3.141   5.641   2.204
 7701TIP3    H123046   3.054   5.675   2.223
 7701TIP3    H223047   3.133   5.546   2.213
 7702TIP3   OH223048   7.705   5.629   2.949
 7702TIP3    H123049   7.747   5.544   2.941
 7702TIP3    H223050   7.778   5.691   2.959
 7703TIP3   OH223051   6.861   0.472   0.548
 7703TIP3    H123052   6.955   0.464   0.561
 7703TIP3    H223053   6.824   0.399   0.598
 7704TIP3   OH223054   3.248   5.171   0.878
 7704TIP3    H123055   3.308   5.200   0.947
 7704TIP3    H223056   3.161   5.189   0.913
 7705TIP3   OH223057   6.459   4.584   4.416
 7705TIP3    H123058   6.447   4.619   4.328
 7705TIP3    H223059   6.475   4.660   4.471
 7706TIP3   OH223060   6.817   4.440   3.793
 7706TIP3    H123061   6.903   4.433   3.833
 7706TIP3    H223062   6.758   4.462   3.865
 7707TIP3   OH223063   4.557   7.718   6.100
 7707TIP3    H123064   4.592   7.789   6.155
 7707TIP3    H223065   4.618   7.646   6.111
 7708TIP3   OH223066   2.199   6.401   6.119
 7708TIP3    H123067   2.141   6.477   6.113
 7708TIP3    H223068   2.197   6.362   6.032
 7709TIP3   OH223069   4.223   5.651   5.207
 7709TIP3    H123070   4.290   5.650   5.275
 7709TIP3    H223071   4.185   5.739   5.212
 7710TIP3   OH223072   2.752   1.404   6.497
 7710TIP3    H123073   2.773   1.490   6.534
 7710TIP3    H223074   2.719   1.354   6.572
 7711TIP3   OH223075   7.718   7.725   2.402
 7711TIP3    H123076   7.632   7.693   2.374
 7711TIP3    H223077   7.698   7.799   2.460
 7712TIP3   OH223078   7.601   0.060   3.245
 7712TIP3    H123079   7.573   0.052   3.336
 7712TIP3    H223080   7.689   0.022   3.243
 7713TIP3   OH223081   5.394   6.226   3.308
 7713TIP3    H123082   5.406   6.292   3.240
 7713TIP3    H223083   5.387   6.143   3.260
 7714TIP3   OH223084   1.358   2.067   6.600
 7714TIP3    H123085   1.281   2.080   6.655
 7714TIP3    H223086   1.329   2.008   6.531
 7715TIP3   OH223087   3.951   0.143   5.338
 7715TIP3    H123088   4.024   0.204   5.326
 7715TIP3    H223089   3.885   0.194   5.385
 7716TIP3   OH223090   2.539   4.680   6.668
 7716TIP3    H123091   2.605   4.665   6.736
 7716TIP3    H223092   2.455   4.678   6.715
 7717TIP3   OH223093   3.749   5.962   1.198
 7717TIP3    H123094   3.722   5.878   1.237
 7717TIP3    H223095   3.666   6.005   1.176
 7718TIP3   OH223096   8.163   5.795   0.349
 7718TIP3    H123097   8.164   5.768   0.257
 7718TIP3    H223098   8.254   5.811   0.371
 7719TIP3   OH223099   2.645   6.791   3.230
 7719TIP3    H123100   2.619   6.773   3.140
 7719TIP3    H223101   2.583   6.740   3.283
 7720TIP3   OH223102   3.715   6.551   6.221
 7720TIP3    H123103   3.719   6.621   6.286
 7720TIP3    H223104   3.698   6.472   6.272
 7721TIP3   OH223105   4.317   6.732   1.937
 7721TIP3    H123106   4.304   6.651   1.986
 7721TIP3    H223107   4.290   6.710   1.847
 7722TIP3   OH223108   3.961   3.574   6.207
 7722TIP3    H123109   3.887   3.634   6.218
 7722TIP3    H223110   3.944   3.502   6.269
 7723TIP3   OH223111   0.456   1.612   2.114
 7723TIP3    H123112   0.411   1.568   2.041
 7723TIP3    H223113   0.543   1.633   2.080
 7724TIP3   OH223114   3.397   4.308   4.920
 7724TIP3    H123115   3.317   4.256   4.924
 7724TIP3    H223116   3.417   4.330   5.011
 7725TIP3   OH223117   8.019   2.582   4.926
 7725TIP3    H123118   7.941   2.619   4.886
 7725TIP3    H223119   8.058   2.527   4.858
 7726TIP3   OH223120   6.567   2.483   4.859
 7726TIP3    H123121   6.633   2.455   4.796
 7726TIP3    H223122   6.564   2.411   4.923
 7727TIP3   OH223123   4.723   2.486   3.230
 7727TIP3    H123124   4.778   2.461   3.304
 7727TIP3    H223125   4.645   2.432   3.238
 7728TIP3   OH223126   5.637   6.237   1.725
 7728TIP3    H123127   5.606   6.322   1.694
 7728TIP3    H223128   5.673   6.255   1.812
 7729TIP3   OH223129   6.391   1.789   6.298
 7729TIP3    H123130   6.362   1.731   6.228
 7729TIP3    H223131   6.365   1.744   6.379
 7730TIP3   OH223132   7.216   1.549   1.490
 7730TIP3    H123133   7.308   1.524   1.492
 7730TIP3    H223134   7.177   1.493   1.423
 7731TIP3   OH223135   7.863   4.643   1.998
 7731TIP3    H123136   7.810   4.571   2.031
 7731TIP3    H223137   7.885   4.694   2.076
 7732TIP3   OH223138   0.983   2.325   3.431
 7732TIP3    H123139   1.065   2.278   3.423
 7732TIP3    H223140   0.932   2.299   3.354
 7733TIP3   OH223141   1.382   4.102   3.568
 7733TIP3    H123142   1.378   4.019   3.615
 7733TIP3    H223143   1.390   4.168   3.637
 7734TIP3   OH223144   6.220   5.869   3.951
 7734TIP3    H123145   6.184   5.955   3.971
 7734TIP3    H223146   6.188   5.848   3.864
 7735TIP3   OH223147   7.414   3.450   4.444
 7735TIP3    H123148   7.371   3.532   4.468
 7735TIP3    H223149   7.342   3.388   4.431
 7736TIP3   OH223150   6.868   0.888   3.305
 7736TIP3    H123151   6.828   0.884   3.218
 7736TIP3    H223152   6.800   0.925   3.361
 7737TIP3   OH223153   6.279   2.891   3.709
 7737TIP3    H123154   6.240   2.805   3.724
 7737TIP3    H223155   6.329   2.880   3.628
 7738TIP3   OH223156   7.782   6.444   3.584
 7738TIP3    H123157   7.793   6.467   3.676
 7738TIP3    H223158   7.848   6.376   3.568
 7739TIP3   OH223159   7.345   7.030   5.846
 7739TIP3    H123160   7.365   6.991   5.932
 7739TIP3    H223161   7.430   7.037   5.803
 7740TIP3   OH223162   0.303   4.246   1.458
 7740TIP3    H123163   0.324   4.207   1.543
 7740TIP3    H223164   0.381   4.297   1.435
 7741TIP3   OH223165   7.400   3.070   1.950
 7741TIP3    H123166   7.461   3.057   1.877
 7741TIP3    H223167   7.314   3.073   1.910
 7742TIP3   OH223168   0.713   1.459   2.787
 7742TIP3    H123169   0.736   1.541   2.830
 7742TIP3    H223170   0.653   1.416   2.848
 7743TIP3   OH223171   4.797   1.663   4.923
 7743TIP3    H123172   4.793   1.628   5.012
 7743TIP3    H223173   4.717   1.716   4.914
 7744TIP3   OH223174   0.676   5.583   1.295
 7744TIP3    H123175   0.687   5.488   1.300
 7744TIP3    H223176   0.628   5.598   1.213
 7745TIP3   OH223177   1.578   6.872   3.409
 7745TIP3    H123178   1.602   6.960   3.381
 7745TIP3    H223179   1.604   6.816   3.336
 7746TIP3   OH223180   8.071   7.789   1.996
 7746TIP3    H123181   8.078   7.836   2.079
 7746TIP3    H223182   7.977   7.787   1.978
 7747TIP3   OH223183   0.672   6.004   2.321
 7747TIP3    H123184   0.754   6.042   2.352
 7747TIP3    H223185   0.629   6.076   2.274
 7748TIP3   OH223186   3.393   0.998   6.601
 7748TIP3    H123187   3.389   0.906   6.628
 7748TIP3    H223188   3.334   1.004   6.526
 7749TIP3   OH223189   2.819   6.559   4.276
 7749TIP3    H123190   2.885   6.604   4.329
 7749TIP3    H223191   2.784   6.491   4.333
 7750TIP3   OH223192   0.075   1.715   1.253
 7750TIP3    H123193   0.082   1.753   1.165
 7750TIP3    H223194   0.002   1.654   1.247
 7751TIP3   OH223195   7.773   0.798   2.048
 7751TIP3    H123196   7.722   0.759   2.120
 7751TIP3    H223197   7.863   0.796   2.079
 7752TIP3   OH223198   2.642   1.760   5.715
 7752TIP3    H123199   2.611   1.713   5.637
 7752TIP3    H223200   2.620   1.851   5.697
 7753TIP3   OH223201   6.074   3.765   4.117
 7753TIP3    H123202   6.112   3.678   4.127
 7753TIP3    H223203   6.129   3.808   4.052
 7754TIP3   OH223204   4.756   3.335   2.937
 7754TIP3    H123205   4.772   3.369   3.025
 7754TIP3    H223206   4.721   3.410   2.889
 7755TIP3   OH223207   5.450   4.933   4.073
 7755TIP3    H123208   5.523   4.900   4.125
 7755TIP3    H223209   5.481   4.926   3.982
 7756TIP3   OH223210   5.360   5.701   3.551
 7756TIP3    H123211   5.444   5.714   3.508
 7756TIP3    H223212   5.382   5.653   3.631
 7757TIP3   OH223213   4.980   1.223   4.844
 7757TIP3    H123214   4.934   1.200   4.925
 7757TIP3    H223215   5.026   1.143   4.819
 7758TIP3   OH223216   5.073   3.170   1.280
 7758TIP3    H123217   5.022   3.204   1.206
 7758TIP3    H223218   5.143   3.119   1.240
 7759TIP3   OH223219   6.647   1.407   5.414
 7759TIP3    H123220   6.568   1.353   5.428
 7759TIP3    H223221   6.632   1.486   5.466
 7760TIP3   OH223222   3.962   6.138   2.369
 7760TIP3    H123223   4.025   6.085   2.418
 7760TIP3    H223224   3.881   6.087   2.370
 7761TIP3   OH223225   2.826   1.975   0.757
 7761TIP3    H123226   2.879   2.028   0.698
 7761TIP3    H223227   2.826   2.022   0.840
 7762TIP3   OH223228   4.256   6.765   5.456
 7762TIP3    H123229   4.348   6.763   5.481
 7762TIP3    H223230   4.208   6.755   5.538
 7763TIP3   OH223231   3.752   0.306   5.980
 7763TIP3    H123232   3.745   0.376   5.914
 7763TIP3    H223233   3.779   0.230   5.929
 7764TIP3   OH223234   0.406   1.436   5.061
 7764TIP3    H123235   0.366   1.399   5.140
 7764TIP3    H223236   0.332   1.468   5.010
 7765TIP3   OH223237   4.707   0.023   5.124
 7765TIP3    H123238   4.617   0.055   5.134
 7765TIP3    H223239   4.759   0.080   5.181
 7766TIP3   OH223240   7.441   3.841   0.606
 7766TIP3    H123241   7.534   3.820   0.615
 7766TIP3    H223242   7.437   3.936   0.616
 7767TIP3   OH223243   4.374   4.355   0.251
 7767TIP3    H123244   4.394   4.286   0.188
 7767TIP3    H223245   4.352   4.309   0.332
 7768TIP3   OH223246   5.292   1.433   2.299
 7768TIP3    H123247   5.241   1.435   2.379
 7768TIP3    H223248   5.371   1.483   2.320
 7769TIP3   OH223249   1.037   4.315   2.878
 7769TIP3    H123250   0.994   4.376   2.817
 7769TIP3    H223251   0.983   4.319   2.957
 7770TIP3   OH223252   2.261   6.856   1.262
 7770TIP3    H123253   2.199   6.927   1.278
 7770TIP3    H223254   2.291   6.830   1.349
 7771TIP3   OH223255   2.199   7.237   3.898
 7771TIP3    H123256   2.112   7.229   3.937
 7771TIP3    H223257   2.204   7.329   3.871
 7772TIP3   OH223258   1.870   5.936   3.331
 7772TIP3    H123259   1.784   5.923   3.371
 7772TIP3    H223260   1.856   6.005   3.266
 7773TIP3   OH223261   6.857   2.230   5.010
 7773TIP3    H123262   6.864   2.251   4.917
 7773TIP3    H223263   6.936   2.182   5.031
 7774TIP3   OH223264   5.218   6.921   3.409
 7774TIP3    H123265   5.256   6.833   3.417
 7774TIP3    H223266   5.282   6.978   3.450
 7775TIP3   OH223267   5.937   1.815   4.092
 7775TIP3    H123268   5.900   1.809   4.180
 7775TIP3    H223269   5.996   1.891   4.097
 7776TIP3   OH223270   1.391   5.417   5.973
 7776TIP3    H123271   1.307   5.378   5.996
 7776TIP3    H223272   1.429   5.356   5.911
 7777TIP3   OH223273   5.356   3.181   1.456
 7777TIP3    H123274   5.348   3.086   1.453
 7777TIP3    H223275   5.265   3.212   1.462
 7778TIP3   OH223276   3.464   7.498   3.947
 7778TIP3    H123277   3.392   7.468   4.002
 7778TIP3    H223278   3.448   7.456   3.862
 7779TIP3   OH223279   6.444   2.129   1.609
 7779TIP3    H123280   6.454   2.035   1.594
 7779TIP3    H223281   6.354   2.148   1.586
 7780TIP3   OH223282   1.117   3.933   3.682
 7780TIP3    H123283   1.093   3.911   3.772
 7780TIP3    H223284   1.045   3.989   3.651
 7781TIP3   OH223285   7.987   5.154   4.306
 7781TIP3    H123286   7.945   5.069   4.294
 7781TIP3    H223287   7.922   5.206   4.353
 7782TIP3   OH223288   1.459   7.706   1.101
 7782TIP3    H123289   1.387   7.651   1.070
 7782TIP3    H223290   1.503   7.735   1.022
 7783TIP3   OH223291   8.077   1.811   2.592
 7783TIP3    H123292   8.084   1.818   2.497
 7783TIP3    H223293   7.992   1.848   2.613
 7784TIP3   OH223294   1.988   3.762   1.455
 7784TIP3    H123295   1.994   3.854   1.431
 7784TIP3    H223296   1.939   3.761   1.537
 7785TIP3   OH223297   7.609   4.051   1.445
 7785TIP3    H123298   7.686   4.025   1.495
 7785TIP3    H223299   7.554   3.973   1.442
 7786TIP3   OH223300   3.719   2.987   3.347
 7786TIP3    H123301   3.746   2.947   3.430
 7786TIP3    H223302   3.635   3.027   3.366
 7787TIP3   OH223303   8.162   2.507   2.865
 7787TIP3    H123304   8.102   2.516   2.791
 7787TIP3    H223305   8.110   2.466   2.934
 7788TIP3   OH223306   4.777   3.370   1.480
 7788TIP3    H123307   4.701   3.342   1.428
 7788TIP3    H223308   4.759   3.336   1.568
 7789TIP3   OH223309   1.510   1.850   0.068
 7789TIP3    H123310   1.479   1.812   0.150
 7789TIP3    H223311   1.516   1.776   0.008
 7790TIP3   OH223312   8.186   6.052   3.711
 7790TIP3    H123313   8.219   6.024   3.626
 7790TIP3    H223314   8.111   5.994   3.727
 7791TIP3   OH223315   2.023   5.605   2.008
 7791TIP3    H123316   1.937   5.567   2.021
 7791TIP3    H223317   2.082   5.530   2.002
 7792TIP3   OH223318   4.045   4.026   2.073
 7792TIP3    H123319   4.131   3.992   2.050
 7792TIP3    H223320   3.986   3.951   2.067
 7793TIP3   OH223321   1.586   6.961   1.055
 7793TIP3    H123322   1.560   6.933   1.143
 7793TIP3    H223323   1.591   6.880   1.004
 7794TIP3   OH223324   5.019   2.848   6.285
 7794TIP3    H123325   4.995   2.941   6.283
 7794TIP3    H223326   5.035   2.825   6.194
 7795TIP3   OH223327   1.313   3.691   5.436
 7795TIP3    H123328   1.273   3.614   5.394
 7795TIP3    H223329   1.251   3.762   5.419
 7796TIP3   OH223330   0.427   5.668   5.751
 7796TIP3    H123331   0.401   5.694   5.840
 7796TIP3    H223332   0.519   5.692   5.745
 7797TIP3   OH223333   5.973   3.605   0.827
 7797TIP3    H123334   5.959   3.663   0.902
 7797TIP3    H223335   6.048   3.552   0.852
 7798TIP3   OH223336   0.164   7.233   1.151
 7798TIP3    H123337   0.102   7.247   1.223
 7798TIP3    H223338   0.165   7.138   1.139
 7799TIP3   OH223339   5.896   7.336   4.521
 7799TIP3    H123340   5.951   7.407   4.489
 7799TIP3    H223341   5.951   7.287   4.581
 7800TIP3   OH223342   6.114   1.174   6.050
 7800TIP3    H123343   6.029   1.212   6.073
 7800TIP3    H223344   6.121   1.186   5.955
 7801TIP3   OH223345   0.584   1.793   4.639
 7801TIP3    H123346   0.641   1.839   4.577
 7801TIP3    H223347   0.496   1.827   4.620
 7802TIP3   OH223348   2.685   3.791   3.944
 7802TIP3    H123349   2.682   3.790   3.848
 7802TIP3    H223350   2.630   3.865   3.969
 7803TIP3   OH223351   1.833   6.165   1.929
 7803TIP3    H123352   1.824   6.189   2.021
 7803TIP3    H223353   1.919   6.122   1.924
 7804TIP3   OH223354   0.328   2.662   5.289
 7804TIP3    H123355   0.417   2.691   5.311
 7804TIP3    H223356   0.334   2.566   5.290
 7805TIP3   OH223357   2.059   4.595   6.639
 7805TIP3    H123358   2.113   4.570   6.564
 7805TIP3    H223359   2.018   4.678   6.613
 7806TIP3   OH223360   6.967   3.127   0.713
 7806TIP3    H123361   6.983   3.213   0.674
 7806TIP3    H223362   7.022   3.067   0.662
 7807TIP3   OH223363   4.318   5.013   3.229
 7807TIP3    H123364   4.410   5.007   3.204
 7807TIP3    H223365   4.278   5.070   3.163
 7808TIP3   OH223366   3.398   5.180   2.129
 7808TIP3    H123367   3.473   5.209   2.077
 7808TIP3    H223368   3.322   5.208   2.079
 7809TIP3   OH223369   5.819   5.602   4.996
 7809TIP3    H123370   5.823   5.579   5.089
 7809TIP3    H223371   5.910   5.622   4.973
 7810TIP3   OH223372   0.176   7.087   6.421
 7810TIP3    H123373   0.268   7.104   6.405
 7810TIP3    H223374   0.168   6.992   6.416
 7811TIP3   OH223375   7.983   1.744   5.911
 7811TIP3    H123376   7.956   1.669   5.963
 7811TIP3    H223377   8.037   1.796   5.970
 7812TIP3   OH223378   3.546   7.136   1.596
 7812TIP3    H123379   3.468   7.173   1.637
 7812TIP3    H223380   3.614   7.142   1.663
 7813TIP3   OH223381   3.165   6.687   3.505
 7813TIP3    H123382   3.088   6.739   3.482
 7813TIP3    H223383   3.170   6.621   3.436
 7814TIP3   OH223384   8.141   1.555   4.027
 7814TIP3    H123385   8.077   1.553   4.098
 7814TIP3    H223386   8.100   1.504   3.956
 7815TIP3   OH223387   0.641   7.582   5.856
 7815TIP3    H123388   0.708   7.647   5.877
 7815TIP3    H223389   0.620   7.598   5.764
 7816TIP3   OH223390   1.137   5.721   1.829
 7816TIP3    H123391   1.047   5.692   1.836
 7816TIP3    H223392   1.135   5.814   1.853
 7817TIP3   OH223393   5.723   0.462   2.268
 7817TIP3    H123394   5.718   0.425   2.180
 7817TIP3    H223395   5.719   0.386   2.326
 7818TIP3   OH223396   4.965   1.316   5.925
 7818TIP3    H123397   4.962   1.223   5.950
 7818TIP3    H223398   5.030   1.319   5.854
 7819TIP3   OH223399   5.162   6.054   6.395
 7819TIP3    H123400   5.133   5.991   6.462
 7819TIP3    H223401   5.170   6.137   6.442
 7820TIP3   OH223402   0.658   0.512   4.006
 7820TIP3    H123403   0.567   0.492   4.029
 7820TIP3    H223404   0.655   0.536   3.914
 7821TIP3   OH223405   3.090   6.993   3.792
 7821TIP3    H123406   3.182   6.982   3.767
 7821TIP3    H223407   3.080   6.939   3.870
 7822TIP3   OH223408   4.684   5.225   4.027
 7822TIP3    H123409   4.768   5.191   4.061
 7822TIP3    H223410   4.672   5.308   4.072
 7823TIP3   OH223411   3.704   7.409   2.004
 7823TIP3    H123412   3.795   7.418   2.030
 7823TIP3    H223413   3.692   7.472   1.933
 7824TIP3   OH223414   2.995   2.915   4.964
 7824TIP3    H123415   2.987   2.990   4.904
 7824TIP3    H223416   3.032   2.846   4.909
 7825TIP3   OH223417   4.309   2.052   3.713
 7825TIP3    H123418   4.231   2.107   3.715
 7825TIP3    H223419   4.288   1.981   3.652
 7826TIP3   OH223420   7.374   2.575   6.472
 7826TIP3    H123421   7.373   2.667   6.445
 7826TIP3    H223422   7.384   2.526   6.390
 7827TIP3   OH223423   6.883   4.567   1.593
 7827TIP3    H123424   6.920   4.551   1.680
 7827TIP3    H223425   6.959   4.566   1.535
 7828TIP3   OH223426   4.083   0.817   5.984
 7828TIP3    H123427   4.063   0.790   6.073
 7828TIP3    H223428   4.157   0.877   5.993
 7829TIP3   OH223429   5.951   5.049   0.064
 7829TIP3    H123430   6.005   4.971   0.052
 7829TIP3    H223431   6.010   5.122   0.047
 7830TIP3   OH223432   6.336   3.746   0.531
 7830TIP3    H123433   6.350   3.787   0.616
 7830TIP3    H223434   6.416   3.696   0.515
 7831TIP3   OH223435   4.091   4.882   0.070
 7831TIP3    H123436   4.135   4.830   0.003
 7831TIP3    H223437   4.143   4.962   0.077
 7832TIP3   OH223438   7.593   6.266   3.155
 7832TIP3    H123439   7.596   6.212   3.234
 7832TIP3    H223440   7.532   6.336   3.176
 7833TIP3   OH223441   3.786   6.784   3.451
 7833TIP3    H123442   3.805   6.800   3.359
 7833TIP3    H223443   3.761   6.692   3.455
 7834TIP3   OH223444   4.063   0.357   2.042
 7834TIP3    H123445   4.065   0.268   2.076
 7834TIP3    H223446   4.098   0.411   2.112
 7835TIP3   OH223447   2.628   3.268   5.866
 7835TIP3    H123448   2.678   3.348   5.849
 7835TIP3    H223449   2.655   3.242   5.954
 7836TIP3   OH223450   7.092   2.283   1.903
 7836TIP3    H123451   7.084   2.347   1.833
 7836TIP3    H223452   7.021   2.303   1.963
 7837TIP3   OH223453   2.832   6.333   3.242
 7837TIP3    H123454   2.800   6.384   3.317
 7837TIP3    H223455   2.754   6.292   3.206
 7838TIP3   OH223456   3.015   2.743   4.023
 7838TIP3    H123457   3.059   2.788   4.095
 7838TIP3    H223458   2.923   2.739   4.050
 7839TIP3   OH223459   3.533   3.961   2.516
 7839TIP3    H123460   3.439   3.968   2.535
 7839TIP3    H223461   3.554   3.870   2.537
 7840TIP3   OH223462   3.096   6.314   1.562
 7840TIP3    H123463   3.180   6.348   1.533
 7840TIP3    H223464   3.052   6.389   1.602
 7841TIP3   OH223465   2.640   2.678   6.573
 7841TIP3    H123466   2.684   2.631   6.643
 7841TIP3    H223467   2.699   2.752   6.553
 7842TIP3   OH223468   6.490   6.191   1.901
 7842TIP3    H123469   6.515   6.256   1.967
 7842TIP3    H223470   6.532   6.110   1.931
 7843TIP3   OH223471   6.813   3.931   3.535
 7843TIP3    H123472   6.722   3.927   3.563
 7843TIP3    H223473   6.860   3.881   3.601
 7844TIP3   OH223474   2.819   0.230   2.725
 7844TIP3    H123475   2.878   0.299   2.756
 7844TIP3    H223476   2.748   0.229   2.789
 7845TIP3   OH223477   5.775   3.606   6.409
 7845TIP3    H123478   5.863   3.632   6.385
 7845TIP3    H223479   5.720   3.638   6.338
 7846TIP3   OH223480   3.805   5.517   2.961
 7846TIP3    H123481   3.715   5.549   2.950
 7846TIP3    H223482   3.797   5.422   2.964
 7847TIP3   OH223483   6.627   1.626   6.631
 7847TIP3    H123484   6.544   1.622   6.678
 7847TIP3    H223485   6.665   1.711   6.656
 7848TIP3   OH223486   2.633   5.345   0.916
 7848TIP3    H123487   2.669   5.317   1.000
 7848TIP3    H223488   2.576   5.274   0.889
 7849TIP3   OH223489   7.796   7.043   2.276
 7849TIP3    H123490   7.778   7.053   2.369
 7849TIP3    H223491   7.807   6.948   2.264
 7850TIP3   OH223492   4.150   2.094   3.078
 7850TIP3    H123493   4.058   2.088   3.106
 7850TIP3    H223494   4.199   2.052   3.149
 7851TIP3   OH223495   6.514   1.757   4.295
 7851TIP3    H123496   6.435   1.758   4.241
 7851TIP3    H223497   6.586   1.766   4.234
 7852TIP3   OH223498   3.765   5.745   2.494
 7852TIP3    H123499   3.731   5.706   2.575
 7852TIP3    H223500   3.735   5.836   2.498
 7853TIP3   OH223501   0.958   3.047   6.793
 7853TIP3    H123502   0.904   2.973   6.765
 7853TIP3    H223503   1.040   3.037   6.743
 7854TIP3   OH223504   7.188   5.298   2.944
 7854TIP3    H123505   7.170   5.204   2.948
 7854TIP3    H223506   7.119   5.333   2.887
 7855TIP3   OH223507   6.260   1.860   0.316
 7855TIP3    H123508   6.346   1.828   0.289
 7855TIP3    H223509   6.206   1.853   0.237
 7856TIP3   OH223510   4.352   5.097   6.002
 7856TIP3    H123511   4.314   5.178   5.967
 7856TIP3    H223512   4.313   5.089   6.089
 7857TIP3   OH223513   2.721   4.118   4.845
 7857TIP3    H123514   2.653   4.158   4.790
 7857TIP3    H223515   2.798   4.173   4.832
 7858TIP3   OH223516   8.019   5.106   0.291
 7858TIP3    H123517   7.939   5.150   0.265
 7858TIP3    H223518   8.028   5.032   0.230
 7859TIP3   OH223519   1.729   6.321   1.693
 7859TIP3    H123520   1.705   6.402   1.738
 7859TIP3    H223521   1.778   6.271   1.758
 7860TIP3   OH223522   5.735   2.722   5.274
 7860TIP3    H123523   5.805   2.712   5.210
 7860TIP3    H223524   5.683   2.796   5.241
 7861TIP3   OH223525   3.924   1.706   1.600
 7861TIP3    H123526   4.015   1.682   1.615
 7861TIP3    H223527   3.923   1.802   1.605
 7862TIP3   OH223528   4.700   3.405   5.690
 7862TIP3    H123529   4.756   3.438   5.620
 7862TIP3    H223530   4.702   3.310   5.680
 7863TIP3   OH223531   6.982   1.142   5.265
 7863TIP3    H123532   6.963   1.233   5.285
 7863TIP3    H223533   6.897   1.104   5.241
 7864TIP3   OH223534   5.646   3.965   6.666
 7864TIP3    H123535   5.553   3.972   6.686
 7864TIP3    H223536   5.686   4.041   6.709
 7865TIP3   OH223537   8.014   5.384   6.518
 7865TIP3    H123538   7.996   5.473   6.486
 7865TIP3    H223539   8.051   5.396   6.605
 7866TIP3   OH223540   6.277   5.545   5.347
 7866TIP3    H123541   6.295   5.514   5.258
 7866TIP3    H223542   6.364   5.563   5.384
 7867TIP3   OH223543   2.697   0.798   1.341
 7867TIP3    H123544   2.686   0.732   1.409
 7867TIP3    H223545   2.665   0.757   1.261
 7868TIP3   OH223546   1.697   6.087   5.838
 7868TIP3    H123547   1.628   6.026   5.866
 7868TIP3    H223548   1.715   6.139   5.917
 7869TIP3   OH223549   8.114   1.696   3.431
 7869TIP3    H123550   8.113   1.601   3.431
 7869TIP3    H223551   8.193   1.719   3.480
 7870TIP3   OH223552   4.303   0.025   2.230
 7870TIP3    H123553   4.236   0.065   2.175
 7870TIP3    H223554   4.384   0.070   2.205
 7871TIP3   OH223555   3.290   7.462   0.052
 7871TIP3    H123556   3.253   7.389   0.101
 7871TIP3    H223557   3.225   7.531   0.058
 7872TIP3   OH223558   6.663   2.719   0.869
 7872TIP3    H123559   6.685   2.811   0.884
 7872TIP3    H223560   6.693   2.674   0.948
 7873TIP3   OH223561   1.685   5.966   4.049
 7873TIP3    H123562   1.637   5.968   4.133
 7873TIP3    H223563   1.617   5.976   3.983
 7874TIP3   OH223564   2.425   4.809   5.656
 7874TIP3    H123565   2.358   4.857   5.705
 7874TIP3    H223566   2.396   4.718   5.660
 7875TIP3   OH223567   2.593   1.772   1.874
 7875TIP3    H123568   2.579   1.710   1.946
 7875TIP3    H223569   2.687   1.769   1.857
 7876TIP3   OH223570   1.626   3.181   0.208
 7876TIP3    H123571   1.564   3.241   0.250
 7876TIP3    H223572   1.624   3.206   0.115
 7877TIP3   OH223573   4.715   6.994   1.380
 7877TIP3    H123574   4.627   6.978   1.414
 7877TIP3    H223575   4.764   6.915   1.402
 7878TIP3   OH223576   0.758   7.198   4.735
 7878TIP3    H123577   0.774   7.277   4.682
 7878TIP3    H223578   0.779   7.224   4.824
 7879TIP3   OH223579   2.727   4.187   0.177
 7879TIP3    H123580   2.673   4.259   0.209
 7879TIP3    H223581   2.680   4.108   0.203
 7880TIP3   OH223582   2.009   7.679   2.491
 7880TIP3    H123583   1.940   7.739   2.461
 7880TIP3    H223584   1.964   7.618   2.549
 7881TIP3   OH223585   2.872   1.051   4.606
 7881TIP3    H123586   2.907   1.009   4.528
 7881TIP3    H223587   2.881   1.145   4.589
 7882TIP3   OH223588   0.590   4.135   1.864
 7882TIP3    H123589   0.650   4.167   1.931
 7882TIP3    H223590   0.596   4.200   1.794
 7883TIP3   OH223591   4.708   3.685   3.885
 7883TIP3    H123592   4.683   3.760   3.939
 7883TIP3    H223593   4.665   3.611   3.926
 7884TIP3   OH223594   8.000   4.910   2.212
 7884TIP3    H123595   8.013   4.994   2.257
 7884TIP3    H223596   7.914   4.918   2.172
 7885TIP3   OH223597   5.310   4.278   2.245
 7885TIP3    H123598   5.317   4.187   2.216
 7885TIP3    H223599   5.251   4.275   2.320
 7886TIP3   OH223600   5.512   3.581   3.177
 7886TIP3    H123601   5.594   3.533   3.192
 7886TIP3    H223602   5.526   3.665   3.220
 7887TIP3   OH223603   5.482   6.891   1.660
 7887TIP3    H123604   5.535   6.840   1.722
 7887TIP3    H223605   5.392   6.870   1.683
 7888TIP3   OH223606   4.274   3.245   1.071
 7888TIP3    H123607   4.213   3.200   1.130
 7888TIP3    H223608   4.218   3.303   1.018
 7889TIP3   OH223609   0.975   5.302   3.795
 7889TIP3    H123610   0.989   5.346   3.878
 7889TIP3    H223611   1.062   5.294   3.756
 7890TIP3   OH223612   5.645   5.814   4.929
 7890TIP3    H123613   5.571   5.764   4.964
 7890TIP3    H223614   5.722   5.761   4.952
 7891TIP3   OH223615   4.139   5.429   3.579
 7891TIP3    H123616   4.102   5.351   3.618
 7891TIP3    H223617   4.160   5.403   3.489
 7892TIP3   OH223618   5.336   2.988   3.250
 7892TIP3    H123619   5.419   3.029   3.275
 7892TIP3    H223620   5.275   3.012   3.320
 7893TIP3   OH223621   5.087   5.814   2.787
 7893TIP3    H123622   5.175   5.802   2.754
 7893TIP3    H223623   5.049   5.881   2.730
 7894TIP3   OH223624   3.812   1.361   2.223
 7894TIP3    H123625   3.894   1.342   2.177
 7894TIP3    H223626   3.782   1.444   2.187
 7895TIP3   OH223627   7.017   1.313   3.065
 7895TIP3    H123628   6.939   1.342   3.113
 7895TIP3    H223629   7.090   1.337   3.122
 7896TIP3   OH223630   5.193   6.343   4.926
 7896TIP3    H123631   5.105   6.367   4.897
 7896TIP3    H223632   5.181   6.264   4.977
 7897TIP3   OH223633   4.768   1.479   1.290
 7897TIP3    H123634   4.863   1.473   1.277
 7897TIP3    H223635   4.758   1.531   1.370
 7898TIP3   OH223636   1.715   4.323   6.284
 7898TIP3    H123637   1.677   4.365   6.206
 7898TIP3    H223638   1.800   4.366   6.294
 7899TIP3   OH223639   8.263   2.272   2.745
 7899TIP3    H123640   8.298   2.199   2.795
 7899TIP3    H223641   8.290   2.350   2.795
 7900TIP3   OH223642   6.652   0.868   6.630
 7900TIP3    H123643   6.582   0.932   6.617
 7900TIP3    H223644   6.704   0.903   6.702
 7901TIP3   OH223645   2.173   5.655   4.625
 7901TIP3    H123646   2.258   5.640   4.583
 7901TIP3    H223647   2.122   5.576   4.605
 7902TIP3   OH223648   5.472   3.162   6.096
 7902TIP3    H123649   5.474   3.076   6.136
 7902TIP3    H223650   5.561   3.197   6.108
 7903TIP3   OH223651   0.606   0.993   5.020
 7903TIP3    H123652   0.611   1.089   5.017
 7903TIP3    H223653   0.697   0.965   5.037
 7904TIP3   OH223654   2.097   0.142   2.166
 7904TIP3    H123655   2.082   0.168   2.256
 7904TIP3    H223656   2.189   0.163   2.149
 7905TIP3   OH223657   1.598   3.239   6.551
 7905TIP3    H123658   1.672   3.187   6.519
 7905TIP3    H223659   1.586   3.307   6.486
 7906TIP3   OH223660   6.592   0.296   0.946
 7906TIP3    H123661   6.683   0.273   0.924
 7906TIP3    H223662   6.559   0.341   0.868
 7907TIP3   OH223663   5.204   0.988   2.000
 7907TIP3    H123664   5.139   0.936   1.953
 7907TIP3    H223665   5.226   0.937   2.078
 7908TIP3   OH223666   4.930   6.812   5.184
 7908TIP3    H123667   4.941   6.773   5.097
 7908TIP3    H223668   4.844   6.782   5.213
 7909TIP3   OH223669   2.004   1.486   5.097
 7909TIP3    H123670   2.091   1.524   5.089
 7909TIP3    H223671   1.979   1.464   5.007
 7910TIP3   OH223672   2.189   5.791   3.791
 7910TIP3    H123673   2.138   5.872   3.783
 7910TIP3    H223674   2.278   5.820   3.811
 7911TIP3   OH223675   2.340   0.957   4.134
 7911TIP3    H123676   2.382   1.026   4.083
 7911TIP3    H223677   2.334   0.993   4.222
 7912TIP3   OH223678   1.979   3.909   4.457
 7912TIP3    H123679   1.990   3.818   4.483
 7912TIP3    H223680   1.892   3.933   4.491
 7913TIP3   OH223681   3.152   1.826   1.133
 7913TIP3    H123682   3.141   1.793   1.044
 7913TIP3    H223683   3.164   1.921   1.123
 7914TIP3   OH223684   4.869   2.112   4.352
 7914TIP3    H123685   4.844   2.127   4.261
 7914TIP3    H223686   4.786   2.118   4.400
 7915TIP3   OH223687   5.642   6.171   6.538
 7915TIP3    H123688   5.591   6.247   6.564
 7915TIP3    H223689   5.689   6.199   6.459
 7916TIP3   OH223690   1.524   6.180   5.639
 7916TIP3    H123691   1.606   6.142   5.672
 7916TIP3    H223692   1.455   6.132   5.684
 7917TIP3   OH223693   6.948   3.648   3.379
 7917TIP3    H123694   7.000   3.695   3.314
 7917TIP3    H223695   6.860   3.644   3.340
 7918TIP3   OH223696   0.221   5.607   2.749
 7918TIP3    H123697   0.258   5.522   2.772
 7918TIP3    H223698   0.149   5.620   2.811
 7919TIP3   OH223699   3.282   6.740   1.470
 7919TIP3    H123700   3.249   6.723   1.381
 7919TIP3    H223701   3.277   6.835   1.479
 7920TIP3   OH223702   2.400   3.453   0.748
 7920TIP3    H123703   2.450   3.379   0.781
 7920TIP3    H223704   2.412   3.522   0.814
 7921TIP3   OH223705   2.491   6.808   3.513
 7921TIP3    H123706   2.404   6.816   3.553
 7921TIP3    H223707   2.483   6.732   3.454
 7922TIP3   OH223708   1.711   1.842   4.162
 7922TIP3    H123709   1.676   1.762   4.203
 7922TIP3    H223710   1.773   1.810   4.096
 7923TIP3   OH223711   0.922   4.454   2.189
 7923TIP3    H123712   0.935   4.548   2.200
 7923TIP3    H223713   0.982   4.429   2.119
 7924TIP3   OH223714   3.585   7.035   4.147
 7924TIP3    H123715   3.514   6.989   4.103
 7924TIP3    H223716   3.656   7.037   4.083
 7925TIP3   OH223717   4.450   0.831   2.225
 7925TIP3    H123718   4.538   0.820   2.260
 7925TIP3    H223719   4.462   0.871   2.139
 7926TIP3   OH223720   7.089   2.086   5.124
 7926TIP3    H123721   7.022   2.038   5.174
 7926TIP3    H223722   7.171   2.044   5.149
 7927TIP3   OH223723   3.290   7.224   4.806
 7927TIP3    H123724   3.222   7.220   4.873
 7927TIP3    H223725   3.251   7.274   4.735
 7928TIP3   OH223726   7.591   3.963   2.073
 7928TIP3    H123727   7.497   3.949   2.070
 7928TIP3    H223728   7.627   3.881   2.107
 7929TIP3   OH223729   3.498   2.553   5.593
 7929TIP3    H123730   3.531   2.544   5.682
 7929TIP3    H223731   3.403   2.551   5.602
 7930TIP3   OH223732   6.649   5.870   2.898
 7930TIP3    H123733   6.575   5.910   2.852
 7930TIP3    H223734   6.609   5.803   2.954
 7931TIP3   OH223735   1.236   5.285   3.775
 7931TIP3    H123736   1.274   5.199   3.791
 7931TIP3    H223737   1.307   5.347   3.791
 7932TIP3   OH223738   6.389   2.160   2.337
 7932TIP3    H123739   6.308   2.194   2.300
 7932TIP3    H223740   6.364   2.127   2.423
 7933TIP3   OH223741   1.748   6.465   0.939
 7933TIP3    H123742   1.661   6.496   0.964
 7933TIP3    H223743   1.788   6.538   0.893
 7934TIP3   OH223744   1.004   1.434   5.060
 7934TIP3    H123745   0.932   1.496   5.044
 7934TIP3    H223746   1.010   1.383   4.979
 7935TIP3   OH223747   4.088   1.311   2.149
 7935TIP3    H123748   4.129   1.228   2.175
 7935TIP3    H223749   4.133   1.336   2.069
 7936TIP3   OH223750   7.335   1.451   0.278
 7936TIP3    H123751   7.391   1.438   0.201
 7936TIP3    H223752   7.258   1.396   0.261
 7937TIP3   OH223753   7.120   5.795   5.610
 7937TIP3    H123754   7.073   5.715   5.634
 7937TIP3    H223755   7.212   5.774   5.624
 7938TIP3   OH223756   2.164   4.402   1.881
 7938TIP3    H123757   2.224   4.339   1.921
 7938TIP3    H223758   2.166   4.477   1.940
 7939TIP3   OH223759   3.083   4.851   6.052
 7939TIP3    H123760   3.020   4.785   6.083
 7939TIP3    H223761   3.154   4.849   6.116
 7940TIP3   OH223762   6.347   3.034   6.165
 7940TIP3    H123763   6.395   3.116   6.149
 7940TIP3    H223764   6.257   3.055   6.142
 7941TIP3   OH223765   4.795   4.702   5.371
 7941TIP3    H123766   4.757   4.758   5.439
 7941TIP3    H223767   4.845   4.762   5.316
 7942TIP3   OH223768   6.309   7.001   3.034
 7942TIP3    H123769   6.222   6.962   3.047
 7942TIP3    H223770   6.364   6.928   3.007
 7943TIP3   OH223771   6.951   6.414   6.129
 7943TIP3    H123772   7.044   6.429   6.110
 7943TIP3    H223773   6.905   6.443   6.050
 7944TIP3   OH223774   7.055   0.811   2.846
 7944TIP3    H123775   7.045   0.887   2.904
 7944TIP3    H223776   6.967   0.795   2.812
 7945TIP3   OH223777   4.047   3.086   1.674
 7945TIP3    H123778   4.105   3.022   1.714
 7945TIP3    H223779   4.036   3.154   1.740
 7946TIP3   OH223780   5.521   4.247   3.583
 7946TIP3    H123781   5.539   4.162   3.543
 7946TIP3    H223782   5.580   4.308   3.538
 7947TIP3   OH223783   3.591   1.053   4.800
 7947TIP3    H123784   3.631   1.055   4.713
 7947TIP3    H223785   3.654   1.098   4.856
 7948TIP3   OH223786   7.803   0.287   4.170
 7948TIP3    H123787   7.863   0.217   4.197
 7948TIP3    H223788   7.840   0.321   4.089
 7949TIP3   OH223789   6.516   2.616   5.292
 7949TIP3    H123790   6.427   2.580   5.292
 7949TIP3    H223791   6.519   2.671   5.213
 7950TIP3   OH223792   4.943   2.845   5.503
 7950TIP3    H123793   4.919   2.813   5.416
 7950TIP3    H223794   4.993   2.772   5.542
 7951TIP3   OH223795   0.083   3.966   1.290
 7951TIP3    H123796   0.017   3.911   1.248
 7951TIP3    H223797   0.063   4.054   1.258
 7952TIP3   OH223798   2.220   0.337   3.017
 7952TIP3    H123799   2.250   0.405   2.958
 7952TIP3    H223800   2.278   0.263   3.001
 7953TIP3   OH223801   1.290   3.453   2.089
 7953TIP3    H123802   1.339   3.459   2.171
 7953TIP3    H223803   1.353   3.480   2.021
 7954TIP3   OH223804   1.887   5.975   3.623
 7954TIP3    H123805   1.951   6.022   3.676
 7954TIP3    H223806   1.925   5.973   3.536
 7955TIP3   OH223807   4.974   0.613   0.297
 7955TIP3    H123808   4.905   0.663   0.340
 7955TIP3    H223809   5.029   0.581   0.369
 7956TIP3   OH223810   1.468   1.187   3.911
 7956TIP3    H123811   1.521   1.177   3.990
 7956TIP3    H223812   1.496   1.114   3.855
 7957TIP3   OH223813   4.901   3.660   3.271
 7957TIP3    H123814   4.847   3.731   3.235
 7957TIP3    H223815   4.942   3.698   3.349
 7958TIP3   OH223816   2.040   1.118   2.910
 7958TIP3    H123817   2.115   1.064   2.884
 7958TIP3    H223818   2.053   1.132   3.004
 7959TIP3   OH223819   3.814   4.960   6.328
 7959TIP3    H123820   3.865   4.908   6.267
 7959TIP3    H223821   3.878   5.014   6.375
 7960TIP3   OH223822   1.512   5.385   1.207
 7960TIP3    H123823   1.475   5.354   1.125
 7960TIP3    H223824   1.438   5.423   1.254
 7961TIP3   OH223825   2.572   6.653   1.359
 7961TIP3    H123826   2.665   6.637   1.347
 7961TIP3    H223827   2.530   6.570   1.339
 7962TIP3   OH223828   1.998   6.357   4.170
 7962TIP3    H123829   1.988   6.430   4.109
 7962TIP3    H223830   1.959   6.283   4.125
 7963TIP3   OH223831   4.536   6.244   0.067
 7963TIP3    H123832   4.508   6.309   0.132
 7963TIP3    H223833   4.470   6.175   0.072
 7964TIP3   OH223834   0.461   3.878   1.925
 7964TIP3    H123835   0.497   3.959   1.888
 7964TIP3    H223836   0.382   3.861   1.874
 7965TIP3   OH223837   3.697   3.014   5.515
 7965TIP3    H123838   3.643   3.023   5.437
 7965TIP3    H223839   3.655   3.071   5.580
 7966TIP3   OH223840   5.387   6.522   3.824
 7966TIP3    H123841   5.406   6.456   3.892
 7966TIP3    H223842   5.309   6.489   3.781
 7967TIP3   OH223843   0.186   7.757   1.918
 7967TIP3    H123844   0.272   7.754   1.959
 7967TIP3    H223845   0.149   7.671   1.933
 7968TIP3   OH223846   1.757   0.480   0.426
 7968TIP3    H123847   1.840   0.494   0.472
 7968TIP3    H223848   1.770   0.521   0.340
 7969TIP3   OH223849   4.639   1.221   0.244
 7969TIP3    H123850   4.713   1.266   0.203
 7969TIP3    H223851   4.623   1.145   0.188
 7970TIP3   OH223852   7.837   6.158   2.804
 7970TIP3    H123853   7.875   6.121   2.724
 7970TIP3    H223854   7.749   6.120   2.808
 7971TIP3   OH223855   5.337   4.758   1.737
 7971TIP3    H123856   5.280   4.826   1.700
 7971TIP3    H223857   5.409   4.751   1.675
 7972TIP3   OH223858   1.080   4.327   3.949
 7972TIP3    H123859   1.103   4.415   3.980
 7972TIP3    H223860   1.159   4.275   3.963
 7973TIP3   OH223861   4.468   4.667   3.405
 7973TIP3    H123862   4.408   4.741   3.408
 7973TIP3    H223863   4.434   4.606   3.470
 7974TIP3   OH223864   3.749   5.021   0.899
 7974TIP3    H123865   3.828   5.072   0.880
 7974TIP3    H223866   3.677   5.083   0.889
 7975TIP3   OH223867   2.175   6.052   5.084
 7975TIP3    H123868   2.207   5.985   5.024
 7975TIP3    H223869   2.083   6.064   5.061
 7976TIP3   OH223870   1.320   5.622   2.778
 7976TIP3    H123871   1.334   5.665   2.694
 7976TIP3    H223872   1.228   5.595   2.776
 7977TIP3   OH223873   4.219   3.697   6.201
 7977TIP3    H123874   4.219   3.786   6.237
 7977TIP3    H223875   4.127   3.673   6.196
 7978TIP3   OH223876   8.126   5.648   3.845
 7978TIP3    H123877   8.110   5.724   3.789
 7978TIP3    H223878   8.039   5.623   3.876
 7979TIP3   OH223879   6.720   0.199   5.304
 7979TIP3    H123880   6.799   0.192   5.251
 7979TIP3    H223881   6.661   0.253   5.252
 7980TIP3   OH223882   2.138   2.270   0.125
 7980TIP3    H123883   2.212   2.299   0.178
 7980TIP3    H223884   2.150   2.313   0.041
 7981TIP3   OH223885   6.348   6.443   1.295
 7981TIP3    H123886   6.339   6.406   1.207
 7981TIP3    H223887   6.353   6.538   1.280
 7982TIP3   OH223888   7.306   5.412   0.928
 7982TIP3    H123889   7.316   5.322   0.897
 7982TIP3    H223890   7.262   5.403   1.013
 7983TIP3   OH223891   0.646   2.984   4.149
 7983TIP3    H123892   0.662   2.890   4.136
 7983TIP3    H223893   0.565   2.987   4.201
 7984TIP3   OH223894   6.234   1.642   1.115
 7984TIP3    H123895   6.226   1.720   1.170
 7984TIP3    H223896   6.180   1.660   1.039
 7985TIP3   OH223897   0.947   4.796   2.697
 7985TIP3    H123898   0.930   4.891   2.693
 7985TIP3    H223899   1.038   4.790   2.726
 7986TIP3   OH223900   1.936   0.665   3.964
 7986TIP3    H123901   1.960   0.643   4.055
 7986TIP3    H223902   1.973   0.593   3.913
 7987TIP3   OH223903   2.570   5.629   5.112
 7987TIP3    H123904   2.611   5.674   5.185
 7987TIP3    H223905   2.637   5.567   5.082
 7988TIP3   OH223906   0.865   4.584   1.841
 7988TIP3    H123907   0.863   4.656   1.905
 7988TIP3    H223908   0.955   4.581   1.810
 7989TIP3   OH223909   3.686   0.239   3.771
 7989TIP3    H123910   3.705   0.297   3.845
 7989TIP3    H223911   3.754   0.261   3.706
 7990TIP3   OH223912   5.246   1.497   3.972
 7990TIP3    H123913   5.162   1.523   3.933
 7990TIP3    H223914   5.255   1.404   3.951
 7991TIP3   OH223915   0.813   2.315   3.186
 7991TIP3    H123916   0.723   2.348   3.184
 7991TIP3    H223917   0.835   2.300   3.094
 7992TIP3   OH223918   0.189   3.235   3.293
 7992TIP3    H123919   0.240   3.256   3.371
 7992TIP3    H223920   0.128   3.308   3.284
 7993TIP3   OH223921   5.903   0.017   0.660
 7993TIP3    H123922   5.983   0.063   0.687
 7993TIP3    H223923   5.879   0.057   0.577
 7994TIP3   OH223924   0.654   3.511   2.924
 7994TIP3    H123925   0.560   3.527   2.938
 7994TIP3    H223926   0.695   3.597   2.938
 7995TIP3   OH223927   1.550   3.724   0.976
 7995TIP3    H123928   1.592   3.809   0.959
 7995TIP3    H223929   1.616   3.674   1.025
 7996TIP3   OH223930   7.809   4.109   2.000
 7996TIP3    H123931   7.853   4.055   1.933
 7996TIP3    H223932   7.738   4.053   2.032
 7997TIP3   OH223933   0.471   1.942   6.294
 7997TIP3    H123934   0.447   2.034   6.298
 7997TIP3    H223935   0.459   1.918   6.203
 7998TIP3   OH223936   6.914   1.634   0.655
 7998TIP3    H123937   6.981   1.624   0.723
 7998TIP3    H223938   6.831   1.623   0.702
 7999TIP3   OH223939   1.284   4.086   3.993
 7999TIP3    H123940   1.358   4.103   4.051
 7999TIP3    H223941   1.295   3.994   3.967
 8000TIP3   OH223942   2.886   1.391   5.671
 8000TIP3    H123943   2.854   1.317   5.620
 8000TIP3    H223944   2.965   1.420   5.625
 8001TIP3   OH223945   5.432   7.845   3.527
 8001TIP3    H123946   5.488   7.795   3.467
 8001TIP3    H223947   5.351   7.796   3.532
 8002TIP3   OH223948   5.826   3.749   4.469
 8002TIP3    H123949   5.806   3.710   4.383
 8002TIP3    H223950   5.747   3.735   4.521
 8003TIP3   OH223951   1.955   2.622   2.345
 8003TIP3    H123952   1.974   2.551   2.407
 8003TIP3    H223953   1.971   2.702   2.395
 8004TIP3   OH223954   4.609   6.135   1.483
 8004TIP3    H123955   4.621   6.196   1.555
 8004TIP3    H223956   4.698   6.119   1.450
 8005TIP3   OH223957   1.438   5.094   4.707
 8005TIP3    H123958   1.463   5.008   4.674
 8005TIP3    H223959   1.343   5.088   4.720
 8006TIP3   OH223960   2.852   6.730   5.728
 8006TIP3    H123961   2.851   6.734   5.632
 8006TIP3    H223962   2.843   6.821   5.757
 8007TIP3   OH223963   1.938   5.850   0.489
 8007TIP3    H123964   1.898   5.799   0.559
 8007TIP3    H223965   1.881   5.835   0.413
 8008TIP3   OH223966   1.897   4.197   3.196
 8008TIP3    H123967   1.816   4.203   3.145
 8008TIP3    H223968   1.869   4.171   3.283
 8009TIP3   OH223969   7.147   0.128   6.716
 8009TIP3    H123970   7.212   0.062   6.740
 8009TIP3    H223971   7.184   0.170   6.638
 8010TIP3   OH223972   7.844   4.431   3.201
 8010TIP3    H123973   7.795   4.355   3.232
 8010TIP3    H223974   7.778   4.493   3.172
 8011TIP3   OH223975   3.093   2.613   5.220
 8011TIP3    H123976   3.161   2.673   5.250
 8011TIP3    H223977   3.116   2.529   5.260
 8012TIP3   OH223978   5.989   1.914   6.115
 8012TIP3    H123979   5.953   2.001   6.099
 8012TIP3    H223980   5.957   1.861   6.043
 8013TIP3   OH223981   3.802   5.102   5.899
 8013TIP3    H123982   3.754   5.067   5.825
 8013TIP3    H223983   3.873   5.040   5.915
 8014TIP3   OH223984   1.923   2.936   1.715
 8014TIP3    H123985   1.971   3.013   1.686
 8014TIP3    H223986   1.846   2.933   1.659
 8015TIP3   OH223987   1.753   3.044   4.078
 8015TIP3    H123988   1.825   3.060   4.017
 8015TIP3    H223989   1.763   2.952   4.103
 8016TIP3   OH223990   5.413   5.172   1.650
 8016TIP3    H123991   5.469   5.209   1.719
 8016TIP3    H223992   5.475   5.148   1.581
 8017TIP3   OH223993   2.451   1.571   2.027
 8017TIP3    H123994   2.408   1.501   1.979
 8017TIP3    H223995   2.379   1.626   2.060
 8018TIP3   OH223996   0.999   0.071   6.337
 8018TIP3    H123997   1.088   0.104   6.344
 8018TIP3    H223998   1.008  -0.025   6.340
 8019TIP3   OH223999   7.482   3.148   4.365
 8019TIP3    H124000   7.400   3.186   4.334
 8019TIP3    H224001   7.456   3.068   4.411
 8020TIP3   OH224002   0.829   4.120   5.769
 8020TIP3    H124003   0.886   4.166   5.831
 8020TIP3    H224004   0.812   4.035   5.812
 8021TIP3   OH224005   4.507   2.618   3.859
 8021TIP3    H124006   4.533   2.707   3.835
 8021TIP3    H224007   4.457   2.587   3.783
 8022TIP3   OH224008   6.433   5.843   5.298
 8022TIP3    H124009   6.359   5.864   5.356
 8022TIP3    H224010   6.483   5.777   5.346
 8023TIP3   OH224011   2.656   7.430   5.443
 8023TIP3    H124012   2.604   7.442   5.523
 8023TIP3    H224013   2.713   7.355   5.462
 8024TIP3   OH224014   4.804   2.422   0.059
 8024TIP3    H124015   4.711   2.401   0.062
 8024TIP3    H224016   4.809   2.511   0.094
 8025TIP3   OH224017   5.211   5.229   1.465
 8025TIP3    H124018   5.292   5.202   1.510
 8025TIP3    H224019   5.230   5.317   1.434
 8026TIP3   OH224020   2.891   2.357   2.975
 8026TIP3    H124021   2.867   2.362   2.882
 8026TIP3    H224022   2.894   2.263   2.994
 8027TIP3   OH224023   1.077   6.770   6.789
 8027TIP3    H124024   1.153   6.779   6.732
 8027TIP3    H224025   1.031   6.693   6.755
 8028TIP3   OH224026   2.920   2.521   3.870
 8028TIP3    H124027   2.920   2.600   3.924
 8028TIP3    H224028   2.890   2.551   3.784
 8029TIP3   OH224029   6.805   2.148   2.602
 8029TIP3    H124030   6.842   2.143   2.690
 8029TIP3    H224031   6.719   2.107   2.610
 8030TIP3   OH224032   6.400   2.571   6.530
 8030TIP3    H124033   6.392   2.629   6.455
 8030TIP3    H224034   6.483   2.524   6.516
 8031TIP3   OH224035   6.425   5.789   1.896
 8031TIP3    H124036   6.487   5.839   1.948
 8031TIP3    H224037   6.472   5.708   1.874
 8032TIP3   OH224038   7.857   7.371   4.516
 8032TIP3    H124039   7.909   7.437   4.562
 8032TIP3    H224040   7.922   7.306   4.487
 8033TIP3   OH224041   6.911   6.550   2.617
 8033TIP3    H124042   6.852   6.480   2.647
 8033TIP3    H224043   6.853   6.614   2.575
 8034TIP3   OH224044   1.355   0.326   0.624
 8034TIP3    H124045   1.350   0.231   0.607
 8034TIP3    H224046   1.353   0.333   0.719
 8035TIP3   OH224047   6.785   2.146   4.091
 8035TIP3    H124048   6.881   2.144   4.083
 8035TIP3    H224049   6.754   2.163   4.002
 8036TIP3   OH224050   6.219   6.065   2.807
 8036TIP3    H124051   6.200   6.050   2.714
 8036TIP3    H224052   6.275   5.992   2.833
 8037TIP3   OH224053   2.358   6.751   1.502
 8037TIP3    H124054   2.343   6.827   1.558
 8037TIP3    H224055   2.453   6.746   1.493
 8038TIP3   OH224056   5.115   1.758   0.631
 8038TIP3    H124057   5.025   1.781   0.657
 8038TIP3    H224058   5.168   1.832   0.662
 8039TIP3   OH224059   1.113   4.330   0.090
 8039TIP3    H124060   1.055   4.255   0.105
 8039TIP3    H224061   1.077   4.373   0.012
 8040TIP3   OH224062   1.414   2.799   3.969
 8040TIP3    H124063   1.398   2.836   3.882
 8040TIP3    H224064   1.335   2.749   3.989
 8041TIP3   OH224065   0.360   0.981   3.346
 8041TIP3    H124066   0.294   1.025   3.399
 8041TIP3    H224067   0.378   0.899   3.393
 8042TIP3   OH224068   1.423   1.070   1.965
 8042TIP3    H124069   1.412   1.020   2.046
 8042TIP3    H224070   1.441   1.159   1.995
 8043TIP3   OH224071   1.532   6.145   3.127
 8043TIP3    H124072   1.448   6.189   3.140
 8043TIP3    H224073   1.513   6.075   3.065
 8044TIP3   OH224074   1.059   1.914   6.038
 8044TIP3    H124075   1.041   1.850   6.107
 8044TIP3    H224076   1.031   1.871   5.957
 8045TIP3   OH224077   0.730   0.789   1.436
 8045TIP3    H124078   0.725   0.830   1.522
 8045TIP3    H224079   0.688   0.852   1.377
 8046TIP3   OH224080   7.326   4.642   5.435
 8046TIP3    H124081   7.382   4.673   5.364
 8046TIP3    H224082   7.377   4.574   5.478
 8047TIP3   OH224083   7.035   7.597   5.046
 8047TIP3    H124084   7.044   7.642   4.962
 8047TIP3    H224085   7.011   7.507   5.024
 8048TIP3   OH224086   1.165   3.796   6.159
 8048TIP3    H124087   1.201   3.884   6.150
 8048TIP3    H224088   1.167   3.760   6.070
 8049TIP3   OH224089   3.299   1.169   0.064
 8049TIP3    H124090   3.302   1.146  -0.028
 8049TIP3    H224091   3.209   1.198   0.080
 8050TIP3   OH224092   2.415   0.155   0.526
 8050TIP3    H124093   2.345   0.220   0.516
 8050TIP3    H224094   2.386   0.080   0.475
 8051TIP3   OH224095   6.220   0.157   6.456
 8051TIP3    H124096   6.129   0.178   6.436
 8051TIP3    H224097   6.218   0.114   6.541
 8052TIP3   OH224098   6.112   7.192   4.697
 8052TIP3    H124099   6.197   7.225   4.669
 8052TIP3    H224100   6.106   7.215   4.790
 8053TIP3   OH224101   2.899   3.389   1.424
 8053TIP3    H124102   2.933   3.331   1.492
 8053TIP3    H224103   2.941   3.473   1.441
 8054TIP3   OH224104   8.002   1.880   1.533
 8054TIP3    H124105   8.017   1.847   1.621
 8054TIP3    H224106   7.947   1.958   1.547
 8055TIP3   OH224107   3.741   0.522   5.806
 8055TIP3    H124108   3.711   0.546   5.719
 8055TIP3    H224109   3.810   0.585   5.827
 8056TIP3   OH224110   7.343   3.640   2.658
 8056TIP3    H124111   7.413   3.577   2.675
 8056TIP3    H224112   7.379   3.724   2.688
 8057TIP3   OH224113   3.703   3.799   3.393
 8057TIP3    H124114   3.719   3.786   3.299
 8057TIP3    H224115   3.735   3.718   3.433
 8058TIP3   OH224116   7.400   5.334   3.311
 8058TIP3    H124117   7.349   5.333   3.230
 8058TIP3    H224118   7.373   5.415   3.355
 8059TIP3   OH224119   3.723   0.277   3.047
 8059TIP3    H124120   3.747   0.313   2.962
 8059TIP3    H224121   3.629   0.296   3.055
 8060TIP3   OH224122   6.755   3.442   6.098
 8060TIP3    H124123   6.840   3.406   6.073
 8060TIP3    H224124   6.764   3.460   6.192
 8061TIP3   OH224125   1.740   7.094   2.520
 8061TIP3    H124126   1.708   7.182   2.500
 8061TIP3    H224127   1.826   7.090   2.479
 8062TIP3   OH224128   5.239   5.108   1.983
 8062TIP3    H124129   5.173   5.132   1.919
 8062TIP3    H224130   5.221   5.165   2.058
 8063TIP3   OH224131   1.104   7.410   3.473
 8063TIP3    H124132   1.150   7.402   3.389
 8063TIP3    H224133   1.172   7.395   3.538
 8064TIP3   OH224134   2.210   6.234   2.316
 8064TIP3    H124135   2.287   6.290   2.310
 8064TIP3    H224136   2.176   6.230   2.227
 8065TIP3   OH224137   6.446   3.837   3.692
 8065TIP3    H124138   6.411   3.776   3.757
 8065TIP3    H224139   6.451   3.921   3.737
 8066TIP3   OH224140   3.820   5.589   3.576
 8066TIP3    H124141   3.752   5.534   3.538
 8066TIP3    H224142   3.873   5.529   3.629
 8067TIP3   OH224143   2.836   5.736   1.819
 8067TIP3    H124144   2.845   5.650   1.861
 8067TIP3    H224145   2.859   5.721   1.728
 8068TIP3   OH224146   6.399   7.475   3.717
 8068TIP3    H124147   6.449   7.490   3.636
 8068TIP3    H224148   6.359   7.560   3.735
 8069TIP3   OH224149   5.192   1.253   3.833
 8069TIP3    H124150   5.152   1.168   3.846
 8069TIP3    H224151   5.235   1.246   3.747
 8070TIP3   OH224152   0.487   5.410   3.549
 8070TIP3    H124153   0.564   5.455   3.584
 8070TIP3    H224154   0.415   5.440   3.604
 8071TIP3   OH224155   8.149   2.694   6.346
 8071TIP3    H124156   8.186   2.779   6.370
 8071TIP3    H224157   8.064   2.715   6.308
 8072TIP3   OH224158   6.696   2.878   4.058
 8072TIP3    H124159   6.707   2.970   4.083
 8072TIP3    H224160   6.610   2.876   4.016
 8073TIP3   OH224161   0.854   2.792   2.541
 8073TIP3    H124162   0.905   2.748   2.474
 8073TIP3    H224163   0.772   2.815   2.498
 8074TIP3   OH224164   4.582   2.162   0.317
 8074TIP3    H124165   4.512   2.185   0.256
 8074TIP3    H224166   4.556   2.200   0.401
 8075TIP3   OH224167   6.467   6.968   1.790
 8075TIP3    H124168   6.457   6.908   1.717
 8075TIP3    H224169   6.527   7.035   1.757
 8076TIP3   OH224170   0.781   0.221   6.243
 8076TIP3    H124171   0.705   0.202   6.299
 8076TIP3    H224172   0.853   0.172   6.282
 8077TIP3   OH224173   2.261   0.100   4.948
 8077TIP3    H124174   2.169   0.098   4.920
 8077TIP3    H224175   2.311   0.096   4.866
 8078TIP3   OH224176   2.024   3.348   2.463
 8078TIP3    H124177   1.969   3.423   2.439
 8078TIP3    H224178   1.986   3.274   2.416
 8079TIP3   OH224179   7.190   2.897   0.860
 8079TIP3    H124180   7.252   2.844   0.909
 8079TIP3    H224181   7.241   2.972   0.830
 8080TIP3   OH224182   3.946   4.895   1.058
 8080TIP3    H124183   3.900   4.859   1.134
 8080TIP3    H224184   3.879   4.942   1.009
 8081TIP3   OH224185   6.297   2.839   1.389
 8081TIP3    H124186   6.331   2.925   1.413
 8081TIP3    H224187   6.226   2.823   1.452
 8082TIP3   OH224188   7.487   0.231   0.491
 8082TIP3    H124189   7.511   0.300   0.552
 8082TIP3    H224190   7.571   0.194   0.462
 8083TIP3   OH224191   1.976   2.669   0.002
 8083TIP3    H124192   2.058   2.664   0.052
 8083TIP3    H224193   1.959   2.763  -0.006
 8084TIP3   OH224194   0.431   1.094   2.488
 8084TIP3    H124195   0.339   1.111   2.471
 8084TIP3    H224196   0.432   1.044   2.570
 8085TIP3   OH224197   4.809   5.122   0.680
 8085TIP3    H124198   4.774   5.160   0.599
 8085TIP3    H224199   4.840   5.035   0.654
 8086TIP3   OH224200   6.020   3.694   3.731
 8086TIP3    H124201   6.103   3.649   3.720
 8086TIP3    H224202   6.017   3.757   3.659
 8087TIP3   OH224203   7.262   5.221   5.075
 8087TIP3    H124204   7.209   5.192   5.150
 8087TIP3    H224205   7.221   5.303   5.048
 8088TIP3   OH224206   6.315   0.935   0.117
 8088TIP3    H124207   6.388   0.988   0.084
 8088TIP3    H224208   6.238   0.972   0.073
 8089TIP3   OH224209   4.379   3.854   0.389
 8089TIP3    H124210   4.355   3.822   0.476
 8089TIP3    H224211   4.464   3.897   0.402
 8090TIP3   OH224212   2.657   4.233   4.443
 8090TIP3    H124213   2.646   4.220   4.538
 8090TIP3    H224214   2.730   4.293   4.436
 8091TIP3   OH224215   7.958   6.131   2.548
 8091TIP3    H124216   7.984   6.220   2.525
 8091TIP3    H224217   8.039   6.082   2.550
 8092TIP3   OH224218   1.922   6.156   0.441
 8092TIP3    H124219   1.943   6.063   0.436
 8092TIP3    H224220   1.918   6.175   0.535
 8093TIP3   OH224221   0.515   4.288   5.004
 8093TIP3    H124222   0.467   4.239   5.070
 8093TIP3    H224223   0.525   4.376   5.041
 8094TIP3   OH224224   6.061   2.065   0.382
 8094TIP3    H124225   6.127   2.007   0.344
 8094TIP3    H224226   6.111   2.134   0.425
 8095TIP3   OH224227   3.976   7.440   2.066
 8095TIP3    H124228   4.070   7.450   2.048
 8095TIP3    H224229   3.969   7.443   2.161
 8096TIP3   OH224230   6.840   0.041   3.204
 8096TIP3    H124231   6.867   0.020   3.115
 8096TIP3    H224232   6.917   0.023   3.257
 8097TIP3   OH224233   1.875   3.373   6.472
 8097TIP3    H124234   1.825   3.401   6.395
 8097TIP3    H224235   1.838   3.424   6.544
 8098TIP3   OH224236   1.418   1.800   1.490
 8098TIP3    H124237   1.497   1.746   1.494
 8098TIP3    H224238   1.398   1.808   1.397
 8099TIP3   OH224239   2.930   3.057   0.460
 8099TIP3    H124240   2.994   2.992   0.488
 8099TIP3    H224241   2.878   3.013   0.393
 8100TIP3   OH224242   4.838   1.711   0.994
 8100TIP3    H124243   4.783   1.635   0.974
 8100TIP3    H224244   4.925   1.687   0.963
 8101TIP3   OH224245   0.510   3.876   0.550
 8101TIP3    H124246   0.497   3.782   0.534
 8101TIP3    H224247   0.510   3.885   0.645
 8102TIP3   OH224248   2.024   3.535   4.162
 8102TIP3    H124249   2.042   3.628   4.144
 8102TIP3    H224250   2.088   3.510   4.228
 8103TIP3   OH224251   0.165   4.607   4.633
 8103TIP3    H124252   0.189   4.619   4.725
 8103TIP3    H224253   0.101   4.675   4.615
 8104TIP3   OH224254   6.608   4.707   3.810
 8104TIP3    H124255   6.674   4.742   3.751
 8104TIP3    H224256   6.540   4.774   3.814
 8105TIP3   OH224257   2.331   5.949   5.532
 8105TIP3    H124258   2.240   5.955   5.561
 8105TIP3    H224259   2.331   5.880   5.466
 8106TIP3   OH224260   2.158   5.023   6.495
 8106TIP3    H124261   2.156   4.963   6.421
 8106TIP3    H224262   2.151   5.110   6.456
 8107TIP3   OH224263   6.585   3.329   2.800
 8107TIP3    H124264   6.521   3.355   2.866
 8107TIP3    H224265   6.649   3.277   2.848
 8108TIP3   OH224266   5.879   0.496   2.662
 8108TIP3    H124267   5.915   0.557   2.598
 8108TIP3    H224268   5.954   0.465   2.712
 8109TIP3   OH224269   7.104   0.902   5.612
 8109TIP3    H124270   7.176   0.840   5.605
 8109TIP3    H224271   7.092   0.913   5.706
 8110TIP3   OH224272   3.715   3.811   3.754
 8110TIP3    H124273   3.694   3.865   3.678
 8110TIP3    H224274   3.644   3.747   3.759
 8111TIP3   OH224275   5.323   5.124   3.108
 8111TIP3    H124276   5.269   5.047   3.126
 8111TIP3    H224277   5.400   5.112   3.163
 8112TIP3   OH224278   6.877   4.318   4.061
 8112TIP3    H124279   6.837   4.405   4.063
 8112TIP3    H224280   6.967   4.334   4.032
 8113TIP3   OH224281   5.894   0.537   5.814
 8113TIP3    H124282   5.872   0.614   5.867
 8113TIP3    H224283   5.891   0.568   5.724
 8114TIP3   OH224284   5.906   1.547   2.600
 8114TIP3    H124285   5.838   1.512   2.544
 8114TIP3    H224286   5.988   1.515   2.562
 8115TIP3   OH224287   1.284   3.735   4.093
 8115TIP3    H124288   1.327   3.767   4.013
 8115TIP3    H224289   1.332   3.657   4.117
 8116TIP3   OH224290   2.640   0.768   3.153
 8116TIP3    H124291   2.687   0.754   3.235
 8116TIP3    H224292   2.634   0.864   3.145
 8117TIP3   OH224293   2.655   0.025   1.577
 8117TIP3    H124294   2.607  -0.031   1.516
 8117TIP3    H224295   2.591   0.089   1.607
 8118TIP3   OH224296   0.901   1.914   0.949
 8118TIP3    H124297   0.978   1.890   0.897
 8118TIP3    H224298   0.832   1.856   0.918
 8119TIP3   OH224299   6.085   1.045   0.895
 8119TIP3    H124300   6.144   1.109   0.935
 8119TIP3    H224301   6.080   1.071   0.803
 8120TIP3   OH224302   2.713   1.317   5.266
 8120TIP3    H124303   2.772   1.380   5.306
 8120TIP3    H224304   2.770   1.244   5.240
 8121TIP3   OH224305   3.119   2.289   4.808
 8121TIP3    H124306   3.182   2.231   4.766
 8121TIP3    H224307   3.146   2.291   4.900
 8122TIP3   OH224308   4.974   1.904   5.039
 8122TIP3    H124309   4.915   1.902   5.115
 8122TIP3    H224310   4.916   1.902   4.963
 8123TIP3   OH224311   5.987   5.606   2.159
 8123TIP3    H124312   5.960   5.515   2.167
 8123TIP3    H224313   6.078   5.601   2.130
 8124TIP3   OH224314   0.480   1.964   0.640
 8124TIP3    H124315   0.407   1.905   0.660
 8124TIP3    H224316   0.439   2.050   0.627
 8125TIP3   OH224317   0.342   0.704   0.210
 8125TIP3    H124318   0.300   0.781   0.247
 8125TIP3    H224319   0.300   0.630   0.255
 8126TIP3   OH224320   4.258   1.095   1.524
 8126TIP3    H124321   4.291   1.050   1.602
 8126TIP3    H224322   4.166   1.116   1.545
 8127TIP3   OH224323   1.452   5.095   0.309
 8127TIP3    H124324   1.453   5.041   0.230
 8127TIP3    H224325   1.528   5.153   0.300
 8128TIP3   OH224326   0.585   1.875   3.010
 8128TIP3    H124327   0.650   1.865   2.940
 8128TIP3    H224328   0.583   1.790   3.053
 8129TIP3   OH224329   7.218   4.391   6.059
 8129TIP3    H124330   7.186   4.457   5.997
 8129TIP3    H224331   7.246   4.441   6.136
 8130TIP3   OH224332   1.829   6.785   2.677
 8130TIP3    H124333   1.818   6.817   2.587
 8130TIP3    H224334   1.773   6.708   2.682
 8131TIP3   OH224335   3.153   1.438   3.340
 8131TIP3    H124336   3.193   1.476   3.262
 8131TIP3    H224337   3.122   1.352   3.312
 8132TIP3   OH224338   3.490   2.455   0.317
 8132TIP3    H124339   3.574   2.417   0.292
 8132TIP3    H224340   3.510   2.548   0.333
 8133TIP3   OH224341   5.137   5.928   5.816
 8133TIP3    H124342   5.148   5.923   5.910
 8133TIP3    H224343   5.044   5.912   5.801
 8134TIP3   OH224344   1.079   7.057   0.814
 8134TIP3    H124345   1.061   7.131   0.757
 8134TIP3    H224346   1.047   6.981   0.766
 8135TIP3   OH224347   3.117   3.431   2.455
 8135TIP3    H124348   3.066   3.440   2.374
 8135TIP3    H224349   3.051   3.436   2.524
 8136TIP3   OH224350   0.272   5.303   6.680
 8136TIP3    H124351   0.284   5.223   6.629
 8136TIP3    H224352   0.353   5.312   6.730
 8137TIP3   OH224353   1.546   1.175   4.542
 8137TIP3    H124354   1.612   1.122   4.498
 8137TIP3    H224355   1.497   1.112   4.596
 8138TIP3   OH224356   5.839   1.801   1.676
 8138TIP3    H124357   5.856   1.708   1.691
 8138TIP3    H224358   5.859   1.814   1.583
 8139TIP3   OH224359   2.732   6.409   4.042
 8139TIP3    H124360   2.804   6.461   4.009
 8139TIP3    H224361   2.745   6.407   4.137
 8140TIP3   OH224362   5.069   0.266   0.565
 8140TIP3    H124363   5.005   0.233   0.629
 8140TIP3    H224364   5.089   0.191   0.510
 8141TIP3   OH224365   4.967   0.210   0.023
 8141TIP3    H124366   4.904   0.259  -0.029
 8141TIP3    H224367   4.956   0.244   0.112
 8142TIP3   OH224368   7.918   5.116   6.657
 8142TIP3    H124369   7.901   5.084   6.569
 8142TIP3    H224370   8.012   5.135   6.659
 8143TIP3   OH224371   7.109   5.385   5.412
 8143TIP3    H124372   7.197   5.391   5.374
 8143TIP3    H224373   7.120   5.419   5.501
 8144TIP3   OH224374   1.514   3.413   2.263
 8144TIP3    H124375   1.528   3.355   2.338
 8144TIP3    H224376   1.576   3.381   2.197
 8145TIP3   OH224377   4.085   1.350   0.218
 8145TIP3    H124378   4.073   1.370   0.126
 8145TIP3    H224379   4.179   1.334   0.227
 8146TIP3   OH224380   5.051   2.379   4.940
 8146TIP3    H124381   5.067   2.318   4.869
 8146TIP3    H224382   5.107   2.348   5.012
 8147TIP3   OH224383   7.289   4.526   1.927
 8147TIP3    H124384   7.245   4.571   2.000
 8147TIP3    H224385   7.380   4.554   1.933
 8148TIP3   OH224386   3.474   4.796   0.979
 8148TIP3    H124387   3.472   4.873   1.036
 8148TIP3    H224388   3.551   4.809   0.923
 8149TIP3   OH224389   5.697   3.187   0.487
 8149TIP3    H124390   5.719   3.162   0.576
 8149TIP3    H224391   5.644   3.116   0.453
 8150TIP3   OH224392   2.032   2.128   2.379
 8150TIP3    H124393   2.117   2.103   2.415
 8150TIP3    H224394   2.050   2.203   2.323
 8151TIP3   OH224395   2.861   7.348   4.565
 8151TIP3    H124396   2.817   7.304   4.493
 8151TIP3    H224397   2.820   7.434   4.570
 8152TIP3   OH224398   6.614   5.679   3.568
 8152TIP3    H124399   6.679   5.748   3.577
 8152TIP3    H224400   6.665   5.600   3.552
 8153TIP3   OH224401   0.056   6.223   6.746
 8153TIP3    H124402  -0.011   6.283   6.714
 8153TIP3    H224403   0.039   6.216   6.840
 8154TIP3   OH224404   1.156   7.704   5.480
 8154TIP3    H124405   1.180   7.789   5.443
 8154TIP3    H224406   1.240   7.657   5.488
 8155TIP3   OH224407   0.743   4.519   4.806
 8155TIP3    H124408   0.772   4.578   4.736
 8155TIP3    H224409   0.752   4.571   4.886
 8156TIP3   OH224410   0.836   7.566   0.717
 8156TIP3    H124411   0.816   7.521   0.635
 8156TIP3    H224412   0.802   7.655   0.703
 8157TIP3   OH224413   1.883   6.183   4.014
 8157TIP3    H124414   1.855   6.094   4.036
 8157TIP3    H224415   1.805   6.223   3.976
 8158TIP3   OH224416   6.595   6.796   0.256
 8158TIP3    H124417   6.630   6.883   0.237
 8158TIP3    H224418   6.551   6.806   0.341
 8159TIP3   OH224419   7.886   1.813   6.564
 8159TIP3    H124420   7.873   1.906   6.581
 8159TIP3    H224421   7.972   1.794   6.601
 8160TIP3   OH224422   1.004   7.770   4.310
 8160TIP3    H124423   1.042   7.826   4.378
 8160TIP3    H224424   0.930   7.819   4.276
 8161TIP3   OH224425   5.916   6.426   0.070
 8161TIP3    H124426   5.956   6.344   0.039
 8161TIP3    H224427   5.984   6.492   0.056
 8162TIP3   OH224428   1.359   2.542   6.359
 8162TIP3    H124429   1.292   2.475   6.345
 8162TIP3    H224430   1.418   2.503   6.423
 8163TIP3   OH224431   1.002   1.212   4.861
 8163TIP3    H124432   1.004   1.167   4.776
 8163TIP3    H224433   1.076   1.175   4.909
 8164TIP3   OH224434   3.574   6.698   0.772
 8164TIP3    H124435   3.478   6.703   0.771
 8164TIP3    H224436   3.602   6.779   0.731
 8165TIP3   OH224437   3.098   0.180   2.206
 8165TIP3    H124438   3.125   0.260   2.252
 8165TIP3    H224439   3.010   0.200   2.174
 8166TIP3   OH224440   1.559   4.135   5.245
 8166TIP3    H124441   1.544   4.193   5.320
 8166TIP3    H224442   1.584   4.051   5.283
 8167TIP3   OH224443   1.941   1.882   5.296
 8167TIP3    H124444   1.991   1.952   5.339
 8167TIP3    H224445   2.003   1.841   5.237
 8168TIP3   OH224446   5.222   3.034   6.773
 8168TIP3    H124447   5.184   3.008   6.689
 8168TIP3    H224448   5.317   3.030   6.758
 8169TIP3   OH224449   1.702   4.103   2.779
 8169TIP3    H124450   1.660   4.076   2.860
 8169TIP3    H224451   1.675   4.194   2.767
 8170TIP3   OH224452   8.242   3.199   6.318
 8170TIP3    H124453   8.303   3.126   6.304
 8170TIP3    H224454   8.292   3.277   6.295
 8171TIP3   OH224455   3.489   3.061   4.278
 8171TIP3    H124456   3.561   3.109   4.319
 8171TIP3    H224457   3.532   2.997   4.221
 8172TIP3   OH224458   2.093   7.331   6.347
 8172TIP3    H124459   2.170   7.277   6.364
 8172TIP3    H224460   2.102   7.406   6.405
 8173TIP3   OH224461   8.286   6.631   5.970
 8173TIP3    H124462   8.315   6.641   5.879
 8173TIP3    H224463   8.257   6.718   5.995
 8174TIP3   OH224464   6.720   3.346   4.858
 8174TIP3    H124465   6.645   3.364   4.915
 8174TIP3    H224466   6.691   3.275   4.802
 8175TIP3   OH224467   6.290   2.489   5.225
 8175TIP3    H124468   6.261   2.483   5.134
 8175TIP3    H224469   6.272   2.403   5.262
 8176TIP3   OH224470   4.445   6.690   1.434
 8176TIP3    H124471   4.468   6.754   1.502
 8176TIP3    H224472   4.526   6.642   1.419
 8177TIP3   OH224473   4.270   3.577   6.436
 8177TIP3    H124474   4.264   3.482   6.426
 8177TIP3    H224475   4.244   3.612   6.350
 8178TIP3   OH224476   1.040   0.223   5.120
 8178TIP3    H124477   0.999   0.161   5.060
 8178TIP3    H224478   1.092   0.168   5.178
 8179TIP3   OH224479   1.871   6.943   4.601
 8179TIP3    H124480   1.831   6.859   4.621
 8179TIP3    H224481   1.819   6.978   4.529
 8180TIP3   OH224482   8.225   3.978   5.189
 8180TIP3    H124483   8.188   4.001   5.104
 8180TIP3    H224484   8.156   3.998   5.252
 8181TIP3   OH224485   3.423   5.791   2.609
 8181TIP3    H124486   3.490   5.817   2.673
 8181TIP3    H224487   3.368   5.729   2.656
 8182TIP3   OH224488   2.692   2.472   1.457
 8182TIP3    H124489   2.691   2.458   1.362
 8182TIP3    H224490   2.601   2.463   1.484
 8183TIP3   OH224491   7.136   4.015   4.592
 8183TIP3    H124492   7.165   4.003   4.682
 8183TIP3    H224493   7.176   3.942   4.544
 8184TIP3   OH224494   5.646   6.941   3.229
 8184TIP3    H124495   5.645   6.875   3.299
 8184TIP3    H224496   5.721   6.996   3.249
 8185TIP3   OH224497   5.799   3.997   4.639
 8185TIP3    H124498   5.811   4.059   4.567
 8185TIP3    H224499   5.816   3.911   4.599
 8186TIP3   OH224500   6.936   4.622   3.055
 8186TIP3    H124501   6.893   4.555   3.001
 8186TIP3    H224502   6.873   4.642   3.124
 8187TIP3   OH224503   6.482   1.871   2.210
 8187TIP3    H124504   6.424   1.795   2.223
 8187TIP3    H224505   6.457   1.932   2.280
 8188TIP3   OH224506   1.234   1.841   1.713
 8188TIP3    H124507   1.243   1.926   1.757
 8188TIP3    H224508   1.305   1.840   1.648
 8189TIP3   OH224509   5.028   3.770   1.935
 8189TIP3    H124510   5.107   3.823   1.921
 8189TIP3    H224511   4.963   3.832   1.968
 8190TIP3   OH224512   4.494   5.755   5.060
 8190TIP3    H124513   4.512   5.678   5.007
 8190TIP3    H224514   4.403   5.778   5.038
 8191TIP3   OH224515   0.205   4.314   4.938
 8191TIP3    H124516   0.219   4.360   5.020
 8191TIP3    H224517   0.256   4.363   4.873
 8192TIP3   OH224518   5.668   5.929   6.636
 8192TIP3    H124519   5.682   5.945   6.730
 8192TIP3    H224520   5.659   6.016   6.598
 8193TIP3   OH224521   6.522   1.612   0.518
 8193TIP3    H124522   6.449   1.651   0.471
 8193TIP3    H224523   6.525   1.660   0.601
 8194TIP3   OH224524   2.708   2.160   0.317
 8194TIP3    H124525   2.755   2.231   0.361
 8194TIP3    H224526   2.631   2.145   0.372
 8195TIP3   OH224527   4.463   4.208   2.831
 8195TIP3    H124528   4.468   4.128   2.779
 8195TIP3    H224529   4.371   4.235   2.825
 8196TIP3   OH224530   1.945   1.043   2.636
 8196TIP3    H124531   1.882   1.021   2.705
 8196TIP3    H224532   2.029   1.046   2.681
 8197TIP3   OH224533   3.728   3.059   2.978
 8197TIP3    H124534   3.698   3.137   3.026
 8197TIP3    H224535   3.813   3.039   3.018
 8198TIP3   OH224536   2.372   5.611   2.308
 8198TIP3    H124537   2.357   5.621   2.402
 8198TIP3    H224538   2.437   5.677   2.287
 8199TIP3   OH224539   5.941   1.657   0.225
 8199TIP3    H124540   5.885   1.732   0.247
 8199TIP3    H224541   5.962   1.618   0.310
 8200TIP3   OH224542   4.165   5.294   2.534
 8200TIP3    H124543   4.210   5.251   2.461
 8200TIP3    H224544   4.189   5.386   2.527
 8201TIP3   OH224545   1.263   6.606   3.122
 8201TIP3    H124546   1.289   6.590   3.213
 8201TIP3    H224547   1.174   6.639   3.128
 8202TIP3   OH224548   7.866   3.287   5.183
 8202TIP3    H124549   7.917   3.283   5.102
 8202TIP3    H224550   7.848   3.196   5.205
 8203TIP3   OH224551   1.666   6.538   1.851
 8203TIP3    H124552   1.683   6.539   1.945
 8203TIP3    H224553   1.630   6.625   1.833
 8204TIP3   OH224554   5.964   2.252   4.160
 8204TIP3    H124555   5.986   2.336   4.202
 8204TIP3    H224556   5.893   2.217   4.214
 8205TIP3   OH224557   0.596   0.464   2.884
 8205TIP3    H124558   0.550   0.474   2.800
 8205TIP3    H224559   0.663   0.533   2.883
 8206TIP3   OH224560   5.642   7.128   1.848
 8206TIP3    H124561   5.611   7.042   1.875
 8206TIP3    H224562   5.676   7.168   1.929
 8207TIP3   OH224563   4.934   4.880   1.892
 8207TIP3    H124564   5.018   4.885   1.937
 8207TIP3    H224565   4.884   4.814   1.941
 8208TIP3   OH224566   3.401   4.783   4.795
 8208TIP3    H124567   3.434   4.716   4.854
 8208TIP3    H224568   3.472   4.798   4.733
 8209TIP3   OH224569   2.651   0.619   5.809
 8209TIP3    H124570   2.578   0.557   5.814
 8209TIP3    H224571   2.725   0.567   5.780
 8210TIP3   OH224572   6.367   1.995   3.946
 8210TIP3    H124573   6.288   2.003   3.999
 8210TIP3    H224574   6.364   2.072   3.888
 8211TIP3   OH224575   5.088   2.261   2.327
 8211TIP3    H124576   5.073   2.184   2.382
 8211TIP3    H224577   5.157   2.235   2.266
 8212TIP3   OH224578   3.647   5.382   3.339
 8212TIP3    H124579   3.566   5.332   3.338
 8212TIP3    H224580   3.693   5.352   3.418
 8213TIP3   OH224581   6.420   0.379   2.238
 8213TIP3    H124582   6.443   0.288   2.257
 8213TIP3    H224583   6.458   0.430   2.309
 8214TIP3   OH224584   4.230   3.187   4.673
 8214TIP3    H124585   4.232   3.092   4.661
 8214TIP3    H224586   4.322   3.212   4.679
 8215TIP3   OH224587   6.796   1.857   2.527
 8215TIP3    H124588   6.861   1.830   2.592
 8215TIP3    H224589   6.731   1.905   2.577
 8216TIP3   OH224590   1.490   0.221   2.769
 8216TIP3    H124591   1.480   0.227   2.864
 8216TIP3    H224592   1.561   0.158   2.756
 8217TIP3   OH224593   6.821   6.188   1.856
 8217TIP3    H124594   6.747   6.192   1.916
 8217TIP3    H224595   6.790   6.229   1.775
 8218TIP3   OH224596   2.525   1.061   3.607
 8218TIP3    H124597   2.594   1.104   3.557
 8218TIP3    H224598   2.447   1.068   3.552
 8219TIP3   OH224599   0.357   7.635   6.496
 8219TIP3    H124600   0.274   7.657   6.453
 8219TIP3    H224601   0.396   7.719   6.518
 8220TIP3   OH224602   4.019   5.285   6.254
 8220TIP3    H124603   4.088   5.219   6.256
 8220TIP3    H224604   4.017   5.322   6.342
 8221TIP3   OH224605   7.872   4.155   2.663
 8221TIP3    H124606   7.790   4.132   2.619
 8221TIP3    H224607   7.915   4.071   2.679
 8222TIP3   OH224608   0.637   2.389   3.958
 8222TIP3    H124609   0.589   2.308   3.970
 8222TIP3    H224610   0.706   2.367   3.895
 8223TIP3   OH224611   7.625   6.815   5.551
 8223TIP3    H124612   7.719   6.799   5.562
 8223TIP3    H224613   7.603   6.771   5.469
 8224TIP3   OH224614   7.659   3.006   4.233
 8224TIP3    H124615   7.718   3.060   4.180
 8224TIP3    H224616   7.618   3.068   4.293
 8225TIP3   OH224617   3.510   7.377   2.188
 8225TIP3    H124618   3.511   7.314   2.261
 8225TIP3    H224619   3.558   7.334   2.118
 8226TIP3   OH224620   3.168   5.698   6.595
 8226TIP3    H124621   3.231   5.626   6.605
 8226TIP3    H224622   3.093   5.657   6.552
 8227TIP3   OH224623   2.397   3.128   2.135
 8227TIP3    H124624   2.416   3.111   2.043
 8227TIP3    H224625   2.347   3.210   2.134
 8228TIP3   OH224626   2.687   1.351   0.077
 8228TIP3    H124627   2.699   1.365   0.171
 8228TIP3    H224628   2.593   1.356   0.063
 8229TIP3   OH224629   1.957   1.763   0.709
 8229TIP3    H124630   1.899   1.838   0.695
 8229TIP3    H224631   2.038   1.802   0.741
 8230TIP3   OH224632   4.234   4.629   2.487
 8230TIP3    H124633   4.306   4.579   2.525
 8230TIP3    H224634   4.188   4.566   2.432
 8231TIP3   OH224635   6.853   4.189   0.096
 8231TIP3    H124636   6.838   4.228   0.182
 8231TIP3    H224637   6.820   4.254   0.034
 8232TIP3   OH224638   4.850   3.745   6.081
 8232TIP3    H124639   4.886   3.834   6.079
 8232TIP3    H224640   4.759   3.755   6.054
 8233TIP3   OH224641   3.178   5.161   6.740
 8233TIP3    H124642   3.207   5.114   6.817
 8233TIP3    H224643   3.096   5.117   6.715
 8234TIP3   OH224644   2.112   4.181   5.355
 8234TIP3    H124645   2.033   4.222   5.322
 8234TIP3    H224646   2.179   4.249   5.350
 8235TIP3   OH224647   4.588   5.647   1.660
 8235TIP3    H124648   4.558   5.684   1.577
 8235TIP3    H224649   4.536   5.568   1.671
 8236TIP3   OH224650   4.573   2.781   6.622
 8236TIP3    H124651   4.644   2.754   6.680
 8236TIP3    H224652   4.563   2.708   6.561
 8237TIP3   OH224653   6.971   5.272   4.885
 8237TIP3    H124654   7.024   5.299   4.960
 8237TIP3    H224655   6.881   5.295   4.910
 8238TIP3   OH224656   5.434   5.694   5.045
 8238TIP3    H124657   5.357   5.740   5.012
 8238TIP3    H224658   5.445   5.727   5.134
 8239TIP3   OH224659   3.162   0.179   5.243
 8239TIP3    H124660   3.225   0.133   5.188
 8239TIP3    H224661   3.082   0.127   5.238
 8240TIP3   OH224662   4.213   5.949   0.788
 8240TIP3    H124663   4.186   6.039   0.801
 8240TIP3    H224664   4.179   5.902   0.864
 8241TIP3   OH224665   1.204   1.757   1.199
 8241TIP3    H124666   1.132   1.777   1.259
 8241TIP3    H224667   1.266   1.707   1.253
 8242TIP3   OH224668   3.735   7.780   0.283
 8242TIP3    H124669   3.752   7.709   0.345
 8242TIP3    H224670   3.674   7.742   0.219
 8243TIP3   OH224671   6.790   6.007   5.693
 8243TIP3    H124672   6.749   5.959   5.766
 8243TIP3    H224673   6.789   5.945   5.620
 8244TIP3   OH224674   6.204   2.367   4.681
 8244TIP3    H124675   6.199   2.423   4.603
 8244TIP3    H224676   6.218   2.279   4.646
 8245TIP3   OH224677   4.739   0.925   4.340
 8245TIP3    H124678   4.692   1.008   4.353
 8245TIP3    H224679   4.831   0.947   4.352
 8246TIP3   OH224680   5.131   1.556   1.653
 8246TIP3    H124681   5.100   1.628   1.707
 8246TIP3    H224682   5.053   1.503   1.636
 8247TIP3   OH224683   2.846   1.270   1.092
 8247TIP3    H124684   2.833   1.347   1.148
 8247TIP3    H224685   2.799   1.200   1.136
 8248TIP3   OH224686   1.355   5.018   5.282
 8248TIP3    H124687   1.317   5.058   5.204
 8248TIP3    H224688   1.393   4.935   5.251
 8249TIP3   OH224689   3.881   6.738   3.917
 8249TIP3    H124690   3.881   6.642   3.913
 8249TIP3    H224691   3.796   6.763   3.879
 8250TIP3   OH224692   7.843   7.319   0.855
 8250TIP3    H124693   7.766   7.297   0.909
 8250TIP3    H224694   7.835   7.412   0.838
 8251TIP3   OH224695   4.708   2.418   2.312
 8251TIP3    H124696   4.675   2.338   2.270
 8251TIP3    H224697   4.774   2.386   2.374
 8252TIP3   OH224698   7.340   0.778   3.554
 8252TIP3    H124699   7.313   0.783   3.646
 8252TIP3    H224700   7.323   0.865   3.519
 8253TIP3   OH224701   1.237   3.686   4.682
 8253TIP3    H124702   1.291   3.627   4.734
 8253TIP3    H224703   1.153   3.690   4.729
 8254TIP3   OH224704   7.382   5.246   6.272
 8254TIP3    H124705   7.468   5.232   6.231
 8254TIP3    H224706   7.402   5.288   6.356
 8255TIP3   OH224707   4.412   6.308   6.140
 8255TIP3    H124708   4.424   6.370   6.068
 8255TIP3    H224709   4.425   6.360   6.219
 8256TIP3   OH224710   6.502   1.990   0.620
 8256TIP3    H124711   6.465   1.904   0.640
 8256TIP3    H224712   6.555   2.012   0.697
 8257TIP3   OH224713   7.358   2.832   2.954
 8257TIP3    H124714   7.305   2.765   2.913
 8257TIP3    H224715   7.342   2.911   2.902
 8258TIP3   OH224716   7.632   7.042   4.384
 8258TIP3    H124717   7.548   7.083   4.406
 8258TIP3    H224718   7.660   7.086   4.304
 8259TIP3   OH224719   7.117   4.151   0.013
 8259TIP3    H124720   7.111   4.064  -0.025
 8259TIP3    H224721   7.027   4.173   0.036
 8260TIP3   OH224722   1.221   6.796   4.829
 8260TIP3    H124723   1.165   6.747   4.889
 8260TIP3    H224724   1.185   6.885   4.830
 8261TIP3   OH224725   4.973   5.230   4.122
 8261TIP3    H124726   4.987   5.181   4.203
 8261TIP3    H224727   4.998   5.320   4.142
 8262TIP3   OH224728   6.488   2.281   1.857
 8262TIP3    H124729   6.464   2.215   1.922
 8262TIP3    H224730   6.486   2.235   1.774
 8263TIP3   OH224731   1.751   5.866   0.036
 8263TIP3    H124732   1.799   5.787   0.014
 8263TIP3    H224733   1.761   5.874   0.131
 8264TIP3   OH224734   0.683   3.199   0.323
 8264TIP3    H124735   0.711   3.147   0.248
 8264TIP3    H224736   0.683   3.289   0.290
 8265TIP3   OH224737   0.520   5.223   2.875
 8265TIP3    H124738   0.431   5.191   2.890
 8265TIP3    H224739   0.521   5.310   2.916
 8266TIP3   OH224740   5.743   1.431   5.009
 8266TIP3    H124741   5.765   1.379   4.932
 8266TIP3    H224742   5.766   1.520   4.986
 8267TIP3   OH224743   1.185   7.583   1.686
 8267TIP3    H124744   1.211   7.620   1.771
 8267TIP3    H224745   1.109   7.528   1.706
 8268TIP3   OH224746   8.276   7.087   6.182
 8268TIP3    H124747   8.219   7.163   6.171
 8268TIP3    H224748   8.309   7.094   6.272
 8269TIP3   OH224749   0.168   0.656   6.335
 8269TIP3    H124750   0.171   0.670   6.429
 8269TIP3    H224751   0.184   0.742   6.297
 8270TIP3   OH224752   0.105   3.037   0.308
 8270TIP3    H124753   0.093   3.069   0.219
 8270TIP3    H224754   0.187   3.076   0.338
 8271TIP3   OH224755   6.555   3.382   1.851
 8271TIP3    H124756   6.475   3.416   1.811
 8271TIP3    H224757   6.526   3.304   1.900
 8272TIP3   OH224758   4.006   0.453   6.697
 8272TIP3    H124759   4.035   0.488   6.613
 8272TIP3    H224760   3.943   0.518   6.730
 8273TIP3   OH224761   0.160   6.152   0.249
 8273TIP3    H124762   0.237   6.168   0.303
 8273TIP3    H224763   0.192   6.102   0.174
 8274TIP3   OH224764   6.156   1.195   3.441
 8274TIP3    H124765   6.177   1.194   3.347
 8274TIP3    H224766   6.183   1.282   3.471
 8275TIP3   OH224767   2.158   3.513   3.280
 8275TIP3    H124768   2.184   3.432   3.236
 8275TIP3    H224769   2.215   3.518   3.357
 8276TIP3   OH224770   2.506   6.841   5.193
 8276TIP3    H124771   2.467   6.816   5.277
 8276TIP3    H224772   2.448   6.803   5.127
 8277TIP3   OH224773   4.632   0.240   0.241
 8277TIP3    H124774   4.675   0.178   0.182
 8277TIP3    H224775   4.543   0.206   0.250
 8278TIP3   OH224776   2.939   5.386   3.227
 8278TIP3    H124777   2.952   5.310   3.283
 8278TIP3    H224778   3.006   5.448   3.256
 8279TIP3   OH224779   3.847   5.204   5.575
 8279TIP3    H124780   3.814   5.272   5.517
 8279TIP3    H224781   3.883   5.251   5.650
 8280TIP3   OH224782   7.943   2.848   2.723
 8280TIP3    H124783   7.917   2.937   2.700
 8280TIP3    H224784   8.039   2.851   2.726
 8281TIP3   OH224785   0.898   5.069   2.670
 8281TIP3    H124786   0.857   5.137   2.617
 8281TIP3    H224787   0.831   5.044   2.734
 8282TIP3   OH224788   3.710   2.244   6.729
 8282TIP3    H124789   3.786   2.189   6.751
 8282TIP3    H224790   3.746   2.333   6.724
 8283TIP3   OH224791   2.610   4.423   1.238
 8283TIP3    H124792   2.541   4.436   1.303
 8283TIP3    H224793   2.602   4.498   1.179
 8284TIP3   OH224794   6.582   6.035   1.552
 8284TIP3    H124795   6.494   6.030   1.590
 8284TIP3    H224796   6.612   6.123   1.576
 8285TIP3   OH224797   4.938   0.331   3.305
 8285TIP3    H124798   5.009   0.274   3.275
 8285TIP3    H224799   4.975   0.379   3.378
 8286TIP3   OH224800   3.657   2.800   2.742
 8286TIP3    H124801   3.692   2.836   2.824
 8286TIP3    H224802   3.735   2.775   2.692
 8287TIP3   OH224803   7.144   7.532   4.776
 8287TIP3    H124804   7.112   7.489   4.697
 8287TIP3    H224805   7.108   7.620   4.773
 8288TIP3   OH224806   0.559   2.867   2.767
 8288TIP3    H124807   0.577   2.807   2.696
 8288TIP3    H224808   0.571   2.954   2.729
 8289TIP3   OH224809   0.924   0.649   6.107
 8289TIP3    H124810   0.891   0.647   6.197
 8289TIP3    H224811   0.963   0.563   6.093
 8290TIP3   OH224812   0.336   3.432   2.912
 8290TIP3    H124813   0.259   3.483   2.935
 8290TIP3    H224814   0.392   3.436   2.990
 8291TIP3   OH224815   1.581   6.827   3.112
 8291TIP3    H124816   1.629   6.873   3.043
 8291TIP3    H224817   1.559   6.742   3.073
 8292TIP3   OH224818   2.238   0.238   3.671
 8292TIP3    H124819   2.160   0.211   3.720
 8292TIP3    H224820   2.229   0.333   3.663
 8293TIP3   OH224821   3.812   6.655   4.838
 8293TIP3    H124822   3.826   6.673   4.930
 8293TIP3    H224823   3.717   6.647   4.828
 8294TIP3   OH224824   8.234   4.730   1.180
 8294TIP3    H124825   8.156   4.680   1.205
 8294TIP3    H224826   8.300   4.663   1.161
 8295TIP3   OH224827   0.913   5.802   0.696
 8295TIP3    H124828   0.954   5.717   0.681
 8295TIP3    H224829   0.986   5.864   0.701
 8296TIP3   OH224830   0.061   1.869   4.602
 8296TIP3    H124831   0.011   1.945   4.570
 8296TIP3    H224832   0.088   1.894   4.690
 8297TIP3   OH224833   1.428   7.540   4.076
 8297TIP3    H124834   1.355   7.600   4.064
 8297TIP3    H224835   1.505   7.590   4.048
 8298TIP3   OH224836   4.531   2.973   4.694
 8298TIP3    H124837   4.449   2.930   4.719
 8298TIP3    H224838   4.548   2.943   4.604
 8299TIP3   OH224839   7.030   7.171   3.715
 8299TIP3    H124840   7.098   7.117   3.675
 8299TIP3    H224841   7.073   7.213   3.789
 8300TIP3   OH224842   1.290   5.265   6.196
 8300TIP3    H124843   1.372   5.310   6.218
 8300TIP3    H224844   1.291   5.186   6.250
 8301TIP3   OH224845   0.985   4.287   5.926
 8301TIP3    H124846   1.020   4.228   5.993
 8301TIP3    H224847   0.975   4.371   5.971
 8302TIP3   OH224848   5.996   4.876   4.156
 8302TIP3    H124849   6.015   4.950   4.097
 8302TIP3    H224850   6.081   4.852   4.191
 8303TIP3   OH224851   1.236   0.345   1.583
 8303TIP3    H124852   1.254   0.424   1.533
 8303TIP3    H224853   1.323   0.308   1.602
 8304TIP3   OH224854   7.025   5.725   4.031
 8304TIP3    H124855   6.930   5.720   4.044
 8304TIP3    H224856   7.044   5.819   4.038
 8305TIP3   OH224857   2.441   7.628   5.769
 8305TIP3    H124858   2.358   7.660   5.733
 8305TIP3    H224859   2.450   7.673   5.853
 8306TIP3   OH224860   4.350   7.206   6.678
 8306TIP3    H124861   4.318   7.201   6.588
 8306TIP3    H224862   4.271   7.208   6.732
 8307TIP3   OH224863   3.121   5.338   1.756
 8307TIP3    H124864   3.069   5.387   1.692
 8307TIP3    H224865   3.147   5.258   1.711
 8308TIP3   OH224866   5.353   4.537   1.461
 8308TIP3    H124867   5.309   4.501   1.384
 8308TIP3    H224868   5.445   4.545   1.435
 8309TIP3   OH224869   4.814   4.002   0.663
 8309TIP3    H124870   4.732   4.037   0.697
 8309TIP3    H224871   4.855   4.076   0.619
 8310TIP3   OH224872   0.618   0.753   6.574
 8310TIP3    H124873   0.697   0.780   6.621
 8310TIP3    H224874   0.583   0.835   6.538
 8311TIP3   OH224875   2.998   2.642   2.250
 8311TIP3    H124876   2.918   2.693   2.264
 8311TIP3    H224877   2.973   2.575   2.187
 8312TIP3   OH224878   7.078   1.428   6.691
 8312TIP3    H124879   7.154   1.406   6.638
 8312TIP3    H224880   7.073   1.523   6.688
 8313TIP3   OH224881   1.461   5.914   5.930
 8313TIP3    H124882   1.450   5.877   5.842
 8313TIP3    H224883   1.434   5.845   5.990
 8314TIP3   OH224884   2.380   4.976   3.130
 8314TIP3    H124885   2.397   5.002   3.221
 8314TIP3    H224886   2.353   5.057   3.087
 8315TIP3   OH224887   6.474   6.011   1.221
 8315TIP3    H124888   6.540   6.017   1.152
 8315TIP3    H224889   6.522   6.026   1.302
 8316TIP3   OH224890   4.646   1.332   4.890
 8316TIP3    H124891   4.559   1.366   4.867
 8316TIP3    H224892   4.706   1.385   4.837
 8317TIP3   OH224893   0.761   3.797   0.260
 8317TIP3    H124894   0.716   3.736   0.319
 8317TIP3    H224895   0.727   3.883   0.284
 8318TIP3   OH224896   5.499   1.617   2.372
 8318TIP3    H124897   5.531   1.565   2.445
 8318TIP3    H224898   5.425   1.666   2.408
 8319TIP3   OH224899   6.963   5.495   1.536
 8319TIP3    H124900   6.910   5.490   1.457
 8319TIP3    H224901   6.982   5.588   1.546
 8320TIP3   OH224902   2.613   7.459   2.633
 8320TIP3    H124903   2.637   7.426   2.720
 8320TIP3    H224904   2.520   7.439   2.624
 8321TIP3   OH224905   6.464   3.843   2.300
 8321TIP3    H124906   6.430   3.903   2.367
 8321TIP3    H224907   6.544   3.886   2.269
 8322TIP3   OH224908   0.377   5.449   1.369
 8322TIP3    H124909   0.281   5.448   1.358
 8322TIP3    H224910   0.405   5.530   1.327
 8323TIP3   OH224911   2.355   4.799   2.414
 8323TIP3    H124912   2.351   4.820   2.507
 8323TIP3    H224913   2.278   4.842   2.376
 8324TIP3   OH224914   6.428   2.796   6.310
 8324TIP3    H124915   6.432   2.890   6.290
 8324TIP3    H224916   6.504   2.780   6.365
 8325TIP3   OH224917   0.327   5.676   6.018
 8325TIP3    H124918   0.284   5.713   6.095
 8325TIP3    H224919   0.358   5.590   6.047
 8326TIP3   OH224920   6.113   6.618   3.777
 8326TIP3    H124921   6.115   6.708   3.810
 8326TIP3    H224922   6.030   6.611   3.731
 8327TIP3   OH224923   5.185   4.775   3.851
 8327TIP3    H124924   5.133   4.800   3.927
 8327TIP3    H224925   5.223   4.857   3.820
 8328TIP3   OH224926   6.997   1.407   0.480
 8328TIP3    H124927   6.976   1.496   0.508
 8328TIP3    H224928   7.052   1.372   0.549
 8329TIP3   OH224929   0.890   4.151   2.404
 8329TIP3    H124930   0.878   4.201   2.323
 8329TIP3    H224931   0.978   4.113   2.395
 8330TIP3   OH224932   0.045   3.357   0.033
 8330TIP3    H124933   0.079   3.347  -0.056
 8330TIP3    H224934   0.034   3.267   0.064
 8331TIP3   OH224935   6.830   7.489   2.505
 8331TIP3    H124936   6.789   7.490   2.418
 8331TIP3    H224937   6.912   7.441   2.493
 8332TIP3   OH224938   0.112   4.141   2.069
 8332TIP3    H124939   0.172   4.179   2.005
 8332TIP3    H224940   0.137   4.049   2.074
 8333TIP3   OH224941   3.619   0.626   0.364
 8333TIP3    H124942   3.687   0.644   0.429
 8333TIP3    H224943   3.544   0.596   0.415
 8334TIP3   OH224944   3.366   2.897   2.965
 8334TIP3    H124945   3.370   2.907   3.060
 8334TIP3    H224946   3.334   2.982   2.934
 8335TIP3   OH224947   4.921   5.796   4.706
 8335TIP3    H124948   4.868   5.748   4.769
 8335TIP3    H224949   4.954   5.729   4.646
 8336TIP3   OH224950   6.725   4.133   3.721
 8336TIP3    H124951   6.720   4.225   3.744
 8336TIP3    H224952   6.797   4.127   3.658
 8337TIP3   OH224953   0.465   4.950   0.538
 8337TIP3    H124954   0.528   4.880   0.524
 8337TIP3    H224955   0.516   5.031   0.526
 8338TIP3   OH224956   7.244   4.064   0.982
 8338TIP3    H124957   7.311   4.025   1.038
 8338TIP3    H224958   7.161   4.031   1.017
 8339TIP3   OH224959   0.361   1.877   1.026
 8339TIP3    H124960   0.365   1.790   0.987
 8339TIP3    H224961   0.420   1.930   0.971
 8340TIP3   OH224962   4.585   7.738   1.127
 8340TIP3    H124963   4.542   7.821   1.109
 8340TIP3    H224964   4.639   7.722   1.049
 8341TIP3   OH224965   0.334   0.378   1.821
 8341TIP3    H124966   0.324   0.441   1.892
 8341TIP3    H224967   0.410   0.325   1.846
 8342TIP3   OH224968   8.182   2.316   0.528
 8342TIP3    H124969   8.088   2.335   0.536
 8342TIP3    H224970   8.206   2.279   0.613
 8343TIP3   OH224971   2.120   4.005   6.298
 8343TIP3    H124972   2.125   4.084   6.243
 8343TIP3    H224973   2.041   4.018   6.350
 8344TIP3   OH224974   5.327   3.259   5.565
 8344TIP3    H124975   5.306   3.285   5.476
 8344TIP3    H224976   5.275   3.179   5.580
 8345TIP3   OH224977   8.281   0.461   2.115
 8345TIP3    H124978   8.298   0.384   2.169
 8345TIP3    H224979   8.220   0.513   2.166
 8346TIP3   OH224980   7.521   2.802   1.949
 8346TIP3    H124981   7.469   2.850   1.885
 8346TIP3    H224982   7.463   2.793   2.024
 8347TIP3   OH224983   6.084   5.881   5.621
 8347TIP3    H124984   6.008   5.870   5.564
 8347TIP3    H224985   6.048   5.915   5.703
 8348TIP3   OH224986   5.313   5.015   4.571
 8348TIP3    H124987   5.390   5.032   4.517
 8348TIP3    H224988   5.279   4.931   4.539
 8349TIP3   OH224989   7.677   6.079   3.411
 8349TIP3    H124990   7.671   5.988   3.442
 8349TIP3    H224991   7.756   6.080   3.358
 8350TIP3   OH224992   1.617   3.335   6.066
 8350TIP3    H124993   1.641   3.379   5.985
 8350TIP3    H224994   1.537   3.379   6.095
 8351TIP3   OH224995   3.646   6.965   6.557
 8351TIP3    H124996   3.557   6.967   6.522
 8351TIP3    H224997   3.680   6.880   6.530
 8352TIP3   OH224998   4.483   4.746   1.727
 8352TIP3    H124999   4.503   4.654   1.712
 8352TIP3    H225000   4.469   4.782   1.640
 8353TIP3   OH225001   7.418   4.408   5.564
 8353TIP3    H125002   7.374   4.347   5.623
 8353TIP3    H225003   7.442   4.354   5.488
 8354TIP3   OH225004   4.437   2.492   2.525
 8354TIP3    H125005   4.444   2.451   2.438
 8354TIP3    H225006   4.518   2.467   2.570
 8355TIP3   OH225007   6.288   4.617   3.693
 8355TIP3    H125008   6.345   4.549   3.727
 8355TIP3    H225009   6.225   4.571   3.638
 8356TIP3   OH225010   2.137   7.711   3.216
 8356TIP3    H125011   2.177   7.654   3.282
 8356TIP3    H225012   2.108   7.788   3.265
 8357TIP3   OH225013   2.519   4.471   5.489
 8357TIP3    H125014   2.528   4.395   5.432
 8357TIP3    H225015   2.486   4.435   5.571
 8358TIP3   OH225016   3.858   5.128   3.209
 8358TIP3    H125017   3.865   5.221   3.187
 8358TIP3    H225018   3.764   5.110   3.212
 8359TIP3   OH225019   1.062   1.513   2.432
 8359TIP3    H125020   1.056   1.556   2.347
 8359TIP3    H225021   1.139   1.552   2.474
 8360TIP3   OH225022   5.488   3.700   5.294
 8360TIP3    H125023   5.527   3.786   5.312
 8360TIP3    H225024   5.548   3.660   5.231
 8361TIP3   OH225025   3.290   3.922   4.150
 8361TIP3    H125026   3.262   3.863   4.220
 8361TIP3    H225027   3.364   3.878   4.110
 8362TIP3   OH225028   0.359   6.238   4.473
 8362TIP3    H125029   0.435   6.290   4.447
 8362TIP3    H225030   0.284   6.288   4.441
 8363TIP3   OH225031   8.183   5.007   2.850
 8363TIP3    H125032   8.269   4.972   2.871
 8363TIP3    H225033   8.138   4.935   2.804
 8364TIP3   OH225034   6.021   4.588   5.841
 8364TIP3    H125035   6.116   4.577   5.831
 8364TIP3    H225036   6.003   4.560   5.931
 8365TIP3   OH225037   6.500   3.544   3.889
 8365TIP3    H125038   6.562   3.615   3.901
 8365TIP3    H225039   6.501   3.496   3.972
 8366TIP3   OH225040   6.377   1.836   4.501
 8366TIP3    H125041   6.432   1.811   4.427
 8366TIP3    H225042   6.395   1.770   4.568
 8367TIP3   OH225043   1.906   6.225   2.214
 8367TIP3    H125044   1.862   6.310   2.214
 8367TIP3    H225045   1.857   6.173   2.278
 8368TIP3   OH225046   7.887   2.068   0.829
 8368TIP3    H125047   7.797   2.092   0.851
 8368TIP3    H225048   7.938   2.095   0.905
 8369TIP3   OH225049   5.590   7.135   6.049
 8369TIP3    H125050   5.511   7.176   6.015
 8369TIP3    H225051   5.583   7.145   6.144
 8370TIP3   OH225052   0.925   4.613   3.680
 8370TIP3    H125053   0.861   4.554   3.639
 8370TIP3    H225054   1.000   4.557   3.701
 8371TIP3   OH225055   5.484   2.242   4.299
 8371TIP3    H125056   5.399   2.280   4.281
 8371TIP3    H225057   5.519   2.218   4.213
 8372TIP3   OH225058   6.725   7.063   6.365
 8372TIP3    H125059   6.772   6.986   6.333
 8372TIP3    H225060   6.687   7.102   6.286
 8373TIP3   OH225061   3.593   2.427   6.331
 8373TIP3    H125062   3.557   2.473   6.407
 8373TIP3    H225063   3.648   2.358   6.368
 8374TIP3   OH225064   5.887   1.179   4.190
 8374TIP3    H125065   5.843   1.189   4.106
 8374TIP3    H225066   5.848   1.247   4.246
 8375TIP3   OH225067   3.609   0.941   3.701
 8375TIP3    H125068   3.701   0.963   3.689
 8375TIP3    H225069   3.563   0.989   3.632
 8376TIP3   OH225070   5.934   3.133   0.993
 8376TIP3    H125071   5.914   3.056   0.940
 8376TIP3    H225072   5.977   3.097   1.071
 8377TIP3   OH225073   7.578   1.132   5.900
 8377TIP3    H125074   7.640   1.205   5.902
 8377TIP3    H225075   7.627   1.061   5.858
 8378TIP3   OH225076   2.099   1.578   1.842
 8378TIP3    H125077   2.030   1.518   1.870
 8378TIP3    H225078   2.058   1.665   1.846
 8379TIP3   OH225079   6.046   0.050   1.702
 8379TIP3    H125080   5.994   0.066   1.781
 8379TIP3    H225081   6.044   0.134   1.655
 8380TIP3   OH225082   5.471   6.633   5.711
 8380TIP3    H125083   5.518   6.711   5.737
 8380TIP3    H225084   5.400   6.665   5.654
 8381TIP3   OH225085   2.391   4.668   5.346
 8381TIP3    H125086   2.442   4.597   5.384
 8381TIP3    H225087   2.313   4.674   5.400
 8382TIP3   OH225088   1.151   3.400   4.142
 8382TIP3    H125089   1.188   3.459   4.208
 8382TIP3    H225090   1.131   3.320   4.190
 8383TIP3   OH225091   0.993   2.281   5.540
 8383TIP3    H125092   1.021   2.190   5.539
 8383TIP3    H225093   1.040   2.321   5.467
 8384TIP3   OH225094   7.282   1.356   3.157
 8384TIP3    H125095   7.355   1.342   3.217
 8384TIP3    H225096   7.277   1.451   3.147
 8385TIP3   OH225097   5.621   4.333   2.054
 8385TIP3    H125098   5.671   4.352   2.133
 8385TIP3    H225099   5.631   4.411   2.000
 8386TIP3   OH225100   4.642   1.784   6.037
 8386TIP3    H125101   4.631   1.878   6.023
 8386TIP3    H225102   4.626   1.745   5.952
 8387TIP3   OH225103   2.238   7.567   2.797
 8387TIP3    H125104   2.226   7.645   2.744
 8387TIP3    H225105   2.276   7.502   2.738
 8388TIP3   OH225106   1.527   3.204   5.450
 8388TIP3    H125107   1.545   3.170   5.363
 8388TIP3    H225108   1.593   3.272   5.463
 8389TIP3   OH225109   2.996   2.656   5.516
 8389TIP3    H125110   3.024   2.626   5.429
 8389TIP3    H225111   2.950   2.738   5.500
 8390TIP3   OH225112   7.208   4.336   2.737
 8390TIP3    H125113   7.159   4.360   2.657
 8390TIP3    H225114   7.142   4.335   2.806
 8391TIP3   OH225115   4.211   5.541   1.860
 8391TIP3    H125116   4.273   5.516   1.791
 8391TIP3    H225117   4.145   5.472   1.860
 8392TIP3   OH225118   3.818   1.708   2.460
 8392TIP3    H125119   3.723   1.710   2.457
 8392TIP3    H225120   3.845   1.797   2.436
 8393TIP3   OH225121   4.729   4.818   3.405
 8393TIP3    H125122   4.677   4.872   3.465
 8393TIP3    H225123   4.670   4.746   3.380
 8394TIP3   OH225124   5.725   4.060   2.889
 8394TIP3    H125125   5.633   4.040   2.908
 8394TIP3    H225126   5.723   4.151   2.860
 8395TIP3   OH225127   2.268   6.414   2.810
 8395TIP3    H125128   2.246   6.435   2.720
 8395TIP3    H225129   2.231   6.327   2.824
 8396TIP3   OH225130   6.357   7.532   0.167
 8396TIP3    H125131   6.420   7.463   0.190
 8396TIP3    H225132   6.345   7.523   0.073
 8397TIP3   OH225133   4.738   0.363   0.504
 8397TIP3    H125134   4.675   0.330   0.440
 8397TIP3    H225135   4.719   0.313   0.584
 8398TIP3   OH225136   1.885   0.368   3.547
 8398TIP3    H125137   1.841   0.318   3.479
 8398TIP3    H225138   1.943   0.305   3.589
 8399TIP3   OH225139   2.220   5.351   1.753
 8399TIP3    H125140   2.289   5.358   1.686
 8399TIP3    H225141   2.145   5.313   1.706
 8400TIP3   OH225142   2.617   5.563   1.488
 8400TIP3    H125143   2.541   5.607   1.527
 8400TIP3    H225144   2.612   5.473   1.520
 8401TIP3   OH225145   0.942   2.584   3.148
 8401TIP3    H125146   1.027   2.607   3.110
 8401TIP3    H225147   0.881   2.587   3.075
 8402TIP3   OH225148   7.079   6.656   2.054
 8402TIP3    H125149   7.123   6.571   2.052
 8402TIP3    H225150   7.003   6.642   2.111
 8403TIP3   OH225151   4.397   1.167   0.774
 8403TIP3    H125152   4.391   1.159   0.870
 8403TIP3    H225153   4.491   1.167   0.756
 8404TIP3   OH225154   5.741   2.084   3.009
 8404TIP3    H125155   5.807   2.140   3.049
 8404TIP3    H225156   5.663   2.097   3.063
 8405TIP3   OH225157   5.748   5.219   5.344
 8405TIP3    H125158   5.693   5.277   5.291
 8405TIP3    H225159   5.747   5.135   5.298
 8406TIP3   OH225160   0.017   1.106   1.189
 8406TIP3    H125161   0.106   1.071   1.176
 8406TIP3    H225162  -0.023   1.045   1.252
 8407TIP3   OH225163   2.806   5.301   1.208
 8407TIP3    H125164   2.764   5.385   1.224
 8407TIP3    H225165   2.735   5.242   1.184
 8408TIP3   OH225166   6.708   0.685   3.957
 8408TIP3    H125167   6.702   0.739   3.878
 8408TIP3    H225168   6.662   0.736   4.024
 8409TIP3   OH225169   4.095   0.869   3.828
 8409TIP3    H125170   4.056   0.894   3.912
 8409TIP3    H225171   4.071   0.940   3.769
 8410TIP3   OH225172   7.909   1.370   2.998
 8410TIP3    H125173   7.951   1.456   2.999
 8410TIP3    H225174   7.820   1.386   3.030
 8411TIP3   OH225175   1.676   6.762   5.910
 8411TIP3    H125176   1.719   6.846   5.925
 8411TIP3    H225177   1.743   6.708   5.868
 8412TIP3   OH225178   7.344   4.574   5.855
 8412TIP3    H125179   7.376   4.628   5.928
 8412TIP3    H225180   7.289   4.633   5.803
 8413TIP3   OH225181   1.588   2.662   4.157
 8413TIP3    H125182   1.674   2.631   4.129
 8413TIP3    H225183   1.539   2.672   4.075
 8414TIP3   OH225184   1.820   6.997   0.404
 8414TIP3    H125185   1.877   7.068   0.374
 8414TIP3    H225186   1.808   6.941   0.328
 8415TIP3   OH225187   1.538   0.397   5.781
 8415TIP3    H125188   1.532   0.464   5.713
 8415TIP3    H225189   1.467   0.336   5.761
 8416TIP3   OH225190   0.780   5.470   2.973
 8416TIP3    H125191   0.844   5.423   2.919
 8416TIP3    H225192   0.716   5.403   2.998
 8417TIP3   OH225193   7.843   6.236   5.813
 8417TIP3    H125194   7.782   6.285   5.759
 8417TIP3    H225195   7.912   6.299   5.834
 8418TIP3   OH225196   5.846   6.745   2.606
 8418TIP3    H125197   5.770   6.689   2.590
 8418TIP3    H225198   5.851   6.752   2.701
 8419TIP3   OH225199   7.926   5.256   4.032
 8419TIP3    H125200   7.948   5.198   4.105
 8419TIP3    H225201   8.010   5.271   3.988
 8420TIP3   OH225202   3.823   3.653   0.470
 8420TIP3    H125203   3.732   3.682   0.468
 8420TIP3    H225204   3.850   3.665   0.561
 8421TIP3   OH225205   5.982   3.210   1.573
 8421TIP3    H125206   6.060   3.176   1.617
 8421TIP3    H225207   5.931   3.132   1.552
 8422TIP3   OH225208   6.206   2.947   0.200
 8422TIP3    H125209   6.186   3.023   0.146
 8422TIP3    H225210   6.137   2.945   0.266
 8423TIP3   OH225211   6.473   5.224   0.082
 8423TIP3    H125212   6.433   5.224  -0.005
 8423TIP3    H225213   6.538   5.154   0.078
 8424TIP3   OH225214   4.305   4.716   5.564
 8424TIP3    H125215   4.220   4.731   5.524
 8424TIP3    H225216   4.290   4.649   5.630
 8425TIP3   OH225217   0.506   4.175   0.210
 8425TIP3    H125218   0.578   4.142   0.264
 8425TIP3    H225219   0.451   4.099   0.194
 8426TIP3   OH225220   1.856   4.514   0.360
 8426TIP3    H125221   1.932   4.572   0.352
 8426TIP3    H225222   1.879   4.438   0.306
 8427TIP3   OH225223   0.885   3.566   5.201
 8427TIP3    H125224   0.968   3.523   5.224
 8427TIP3    H225225   0.878   3.639   5.262
 8428TIP3   OH225226   6.142   3.383   6.476
 8428TIP3    H125227   6.215   3.444   6.488
 8428TIP3    H225228   6.112   3.365   6.565
 8429TIP3   OH225229   1.202   2.314   4.381
 8429TIP3    H125230   1.239   2.237   4.338
 8429TIP3    H225231   1.191   2.288   4.473
 8430TIP3   OH225232   2.019   5.252   0.963
 8430TIP3    H125233   1.947   5.192   0.944
 8430TIP3    H225234   2.077   5.244   0.887
 8431TIP3   OH225235   7.844   2.843   4.517
 8431TIP3    H125236   7.817   2.934   4.527
 8431TIP3    H225237   7.928   2.837   4.562
 8432TIP3   OH225238   1.304   6.220   6.398
 8432TIP3    H125239   1.302   6.129   6.367
 8432TIP3    H225240   1.216   6.253   6.381
 8433TIP3   OH225241   2.677   5.451   6.769
 8433TIP3    H125242   2.603   5.428   6.713
 8433TIP3    H225243   2.715   5.366   6.794
 8434TIP3   OH225244   4.357   1.625   6.629
 8434TIP3    H125245   4.362   1.694   6.561
 8434TIP3    H225246   4.368   1.543   6.581
 8435TIP3   OH225247   4.805   5.954   3.190
 8435TIP3    H125248   4.861   6.021   3.228
 8435TIP3    H225249   4.833   5.948   3.099
 8436TIP3   OH225250   1.263   3.602   1.612
 8436TIP3    H125251   1.281   3.516   1.575
 8436TIP3    H225252   1.305   3.600   1.699
 8437TIP3   OH225253   1.230   6.728   0.277
 8437TIP3    H125254   1.142   6.691   0.264
 8437TIP3    H225255   1.233   6.748   0.371
 8438TIP3   OH225256   7.727   6.363   1.818
 8438TIP3    H125257   7.692   6.359   1.729
 8438TIP3    H225258   7.744   6.456   1.833
 8439TIP3   OH225259   2.875   2.555   1.123
 8439TIP3    H125260   2.848   2.642   1.093
 8439TIP3    H225261   2.794   2.510   1.146
 8440TIP3   OH225262   5.589   5.659   3.395
 8440TIP3    H125263   5.656   5.718   3.361
 8440TIP3    H225264   5.639   5.588   3.436
 8441TIP3   OH225265   3.558   3.864   5.459
 8441TIP3    H125266   3.523   3.916   5.530
 8441TIP3    H225267   3.640   3.907   5.435
 8442TIP3   OH225268   5.432   3.636   1.021
 8442TIP3    H125269   5.420   3.558   0.968
 8442TIP3    H225270   5.393   3.613   1.106
 8443TIP3   OH225271   1.201   5.366   0.744
 8443TIP3    H125272   1.271   5.431   0.734
 8443TIP3    H225273   1.125   5.417   0.773
 8444TIP3   OH225274   4.814   3.061   1.936
 8444TIP3    H125275   4.799   3.138   1.990
 8444TIP3    H225276   4.832   2.990   1.998
 8445TIP3   OH225277   2.315   6.598   6.594
 8445TIP3    H125278   2.225   6.606   6.562
 8445TIP3    H225279   2.359   6.544   6.528
 8446TIP3   OH225280   5.181   6.692   5.908
 8446TIP3    H125281   5.180   6.600   5.880
 8446TIP3    H225282   5.093   6.707   5.944
 8447TIP3   OH225283   7.222   6.083   1.916
 8447TIP3    H125284   7.260   6.124   1.993
 8447TIP3    H225285   7.129   6.075   1.937
 8448TIP3   OH225286   6.341   7.731   0.428
 8448TIP3    H125287   6.252   7.763   0.414
 8448TIP3    H225288   6.383   7.740   0.342
 8449TIP3   OH225289   3.529   5.147   0.835
 8449TIP3    H125290   3.555   5.238   0.831
 8449TIP3    H225291   3.433   5.150   0.844
 8450TIP3   OH225292   7.179   4.264   1.912
 8450TIP3    H125293   7.196   4.270   2.006
 8450TIP3    H225294   7.196   4.352   1.879
 8451TIP3   OH225295   5.293   7.436   2.265
 8451TIP3    H125296   5.268   7.529   2.259
 8451TIP3    H225297   5.371   7.436   2.320
 8452TIP3   OH225298   4.803   5.381   5.099
 8452TIP3    H125299   4.872   5.428   5.146
 8452TIP3    H225300   4.851   5.323   5.039
 8453TIP3   OH225301   0.669   4.213   6.651
 8453TIP3    H125302   0.601   4.238   6.588
 8453TIP3    H225303   0.631   4.235   6.737
 8454TIP3   OH225304   7.623   5.842   6.280
 8454TIP3    H125305   7.585   5.793   6.207
 8454TIP3    H225306   7.717   5.838   6.266
 8455TIP3   OH225307   4.847   6.006   1.439
 8455TIP3    H125308   4.780   5.985   1.375
 8455TIP3    H225309   4.920   5.947   1.418
 8456TIP3   OH225310   4.005   4.525   6.196
 8456TIP3    H125311   4.082   4.492   6.243
 8456TIP3    H225312   3.959   4.579   6.261
 8457TIP3   OH225313   0.385   7.632   1.719
 8457TIP3    H125314   0.316   7.698   1.721
 8457TIP3    H225315   0.375   7.588   1.635
 8458TIP3   OH225316   1.262   4.914   2.773
 8458TIP3    H125317   1.217   4.883   2.851
 8458TIP3    H225318   1.337   4.964   2.805
 8459TIP3   OH225319   7.164   1.622   6.116
 8459TIP3    H125320   7.125   1.603   6.202
 8459TIP3    H225321   7.144   1.545   6.063
 8460TIP3   OH225322   0.878   5.488   2.133
 8460TIP3    H125323   0.792   5.527   2.151
 8460TIP3    H225324   0.904   5.449   2.217
 8461TIP3   OH225325   5.697   1.841   2.261
 8461TIP3    H125326   5.753   1.805   2.329
 8461TIP3    H225327   5.621   1.783   2.258
 8462TIP3   OH225328   4.441   3.556   3.095
 8462TIP3    H125329   4.536   3.545   3.084
 8462TIP3    H225330   4.413   3.603   3.017
 8463TIP3   OH225331   1.453   2.738   4.565
 8463TIP3    H125332   1.495   2.744   4.651
 8463TIP3    H225333   1.365   2.706   4.584
 8464TIP3   OH225334   0.842   4.784   0.400
 8464TIP3    H125335   0.895   4.730   0.459
 8464TIP3    H225336   0.752   4.756   0.415
 8465TIP3   OH225337   0.771   2.172   5.647
 8465TIP3    H125338   0.857   2.204   5.618
 8465TIP3    H225339   0.724   2.251   5.675
 8466TIP3   OH225340   7.921   0.885   4.201
 8466TIP3    H125341   7.887   0.796   4.214
 8466TIP3    H225342   7.892   0.909   4.113
 8467TIP3   OH225343   0.321   6.081   4.248
 8467TIP3    H125344   0.331   5.990   4.277
 8467TIP3    H225345   0.334   6.133   4.327
 8468TIP3   OH225346   4.290   6.358   1.504
 8468TIP3    H125347   4.206   6.391   1.473
 8468TIP3    H225348   4.329   6.317   1.427
 8469TIP3   OH225349   7.579   1.226   0.730
 8469TIP3    H125350   7.603   1.254   0.642
 8469TIP3    H225351   7.492   1.265   0.745
 8470TIP3   OH225352   1.573   0.740   3.645
 8470TIP3    H125353   1.656   0.772   3.610
 8470TIP3    H225354   1.575   0.646   3.629
 8471TIP3   OH225355   0.253   6.714   4.207
 8471TIP3    H125356   0.304   6.708   4.127
 8471TIP3    H225357   0.266   6.805   4.237
 8472TIP3   OH225358   4.261   2.048   0.377
 8472TIP3    H125359   4.286   2.104   0.304
 8472TIP3    H225360   4.200   1.985   0.339
 8473TIP3   OH225361   3.931   0.104   4.700
 8473TIP3    H125362   3.935   0.009   4.711
 8473TIP3    H225363   3.865   0.118   4.633
 8474TIP3   OH225364   5.336   0.436   4.522
 8474TIP3    H125365   5.425   0.423   4.487
 8474TIP3    H225366   5.288   0.476   4.450
 8475TIP3   OH225367   2.903   3.428   2.610
 8475TIP3    H125368   2.813   3.453   2.589
 8475TIP3    H225369   2.899   3.333   2.621
 8476TIP3   OH225370   0.028   6.958   5.299
 8476TIP3    H125371  -0.014   7.034   5.259
 8476TIP3    H225372   0.046   6.985   5.389
 8477TIP3   OH225373   0.348   1.810   3.587
 8477TIP3    H125374   0.435   1.774   3.576
 8477TIP3    H225375   0.330   1.855   3.504
 8478TIP3   OH225376   8.046   6.706   2.732
 8478TIP3    H125377   7.962   6.660   2.742
 8478TIP3    H225378   8.024   6.789   2.691
 8479TIP3   OH225379   7.361   6.640   0.227
 8479TIP3    H125380   7.267   6.622   0.230
 8479TIP3    H225381   7.374   6.706   0.295
 8480TIP3   OH225382   4.196   7.413   4.783
 8480TIP3    H125383   4.270   7.470   4.762
 8480TIP3    H225384   4.235   7.333   4.816
 8481TIP3   OH225385   4.201   6.831   1.429
 8481TIP3    H125386   4.173   6.893   1.362
 8481TIP3    H225387   4.284   6.796   1.396
 8482TIP3   OH225388   5.224   7.675   2.902
 8482TIP3    H125389   5.286   7.693   2.832
 8482TIP3    H225390   5.271   7.698   2.983
 8483TIP3   OH225391   0.528   7.617   5.321
 8483TIP3    H125392   0.495   7.530   5.341
 8483TIP3    H225393   0.615   7.602   5.283
 8484TIP3   OH225394   5.056   6.087   3.335
 8484TIP3    H125395   5.113   6.016   3.307
 8484TIP3    H225396   5.024   6.060   3.421
 8485TIP3   OH225397   1.017   3.844   1.735
 8485TIP3    H125398   1.075   3.889   1.797
 8485TIP3    H225399   1.017   3.753   1.764
 8486TIP3   OH225400   3.533   5.207   0.371
 8486TIP3    H125401   3.583   5.136   0.330
 8486TIP3    H225402   3.467   5.162   0.424
 8487TIP3   OH225403   6.917   6.233   6.349
 8487TIP3    H125404   6.953   6.312   6.391
 8487TIP3    H225405   6.933   6.247   6.256
 8488TIP3   OH225406   6.674   6.033   3.925
 8488TIP3    H125407   6.720   6.041   3.841
 8488TIP3    H225408   6.690   5.944   3.953
 8489TIP3   OH225409   4.935   7.529   2.429
 8489TIP3    H125410   4.974   7.548   2.343
 8489TIP3    H225411   4.919   7.615   2.468
 8490TIP3   OH225412   0.565   7.022   0.969
 8490TIP3    H125413   0.649   7.009   1.014
 8490TIP3    H225414   0.499   7.016   1.038
 8491TIP3   OH225415   1.324   2.648   0.872
 8491TIP3    H125416   1.368   2.727   0.842
 8491TIP3    H225417   1.231   2.671   0.870
 8492TIP3   OH225418   8.063   0.155   6.756
 8492TIP3    H125419   8.098   0.243   6.743
 8492TIP3    H225420   8.140   0.099   6.761
 8493TIP3   OH225421   5.582   2.042   0.025
 8493TIP3    H125422   5.597   2.135   0.005
 8493TIP3    H225423   5.581   2.039   0.121
 8494TIP3   OH225424   7.671   1.769   1.472
 8494TIP3    H125425   7.726   1.692   1.482
 8494TIP3    H225426   7.713   1.820   1.403
 8495TIP3   OH225427   7.600   7.224   3.266
 8495TIP3    H125428   7.554   7.253   3.344
 8495TIP3    H225429   7.532   7.217   3.199
 8496TIP3   OH225430   5.444   0.723   2.781
 8496TIP3    H125431   5.397   0.641   2.800
 8496TIP3    H225432   5.450   0.767   2.865
 8497TIP3   OH225433   6.269   2.859   3.230
 8497TIP3    H125434   6.270   2.839   3.324
 8497TIP3    H225435   6.188   2.819   3.198
 8498TIP3   OH225436   1.745   3.956   5.054
 8498TIP3    H125437   1.787   4.017   4.994
 8498TIP3    H225438   1.664   3.931   5.011
 8499TIP3   OH225439   4.569   5.852   5.765
 8499TIP3    H125440   4.492   5.887   5.720
 8499TIP3    H225441   4.542   5.765   5.794
 8500TIP3   OH225442   0.889   3.393   1.573
 8500TIP3    H125443   0.922   3.306   1.547
 8500TIP3    H225444   0.811   3.406   1.519
 8501TIP3   OH225445   4.442   2.356   4.071
 8501TIP3    H125446   4.511   2.396   4.123
 8501TIP3    H225447   4.478   2.350   3.983
 8502TIP3   OH225448   3.967   1.287   4.018
 8502TIP3    H125449   4.012   1.220   4.069
 8502TIP3    H225450   3.985   1.369   4.065
 8503TIP3   OH225451   3.151   0.529   3.429
 8503TIP3    H125452   3.209   0.558   3.500
 8503TIP3    H225453   3.128   0.439   3.453
 8504TIP3   OH225454   1.530   0.242   0.878
 8504TIP3    H125455   1.590   0.291   0.935
 8504TIP3    H225456   1.585   0.175   0.837
 8505TIP3   OH225457   6.883   2.365   2.424
 8505TIP3    H125458   6.812   2.416   2.463
 8505TIP3    H225459   6.901   2.296   2.487
 8506TIP3   OH225460   6.643   6.385   3.400
 8506TIP3    H125461   6.588   6.308   3.416
 8506TIP3    H225462   6.676   6.372   3.311
 8507TIP3   OH225463   4.133   0.905   3.022
 8507TIP3    H125464   4.140   0.856   3.104
 8507TIP3    H225465   4.222   0.939   3.008
 8508TIP3   OH225466   2.175   3.429   0.206
 8508TIP3    H125467   2.221   3.513   0.199
 8508TIP3    H225468   2.244   3.366   0.230
 8509TIP3   OH225469   4.078   7.126   2.013
 8509TIP3    H125470   3.997   7.163   1.976
 8509TIP3    H225471   4.103   7.057   1.952
 8510TIP3   OH225472   2.847   6.640   6.606
 8510TIP3    H125473   2.878   6.631   6.516
 8510TIP3    H225474   2.854   6.553   6.644
 8511TIP3   OH225475   1.980   0.208   3.046
 8511TIP3    H125476   2.052   0.267   3.024
 8511TIP3    H225477   1.905   0.265   3.059
 8512TIP3   OH225478   7.902   0.953   0.461
 8512TIP3    H125479   7.916   1.005   0.382
 8512TIP3    H225480   7.809   0.963   0.481
 8513TIP3   OH225481   1.223   1.560   5.195
 8513TIP3    H125482   1.165   1.506   5.141
 8513TIP3    H225483   1.186   1.648   5.190
 8514TIP3   OH225484   1.906   2.037   0.073
 8514TIP3    H125485   1.970   2.107   0.083
 8514TIP3    H225486   1.837   2.074   0.019
 8515TIP3   OH225487   2.587   5.933   1.167
 8515TIP3    H125488   2.516   5.978   1.212
 8515TIP3    H225489   2.548   5.852   1.136
 8516TIP3   OH225490   7.079   5.023   0.923
 8516TIP3    H125491   7.101   4.944   0.873
 8516TIP3    H225492   6.997   5.002   0.968
 8517TIP3   OH225493   5.781   2.896   1.764
 8517TIP3    H125494   5.798   2.968   1.825
 8517TIP3    H225495   5.799   2.933   1.678
 8518TIP3   OH225496   0.538   2.223   5.097
 8518TIP3    H125497   0.447   2.249   5.086
 8518TIP3    H225498   0.582   2.257   5.019
 8519TIP3   OH225499   2.327   4.348   2.696
 8519TIP3    H125500   2.420   4.335   2.715
 8519TIP3    H225501   2.323   4.433   2.652
 8520TIP3   OH225502   1.621   5.386   4.249
 8520TIP3    H125503   1.561   5.349   4.186
 8520TIP3    H225504   1.614   5.329   4.326
 8521TIP3   OH225505   4.863   2.705   1.455
 8521TIP3    H125506   4.914   2.646   1.509
 8521TIP3    H225507   4.893   2.689   1.366
 8522TIP3   OH225508   6.195   1.710   2.800
 8522TIP3    H125509   6.278   1.738   2.839
 8522TIP3    H225510   6.220   1.671   2.716
 8523TIP3   OH225511   0.308   4.418   1.197
 8523TIP3    H125512   0.298   4.472   1.275
 8523TIP3    H225513   0.402   4.412   1.183
 8524TIP3   OH225514   4.335   0.978   0.176
 8524TIP3    H125515   4.422   0.944   0.196
 8524TIP3    H225516   4.349   1.071   0.159
 8525TIP3   OH225517   3.232   2.753   4.785
 8525TIP3    H125518   3.210   2.660   4.774
 8525TIP3    H225519   3.287   2.755   4.863
 8526TIP3   OH225520   2.635   5.590   6.095
 8526TIP3    H125521   2.660   5.540   6.173
 8526TIP3    H225522   2.717   5.610   6.052
 8527TIP3   OH225523   6.634   6.973   1.199
 8527TIP3    H125524   6.657   6.999   1.110
 8527TIP3    H225525   6.598   7.052   1.239
 8528TIP3   OH225526   3.331   6.834   1.995
 8528TIP3    H125527   3.413   6.790   2.018
 8528TIP3    H225528   3.272   6.816   2.068
 8529TIP3   OH225529   5.995   1.048   4.622
 8529TIP3    H125530   6.045   1.116   4.668
 8529TIP3    H225531   5.922   1.095   4.583
 8530TIP3   OH225532   1.555   3.652   2.656
 8530TIP3    H125533   1.476   3.623   2.611
 8530TIP3    H225534   1.576   3.580   2.716
 8531TIP3   OH225535   6.148   2.678   2.233
 8531TIP3    H125536   6.200   2.701   2.310
 8531TIP3    H225537   6.213   2.660   2.165
 8532TIP3   OH225538   8.208   3.079   0.701
 8532TIP3    H125539   8.302   3.064   0.693
 8532TIP3    H225540   8.171   3.047   0.619
 8533TIP3   OH225541   2.382   5.017   5.090
 8533TIP3    H125542   2.399   5.101   5.134
 8533TIP3    H225543   2.450   4.958   5.124
 8534TIP3   OH225544   1.048   7.395   1.538
 8534TIP3    H125545   1.013   7.310   1.510
 8534TIP3    H225546   1.045   7.449   1.458
 8535TIP3   OH225547   2.320   5.067   1.844
 8535TIP3    H125548   2.316   5.153   1.802
 8535TIP3    H225549   2.323   5.087   1.938
 8536TIP3   OH225550   2.296   6.425   4.212
 8536TIP3    H125551   2.252   6.340   4.221
 8536TIP3    H225552   2.387   6.408   4.237
 8537TIP3   OH225553   4.249   4.049   0.747
 8537TIP3    H125554   4.343   4.041   0.765
 8537TIP3    H225555   4.211   4.077   0.830
 8538TIP3   OH225556   0.978   1.260   3.188
 8538TIP3    H125557   1.030   1.198   3.239
 8538TIP3    H225558   1.043   1.315   3.144
 8539TIP3   OH225559   3.189   0.094   3.731
 8539TIP3    H125560   3.274   0.112   3.691
 8539TIP3    H225561   3.125   0.120   3.665
 8540TIP3   OH225562   3.682   3.539   3.561
 8540TIP3    H125563   3.775   3.519   3.547
 8540TIP3    H225564   3.650   3.466   3.614
 8541TIP3   OH225565   3.482   6.784   6.197
 8541TIP3    H125566   3.549   6.765   6.131
 8541TIP3    H225567   3.429   6.704   6.201
 8542TIP3   OH225568   8.126   2.971   4.006
 8542TIP3    H125569   8.045   2.930   3.975
 8542TIP3    H225570   8.099   3.058   4.034
 8543TIP3   OH225571   2.544   5.311   3.477
 8543TIP3    H125572   2.540   5.401   3.509
 8543TIP3    H225573   2.636   5.285   3.487
 8544TIP3   OH225574   6.929   3.389   2.195
 8544TIP3    H125575   6.909   3.414   2.285
 8544TIP3    H225576   6.861   3.430   2.142
 8545TIP3   OH225577   2.665   3.440   3.340
 8545TIP3    H125578   2.589   3.395   3.304
 8545TIP3    H225579   2.704   3.485   3.264
 8546TIP3   OH225580   2.453   0.831   2.132
 8546TIP3    H125581   2.485   0.759   2.077
 8546TIP3    H225582   2.407   0.788   2.204
 8547TIP3   OH225583   1.185   4.531   4.085
 8547TIP3    H125584   1.235   4.544   4.165
 8547TIP3    H225585   1.149   4.617   4.064
 8548TIP3   OH225586   4.562   7.537   4.209
 8548TIP3    H125587   4.539   7.611   4.264
 8548TIP3    H225588   4.479   7.508   4.172
 8549TIP3   OH225589   5.448   4.021   2.929
 8549TIP3    H125590   5.387   4.070   2.984
 8549TIP3    H225591   5.407   4.021   2.842
 8550TIP3   OH225592   6.642   4.277   0.858
 8550TIP3    H125593   6.549   4.260   0.871
 8550TIP3    H225594   6.645   4.344   0.791
 8551TIP3   OH225595   2.435   1.908   2.572
 8551TIP3    H125596   2.377   1.945   2.638
 8551TIP3    H225597   2.515   1.884   2.620
 8552TIP3   OH225598   0.515   4.366   2.138
 8552TIP3    H125599   0.500   4.274   2.161
 8552TIP3    H225600   0.476   4.415   2.210
 8553TIP3   OH225601   4.487   4.873   2.990
 8553TIP3    H125602   4.534   4.918   3.060
 8553TIP3    H225603   4.501   4.928   2.913
 8554TIP3   OH225604   0.297   2.311   4.580
 8554TIP3    H125605   0.335   2.280   4.662
 8554TIP3    H225606   0.259   2.396   4.602
 8555TIP3   OH225607   1.064   7.338   4.039
 8555TIP3    H125608   1.117   7.376   3.969
 8555TIP3    H225609   1.028   7.414   4.085
 8556TIP3   OH225610   6.081   6.215   0.645
 8556TIP3    H125611   6.013   6.275   0.614
 8556TIP3    H225612   6.078   6.223   0.740
 8557TIP3   OH225613   4.759   3.419   3.194
 8557TIP3    H125614   4.786   3.510   3.208
 8557TIP3    H225615   4.674   3.412   3.238
 8558TIP3   OH225616   7.865   3.116   4.594
 8558TIP3    H125617   7.814   3.196   4.581
 8558TIP3    H225618   7.860   3.100   4.689
 8559TIP3   OH225619   7.564   6.491   0.559
 8559TIP3    H125620   7.639   6.549   0.557
 8559TIP3    H225621   7.488   6.548   0.548
 8560TIP3   OH225622   0.493   5.465   3.051
 8560TIP3    H125623   0.438   5.436   3.124
 8560TIP3    H225624   0.478   5.559   3.045
 8561TIP3   OH225625   4.412   7.271   6.384
 8561TIP3    H125626   4.355   7.347   6.396
 8561TIP3    H225627   4.362   7.212   6.328
 8562TIP3   OH225628   5.047   0.148   1.511
 8562TIP3    H125629   4.973   0.142   1.450
 8562TIP3    H225630   5.036   0.074   1.571
 8563TIP3   OH225631   7.784   5.489   4.831
 8563TIP3    H125632   7.720   5.421   4.853
 8563TIP3    H225633   7.784   5.548   4.906
 8564TIP3   OH225634   0.627   5.643   4.990
 8564TIP3    H125635   0.578   5.701   5.047
 8564TIP3    H225636   0.566   5.572   4.968
 8565TIP3   OH225637   5.845   0.732   3.261
 8565TIP3    H125638   5.882   0.695   3.341
 8565TIP3    H225639   5.855   0.663   3.196
 8566TIP3   OH225640   0.941   2.807   6.219
 8566TIP3    H125641   0.988   2.772   6.295
 8566TIP3    H225642   0.983   2.892   6.202
 8567TIP3   OH225643   7.470   6.488   3.224
 8567TIP3    H125644   7.440   6.536   3.147
 8567TIP3    H225645   7.452   6.547   3.298
 8568TIP3   OH225646   1.815   0.615   4.223
 8568TIP3    H125647   1.789   0.619   4.315
 8568TIP3    H225648   1.806   0.705   4.192
 8569TIP3   OH225649   3.829   7.072   3.966
 8569TIP3    H125650   3.829   7.166   3.947
 8569TIP3    H225651   3.917   7.043   3.942
 8570TIP3   OH225652   4.101   1.077   4.149
 8570TIP3    H125653   4.032   1.011   4.137
 8570TIP3    H225654   4.181   1.034   4.120
 8571TIP3   OH225655   2.664   6.652   1.011
 8571TIP3    H125656   2.700   6.715   0.948
 8571TIP3    H225657   2.611   6.593   0.958
 8572TIP3   OH225658   4.612   4.446   6.393
 8572TIP3    H125659   4.707   4.447   6.399
 8572TIP3    H225660   4.593   4.402   6.310
 8573TIP3   OH225661   3.524   5.424   0.838
 8573TIP3    H125662   3.552   5.476   0.913
 8573TIP3    H225663   3.593   5.437   0.773
 8574TIP3   OH225664   1.947   3.121   3.862
 8574TIP3    H125665   1.973   3.202   3.908
 8574TIP3    H225666   1.972   3.136   3.771
 8575TIP3   OH225667   6.838   4.085   0.815
 8575TIP3    H125668   6.849   4.074   0.720
 8575TIP3    H225669   6.769   4.150   0.824
 8576TIP3   OH225670   4.071   5.306   1.774
 8576TIP3    H125671   4.067   5.256   1.692
 8576TIP3    H225672   3.995   5.275   1.823
 8577TIP3   OH225673   2.461   7.142   2.539
 8577TIP3    H125674   2.419   7.056   2.542
 8577TIP3    H225675   2.555   7.122   2.539
 8578TIP3   OH225676   6.302   7.777   4.867
 8578TIP3    H125677   6.231   7.814   4.814
 8578TIP3    H225678   6.278   7.797   4.957
 8579TIP3   OH225679   5.052   5.423   2.018
 8579TIP3    H125680   5.048   5.428   1.922
 8579TIP3    H225681   4.978   5.475   2.048
 8580TIP3   OH225682   4.957   4.241   0.971
 8580TIP3    H125683   5.024   4.204   0.914
 8580TIP3    H225684   4.878   4.245   0.917
 8581TIP3   OH225685   7.848   0.577   2.805
 8581TIP3    H125686   7.934   0.553   2.770
 8581TIP3    H225687   7.827   0.660   2.762
 8582TIP3   OH225688   8.155   3.389   2.767
 8582TIP3    H125689   8.129   3.342   2.847
 8582TIP3    H225690   8.167   3.319   2.702
 8583TIP3   OH225691   3.122   0.188   0.922
 8583TIP3    H125692   3.177   0.131   0.975
 8583TIP3    H225693   3.070   0.238   0.985
 8584TIP3   OH225694   2.421   3.617   1.611
 8584TIP3    H125695   2.492   3.620   1.548
 8584TIP3    H225696   2.341   3.619   1.558
 8585TIP3   OH225697   1.997   2.351   4.949
 8585TIP3    H125698   2.070   2.371   5.006
 8585TIP3    H225699   2.037   2.314   4.870
 8586TIP3   OH225700   7.140   6.097   4.183
 8586TIP3    H125701   7.082   6.167   4.214
 8586TIP3    H225702   7.099   6.067   4.102
 8587TIP3   OH225703   0.906   0.161   2.994
 8587TIP3    H125704   0.929   0.186   3.083
 8587TIP3    H225705   0.978   0.194   2.940
 8588TIP3   OH225706   1.140   5.928   3.850
 8588TIP3    H125707   1.126   6.004   3.793
 8588TIP3    H225708   1.212   5.881   3.809
 8589TIP3   OH225709   3.732   1.558   5.780
 8589TIP3    H125710   3.740   1.652   5.762
 8589TIP3    H225711   3.754   1.550   5.873
 8590TIP3   OH225712   0.379   4.608   0.727
 8590TIP3    H125713   0.324   4.644   0.796
 8590TIP3    H225714   0.323   4.545   0.682
 8591TIP3   OH225715   2.196   7.041   1.598
 8591TIP3    H125716   2.274   7.044   1.654
 8591TIP3    H225717   2.124   7.024   1.658
 8592TIP3   OH225718   7.927   4.820   2.831
 8592TIP3    H125719   7.884   4.902   2.858
 8592TIP3    H225720   7.911   4.814   2.737
 8593TIP3   OH225721   3.327   3.573   2.311
 8593TIP3    H125722   3.284   3.638   2.254
 8593TIP3    H225723   3.255   3.520   2.345
 8594TIP3   OH225724   1.705   3.685   4.160
 8594TIP3    H125725   1.790   3.724   4.140
 8594TIP3    H225726   1.648   3.759   4.179
 8595TIP3   OH225727   4.431   4.066   4.974
 8595TIP3    H125728   4.452   3.984   4.930
 8595TIP3    H225729   4.422   4.130   4.903
 8596TIP3   OH225730   6.204   6.650   6.479
 8596TIP3    H125731   6.215   6.555   6.479
 8596TIP3    H225732   6.232   6.677   6.567
 8597TIP3   OH225733   2.127   6.843   0.364
 8597TIP3    H125734   2.110   6.921   0.311
 8597TIP3    H225735   2.080   6.773   0.319
 8598TIP3   OH225736   0.552   5.419   0.332
 8598TIP3    H125737   0.511   5.442   0.249
 8598TIP3    H225738   0.605   5.495   0.356
 8599TIP3   OH225739   5.056   2.789   3.444
 8599TIP3    H125740   4.998   2.798   3.520
 8599TIP3    H225741   5.085   2.878   3.424
 8600TIP3   OH225742   2.604   6.822   2.953
 8600TIP3    H125743   2.668   6.765   2.910
 8600TIP3    H225744   2.522   6.804   2.907
 8601TIP3   OH225745   2.184   6.118   6.173
 8601TIP3    H125746   2.165   6.088   6.262
 8601TIP3    H225747   2.192   6.213   6.181
 8602TIP3   OH225748   1.674   7.125   2.804
 8602TIP3    H125749   1.588   7.156   2.776
 8602TIP3    H225750   1.718   7.100   2.722
 8603TIP3   OH225751   1.009   1.386   1.684
 8603TIP3    H125752   0.929   1.438   1.681
 8603TIP3    H225753   1.062   1.419   1.611
 8604TIP3   OH225754   1.360   2.814   4.302
 8604TIP3    H125755   1.298   2.792   4.233
 8604TIP3    H225756   1.305   2.841   4.376
 8605TIP3   OH225757   7.581   2.690   2.309
 8605TIP3    H125758   7.490   2.717   2.319
 8605TIP3    H225759   7.625   2.767   2.273
 8606TIP3   OH225760   2.222   1.750   4.494
 8606TIP3    H125761   2.276   1.715   4.564
 8606TIP3    H225762   2.143   1.695   4.495
 8607TIP3   OH225763   3.900   1.142   0.862
 8607TIP3    H125764   3.966   1.206   0.889
 8607TIP3    H225765   3.902   1.145   0.767
 8608TIP3   OH225766   3.857   1.602   4.513
 8608TIP3    H125767   3.935   1.621   4.461
 8608TIP3    H225768   3.877   1.638   4.600
 8609TIP3   OH225769   4.162   0.261   4.720
 8609TIP3    H125770   4.084   0.225   4.677
 8609TIP3    H225771   4.136   0.271   4.811
 8610TIP3   OH225772   7.392   4.866   0.732
 8610TIP3    H125773   7.378   4.940   0.673
 8610TIP3    H225774   7.454   4.810   0.686
 8611TIP3   OH225775   3.272   1.623   4.769
 8611TIP3    H125776   3.303   1.690   4.708
 8611TIP3    H225777   3.176   1.632   4.769
 8612TIP3   OH225778   2.975   4.702   3.715
 8612TIP3    H125779   2.995   4.612   3.689
 8612TIP3    H225780   3.046   4.728   3.773
 8613TIP3   OH225781   7.386   1.567   1.046
 8613TIP3    H125782   7.395   1.638   1.110
 8613TIP3    H225783   7.400   1.609   0.962
 8614TIP3   OH225784   2.295   4.381   0.947
 8614TIP3    H125785   2.304   4.457   1.005
 8614TIP3    H225786   2.373   4.328   0.964
 8615TIP3   OH225787   3.825   6.655   0.995
 8615TIP3    H125788   3.839   6.749   1.006
 8615TIP3    H225789   3.902   6.625   0.947
 8616TIP3   OH225790   6.215   5.553   5.077
 8616TIP3    H125791   6.159   5.629   5.062
 8616TIP3    H225792   6.300   5.578   5.039
 8617TIP3   OH225793   5.309   5.380   4.547
 8617TIP3    H125794   5.320   5.474   4.529
 8617TIP3    H225795   5.358   5.337   4.477
 8618TIP3   OH225796   4.937   6.136   1.178
 8618TIP3    H125797   4.942   6.153   1.272
 8618TIP3    H225798   5.024   6.158   1.145
 8619TIP3   OH225799   1.852   5.102   2.718
 8619TIP3    H125800   1.927   5.053   2.752
 8619TIP3    H225801   1.781   5.039   2.715
 8620TIP3   OH225802   3.135   6.635   1.255
 8620TIP3    H125803   3.064   6.696   1.277
 8620TIP3    H225804   3.091   6.565   1.206
 8621TIP3   OH225805   8.211   3.873   6.517
 8621TIP3    H125806   8.290   3.922   6.494
 8621TIP3    H225807   8.143   3.940   6.527
 8622TIP3   OH225808   1.108   2.743   4.156
 8622TIP3    H125809   1.093   2.829   4.115
 8622TIP3    H225810   1.116   2.683   4.082
 8623TIP3   OH225811   4.707   7.252   2.757
 8623TIP3    H125812   4.714   7.323   2.820
 8623TIP3    H225813   4.634   7.199   2.788
 8624TIP3   OH225814   1.625   4.187   5.909
 8624TIP3    H125815   1.617   4.255   5.843
 8624TIP3    H225816   1.589   4.109   5.868
 8625TIP3   OH225817   8.125   3.809   0.501
 8625TIP3    H125818   8.097   3.768   0.419
 8625TIP3    H225819   8.096   3.900   0.493
 8626TIP3   OH225820   3.279   1.426   0.990
 8626TIP3    H125821   3.303   1.452   0.901
 8626TIP3    H225822   3.270   1.508   1.038
 8627TIP3   OH225823   5.230   3.667   3.587
 8627TIP3    H125824   5.185   3.584   3.599
 8627TIP3    H225825   5.261   3.690   3.675
 8628TIP3   OH225826   1.933   7.421   6.635
 8628TIP3    H125827   1.900   7.371   6.710
 8628TIP3    H225828   1.871   7.401   6.565
 8629TIP3   OH225829   8.129   0.459   3.699
 8629TIP3    H125830   8.147   0.471   3.605
 8629TIP3    H225831   8.123   0.365   3.710
 8630TIP3   OH225832   7.758   4.049   4.760
 8630TIP3    H125833   7.838   4.076   4.714
 8630TIP3    H225834   7.788   4.020   4.846
 8631TIP3   OH225835   3.070   7.531   6.242
 8631TIP3    H125836   3.118   7.466   6.190
 8631TIP3    H225837   3.133   7.560   6.308
 8632TIP3   OH225838   1.488   5.983   3.841
 8632TIP3    H125839   1.439   5.910   3.802
 8632TIP3    H225840   1.517   6.035   3.766
 8633TIP3   OH225841   5.127   7.518   1.786
 8633TIP3    H125842   5.193   7.480   1.844
 8633TIP3    H225843   5.134   7.467   1.706
 8634TIP3   OH225844   3.002   0.488   1.924
 8634TIP3    H125845   2.992   0.461   2.015
 8634TIP3    H225846   2.918   0.526   1.900
 8635TIP3   OH225847   3.127   4.429   1.101
 8635TIP3    H125848   3.122   4.514   1.057
 8635TIP3    H225849   3.040   4.391   1.088
 8636TIP3   OH225850   0.593   0.947   5.320
 8636TIP3    H125851   0.577   0.969   5.411
 8636TIP3    H225852   0.510   0.909   5.290
 8637TIP3   OH225853   7.072   4.452   1.096
 8637TIP3    H125854   7.090   4.446   1.190
 8637TIP3    H225855   7.113   4.374   1.059
 8638TIP3   OH225856   2.078   1.790   3.728
 8638TIP3    H125857   2.172   1.788   3.713
 8638TIP3    H225858   2.044   1.850   3.661
 8639TIP3   OH225859   1.391   3.030   1.309
 8639TIP3    H125860   1.461   2.968   1.290
 8639TIP3    H225861   1.414   3.108   1.259
 8640TIP3   OH225862   7.772   1.343   0.097
 8640TIP3    H125863   7.691   1.368   0.053
 8640TIP3    H225864   7.793   1.418   0.153
 8641TIP3   OH225865   1.856   2.587   6.563
 8641TIP3    H125866   1.875   2.555   6.474
 8641TIP3    H225867   1.781   2.646   6.551
 8642TIP3   OH225868   4.399   6.082   5.085
 8642TIP3    H125869   4.390   6.112   5.176
 8642TIP3    H225870   4.433   6.158   5.039
 8643TIP3   OH225871   6.672   1.022   3.437
 8643TIP3    H125872   6.628   1.100   3.405
 8643TIP3    H225873   6.613   0.986   3.503
 8644TIP3   OH225874   6.394   1.638   5.034
 8644TIP3    H125875   6.422   1.549   5.010
 8644TIP3    H225876   6.381   1.682   4.950
 8645TIP3   OH225877   2.719   3.946   0.357
 8645TIP3    H125878   2.634   3.984   0.377
 8645TIP3    H225879   2.716   3.859   0.396
 8646TIP3   OH225880   0.225   4.420   0.596
 8646TIP3    H125881   0.165   4.452   0.529
 8646TIP3    H225882   0.169   4.392   0.669
 8647TIP3   OH225883   4.304   4.959   0.338
 8647TIP3    H125884   4.244   4.885   0.348
 8647TIP3    H225885   4.275   5.001   0.257
 8648TIP3   OH225886   4.184   4.290   5.188
 8648TIP3    H125887   4.156   4.209   5.144
 8648TIP3    H225888   4.276   4.276   5.207
 8649TIP3   OH225889   4.792   2.778   5.982
 8649TIP3    H125890   4.757   2.839   6.046
 8649TIP3    H225891   4.880   2.812   5.962
 8650TIP3   OH225892   3.466   3.051   2.189
 8650TIP3    H125893   3.403   2.994   2.233
 8650TIP3    H225894   3.413   3.111   2.136
 8651TIP3   OH225895   5.843   0.300   0.959
 8651TIP3    H125896   5.928   0.335   0.932
 8651TIP3    H225897   5.784   0.375   0.953
 8652TIP3   OH225898   6.217   6.487   5.085
 8652TIP3    H125899   6.261   6.572   5.097
 8652TIP3    H225900   6.273   6.425   5.131
 8653TIP3   OH225901   3.477   7.774   4.030
 8653TIP3    H125902   3.477   7.738   4.119
 8653TIP3    H225903   3.465   7.698   3.974
 8654TIP3   OH225904   7.496   0.011   3.777
 8654TIP3    H125905   7.551  -0.065   3.796
 8654TIP3    H225906   7.547   0.085   3.808
 8655TIP3   OH225907   1.603   2.479   1.618
 8655TIP3    H125908   1.685   2.437   1.644
 8655TIP3    H225909   1.592   2.456   1.525
 8656TIP3   OH225910   0.790   6.967   1.170
 8656TIP3    H125911   0.799   6.873   1.158
 8656TIP3    H225912   0.873   7.003   1.138
 8657TIP3   OH225913   6.538   0.959   2.553
 8657TIP3    H125914   6.615   0.941   2.499
 8657TIP3    H225915   6.496   1.034   2.511
 8658TIP3   OH225916   3.375   3.055   0.212
 8658TIP3    H125917   3.316   2.982   0.227
 8658TIP3    H225918   3.325   3.117   0.160
 8659TIP3   OH225919   1.192   0.537   4.565
 8659TIP3    H125920   1.166   0.628   4.552
 8659TIP3    H225921   1.135   0.506   4.636
 8660TIP3   OH225922   4.527   7.600   6.549
 8660TIP3    H125923   4.584   7.664   6.592
 8660TIP3    H225924   4.521   7.527   6.611
 8661TIP3   OH225925   2.765   5.804   6.270
 8661TIP3    H125926   2.773   5.898   6.289
 8661TIP3    H225927   2.723   5.767   6.348
 8662TIP3   OH225928   5.555   6.931   4.149
 8662TIP3    H125929   5.568   6.899   4.060
 8662TIP3    H225930   5.626   6.891   4.199
 8663TIP3   OH225931   0.828   5.274   5.782
 8663TIP3    H125932   0.872   5.190   5.792
 8663TIP3    H225933   0.899   5.337   5.770
 8664TIP3   OH225934   6.707   4.908   0.568
 8664TIP3    H125935   6.616   4.879   0.574
 8664TIP3    H225936   6.750   4.866   0.643
 8665TIP3   OH225937   3.997   5.508   2.743
 8665TIP3    H125938   4.086   5.500   2.777
 8665TIP3    H225939   3.941   5.491   2.819
 8666TIP3   OH225940   4.775   0.233   5.312
 8666TIP3    H125941   4.864   0.268   5.317
 8666TIP3    H225942   4.720   0.309   5.294
 8667TIP3   OH225943   5.229   5.208   0.770
 8667TIP3    H125944   5.182   5.141   0.820
 8667TIP3    H225945   5.294   5.243   0.832
 8668TIP3   OH225946   1.412   2.519   4.380
 8668TIP3    H125947   1.323   2.491   4.400
 8668TIP3    H225948   1.454   2.441   4.343
 8669TIP3   OH225949   4.873   5.492   2.702
 8669TIP3    H125950   4.871   5.567   2.643
 8669TIP3    H225951   4.849   5.417   2.648
 8670TIP3   OH225952   3.612   4.801   2.493
 8670TIP3    H125953   3.671   4.874   2.511
 8670TIP3    H225954   3.632   4.776   2.403
 8671TIP3   OH225955   6.042   1.765   2.326
 8671TIP3    H125956   6.072   1.823   2.257
 8671TIP3    H225957   6.044   1.819   2.405
 8672TIP3   OH225958   1.724   3.365   5.425
 8672TIP3    H125959   1.706   3.457   5.446
 8672TIP3    H225960   1.769   3.331   5.502
 8673TIP3   OH225961   4.106   6.591   5.302
 8673TIP3    H125962   4.167   6.665   5.299
 8673TIP3    H225963   4.023   6.630   5.332
 8674TIP3   OH225964   4.747   5.643   2.895
 8674TIP3    H125965   4.761   5.595   2.976
 8674TIP3    H225966   4.778   5.585   2.826
 8675TIP3   OH225967   4.600   0.025   0.566
 8675TIP3    H125968   4.666   0.007   0.498
 8675TIP3    H225969   4.649   0.067   0.637
 8676TIP3   OH225970   5.321   4.298   5.023
 8676TIP3    H125971   5.279   4.332   5.102
 8676TIP3    H225972   5.257   4.236   4.987
 8677TIP3   OH225973   6.599   2.092   4.480
 8677TIP3    H125974   6.567   2.180   4.500
 8677TIP3    H225975   6.578   2.079   4.388
 8678TIP3   OH225976   4.024   0.076   3.935
 8678TIP3    H125977   4.090   0.040   3.877
 8678TIP3    H225978   4.044   0.170   3.938
 8679TIP3   OH225979   5.238   4.366   5.619
 8679TIP3    H125980   5.150   4.382   5.584
 8679TIP3    H225981   5.234   4.277   5.654
 8680TIP3   OH225982   1.002   1.381   6.080
 8680TIP3    H125983   0.937   1.408   6.015
 8680TIP3    H225984   0.951   1.364   6.159
 8681TIP3   OH225985   0.153   5.626   5.438
 8681TIP3    H125986   0.235   5.600   5.396
 8681TIP3    H225987   0.084   5.587   5.383
 8682TIP3   OH225988   4.487   4.586   3.128
 8682TIP3    H125989   4.485   4.593   3.223
 8682TIP3    H225990   4.419   4.648   3.098
 8683TIP3   OH225991   1.697   1.391   4.685
 8683TIP3    H125992   1.657   1.334   4.620
 8683TIP3    H225993   1.632   1.399   4.754
 8684TIP3   OH225994   0.905   4.302   4.964
 8684TIP3    H125995   0.947   4.220   4.937
 8684TIP3    H225996   0.891   4.349   4.882
 8685TIP3   OH225997   6.109   0.924   5.852
 8685TIP3    H125998   6.017   0.942   5.835
 8685TIP3    H225999   6.154   0.952   5.772
 8686TIP3   OH226000   0.261   3.709   5.178
 8686TIP3    H126001   0.268   3.675   5.089
 8686TIP3    H226002   0.200   3.649   5.222
 8687TIP3   OH226003   6.245   2.389   3.535
 8687TIP3    H126004   6.263   2.381   3.441
 8687TIP3    H226005   6.227   2.300   3.564
 8688TIP3   OH226006   1.034   3.625   5.957
 8688TIP3    H126007   0.959   3.616   5.898
 8688TIP3    H226008   0.998   3.664   6.036
 8689TIP3   OH226009   1.779   5.217   5.963
 8689TIP3    H126010   1.819   5.211   6.050
 8689TIP3    H226011   1.848   5.253   5.908
 8690TIP3   OH226012   2.296   2.113   2.440
 8690TIP3    H126013   2.349   2.040   2.469
 8690TIP3    H226014   2.359   2.182   2.417
 8691TIP3   OH226015   1.693   2.241   1.798
 8691TIP3    H126016   1.690   2.168   1.737
 8691TIP3    H226017   1.766   2.221   1.857
 8692TIP3   OH226018   0.302   1.382   2.604
 8692TIP3    H126019   0.315   1.352   2.694
 8692TIP3    H226020   0.377   1.346   2.556
 8693TIP3   OH226021   4.565   3.728   6.468
 8693TIP3    H126022   4.576   3.773   6.384
 8693TIP3    H226023   4.558   3.635   6.445
 8694TIP3   OH226024   4.179   7.305   0.518
 8694TIP3    H126025   4.103   7.308   0.577
 8694TIP3    H226026   4.234   7.378   0.546
 8695TIP3   OH226027   2.055   2.138   6.498
 8695TIP3    H126028   1.970   2.183   6.496
 8695TIP3    H226029   2.075   2.120   6.406
 8696TIP3   OH226030   5.492   1.138   5.953
 8696TIP3    H126031   5.490   1.173   5.864
 8696TIP3    H226032   5.414   1.084   5.960
 8697TIP3   OH226033   3.100   4.197   3.713
 8697TIP3    H126034   3.119   4.148   3.633
 8697TIP3    H226035   3.047   4.138   3.766
 8698TIP3   OH226036   0.391   3.450   4.719
 8698TIP3    H126037   0.377   3.363   4.682
 8698TIP3    H226038   0.437   3.498   4.649
 8699TIP3   OH226039   1.374   1.760   0.298
 8699TIP3    H126040   1.292   1.803   0.271
 8699TIP3    H226041   1.354   1.721   0.383
 8700TIP3   OH226042   5.703   1.137   1.976
 8700TIP3    H126043   5.787   1.141   2.022
 8700TIP3    H226044   5.659   1.060   2.013
 8701TIP3   OH226045   6.425   0.067   1.407
 8701TIP3    H126046   6.491   0.131   1.380
 8701TIP3    H226047   6.376   0.111   1.476
 8702TIP3   OH226048   1.783   3.267   1.737
 8702TIP3    H126049   1.795   3.177   1.769
 8702TIP3    H226050   1.695   3.266   1.699
 8703TIP3   OH226051   6.361   2.633   1.195
 8703TIP3    H126052   6.344   2.690   1.271
 8703TIP3    H226053   6.454   2.647   1.176
 8704TIP3   OH226054   4.750   4.964   4.820
 8704TIP3    H126055   4.767   4.890   4.878
 8704TIP3    H226056   4.788   4.938   4.736
 8705TIP3   OH226057   0.601   7.806   1.687
 8705TIP3    H126058   0.593   7.861   1.609
 8705TIP3    H226059   0.528   7.744   1.681
 8706TIP3   OH226060   5.491   7.762   5.850
 8706TIP3    H126061   5.487   7.799   5.939
 8706TIP3    H226062   5.482   7.838   5.793
 8707TIP3   OH226063   2.876   2.763   5.180
 8707TIP3    H126064   2.952   2.705   5.186
 8707TIP3    H226065   2.904   2.835   5.123
 8708TIP3   OH226066   4.087   1.131   2.680
 8708TIP3    H126067   4.113   1.040   2.694
 8708TIP3    H226068   3.995   1.126   2.655
 8709TIP3   OH226069   6.681   0.465   2.128
 8709TIP3    H126070   6.762   0.496   2.168
 8709TIP3    H226071   6.623   0.445   2.202
 8710TIP3   OH226072   6.651   4.578   2.604
 8710TIP3    H126073   6.589   4.622   2.662
 8710TIP3    H226074   6.621   4.487   2.601
 8711TIP3   OH226075   5.352   7.131   1.835
 8711TIP3    H126076   5.316   7.128   1.746
 8711TIP3    H226077   5.446   7.139   1.822
 8712TIP3   OH226078   5.236   2.924   4.119
 8712TIP3    H126079   5.176   2.998   4.125
 8712TIP3    H226080   5.180   2.847   4.109
 8713TIP3   OH226081   0.125   3.237   4.757
 8713TIP3    H126082   0.046   3.205   4.712
 8713TIP3    H226083   0.095   3.312   4.808
 8714TIP3   OH226084   6.301   7.725   2.232
 8714TIP3    H126085   6.339   7.716   2.145
 8714TIP3    H226086   6.274   7.817   2.238
 8715TIP3   OH226087   3.869   5.758   2.748
 8715TIP3    H126088   3.920   5.726   2.673
 8715TIP3    H226089   3.894   5.700   2.820
 8716TIP3   OH226090   2.975   1.680   1.543
 8716TIP3    H126091   2.914   1.606   1.551
 8716TIP3    H226092   2.975   1.701   1.450
 8717TIP3   OH226093   2.243   4.049   5.603
 8717TIP3    H126094   2.276   3.975   5.655
 8717TIP3    H226095   2.257   4.022   5.512
 8718TIP3   OH226096   2.041   1.190   2.409
 8718TIP3    H126097   2.016   1.139   2.485
 8718TIP3    H226098   2.101   1.257   2.443
 8719TIP3   OH226099   7.225   6.745   0.950
 8719TIP3    H126100   7.271   6.778   1.028
 8719TIP3    H226101   7.232   6.817   0.887
 8720TIP3   OH226102   2.558   2.243   4.225
 8720TIP3    H126103   2.496   2.297   4.274
 8720TIP3    H226104   2.516   2.229   4.140
 8721TIP3   OH226105   0.484   4.956   3.673
 8721TIP3    H126106   0.501   5.044   3.705
 8721TIP3    H226107   0.492   4.963   3.578
 8722TIP3   OH226108   1.031   3.553   0.609
 8722TIP3    H126109   1.034   3.549   0.705
 8722TIP3    H226110   0.985   3.473   0.584
 8723TIP3   OH226111   7.785   0.675   5.587
 8723TIP3    H126112   7.713   0.678   5.525
 8723TIP3    H226113   7.760   0.734   5.657
 8724TIP3   OH226114   3.188   3.962   6.395
 8724TIP3    H126115   3.122   3.898   6.366
 8724TIP3    H226116   3.154   3.993   6.479
 8725TIP3   OH226117   1.429   1.823   3.221
 8725TIP3    H126118   1.491   1.773   3.275
 8725TIP3    H226119   1.440   1.787   3.133
 8726TIP3   OH226120   3.937   6.354   6.279
 8726TIP3    H126121   3.987   6.315   6.351
 8726TIP3    H226122   3.887   6.424   6.321
 8727TIP3   OH226123   2.021   5.700   3.287
 8727TIP3    H126124   1.966   5.778   3.298
 8727TIP3    H226125   1.976   5.648   3.220
 8728TIP3   OH226126   0.347   0.103   2.834
 8728TIP3    H126127   0.405   0.059   2.772
 8728TIP3    H226128   0.405   0.133   2.904
 8729TIP3   OH226129   0.003   1.653   3.123
 8729TIP3    H126130  -0.007   1.576   3.180
 8729TIP3    H226131   0.077   1.701   3.161
 8730TIP3   OH226132   2.732   2.853   0.820
 8730TIP3    H126133   2.762   2.929   0.870
 8730TIP3    H226134   2.683   2.801   0.884
 8731TIP3   OH226135   6.010   6.692   3.212
 8731TIP3    H126136   5.932   6.649   3.246
 8731TIP3    H226137   6.076   6.622   3.209
 8732TIP3   OH226138   5.410   7.498   3.622
 8732TIP3    H126139   5.437   7.543   3.703
 8732TIP3    H226140   5.477   7.430   3.609
 8733TIP3   OH226141   2.015   6.551   6.565
 8733TIP3    H126142   2.060   6.497   6.500
 8733TIP3    H226143   1.943   6.592   6.517
 8734TIP3   OH226144   5.884   2.745   1.957
 8734TIP3    H126145   5.839   2.802   1.895
 8734TIP3    H226146   5.823   2.734   2.029
 8735TIP3   OH226147   1.693   0.861   4.177
 8735TIP3    H126148   1.602   0.830   4.179
 8735TIP3    H226149   1.688   0.948   4.137
 8736TIP3   OH226150   3.318   4.074   3.236
 8736TIP3    H126151   3.377   4.149   3.227
 8736TIP3    H226152   3.345   4.013   3.168
 8737TIP3   OH226153   5.514   2.827   6.458
 8737TIP3    H126154   5.601   2.853   6.490
 8737TIP3    H226155   5.502   2.738   6.490
 8738TIP3   OH226156   4.554   2.058   0.756
 8738TIP3    H126157   4.592   2.040   0.842
 8738TIP3    H226158   4.581   2.148   0.736
 8739TIP3   OH226159   7.096   3.763   3.157
 8739TIP3    H126160   7.155   3.694   3.126
 8739TIP3    H226161   7.143   3.844   3.136
 8740TIP3   OH226162   2.658   6.130   1.530
 8740TIP3    H126163   2.721   6.170   1.469
 8740TIP3    H226164   2.674   6.036   1.523
 8741TIP3   OH226165   7.128   1.432   2.405
 8741TIP3    H126166   7.157   1.410   2.494
 8741TIP3    H226167   7.035   1.452   2.414
 8742TIP3   OH226168   3.533   1.947   4.031
 8742TIP3    H126169   3.610   1.997   4.006
 8742TIP3    H226170   3.487   2.004   4.094
 8743TIP3   OH226171   4.670   5.604   4.819
 8743TIP3    H126172   4.592   5.566   4.859
 8743TIP3    H226173   4.739   5.539   4.833
 8744TIP3   OH226174   6.057   4.932   0.316
 8744TIP3    H126175   6.106   5.010   0.292
 8744TIP3    H226176   6.021   4.899   0.233
 8745TIP3   OH226177   2.702   0.723   6.744
 8745TIP3    H126178   2.666   0.659   6.682
 8745TIP3    H226179   2.665   0.807   6.715
 8746TIP3   OH226180   7.891   5.870   1.334
 8746TIP3    H126181   7.862   5.792   1.381
 8746TIP3    H226182   7.903   5.841   1.244
 8747TIP3   OH226183   2.550   5.530   2.551
 8747TIP3    H126184   2.464   5.568   2.572
 8747TIP3    H226185   2.612   5.585   2.598
 8748TIP3   OH226186   6.114   6.473   5.572
 8748TIP3    H126187   6.186   6.481   5.635
 8748TIP3    H226188   6.092   6.380   5.571
 8749TIP3   OH226189   4.662   2.749   1.811
 8749TIP3    H126190   4.581   2.779   1.852
 8749TIP3    H226191   4.716   2.720   1.885
 8750TIP3   OH226192   5.896   2.318   1.473
 8750TIP3    H126193   5.934   2.402   1.501
 8750TIP3    H226194   5.832   2.342   1.406
 8751TIP3   OH226195   1.343   0.988   4.149
 8751TIP3    H126196   1.295   0.967   4.230
 8751TIP3    H226197   1.295   1.062   4.112
 8752TIP3   OH226198   8.292   4.185   2.381
 8752TIP3    H126199   8.252   4.243   2.316
 8752TIP3    H226200   8.296   4.100   2.338
 8753TIP3   OH226201   4.866   7.568   3.615
 8753TIP3    H126202   4.896   7.571   3.525
 8753TIP3    H226203   4.929   7.509   3.659
 8754TIP3   OH226204   1.411   2.388   2.670
 8754TIP3    H126205   1.431   2.477   2.701
 8754TIP3    H226206   1.379   2.343   2.749
 8755TIP3   OH226207   8.178   1.903   3.285
 8755TIP3    H126208   8.128   1.827   3.316
 8755TIP3    H226209   8.194   1.885   3.193
 8756TIP3   OH226210   2.675   4.666   3.076
 8756TIP3    H126211   2.749   4.610   3.052
 8756TIP3    H226212   2.675   4.735   3.011
 8757TIP3   OH226213   2.475   2.167   3.973
 8757TIP3    H126214   2.407   2.134   3.914
 8757TIP3    H226215   2.495   2.254   3.939
 8758TIP3   OH226216   3.833   7.680   4.216
 8758TIP3    H126217   3.909   7.705   4.164
 8758TIP3    H226218   3.804   7.597   4.177
 8759TIP3   OH226219   2.651   5.405   3.228
 8759TIP3    H126220   2.739   5.417   3.263
 8759TIP3    H226221   2.653   5.319   3.186
 8760TIP3   OH226222   7.117   1.684   6.585
 8760TIP3    H126223   7.210   1.707   6.584
 8760TIP3    H226224   7.074   1.763   6.620
 8761TIP3   OH226225   0.240   5.189   6.371
 8761TIP3    H126226   0.160   5.233   6.343
 8761TIP3    H226227   0.265   5.133   6.297
 8762TIP3   OH226228   6.909   0.401   3.745
 8762TIP3    H126229   6.822   0.426   3.775
 8762TIP3    H226230   6.895   0.319   3.697
 8763TIP3   OH226231   6.306   2.208   2.902
 8763TIP3    H126232   6.313   2.294   2.944
 8763TIP3    H226233   6.272   2.151   2.970
 8764TIP3   OH226234   7.263   6.609   2.684
 8764TIP3    H126235   7.343   6.575   2.644
 8764TIP3    H226236   7.292   6.676   2.745
 8765TIP3   OH226237   2.373   3.254   6.450
 8765TIP3    H126238   2.298   3.260   6.508
 8765TIP3    H226239   2.387   3.160   6.438
 8766TIP3   OH226240   1.979   4.786   0.904
 8766TIP3    H126241   1.961   4.694   0.886
 8766TIP3    H226242   2.074   4.793   0.902
 8767TIP3   OH226243   4.303   6.515   4.933
 8767TIP3    H126244   4.322   6.471   5.016
 8767TIP3    H226245   4.222   6.473   4.902
 8768TIP3   OH226246   3.875   6.820   5.083
 8768TIP3    H126247   3.889   6.906   5.043
 8768TIP3    H226248   3.900   6.832   5.175
 8769TIP3   OH226249   4.546   5.356   6.054
 8769TIP3    H126250   4.603   5.426   6.022
 8769TIP3    H226251   4.467   5.400   6.084
 8770TIP3   OH226252   4.063   1.940   5.496
 8770TIP3    H126253   4.002   2.012   5.509
 8770TIP3    H226254   4.007   1.864   5.477
 8771TIP3   OH226255   4.811   6.284   0.079
 8771TIP3    H126256   4.847   6.202   0.044
 8771TIP3    H226257   4.720   6.285   0.050
 8772TIP3   OH226258   3.896   2.457   1.607
 8772TIP3    H126259   3.918   2.549   1.594
 8772TIP3    H226260   3.973   2.409   1.576
 8773TIP3   OH226261   3.127   5.265   0.389
 8773TIP3    H126262   3.180   5.213   0.449
 8773TIP3    H226263   3.037   5.237   0.407
 8774TIP3   OH226264   0.282   1.196   6.154
 8774TIP3    H126265   0.319   1.279   6.124
 8774TIP3    H226266   0.251   1.215   6.243
 8775TIP3   OH226267   6.023   4.788   0.068
 8775TIP3    H126268   5.962   4.716   0.087
 8775TIP3    H226269   6.107   4.744   0.050
 8776TIP3   OH226270   6.403   6.915   5.932
 8776TIP3    H126271   6.458   6.837   5.931
 8776TIP3    H226272   6.416   6.953   6.019
 8777TIP3   OH226273   2.117   0.529   4.528
 8777TIP3    H126274   2.052   0.598   4.518
 8777TIP3    H226275   2.201   0.573   4.519
 8778TIP3   OH226276   5.751   2.924   4.581
 8778TIP3    H126277   5.827   2.962   4.536
 8778TIP3    H226278   5.753   2.963   4.668
 8779TIP3   OH226279   0.739   0.533   2.030
 8779TIP3    H126280   0.769   0.537   1.939
 8779TIP3    H226281   0.749   0.441   2.055
 8780TIP3   OH226282   1.844   4.876   2.098
 8780TIP3    H126283   1.797   4.803   2.058
 8780TIP3    H226284   1.779   4.921   2.152
 8781TIP3   OH226285   1.268   5.421   2.004
 8781TIP3    H126286   1.255   5.515   2.013
 8781TIP3    H226287   1.232   5.384   2.084
 8782TIP3   OH226288   4.044   3.669   0.236
 8782TIP3    H126289   4.022   3.724   0.311
 8782TIP3    H226290   4.012   3.582   0.261
 8783TIP3   OH226291   0.626   5.803   6.580
 8783TIP3    H126292   0.653   5.754   6.657
 8783TIP3    H226293   0.652   5.893   6.598
 8784TIP3   OH226294   6.576   1.364   4.681
 8784TIP3    H126295   6.649   1.306   4.661
 8784TIP3    H226296   6.527   1.369   4.598
 8785TIP3   OH226297   0.395   3.730   2.266
 8785TIP3    H126298   0.442   3.746   2.347
 8785TIP3    H226299   0.463   3.704   2.203
 8786TIP3   OH226300   6.330   6.201   5.062
 8786TIP3    H126301   6.279   6.223   5.140
 8786TIP3    H226302   6.324   6.106   5.055
 8787TIP3   OH226303   0.926   6.666   4.594
 8787TIP3    H126304   0.944   6.629   4.507
 8787TIP3    H226305   0.902   6.590   4.648
 8788TIP3   OH226306   0.392   0.026   1.658
 8788TIP3    H126307   0.305   0.064   1.646
 8788TIP3    H226308   0.383  -0.033   1.733
 8789TIP3   OH226309   3.673   3.045   2.013
 8789TIP3    H126310   3.623   3.047   1.931
 8789TIP3    H226311   3.606   3.052   2.082
 8790TIP3   OH226312   6.798   6.216   4.090
 8790TIP3    H126313   6.725   6.251   4.141
 8790TIP3    H226314   6.758   6.154   4.029
 8791TIP3   OH226315   5.425   5.162   3.562
 8791TIP3    H126316   5.397   5.074   3.535
 8791TIP3    H226317   5.353   5.195   3.616
 8792TIP3   OH226318   2.285   6.891   2.846
 8792TIP3    H126319   2.225   6.818   2.862
 8792TIP3    H226320   2.277   6.908   2.752
 8793TIP3   OH226321   1.449   1.162   3.084
 8793TIP3    H126322   1.493   1.092   3.133
 8793TIP3    H226323   1.520   1.208   3.039
 8794TIP3   OH226324   6.279   7.742   1.408
 8794TIP3    H126325   6.239   7.686   1.341
 8794TIP3    H226326   6.271   7.691   1.489
 8795TIP3   OH226327   2.784   1.489   2.078
 8795TIP3    H126328   2.785   1.583   2.063
 8795TIP3    H226329   2.693   1.469   2.101
 8796TIP3   OH226330   4.600   4.697   4.652
 8796TIP3    H126331   4.593   4.668   4.561
 8796TIP3    H226332   4.670   4.762   4.652
 8797TIP3   OH226333   0.190   0.568   1.974
 8797TIP3    H126334   0.124   0.551   1.907
 8797TIP3    H226335   0.150   0.538   2.055
 8798TIP3   OH226336   1.444   5.163   2.613
 8798TIP3    H126337   1.352   5.168   2.638
 8798TIP3    H226338   1.476   5.253   2.615
 8799TIP3   OH226339   1.070   4.362   1.968
 8799TIP3    H126340   1.061   4.289   1.907
 8799TIP3    H226341   1.105   4.434   1.915
 8800TIP3   OH226342   3.246   0.061   6.175
 8800TIP3    H126343   3.253   0.066   6.080
 8800TIP3    H226344   3.332   0.030   6.204
 8801TIP3   OH226345   6.005   2.491   0.060
 8801TIP3    H126346   6.072   2.459   0.000
 8801TIP3    H226347   5.931   2.514   0.004
 8802TIP3   OH226348   1.622   0.127   4.888
 8802TIP3    H126349   1.652   0.202   4.836
 8802TIP3    H226350   1.703   0.080   4.912
 8803TIP3   OH226351   8.162   1.978   2.054
 8803TIP3    H126352   8.184   1.885   2.044
 8803TIP3    H226353   8.186   1.999   2.144
 8804TIP3   OH226354   5.031   6.305   5.967
 8804TIP3    H126355   5.120   6.272   5.978
 8804TIP3    H226356   4.975   6.242   6.013
 8805TIP3   OH226357   3.478   5.093   5.123
 8805TIP3    H126358   3.504   5.026   5.186
 8805TIP3    H226359   3.403   5.055   5.077
 8806TIP3   OH226360   2.788   2.620   4.142
 8806TIP3    H126361   2.807   2.623   4.236
 8806TIP3    H226362   2.783   2.527   4.121
 8807TIP3   OH226363   4.251   3.600   4.150
 8807TIP3    H126364   4.204   3.624   4.230
 8807TIP3    H226365   4.339   3.634   4.163
 8808TIP3   OH226366   4.398   1.791   5.388
 8808TIP3    H126367   4.363   1.796   5.476
 8808TIP3    H226368   4.486   1.828   5.395
 8809TIP3   OH226369   1.233   0.939   4.393
 8809TIP3    H126370   1.169   0.868   4.385
 8809TIP3    H226371   1.195   0.999   4.457
 8810TIP3   OH226372   1.917   7.143   6.482
 8810TIP3    H126373   1.968   7.193   6.418
 8810TIP3    H226374   1.830   7.136   6.442
 8811TIP3   OH226375   3.724   1.071   1.487
 8811TIP3    H126376   3.681   1.007   1.544
 8811TIP3    H226377   3.653   1.112   1.439
 8812TIP3   OH226378   4.800   1.583   5.213
 8812TIP3    H126379   4.894   1.586   5.199
 8812TIP3    H226380   4.781   1.662   5.263
 8813TIP3   OH226381   4.450   0.837   2.806
 8813TIP3    H126382   4.403   0.900   2.751
 8813TIP3    H226383   4.458   0.759   2.751
 8814TIP3   OH226384   7.677   4.984   5.593
 8814TIP3    H126385   7.684   4.912   5.656
 8814TIP3    H226386   7.735   5.051   5.628
 8815TIP3   OH226387   3.978   4.466   3.168
 8815TIP3    H126388   4.064   4.472   3.210
 8815TIP3    H226389   3.952   4.374   3.180
 8816TIP3   OH226390   6.384   2.037   3.368
 8816TIP3    H126391   6.410   2.125   3.339
 8816TIP3    H226392   6.341   2.052   3.452
 8817TIP3   OH226393   0.345   0.421   4.327
 8817TIP3    H126394   0.281   0.432   4.397
 8817TIP3    H226395   0.320   0.486   4.261
 8818TIP3   OH226396   5.330   0.603   1.763
 8818TIP3    H126397   5.287   0.579   1.845
 8818TIP3    H226398   5.415   0.559   1.766
 8819TIP3   OH226399   4.828   2.172   0.594
 8819TIP3    H126400   4.745   2.212   0.622
 8819TIP3    H226401   4.802   2.088   0.557
 8820TIP3   OH226402   6.169   4.584   1.481
 8820TIP3    H126403   6.149   4.509   1.425
 8820TIP3    H226404   6.201   4.651   1.420
 8821TIP3   OH226405   7.501   2.987   3.885
 8821TIP3    H126406   7.422   3.024   3.924
 8821TIP3    H226407   7.572   3.013   3.944
 8822TIP3   OH226408   6.635   3.701   0.765
 8822TIP3    H126409   6.686   3.747   0.699
 8822TIP3    H226410   6.625   3.612   0.730
 8823TIP3   OH226411   1.909   1.698   3.469
 8823TIP3    H126412   1.871   1.633   3.529
 8823TIP3    H226413   1.931   1.648   3.391
 8824TIP3   OH226414   4.282   2.950   5.739
 8824TIP3    H126415   4.377   2.946   5.724
 8824TIP3    H226416   4.270   3.025   5.797
 8825TIP3   OH226417   7.224   0.711   2.482
 8825TIP3    H126418   7.194   0.796   2.449
 8825TIP3    H226419   7.305   0.731   2.529
 8826TIP3   OH226420   1.233   5.046   0.718
 8826TIP3    H126421   1.160   5.090   0.676
 8826TIP3    H226422   1.311   5.086   0.679
 8827TIP3   OH226423   2.079   6.971   2.999
 8827TIP3    H126424   2.146   6.936   3.059
 8827TIP3    H226425   2.121   6.967   2.913
 8828TIP3   OH226426   4.469   0.397   4.398
 8828TIP3    H126427   4.521   0.478   4.399
 8828TIP3    H226428   4.390   0.420   4.348
 8829TIP3   OH226429   4.875   2.186   3.330
 8829TIP3    H126430   4.912   2.148   3.410
 8829TIP3    H226431   4.874   2.280   3.347
 8830TIP3   OH226432   1.714   0.971   6.181
 8830TIP3    H126433   1.792   1.027   6.184
 8830TIP3    H226434   1.748   0.883   6.198
 8831TIP3   OH226435   5.253   5.629   1.656
 8831TIP3    H126436   5.272   5.562   1.721
 8831TIP3    H226437   5.215   5.581   1.582
 8832TIP3   OH226438   1.074   6.574   2.659
 8832TIP3    H126439   1.097   6.599   2.570
 8832TIP3    H226440   1.156   6.543   2.697
 8833TIP3   OH226441   0.114   5.544   1.484
 8833TIP3    H126442   0.138   5.576   1.571
 8833TIP3    H226443   0.057   5.613   1.448
 8834TIP3   OH226444   7.051   0.488   1.146
 8834TIP3    H126445   7.128   0.525   1.190
 8834TIP3    H226446   7.081   0.472   1.056
 8835TIP3   OH226447   0.558   2.046   0.892
 8835TIP3    H126448   0.553   2.013   0.803
 8835TIP3    H226449   0.567   2.140   0.883
 8836TIP3   OH226450   2.605   4.342   5.032
 8836TIP3    H126451   2.597   4.345   4.936
 8836TIP3    H226452   2.596   4.250   5.054
 8837TIP3   OH226453   2.508   3.277   5.301
 8837TIP3    H126454   2.430   3.243   5.345
 8837TIP3    H226455   2.474   3.345   5.242
 8838TIP3   OH226456   3.352   7.261   1.041
 8838TIP3    H126457   3.379   7.246   1.132
 8838TIP3    H226458   3.294   7.337   1.046
 8839TIP3   OH226459   5.092   2.150   5.374
 8839TIP3    H126460   5.117   2.229   5.421
 8839TIP3    H226461   5.010   2.123   5.416
 8840TIP3   OH226462   7.418   4.046   1.820
 8840TIP3    H126463   7.494   4.037   1.762
 8840TIP3    H226464   7.424   4.135   1.853
 8841TIP3   OH226465   6.854   1.289   6.154
 8841TIP3    H126466   6.813   1.227   6.215
 8841TIP3    H226467   6.784   1.350   6.131
 8842TIP3   OH226468   2.477   0.634   3.879
 8842TIP3    H126469   2.396   0.591   3.854
 8842TIP3    H226470   2.460   0.727   3.867
 8843TIP3   OH226471   3.413   0.415   1.424
 8843TIP3    H126472   3.361   0.356   1.478
 8843TIP3    H226473   3.411   0.376   1.337
 8844TIP3   OH226474   7.735   4.782   5.787
 8844TIP3    H126475   7.800   4.757   5.852
 8844TIP3    H226476   7.728   4.707   5.728
 8845TIP3   OH226477   2.842   6.735   0.533
 8845TIP3    H126478   2.936   6.755   0.540
 8845TIP3    H226479   2.839   6.650   0.491
 8846TIP3   OH226480   2.489   3.614   2.766
 8846TIP3    H126481   2.424   3.560   2.812
 8846TIP3    H226482   2.437   3.668   2.707
 8847TIP3   OH226483   7.268   5.127   2.588
 8847TIP3    H126484   7.220   5.204   2.620
 8847TIP3    H226485   7.305   5.155   2.505
 8848TIP3   OH226486   4.138   4.931   5.768
 8848TIP3    H126487   4.061   4.879   5.745
 8848TIP3    H226488   4.144   4.997   5.699
 8849TIP3   OH226489   5.863   5.225   5.053
 8849TIP3    H126490   5.889   5.260   4.967
 8849TIP3    H226491   5.942   5.232   5.106
 8850TIP3   OH226492   0.935   4.354   0.328
 8850TIP3    H126493   1.029   4.346   0.344
 8850TIP3    H226494   0.914   4.278   0.273
 8851TIP3   OH226495   2.694   2.599   0.151
 8851TIP3    H126496   2.766   2.608   0.214
 8851TIP3    H226497   2.710   2.668   0.087
 8852TIP3   OH226498   2.045   3.611   2.054
 8852TIP3    H126499   2.013   3.661   2.128
 8852TIP3    H226500   1.967   3.570   2.017
 8853TIP3   OH226501   3.577   4.156   4.252
 8853TIP3    H126502   3.625   4.075   4.264
 8853TIP3    H226503   3.640   4.216   4.213
 8854TIP3   OH226504   6.178   0.038   3.057
 8854TIP3    H126505   6.247  -0.002   3.005
 8854TIP3    H226506   6.102  -0.018   3.043
 8855TIP3   OH226507   2.839   4.964   5.925
 8855TIP3    H126508   2.820   5.044   5.876
 8855TIP3    H226509   2.846   4.993   6.016
 8856TIP3   OH226510   3.250   3.096   1.528
 8856TIP3    H126511   3.174   3.142   1.563
 8856TIP3    H226512   3.243   3.008   1.565
 8857TIP3   OH226513   7.499   1.479   1.504
 8857TIP3    H126514   7.548   1.423   1.564
 8857TIP3    H226515   7.486   1.425   1.426
 8858TIP3   OH226516   6.796   5.892   3.527
 8858TIP3    H126517   6.829   5.859   3.611
 8858TIP3    H226518   6.832   5.981   3.520
 8859TIP3   OH226519   5.411   5.250   4.309
 8859TIP3    H126520   5.425   5.155   4.313
 8859TIP3    H226521   5.461   5.278   4.232
 8860TIP3   OH226522   6.547   2.781   2.030
 8860TIP3    H126523   6.533   2.689   2.053
 8860TIP3    H226524   6.569   2.823   2.113
 8861TIP3   OH226525   7.291   6.668   6.137
 8861TIP3    H126526   7.298   6.763   6.132
 8861TIP3    H226527   7.208   6.652   6.183
 8862TIP3   OH226528   3.299   5.733   2.936
 8862TIP3    H126529   3.283   5.721   2.842
 8862TIP3    H226530   3.340   5.651   2.964
 8863TIP3   OH226531   1.873   1.745   3.972
 8863TIP3    H126532   1.832   1.676   3.920
 8863TIP3    H226533   1.967   1.724   3.969
 8864TIP3   OH226534   8.164   5.628   4.898
 8864TIP3    H126535   8.257   5.629   4.923
 8864TIP3    H226536   8.145   5.537   4.878
 8865TIP3   OH226537   3.390   0.766   2.153
 8865TIP3    H126538   3.365   0.702   2.087
 8865TIP3    H226539   3.356   0.849   2.121
 8866TIP3   OH226540   7.066   2.784   2.021
 8866TIP3    H126541   7.112   2.731   2.086
 8866TIP3    H226542   6.989   2.818   2.068
 8867TIP3   OH226543   2.517   3.278   1.111
 8867TIP3    H126544   2.608   3.292   1.136
 8867TIP3    H226545   2.480   3.366   1.102
 8868TIP3   OH226546   4.431   7.522   5.941
 8868TIP3    H126547   4.358   7.535   5.881
 8868TIP3    H226548   4.446   7.609   5.979
 8869TIP3   OH226549   3.626   6.653   5.986
 8869TIP3    H126550   3.672   6.617   6.062
 8869TIP3    H226551   3.597   6.576   5.936
 8870TIP3   OH226552   0.747   5.168   4.596
 8870TIP3    H126553   0.687   5.220   4.542
 8870TIP3    H226554   0.704   5.083   4.605
 8871TIP3   OH226555   6.759   0.160   5.907
 8871TIP3    H126556   6.762   0.080   5.959
 8871TIP3    H226557   6.682   0.150   5.851
 8872TIP3   OH226558   0.797   0.981   0.208
 8872TIP3    H126559   0.716   0.930   0.198
 8872TIP3    H226560   0.846   0.934   0.275
 8873TIP3   OH226561   4.636   6.651   2.998
 8873TIP3    H126562   4.562   6.710   2.978
 8873TIP3    H226563   4.711   6.692   2.954
 8874TIP3   OH226564   5.643   3.301   1.777
 8874TIP3    H126565   5.726   3.264   1.807
 8874TIP3    H226566   5.611   3.351   1.852
 8875TIP3   OH226567   8.285   3.626   3.445
 8875TIP3    H126568   8.284   3.720   3.424
 8875TIP3    H226569   8.249   3.622   3.534
 8876TIP3   OH226570   8.237   1.868   2.905
 8876TIP3    H126571   8.277   1.787   2.938
 8876TIP3    H226572   8.266   1.874   2.814
 8877TIP3   OH226573   6.674   3.417   1.590
 8877TIP3    H126574   6.716   3.501   1.607
 8877TIP3    H226575   6.654   3.381   1.676
 8878TIP3   OH226576   8.036   7.719   6.470
 8878TIP3    H126577   8.128   7.745   6.475
 8878TIP3    H226578   7.996   7.782   6.410
 8879TIP3   OH226579   1.805   1.736   2.792
 8879TIP3    H126580   1.872   1.803   2.779
 8879TIP3    H226581   1.817   1.676   2.719
 8880TIP3   OH226582   2.876   7.794   5.495
 8880TIP3    H126583   2.811   7.818   5.562
 8880TIP3    H226584   2.893   7.701   5.510
 8881TIP3   OH226585   4.308   4.784   4.087
 8881TIP3    H126586   4.254   4.770   4.166
 8881TIP3    H226587   4.350   4.869   4.102
 8882TIP3   OH226588   5.933   4.179   0.423
 8882TIP3    H126589   5.955   4.249   0.485
 8882TIP3    H226590   5.966   4.210   0.339
 8883TIP3   OH226591   3.473   6.271   3.748
 8883TIP3    H126592   3.417   6.229   3.813
 8883TIP3    H226593   3.412   6.304   3.681
 8884TIP3   OH226594   4.029   1.914   4.435
 8884TIP3    H126595   4.058   1.823   4.443
 8884TIP3    H226596   4.096   1.965   4.481
 8885TIP3   OH226597   6.488   5.516   2.209
 8885TIP3    H126598   6.475   5.505   2.303
 8885TIP3    H226599   6.491   5.426   2.175
 8886TIP3   OH226600   6.354   2.651   4.360
 8886TIP3    H126601   6.276   2.611   4.398
 8886TIP3    H226602   6.388   2.584   4.301
 8887TIP3   OH226603   0.901   1.669   6.698
 8887TIP3    H126604   0.900   1.743   6.759
 8887TIP3    H226605   0.906   1.709   6.611
 8888TIP3   OH226606   7.796   1.320   5.825
 8888TIP3    H126607   7.859   1.248   5.820
 8888TIP3    H226608   7.829   1.385   5.763
 8889TIP3   OH226609   6.860   3.969   4.612
 8889TIP3    H126610   6.801   4.044   4.600
 8889TIP3    H226611   6.948   4.006   4.597
 8890TIP3   OH226612   7.821   5.342   5.258
 8890TIP3    H126613   7.862   5.361   5.343
 8890TIP3    H226614   7.893   5.341   5.196
 8891TIP3   OH226615   2.712   0.575   6.488
 8891TIP3    H126616   2.621   0.547   6.498
 8891TIP3    H226617   2.706   0.663   6.450
 8892TIP3   OH226618   1.038   3.206   3.865
 8892TIP3    H126619   0.990   3.151   3.804
 8892TIP3    H226620   1.103   3.252   3.812
 8893TIP3   OH226621   4.581   4.325   4.639
 8893TIP3    H126622   4.649   4.387   4.665
 8893TIP3    H226623   4.623   4.239   4.645
 8894TIP3   OH226624   4.591   0.821   1.308
 8894TIP3    H126625   4.499   0.848   1.314
 8894TIP3    H226626   4.588   0.730   1.277
 8895TIP3   OH226627   3.582   5.165   3.078
 8895TIP3    H126628   3.528   5.244   3.087
 8895TIP3    H226629   3.629   5.177   2.996
 8896TIP3   OH226630   6.129   5.007   2.790
 8896TIP3    H126631   6.056   5.067   2.806
 8896TIP3    H226632   6.202   5.044   2.839
 8897TIP3   OH226633   2.669   3.549   2.515
 8897TIP3    H126634   2.625   3.591   2.589
 8897TIP3    H226635   2.608   3.561   2.442
 8898TIP3   OH226636   0.952   6.582   0.670
 8898TIP3    H126637   0.927   6.490   0.684
 8898TIP3    H226638   0.976   6.585   0.577
 8899TIP3   OH226639   1.068   6.003   3.191
 8899TIP3    H126640   1.080   5.934   3.126
 8899TIP3    H226641   1.083   6.084   3.142
 8900TIP3   OH226642   7.294   6.138   2.188
 8900TIP3    H126643   7.341   6.210   2.231
 8900TIP3    H226644   7.203   6.166   2.187
 8901TIP3   OH226645   7.762   4.969   4.208
 8901TIP3    H126646   7.705   4.901   4.244
 8901TIP3    H226647   7.759   5.040   4.272
 8902TIP3   OH226648   7.514   4.631   2.705
 8902TIP3    H126649   7.522   4.653   2.798
 8902TIP3    H226650   7.474   4.708   2.665
 8903TIP3   OH226651   0.619   7.168   1.244
 8903TIP3    H126652   0.672   7.088   1.239
 8903TIP3    H226653   0.675   7.236   1.205
 8904TIP3   OH226654   3.260   4.201   1.772
 8904TIP3    H126655   3.222   4.161   1.694
 8904TIP3    H226656   3.327   4.261   1.739
 8905TIP3   OH226657   2.433   2.093   3.517
 8905TIP3    H126658   2.346   2.113   3.550
 8905TIP3    H226659   2.457   2.171   3.466
 8906TIP3   OH226660   3.341   7.740   5.912
 8906TIP3    H126661   3.378   7.654   5.931
 8906TIP3    H226662   3.379   7.764   5.828
 8907TIP3   OH226663   6.855   2.431   4.007
 8907TIP3    H126664   6.941   2.401   4.035
 8907TIP3    H226665   6.829   2.369   3.939
 8908TIP3   OH226666   6.644   4.723   5.636
 8908TIP3    H126667   6.710   4.705   5.569
 8908TIP3    H226668   6.565   4.745   5.586
 8909TIP3   OH226669   5.632   4.009   3.523
 8909TIP3    H126670   5.592   3.922   3.522
 8909TIP3    H226671   5.705   4.001   3.584
 8910TIP3   OH226672   1.916   0.854   6.410
 8910TIP3    H126673   1.864   0.932   6.428
 8910TIP3    H226674   2.001   0.888   6.381
 8911TIP3   OH226675   2.870   2.828   1.954
 8911TIP3    H126676   2.890   2.800   2.044
 8911TIP3    H226677   2.801   2.768   1.926
 8912TIP3   OH226678   7.173   6.203   5.960
 8912TIP3    H126679   7.181   6.180   5.867
 8912TIP3    H226680   7.116   6.136   5.997
 8913TIP3   OH226681   0.470   4.094   2.166
 8913TIP3    H126682   0.429   4.062   2.246
 8913TIP3    H226683   0.423   4.049   2.096
 8914TIP3   OH226684   1.609   0.977   4.878
 8914TIP3    H126685   1.597   0.952   4.970
 8914TIP3    H226686   1.521   0.981   4.842
 8915TIP3   OH226687   7.548   1.915   4.078
 8915TIP3    H126688   7.508   2.001   4.091
 8915TIP3    H226689   7.554   1.878   4.166
 8916TIP3   OH226690   6.534   1.358   4.213
 8916TIP3    H126691   6.503   1.420   4.279
 8916TIP3    H226692   6.471   1.286   4.215
 8917TIP3   OH226693   2.201   1.708   5.672
 8917TIP3    H126694   2.189   1.615   5.654
 8917TIP3    H226695   2.202   1.715   5.767
 8918TIP3   OH226696   7.168   4.276   2.210
 8918TIP3    H126697   7.178   4.356   2.262
 8918TIP3    H226698   7.182   4.205   2.272
 8919TIP3   OH226699   2.854   4.891   5.466
 8919TIP3    H126700   2.830   4.799   5.451
 8919TIP3    H226701   2.774   4.931   5.499
 8920TIP3   OH226702   5.042   4.566   5.465
 8920TIP3    H126703   5.092   4.641   5.498
 8920TIP3    H226704   4.972   4.605   5.413
 8921TIP3   OH226705   3.630   1.582   3.653
 8921TIP3    H126706   3.649   1.571   3.746
 8921TIP3    H226707   3.603   1.674   3.645
 8922TIP3   OH226708   6.028   7.332   2.835
 8922TIP3    H126709   6.120   7.327   2.808
 8922TIP3    H226710   6.009   7.426   2.837
 8923TIP3   OH226711   1.930   2.852   3.920
 8923TIP3    H126712   1.956   2.935   3.880
 8923TIP3    H226713   1.834   2.853   3.915
 8924TIP3   OH226714   8.119   5.801   1.092
 8924TIP3    H126715   8.190   5.741   1.069
 8924TIP3    H226716   8.039   5.754   1.065
 8925TIP3   OH226717   3.314   5.286   5.692
 8925TIP3    H126718   3.345   5.254   5.607
 8925TIP3    H226719   3.219   5.276   5.688
 8926TIP3   OH226720   1.883   6.277   0.751
 8926TIP3    H126721   1.959   6.246   0.801
 8926TIP3    H226722   1.832   6.327   0.815
 8927TIP3   OH226723   6.561   7.391   0.580
 8927TIP3    H126724   6.471   7.382   0.611
 8927TIP3    H226725   6.579   7.310   0.532
 8928TIP3   OH226726   7.435   6.706   3.055
 8928TIP3    H126727   7.410   6.764   2.983
 8928TIP3    H226728   7.450   6.765   3.129
 8929TIP3   OH226729   6.395   6.992   3.664
 8929TIP3    H126730   6.349   6.995   3.748
 8929TIP3    H226731   6.469   6.934   3.679
 8930TIP3   OH226732   5.350   6.899   6.044
 8930TIP3    H126733   5.287   6.831   6.019
 8930TIP3    H226734   5.356   6.955   5.966
 8931TIP3   OH226735   1.451   5.835   5.667
 8931TIP3    H126736   1.417   5.844   5.577
 8931TIP3    H226737   1.536   5.792   5.657
 8932TIP3   OH226738   5.997   2.441   2.292
 8932TIP3    H126739   6.051   2.519   2.280
 8932TIP3    H226740   5.917   2.459   2.243
 8933TIP3   OH226741   3.017   5.907   4.810
 8933TIP3    H126742   2.945   5.950   4.762
 8933TIP3    H226743   3.036   5.828   4.760
 8934TIP3   OH226744   1.697   0.044   2.809
 8934TIP3    H126745   1.786   0.009   2.820
 8934TIP3    H226746   1.643  -0.011   2.865
 8935TIP3   OH226747   4.138   3.314   2.634
 8935TIP3    H126748   4.099   3.345   2.551
 8935TIP3    H226749   4.232   3.330   2.623
 8936TIP3   OH226750   1.074   0.136   0.440
 8936TIP3    H126751   1.022   0.107   0.365
 8936TIP3    H226752   1.025   0.103   0.516
 8937TIP3   OH226753   2.553   6.509   3.134
 8937TIP3    H126754   2.497   6.432   3.124
 8937TIP3    H226755   2.550   6.529   3.227
 8938TIP3   OH226756   1.136   2.194   2.132
 8938TIP3    H126757   1.071   2.179   2.201
 8938TIP3    H226758   1.218   2.207   2.180
 8939TIP3   OH226759   8.031   6.037   0.309
 8939TIP3    H126760   8.076   6.073   0.232
 8939TIP3    H226761   8.077   5.956   0.327
 8940TIP3   OH226762   6.634   0.531   3.293
 8940TIP3    H126763   6.628   0.505   3.201
 8940TIP3    H226764   6.726   0.521   3.315
 8941TIP3   OH226765   1.503   4.830   3.364
 8941TIP3    H126766   1.596   4.811   3.371
 8941TIP3    H226767   1.460   4.755   3.404
 8942TIP3   OH226768   5.313   5.783   5.671
 8942TIP3    H126769   5.243   5.777   5.606
 8942TIP3    H226770   5.284   5.852   5.731
 8943TIP3   OH226771   3.826   4.702   1.605
 8943TIP3    H126772   3.822   4.712   1.700
 8943TIP3    H226773   3.757   4.760   1.572
 8944TIP3   OH226774   5.727   2.642   1.094
 8944TIP3    H126775   5.703   2.731   1.066
 8944TIP3    H226776   5.788   2.611   1.027
 8945TIP3   OH226777   7.473   7.609   6.508
 8945TIP3    H126778   7.534   7.541   6.537
 8945TIP3    H226779   7.463   7.666   6.583
 8946TIP3   OH226780   6.665   6.559   4.419
 8946TIP3    H126781   6.637   6.645   4.388
 8946TIP3    H226782   6.753   6.548   4.384
 8947TIP3   OH226783   1.772   3.988   2.465
 8947TIP3    H126784   1.758   3.957   2.554
 8947TIP3    H226785   1.862   4.020   2.464
 8948TIP3   OH226786   4.016   4.901   3.175
 8948TIP3    H126787   3.949   4.850   3.220
 8948TIP3    H226788   3.984   4.991   3.177
 8949TIP3   OH226789   1.043   2.510   0.058
 8949TIP3    H126790   0.990   2.461   0.121
 8949TIP3    H226791   1.085   2.579   0.111
 8950TIP3   OH226792   3.208   2.638   1.484
 8950TIP3    H126793   3.302   2.620   1.478
 8950TIP3    H226794   3.169   2.555   1.510
 8951TIP3   OH226795   8.158   1.714   6.365
 8951TIP3    H126796   8.166   1.808   6.383
 8951TIP3    H226797   8.235   1.675   6.406
 8952TIP3   OH226798   7.794   5.667   5.064
 8952TIP3    H126799   7.860   5.633   5.124
 8952TIP3    H226800   7.789   5.760   5.084
 8953TIP3   OH226801   3.707   6.312   2.676
 8953TIP3    H126802   3.746   6.241   2.726
 8953TIP3    H226803   3.775   6.338   2.614
 8954TIP3   OH226804   2.217   7.781   4.361
 8954TIP3    H126805   2.171   7.862   4.382
 8954TIP3    H226806   2.241   7.744   4.446
 8955TIP3   OH226807   5.731   6.361   5.605
 8955TIP3    H126808   5.644   6.338   5.636
 8955TIP3    H226809   5.790   6.334   5.675
 8956TIP3   OH226810   6.395   3.013   4.290
 8956TIP3    H126811   6.460   3.043   4.353
 8956TIP3    H226812   6.385   3.086   4.229
 8957TIP3   OH226813   3.011   5.933   1.176
 8957TIP3    H126814   3.031   5.974   1.260
 8957TIP3    H226815   3.088   5.880   1.157
 8958TIP3   OH226816   4.419   3.347   6.571
 8958TIP3    H126817   4.495   3.392   6.533
 8958TIP3    H226818   4.453   3.261   6.596
 8959TIP3   OH226819   3.285   4.480   6.244
 8959TIP3    H126820   3.340   4.547   6.203
 8959TIP3    H226821   3.332   4.398   6.227
 8960TIP3   OH226822   2.008   1.857   1.482
 8960TIP3    H126823   1.992   1.946   1.448
 8960TIP3    H226824   2.088   1.829   1.437
 8961TIP3   OH226825   4.906   5.002   5.804
 8961TIP3    H126826   4.932   4.992   5.895
 8961TIP3    H226827   4.810   5.002   5.806
 8962TIP3   OH226828   6.539   5.131   0.853
 8962TIP3    H126829   6.550   5.061   0.917
 8962TIP3    H226830   6.591   5.103   0.778
 8963TIP3   OH226831   6.341   1.531   2.106
 8963TIP3    H126832   6.255   1.561   2.079
 8963TIP3    H226833   6.332   1.435   2.112
 8964TIP3   OH226834   6.242   5.688   4.758
 8964TIP3    H126835   6.196   5.700   4.675
 8964TIP3    H226836   6.214   5.763   4.811
 8965TIP3   OH226837   1.665   3.487   4.623
 8965TIP3    H126838   1.696   3.402   4.590
 8965TIP3    H226839   1.637   3.468   4.713
 8966TIP3   OH226840   1.954   3.584   5.308
 8966TIP3    H126841   1.874   3.545   5.272
 8966TIP3    H226842   1.938   3.679   5.305
 8967TIP3   OH226843   6.011   7.740   0.614
 8967TIP3    H126844   5.985   7.680   0.684
 8967TIP3    H226845   6.107   7.735   0.614
 8968TIP3   OH226846   8.120   6.144   6.404
 8968TIP3    H126847   8.151   6.153   6.314
 8968TIP3    H226848   8.026   6.127   6.394
 8969TIP3   OH226849   5.438   6.043   4.970
 8969TIP3    H126850   5.406   6.077   5.053
 8969TIP3    H226851   5.512   5.987   4.993
 8970TIP3   OH226852   0.119   7.406   6.232
 8970TIP3    H126853   0.213   7.397   6.249
 8970TIP3    H226854   0.079   7.393   6.318
 8971TIP3   OH226855   2.462   1.948   3.760
 8971TIP3    H126856   2.441   1.863   3.721
 8971TIP3    H226857   2.468   2.008   3.685
 8972TIP3   OH226858   6.393   6.311   1.023
 8972TIP3    H126859   6.484   6.319   1.049
 8972TIP3    H226860   6.389   6.352   0.936
 8973TIP3   OH226861   6.566   0.530   5.318
 8973TIP3    H126862   6.583   0.503   5.408
 8973TIP3    H226863   6.606   0.461   5.264
 8974TIP3   OH226864   1.418   0.471   3.572
 8974TIP3    H126865   1.435   0.491   3.481
 8974TIP3    H226866   1.486   0.408   3.596
 8975TIP3   OH226867   4.651   2.303   4.277
 8975TIP3    H126868   4.622   2.378   4.330
 8975TIP3    H226869   4.577   2.243   4.278
 8976TIP3   OH226870   3.860   7.820   4.465
 8976TIP3    H126871   3.930   7.760   4.492
 8976TIP3    H226872   3.836   7.793   4.377
 8977TIP3   OH226873   4.587   1.849   4.908
 8977TIP3    H126874   4.614   1.889   4.991
 8977TIP3    H226875   4.543   1.920   4.861
 8978TIP3   OH226876   6.810   7.196   4.038
 8978TIP3    H126877   6.828   7.120   3.983
 8978TIP3    H226878   6.730   7.173   4.086
 8979TIP3   OH226879   5.541   6.906   0.633
 8979TIP3    H126880   5.550   6.815   0.661
 8979TIP3    H226881   5.450   6.912   0.602
 8980TIP3   OH226882   2.789   3.151   5.132
 8980TIP3    H126883   2.768   3.071   5.084
 8980TIP3    H226884   2.705   3.180   5.168
 8981TIP3   OH226885   2.374   1.506   4.701
 8981TIP3    H126886   2.348   1.586   4.747
 8981TIP3    H226887   2.450   1.474   4.749
 8982TIP3   OH226888   5.297   6.314   0.539
 8982TIP3    H126889   5.365   6.311   0.472
 8982TIP3    H226890   5.234   6.246   0.513
 8983TIP3   OH226891   3.734   3.421   3.113
 8983TIP3    H126892   3.822   3.383   3.111
 8983TIP3    H226893   3.679   3.351   3.150
 8984TIP3   OH226894   7.980   1.493   6.328
 8984TIP3    H126895   8.017   1.581   6.316
 8984TIP3    H226896   8.054   1.439   6.355
 8985TIP3   OH226897   0.328   0.652   0.579
 8985TIP3    H126898   0.372   0.574   0.547
 8985TIP3    H226899   0.317   0.636   0.673
 8986TIP3   OH226900   1.884   2.357   1.586
 8986TIP3    H126901   1.869   2.340   1.680
 8986TIP3    H226902   1.961   2.413   1.584
 8987TIP3   OH226903   6.712   7.264   1.479
 8987TIP3    H126904   6.719   7.278   1.385
 8987TIP3    H226905   6.623   7.292   1.501
 8988TIP3   OH226906   5.520   2.932   5.204
 8988TIP3    H126907   5.556   2.986   5.134
 8988TIP3    H226908   5.432   2.966   5.218
 8989TIP3   OH226909   7.641   3.277   4.554
 8989TIP3    H126910   7.588   3.221   4.496
 8989TIP3    H226911   7.577   3.325   4.606
 8990TIP3   OH226912   2.134   6.042   6.425
 8990TIP3    H126913   2.068   5.975   6.407
 8990TIP3    H226914   2.090   6.104   6.483
 8991TIP3   OH226915   1.282   1.274   1.007
 8991TIP3    H126916   1.250   1.361   0.981
 8991TIP3    H226917   1.222   1.247   1.076
 8992TIP3   OH226918   7.603   2.534   1.473
 8992TIP3    H126919   7.592   2.439   1.467
 8992TIP3    H226920   7.679   2.546   1.530
 8993TIP3   OH226921   1.332   2.824   0.197
 8993TIP3    H126922   1.308   2.903   0.150
 8993TIP3    H226923   1.365   2.765   0.130
 8994TIP3   OH226924   2.590   3.016   5.420
 8994TIP3    H126925   2.524   2.955   5.388
 8994TIP3    H226926   2.562   3.101   5.386
 8995TIP3   OH226927   7.339   4.228   5.774
 8995TIP3    H126928   7.377   4.288   5.838
 8995TIP3    H226929   7.378   4.144   5.794
 8996TIP3   OH226930   6.957   4.087   5.727
 8996TIP3    H126931   6.884   4.147   5.711
 8996TIP3    H226932   7.029   4.123   5.674
 8997TIP3   OH226933   3.041   6.417   2.246
 8997TIP3    H126934   3.122   6.414   2.196
 8997TIP3    H226935   2.978   6.367   2.193
 8998TIP3   OH226936   7.542   0.461   4.555
 8998TIP3    H126937   7.577   0.433   4.470
 8998TIP3    H226938   7.592   0.410   4.619
 8999TIP3   OH226939   4.906   4.449   4.555
 8999TIP3    H126940   4.902   4.355   4.537
 8999TIP3    H226941   4.925   4.456   4.648
 9000TIP3   OH226942   4.929   5.311   3.097
 9000TIP3    H126943   4.954   5.218   3.098
 9000TIP3    H226944   4.908   5.329   3.006
 9001TIP3   OH226945   3.684   1.767   5.120
 9001TIP3    H126946   3.655   1.799   5.034
 9001TIP3    H226947   3.624   1.694   5.139
 9002TIP3   OH226948   7.383   5.729   6.345
 9002TIP3    H126949   7.413   5.776   6.268
 9002TIP3    H226950   7.452   5.663   6.361
 9003TIP3   OH226951   7.045   7.165   2.070
 9003TIP3    H126952   7.075   7.075   2.056
 9003TIP3    H226953   7.081   7.214   1.996
 9004TIP3   OH226954   0.140   7.233   5.062
 9004TIP3    H126955   0.049   7.220   5.090
 9004TIP3    H226956   0.175   7.144   5.053
 9005TIP3   OH226957   7.629   6.006   1.088
 9005TIP3    H126958   7.691   6.054   1.143
 9005TIP3    H226959   7.673   5.922   1.070
 9006TIP3   OH226960   3.261   5.463   0.922
 9006TIP3    H126961   3.351   5.432   0.925
 9006TIP3    H226962   3.267   5.555   0.947
 9007TIP3   OH226963   0.070   3.534   4.472
 9007TIP3    H126964   0.067   3.544   4.567
 9007TIP3    H226965   0.132   3.462   4.458
 9008TIP3   OH226966   2.458   6.157   4.723
 9008TIP3    H126967   2.415   6.240   4.703
 9008TIP3    H226968   2.495   6.169   4.811
 9009TIP3   OH226969   7.386   1.247   5.268
 9009TIP3    H126970   7.383   1.175   5.330
 9009TIP3    H226971   7.359   1.209   5.185
 9010TIP3   OH226972   6.485   1.378   3.847
 9010TIP3    H126973   6.395   1.409   3.858
 9010TIP3    H226974   6.476   1.299   3.793
 9011TIP3   OH226975   4.229   4.134   2.317
 9011TIP3    H126976   4.235   4.118   2.223
 9011TIP3    H226977   4.320   4.142   2.346
 9012TIP3   OH226978   6.764   3.624   5.431
 9012TIP3    H126979   6.772   3.658   5.342
 9012TIP3    H226980   6.854   3.606   5.458
 9013TIP3   OH226981   5.211   5.387   5.722
 9013TIP3    H126982   5.144   5.350   5.779
 9013TIP3    H226983   5.256   5.311   5.684
 9014TIP3   OH226984   4.145   4.220   3.982
 9014TIP3    H126985   4.050   4.210   3.987
 9014TIP3    H226986   4.173   4.157   3.915
 9015TIP3   OH226987   3.036   6.944   2.098
 9015TIP3    H126988   3.100   6.895   2.150
 9015TIP3    H226989   2.999   7.008   2.158
 9016TIP3   OH226990   4.348   2.982   1.651
 9016TIP3    H126991   4.340   2.931   1.570
 9016TIP3    H226992   4.379   2.918   1.715
 9017TIP3   OH226993   3.169   5.508   4.075
 9017TIP3    H126994   3.151   5.432   4.130
 9017TIP3    H226995   3.110   5.497   3.999
 9018TIP3   OH226996   6.926   5.856   0.819
 9018TIP3    H126997   6.875   5.781   0.789
 9018TIP3    H226998   6.884   5.931   0.776
 9019TIP3   OH226999   1.776   2.070   6.251
 9019TIP3    H127000   1.725   2.050   6.329
 9019TIP3    H227001   1.728   2.140   6.207
 9020TIP3   OH227002   5.222   1.489   3.260
 9020TIP3    H127003   5.259   1.487   3.172
 9020TIP3    H227004   5.291   1.450   3.315
 9021TIP3   OH227005   6.050   0.489   3.024
 9021TIP3    H127006   6.044   0.459   2.934
 9021TIP3    H227007   6.029   0.582   3.020
 9022TIP3   OH227008   3.304   6.158   1.357
 9022TIP3    H127009   3.358   6.229   1.323
 9022TIP3    H227010   3.317   6.161   1.452
 9023TIP3   OH227011   0.545   4.451   0.168
 9023TIP3    H127012   0.569   4.487   0.253
 9023TIP3    H227013   0.538   4.357   0.182
 9024TIP3   OH227014   2.364   2.038   1.598
 9024TIP3    H127015   2.314   2.044   1.679
 9024TIP3    H227016   2.399   1.949   1.597
 9025TIP3   OH227017   5.130   0.120   5.616
 9025TIP3    H127018   5.208   0.076   5.649
 9025TIP3    H227019   5.159   0.210   5.599
 9026TIP3   OH227020   3.662   6.280   3.231
 9026TIP3    H127021   3.675   6.201   3.177
 9026TIP3    H227022   3.647   6.246   3.319
 9027TIP3   OH227023   1.395   0.301   6.605
 9027TIP3    H127024   1.399   0.367   6.674
 9027TIP3    H227025   1.481   0.259   6.607
 9028TIP3   OH227026   1.309   4.799   4.515
 9028TIP3    H127027   1.397   4.819   4.483
 9028TIP3    H227028   1.309   4.704   4.530
 9029TIP3   OH227029   5.325   7.487   2.614
 9029TIP3    H127030   5.235   7.463   2.638
 9029TIP3    H227031   5.352   7.550   2.681
 9030TIP3   OH227032   0.561   3.070   0.845
 9030TIP3    H127033   0.603   3.071   0.759
 9030TIP3    H227034   0.545   3.162   0.865
 9031TIP3   OH227035   2.702   6.800   2.347
 9031TIP3    H127036   2.668   6.766   2.430
 9031TIP3    H227037   2.762   6.732   2.316
 9032TIP3   OH227038   2.733   1.057   3.965
 9032TIP3    H127039   2.820   1.053   4.005
 9032TIP3    H227040   2.705   1.148   3.977
 9033TIP3   OH227041   4.693   4.169   2.170
 9033TIP3    H127042   4.767   4.158   2.230
 9033TIP3    H227043   4.721   4.238   2.110
 9034TIP3   OH227044   3.381   5.623   3.248
 9034TIP3    H127045   3.465   5.604   3.207
 9034TIP3    H227046   3.380   5.718   3.260
 9035TIP3   OH227047   4.838   4.511   1.684
 9035TIP3    H127048   4.915   4.457   1.704
 9035TIP3    H227049   4.873   4.586   1.637
 9036TIP3   OH227050   5.748   7.216   2.069
 9036TIP3    H127051   5.713   7.293   2.114
 9036TIP3    H227052   5.838   7.209   2.098
 9037TIP3   OH227053   5.175   7.421   3.868
 9037TIP3    H127054   5.107   7.371   3.914
 9037TIP3    H227055   5.255   7.405   3.919
 9038TIP3   OH227056   1.488   6.818   0.253
 9038TIP3    H127057   1.412   6.764   0.273
 9038TIP3    H227058   1.547   6.805   0.326
 9039TIP3   OH227059   4.192   5.781   2.197
 9039TIP3    H127060   4.136   5.836   2.251
 9039TIP3    H227061   4.145   5.772   2.114
 9040TIP3   OH227062   1.040   0.222   1.781
 9040TIP3    H127063   1.134   0.241   1.794
 9040TIP3    H227064   1.016   0.275   1.705
 9041TIP3   OH227065   3.635   5.756   0.615
 9041TIP3    H127066   3.644   5.661   0.602
 9041TIP3    H227067   3.559   5.765   0.672
 9042TIP3   OH227068   5.200   3.979   1.846
 9042TIP3    H127069   5.259   3.939   1.782
 9042TIP3    H227070   5.145   4.038   1.794
 9043TIP3   OH227071   7.574   6.660   6.293
 9043TIP3    H127072   7.511   6.613   6.239
 9043TIP3    H227073   7.616   6.722   6.234
 9044TIP3   OH227074   6.326   1.316   6.535
 9044TIP3    H127075   6.276   1.392   6.564
 9044TIP3    H227076   6.261   1.245   6.531
 9045TIP3   OH227077   1.081   7.570   3.836
 9045TIP3    H127078   1.143   7.625   3.885
 9045TIP3    H227079   1.018   7.632   3.799
 9046TIP3   OH227080   0.268   5.152   3.028
 9046TIP3    H127081   0.202   5.204   3.075
 9046TIP3    H227082   0.257   5.064   3.062
 9047TIP3   OH227083   1.974   2.099   0.968
 9047TIP3    H127084   1.923   2.145   1.035
 9047TIP3    H227085   1.925   2.111   0.887
 9048TIP3   OH227086   7.965   6.672   4.133
 9048TIP3    H127087   7.933   6.736   4.197
 9048TIP3    H227088   8.059   6.662   4.153
 9049TIP3   OH227089   6.183   4.801   3.019
 9049TIP3    H127090   6.167   4.713   3.054
 9049TIP3    H227091   6.106   4.819   2.965
 9050TIP3   OH227092   4.599   3.604   1.382
 9050TIP3    H127093   4.542   3.578   1.308
 9050TIP3    H227094   4.671   3.542   1.379
 9051TIP3   OH227095   5.670   1.264   0.352
 9051TIP3    H127096   5.683   1.350   0.311
 9051TIP3    H227097   5.594   1.227   0.306
 9052TIP3   OH227098   2.996   4.633   0.960
 9052TIP3    H127099   2.921   4.626   1.019
 9052TIP3    H227100   2.985   4.719   0.919
 9053TIP3   OH227101   1.767   6.806   0.205
 9053TIP3    H127102   1.800   6.783   0.118
 9053TIP3    H227103   1.671   6.804   0.196
 9054TIP3   OH227104   1.897   6.302   3.434
 9054TIP3    H127105   1.838   6.317   3.360
 9054TIP3    H227106   1.977   6.269   3.394
 9055TIP3   OH227107   4.038   6.686   4.225
 9055TIP3    H127108   4.016   6.779   4.213
 9055TIP3    H227109   4.040   6.650   4.137
 9056TIP3   OH227110   5.901   2.053   0.609
 9056TIP3    H127111   5.948   2.066   0.527
 9056TIP3    H227112   5.832   1.991   0.587
 9057TIP3   OH227113   0.140   0.233   2.218
 9057TIP3    H127114   0.191   0.187   2.151
 9057TIP3    H227115   0.071   0.172   2.241
 9058TIP3   OH227116   3.699   4.769   5.411
 9058TIP3    H127117   3.659   4.682   5.413
 9058TIP3    H227118   3.676   4.803   5.324
 9059TIP3   OH227119   1.998   6.662   1.907
 9059TIP3    H127120   2.045   6.583   1.934
 9059TIP3    H227121   1.981   6.649   1.813
 9060TIP3   OH227122   4.470   3.150   3.621
 9060TIP3    H127123   4.401   3.121   3.561
 9060TIP3    H227124   4.434   3.133   3.708
 9061TIP3   OH227125   7.245   4.179   6.740
 9061TIP3    H127126   7.206   4.097   6.709
 9061TIP3    H227127   7.335   4.176   6.708
 9062TIP3   OH227128   2.673   7.015   4.724
 9062TIP3    H127129   2.578   7.027   4.725
 9062TIP3    H227130   2.693   6.986   4.635
 9063TIP3   OH227131   5.698   1.938   1.162
 9063TIP3    H127132   5.793   1.923   1.154
 9063TIP3    H227133   5.671   1.879   1.232
 9064TIP3   OH227134   1.668   4.639   2.707
 9064TIP3    H127135   1.754   4.672   2.733
 9064TIP3    H227136   1.684   4.547   2.686
 9065TIP3   OH227137   3.876   6.452   3.920
 9065TIP3    H127138   3.890   6.375   3.865
 9065TIP3    H227139   3.819   6.420   3.991
 9066TIP3   OH227140   6.007   6.787   2.128
 9066TIP3    H127141   6.016   6.830   2.212
 9066TIP3    H227142   5.925   6.738   2.134
 9067TIP3   OH227143   7.774   4.867   4.838
 9067TIP3    H127144   7.785   4.797   4.902
 9067TIP3    H227145   7.849   4.924   4.852
 9068TIP3   OH227146   0.577   3.696   2.477
 9068TIP3    H127147   0.618   3.736   2.554
 9068TIP3    H227148   0.649   3.682   2.416
 9069TIP3   OH227149   1.827   1.864   0.252
 9069TIP3    H127150   1.885   1.788   0.248
 9069TIP3    H227151   1.869   1.929   0.195
 9070TIP3   OH227152   1.224   4.562   2.854
 9070TIP3    H127153   1.171   4.639   2.874
 9070TIP3    H227154   1.162   4.497   2.822
 9071TIP3   OH227155   1.940   6.163   3.045
 9071TIP3    H127156   2.025   6.147   3.087
 9071TIP3    H227157   1.926   6.087   2.990
 9072TIP3   OH227158   0.265   3.847   1.452
 9072TIP3    H127159   0.354   3.882   1.445
 9072TIP3    H227160   0.214   3.898   1.390
 9073TIP3   OH227161   5.761   3.623   2.968
 9073TIP3    H127162   5.698   3.682   2.927
 9073TIP3    H227163   5.734   3.620   3.060
 9074TIP3   OH227164   1.763   0.917   2.790
 9074TIP3    H127165   1.808   0.834   2.803
 9074TIP3    H227166   1.680   0.907   2.837
 9075TIP3   OH227167   6.367   3.539   6.501
 9075TIP3    H127168   6.439   3.594   6.534
 9075TIP3    H227169   6.387   3.527   6.408
 9076TIP3   OH227170   6.007   6.610   0.285
 9076TIP3    H127171   6.007   6.706   0.286
 9076TIP3    H227172   5.914   6.587   0.282
 9077TIP3   OH227173   3.704   6.110   0.048
 9077TIP3    H127174   3.673   6.124   0.137
 9077TIP3    H227175   3.667   6.182  -0.003
 9078TIP3   OH227176   1.590   7.567   3.811
 9078TIP3    H127177   1.626   7.653   3.831
 9078TIP3    H227178   1.507   7.585   3.767
 9079TIP3   OH227179   3.927   0.074   0.462
 9079TIP3    H127180   3.861   0.134   0.426
 9079TIP3    H227181   3.877  -0.001   0.493
 9080TIP3   OH227182   4.076   4.393   0.062
 9080TIP3    H127183   4.049   4.463   0.003
 9080TIP3    H227184   4.172   4.395   0.059
 9081TIP3   OH227185   4.702   2.445   2.960
 9081TIP3    H127186   4.707   2.466   3.054
 9081TIP3    H227187   4.608   2.444   2.941
 9082TIP3   OH227188   2.310   2.324   0.813
 9082TIP3    H127189   2.355   2.249   0.853
 9082TIP3    H227190   2.345   2.328   0.724
 9083TIP3   OH227191   1.326   2.524   1.614
 9083TIP3    H127192   1.273   2.455   1.575
 9083TIP3    H227193   1.415   2.488   1.617
 9084TIP3   OH227194   5.209   6.539   4.507
 9084TIP3    H127195   5.220   6.628   4.474
 9084TIP3    H227196   5.128   6.508   4.466
 9085TIP3   OH227197  -0.024   6.604   0.772
 9085TIP3    H127198  -0.033   6.512   0.793
 9085TIP3    H227199   0.070   6.616   0.753
 9086TIP3   OH227200   6.326   6.654   1.130
 9086TIP3    H127201   6.279   6.736   1.122
 9086TIP3    H227202   6.308   6.608   1.048
 9087TIP3   OH227203   6.165   1.232   4.742
 9087TIP3    H127204   6.251   1.194   4.762
 9087TIP3    H227205   6.140   1.279   4.821
 9088TIP3   OH227206   7.098   0.951   4.700
 9088TIP3    H127207   7.054   1.009   4.763
 9088TIP3    H227208   7.028   0.923   4.641
 9089TIP3   OH227209   0.257   1.575   3.703
 9089TIP3    H127210   0.295   1.652   3.661
 9089TIP3    H227211   0.282   1.502   3.646
 9090TIP3   OH227212   2.816   0.367   6.323
 9090TIP3    H127213   2.824   0.443   6.381
 9090TIP3    H227214   2.801   0.405   6.236
 9091TIP3   OH227215   3.412   1.985   0.114
 9091TIP3    H127216   3.455   1.941   0.040
 9091TIP3    H227217   3.334   2.025   0.076
 9092TIP3   OH227218   0.585   4.312   4.751
 9092TIP3    H127219   0.554   4.284   4.837
 9092TIP3    H227220   0.636   4.390   4.767
 9093TIP3   OH227221   7.506   4.851   2.210
 9093TIP3    H127222   7.573   4.783   2.211
 9093TIP3    H227223   7.433   4.814   2.259
 9094TIP3   OH227224   3.334   2.713   6.743
 9094TIP3    H127225   3.264   2.773   6.721
 9094TIP3    H227226   3.406   2.768   6.774
 9095TIP3   OH227227   3.416   2.252   1.053
 9095TIP3    H127228   3.391   2.292   1.136
 9095TIP3    H227229   3.336   2.209   1.022
 9096TIP3   OH227230   2.119   6.945   6.202
 9096TIP3    H127231   2.142   7.017   6.261
 9096TIP3    H227232   2.167   6.869   6.238
 9097TIP3   OH227233   6.832   2.600   0.656
 9097TIP3    H127234   6.764   2.657   0.692
 9097TIP3    H227235   6.914   2.634   0.692
 9098TIP3   OH227236   6.833   7.009   4.618
 9098TIP3    H127237   6.821   6.934   4.676
 9098TIP3    H227238   6.928   7.020   4.613
 9099TIP3   OH227239   1.558   1.502   4.927
 9099TIP3    H127240   1.475   1.455   4.931
 9099TIP3    H227241   1.549   1.572   4.992
 9100TIP3   OH227242   6.334   0.375   1.953
 9100TIP3    H127243   6.368   0.355   2.040
 9100TIP3    H227244   6.282   0.299   1.929
 9101TIP3   OH227245   2.525   6.353   4.332
 9101TIP3    H127246   2.495   6.270   4.369
 9101TIP3    H227247   2.618   6.357   4.356
 9102TIP3   OH227248   7.360   0.246   2.516
 9102TIP3    H127249   7.330   0.159   2.542
 9102TIP3    H227250   7.415   0.276   2.589
 9103TIP3   OH227251   4.738   3.126   4.821
 9103TIP3    H127252   4.792   3.204   4.811
 9103TIP3    H227253   4.791   3.054   4.787
 9104TIP3   OH227254   1.027   6.316   6.463
 9104TIP3    H127255   0.970   6.284   6.393
 9104TIP3    H227256   1.000   6.266   6.540
 9105TIP3   OH227257   4.284   4.203   1.617
 9105TIP3    H127258   4.285   4.259   1.539
 9105TIP3    H227259   4.375   4.174   1.627
 9106TIP3   OH227260   0.031   3.833   0.922
 9106TIP3    H127261   0.118   3.836   0.963
 9106TIP3    H227262   0.019   3.741   0.898
 9107TIP3   OH227263   4.898   3.161   0.797
 9107TIP3    H127264   4.838   3.098   0.837
 9107TIP3    H227265   4.869   3.167   0.706
 9108TIP3   OH227266   6.809   1.746   5.258
 9108TIP3    H127267   6.861   1.817   5.295
 9108TIP3    H227268   6.865   1.707   5.191
 9109TIP3   OH227269   4.003   6.024   5.880
 9109TIP3    H127270   4.080   5.970   5.898
 9109TIP3    H227271   4.035   6.093   5.821
 9110TIP3   OH227272   2.540   0.300   6.362
 9110TIP3    H127273   2.631   0.269   6.370
 9110TIP3    H227274   2.490   0.223   6.337
 9111TIP3   OH227275   1.063   1.367   3.861
 9111TIP3    H127276   1.010   1.408   3.791
 9111TIP3    H227277   1.110   1.297   3.817
 9112TIP3   OH227278   2.299   1.043   2.720
 9112TIP3    H127279   2.359   1.009   2.786
 9112TIP3    H227280   2.319   1.137   2.715
 9113TIP3   OH227281   3.788   3.741   6.645
 9113TIP3    H127282   3.709   3.687   6.640
 9113TIP3    H227283   3.850   3.699   6.585
 9114TIP3   OH227284   0.097   0.004   0.154
 9114TIP3    H127285   0.053  -0.019   0.236
 9114TIP3    H227286   0.027   0.026   0.093
 9115TIP3   OH227287   4.653   0.107   2.846
 9115TIP3    H127288   4.659   0.033   2.907
 9115TIP3    H227289   4.567   0.146   2.864
 9116TIP3   OH227290   3.578   6.286   0.724
 9116TIP3    H127291   3.526   6.239   0.659
 9116TIP3    H227292   3.598   6.370   0.683
 9117TIP3   OH227293   0.435   5.935   1.899
 9117TIP3    H127294   0.367   6.001   1.893
 9117TIP3    H227295   0.398   5.857   1.857
 9118TIP3   OH227296   8.014   3.119   2.655
 9118TIP3    H127297   8.055   3.170   2.584
 9118TIP3    H227298   7.932   3.164   2.672
 9119TIP3   OH227299   5.875   5.072   3.360
 9119TIP3    H127300   5.793   5.042   3.399
 9119TIP3    H227301   5.870   5.042   3.269
 9120TIP3   OH227302   6.304   5.161   0.724
 9120TIP3    H127303   6.374   5.140   0.786
 9120TIP3    H227304   6.223   5.141   0.770
 9121TIP3   OH227305   3.367   5.155   6.170
 9121TIP3    H127306   3.454   5.113   6.172
 9121TIP3    H227307   3.372   5.216   6.097
 9122TIP3   OH227308   6.326   5.924   5.028
 9122TIP3    H127309   6.250   5.876   4.996
 9122TIP3    H227310   6.357   5.872   5.102
 9123TIP3   OH227311   3.742   0.987   2.847
 9123TIP3    H127312   3.754   0.982   2.942
 9123TIP3    H227313   3.829   1.010   2.813
 9124TIP3   OH227314   3.294   6.831   3.697
 9124TIP3    H127315   3.362   6.874   3.646
 9124TIP3    H227316   3.246   6.778   3.633
 9125TIP3   OH227317   4.608   0.963   6.256
 9125TIP3    H127318   4.626   0.894   6.192
 9125TIP3    H227319   4.605   1.044   6.204
 9126TIP3   OH227320   4.554   5.550   4.249
 9126TIP3    H127321   4.491   5.488   4.286
 9126TIP3    H227322   4.505   5.596   4.181
 9127TIP3   OH227323   7.845   0.590   5.975
 9127TIP3    H127324   7.854   0.623   6.064
 9127TIP3    H227325   7.810   0.664   5.925
 9128TIP3   OH227326   0.625   4.027   3.551
 9128TIP3    H127327   0.591   4.090   3.487
 9128TIP3    H227328   0.550   4.008   3.608
 9129TIP3   OH227329   5.422   7.054   5.461
 9129TIP3    H127330   5.349   7.084   5.516
 9129TIP3    H227331   5.402   6.963   5.442
 9130TIP3   OH227332   1.344   5.693   3.033
 9130TIP3    H127333   1.328   5.646   2.952
 9130TIP3    H227334   1.258   5.721   3.063
 9131TIP3   OH227335   6.732   6.862   5.710
 9131TIP3    H127336   6.686   6.807   5.773
 9131TIP3    H227337   6.824   6.835   5.718
 9132TIP3   OH227338   4.787   0.950   2.628
 9132TIP3    H127339   4.825   1.037   2.616
 9132TIP3    H227340   4.697   0.959   2.598
 9133TIP3   OH227341   4.768   7.511   1.572
 9133TIP3    H127342   4.699   7.478   1.630
 9133TIP3    H227343   4.722   7.566   1.509
 9134TIP3   OH227344   1.705   4.451   5.556
 9134TIP3    H127345   1.654   4.443   5.638
 9134TIP3    H227346   1.796   4.437   5.583
 9135TIP3   OH227347   1.811   1.230   3.854
 9135TIP3    H127348   1.876   1.212   3.786
 9135TIP3    H227349   1.849   1.193   3.933
 9136TIP3   OH227350   0.578   3.638   5.103
 9136TIP3    H127351   0.499   3.586   5.119
 9136TIP3    H227352   0.573   3.710   5.166
 9137TIP3   OH227353   1.564   5.255   4.919
 9137TIP3    H127354   1.553   5.347   4.895
 9137TIP3    H227355   1.539   5.206   4.841
 9138TIP3   OH227356   6.357   4.260   0.958
 9138TIP3    H127357   6.344   4.189   1.020
 9138TIP3    H227358   6.323   4.226   0.875
 9139TIP3   OH227359   5.511   6.107   4.110
 9139TIP3    H127360   5.482   6.134   4.197
 9139TIP3    H227361   5.606   6.106   4.114
 9140TIP3   OH227362   5.381   1.367   1.139
 9140TIP3    H127363   5.302   1.349   1.190
 9140TIP3    H227364   5.379   1.303   1.069
 9141TIP3   OH227365   2.330   5.262   0.558
 9141TIP3    H127366   2.370   5.295   0.477
 9141TIP3    H227367   2.391   5.195   0.588
 9142TIP3   OH227368   1.597   6.980   3.796
 9142TIP3    H127369   1.676   6.973   3.742
 9142TIP3    H227370   1.529   7.010   3.735
 9143TIP3   OH227371   6.835   7.647   0.430
 9143TIP3    H127372   6.744   7.653   0.402
 9143TIP3    H227373   6.881   7.613   0.353
 9144TIP3   OH227374   0.929   2.367   2.688
 9144TIP3    H127375   0.843   2.357   2.648
 9144TIP3    H227376   0.963   2.449   2.651
 9145TIP3   OH227377   5.078   3.940   6.308
 9145TIP3    H127378   4.985   3.948   6.331
 9145TIP3    H227379   5.124   3.976   6.384
 9146TIP3   OH227380   3.772   1.880   1.907
 9146TIP3    H127381   3.700   1.873   1.970
 9146TIP3    H227382   3.731   1.911   1.827
 9147TIP3   OH227383   6.784   6.500   3.616
 9147TIP3    H127384   6.736   6.473   3.538
 9147TIP3    H227385   6.752   6.443   3.686
 9148TIP3   OH227386   1.813   7.438   4.334
 9148TIP3    H127387   1.787   7.508   4.394
 9148TIP3    H227388   1.886   7.394   4.379
 9149TIP3   OH227389   5.979   5.210   4.809
 9149TIP3    H127390   6.027   5.293   4.799
 9149TIP3    H227391   6.044   5.142   4.791
 9150TIP3   OH227392   7.399   2.902   4.473
 9150TIP3    H127393   7.396   2.811   4.441
 9150TIP3    H227394   7.414   2.894   4.567
 9151TIP3   OH227395   2.594   3.990   5.066
 9151TIP3    H127396   2.646   4.023   4.993
 9151TIP3    H227397   2.658   3.969   5.134
 9152TIP3   OH227398   3.528   4.621   4.954
 9152TIP3    H127399   3.517   4.571   5.035
 9152TIP3    H227400   3.590   4.690   4.976
 9153TIP3   OH227401   1.604   5.657   2.672
 9153TIP3    H127402   1.563   5.737   2.641
 9153TIP3    H227403   1.680   5.686   2.722
 9154TIP3   OH227404   2.222   7.608   5.935
 9154TIP3    H127405   2.261   7.640   6.016
 9154TIP3    H227406   2.209   7.514   5.950
 9155TIP3   OH227407   4.451   6.686   0.357
 9155TIP3    H127408   4.527   6.720   0.404
 9155TIP3    H227409   4.449   6.593   0.381
 9156TIP3   OH227410   5.113   5.335   6.121
 9156TIP3    H127411   5.062   5.324   6.040
 9156TIP3    H227412   5.116   5.429   6.135
 9157TIP3   OH227413   2.102   1.231   5.502
 9157TIP3    H127414   2.015   1.236   5.463
 9157TIP3    H227415   2.162   1.254   5.430
 9158TIP3   OH227416   0.090   6.206   2.085
 9158TIP3    H127417   0.046   6.288   2.106
 9158TIP3    H227418   0.078   6.151   2.162
 9159TIP3   OH227419   0.737   3.290   3.069
 9159TIP3    H127420   0.741   3.364   3.007
 9159TIP3    H227421   0.827   3.279   3.098
 9160TIP3   OH227422   1.584   7.811   6.653
 9160TIP3    H127423   1.610   7.753   6.725
 9160TIP3    H227424   1.573   7.753   6.578
 9161TIP3   OH227425   5.167   7.357   4.755
 9161TIP3    H127426   5.109   7.323   4.824
 9161TIP3    H227427   5.254   7.355   4.794
 9162TIP3   OH227428   7.566   7.635   4.935
 9162TIP3    H127429   7.653   7.623   4.897
 9162TIP3    H227430   7.567   7.583   5.015
 9163TIP3   OH227431   1.983   2.234   6.212
 9163TIP3    H127432   2.001   2.235   6.118
 9163TIP3    H227433   1.908   2.174   6.221
 9164TIP3   OH227434   8.213   4.651   4.308
 9164TIP3    H127435   8.214   4.649   4.403
 9164TIP3    H227436   8.302   4.628   4.282
 9165TIP3   OH227437   5.523   3.223   2.465
 9165TIP3    H127438   5.566   3.139   2.454
 9165TIP3    H227439   5.429   3.204   2.457
 9166TIP3   OH227440   4.475   7.772   3.724
 9166TIP3    H127441   4.570   7.785   3.728
 9166TIP3    H227442   4.461   7.684   3.757
 9167TIP3   OH227443   6.881   7.495   4.002
 9167TIP3    H127444   6.869   7.471   4.094
 9167TIP3    H227445   6.861   7.415   3.953
 9168TIP3   OH227446   1.909   1.326   5.884
 9168TIP3    H127447   1.880   1.351   5.971
 9168TIP3    H227448   1.980   1.264   5.899
 9169TIP3   OH227449   5.230   7.066   2.439
 9169TIP3    H127450   5.320   7.098   2.444
 9169TIP3    H227451   5.230   6.986   2.492
 9170TIP3   OH227452   7.420   3.651   5.799
 9170TIP3    H127453   7.382   3.567   5.774
 9170TIP3    H227454   7.378   3.672   5.882
 9171TIP3   OH227455   2.458   4.015   5.917
 9171TIP3    H127456   2.454   3.928   5.878
 9171TIP3    H227457   2.409   4.006   5.999
 9172TIP3   OH227458   8.210   0.452   5.486
 9172TIP3    H127459   8.251   0.437   5.571
 9172TIP3    H227460   8.148   0.380   5.476
 9173TIP3   OH227461   7.758   3.760   4.929
 9173TIP3    H127462   7.813   3.836   4.944
 9173TIP3    H227463   7.812   3.685   4.955
 9174TIP3   OH227464   5.254   5.454   5.044
 9174TIP3    H127465   5.252   5.407   4.961
 9174TIP3    H227466   5.340   5.497   5.045
 9175TIP3   OH227467   2.031   2.087   5.068
 9175TIP3    H127468   2.111   2.139   5.059
 9175TIP3    H227469   1.978   2.111   4.992
 9176TIP3   OH227470   4.365   5.228   3.789
 9176TIP3    H127471   4.449   5.274   3.786
 9176TIP3    H227472   4.359   5.184   3.705
 9177TIP3   OH227473   6.255   3.901   0.325
 9177TIP3    H127474   6.222   3.979   0.369
 9177TIP3    H227475   6.278   3.842   0.397
 9178TIP3   OH227476   2.167   5.765   6.226
 9178TIP3    H127477   2.258   5.745   6.205
 9178TIP3    H227478   2.122   5.762   6.142
 9179TIP3   OH227479   4.515   4.776   0.152
 9179TIP3    H127480   4.420   4.771   0.167
 9179TIP3    H227481   4.525   4.850   0.091
 9180TIP3   OH227482   6.294   5.121   0.294
 9180TIP3    H127483   6.359   5.115   0.224
 9180TIP3    H227484   6.334   5.177   0.360
 9181TIP3   OH227485   5.999   3.034   2.741
 9181TIP3    H127486   6.057   3.035   2.817
 9181TIP3    H227487   5.935   3.103   2.758
 9182TIP3   OH227488   4.145   6.060   4.402
 9182TIP3    H127489   4.160   6.126   4.335
 9182TIP3    H227490   4.097   6.107   4.471
 9183TIP3   OH227491   2.959   2.362   5.666
 9183TIP3    H127492   2.968   2.435   5.605
 9183TIP3    H227493   2.870   2.370   5.701
 9184TIP3   OH227494   0.711   6.595   4.269
 9184TIP3    H127495   0.801   6.562   4.267
 9184TIP3    H227496   0.681   6.588   4.178
 9185TIP3   OH227497   7.536   1.335   5.659
 9185TIP3    H127498   7.528   1.409   5.720
 9185TIP3    H227499   7.614   1.288   5.689
 9186TIP3   OH227500   3.929   0.571   1.748
 9186TIP3    H127501   4.007   0.599   1.797
 9186TIP3    H227502   3.943   0.478   1.733
 9187TIP3   OH227503   2.143   1.350   4.588
 9187TIP3    H127504   2.094   1.430   4.574
 9187TIP3    H227505   2.213   1.375   4.649
 9188TIP3   OH227506   1.802   3.491   2.429
 9188TIP3    H127507   1.745   3.424   2.468
 9188TIP3    H227508   1.750   3.529   2.359
 9189TIP3   OH227509   0.476   2.125   1.423
 9189TIP3    H127510   0.547   2.089   1.476
 9189TIP3    H227511   0.508   2.120   1.333
 9190TIP3   OH227512   2.511   4.859   0.031
 9190TIP3    H127513   2.562   4.823  -0.041
 9190TIP3    H227514   2.526   4.954   0.026
 9191TIP3   OH227515   2.582   4.862   5.210
 9191TIP3    H127516   2.540   4.776   5.208
 9191TIP3    H227517   2.675   4.843   5.197
 9192TIP3   OH227518   0.123   4.560   3.219
 9192TIP3    H127519   0.180   4.636   3.211
 9192TIP3    H227520   0.040   4.595   3.250
 9193TIP3   OH227521   6.594   2.798   4.301
 9193TIP3    H127522   6.633   2.823   4.217
 9193TIP3    H227523   6.515   2.851   4.307
 9194TIP3   OH227524   7.662   3.171   6.218
 9194TIP3    H127525   7.630   3.151   6.306
 9194TIP3    H227526   7.752   3.141   6.218
 9195TIP3   OH227527   0.321   7.584   2.226
 9195TIP3    H127528   0.279   7.544   2.150
 9195TIP3    H227529   0.249   7.607   2.285
 9196TIP3   OH227530   8.049   7.191   1.015
 9196TIP3    H127531   7.974   7.240   0.980
 9196TIP3    H227532   8.044   7.205   1.109
 9197TIP3   OH227533   1.213   2.307   0.857
 9197TIP3    H127534   1.266   2.321   0.779
 9197TIP3    H227535   1.132   2.355   0.841
 9198TIP3   OH227536   0.073   3.511   5.783
 9198TIP3    H127537   0.037   3.579   5.841
 9198TIP3    H227538   0.114   3.448   5.843
 9199TIP3   OH227539   7.657   3.393   5.724
 9199TIP3    H127540   7.562   3.392   5.729
 9199TIP3    H227541   7.676   3.412   5.632
 9200TIP3   OH227542   7.636   7.143   2.058
 9200TIP3    H127543   7.684   7.117   2.137
 9200TIP3    H227544   7.560   7.085   2.056
 9201TIP3   OH227545   8.169   0.582   5.193
 9201TIP3    H127546   8.255   0.572   5.153
 9201TIP3    H227547   8.110   0.532   5.137
 9202TIP3   OH227548   3.423   4.818   2.063
 9202TIP3    H127549   3.333   4.848   2.060
 9202TIP3    H227550   3.440   4.785   1.974
 9203TIP3   OH227551   0.073   0.601   6.630
 9203TIP3    H127552   0.027   0.681   6.654
 9203TIP3    H227553   0.165   0.627   6.622
 9204TIP3   OH227554   8.204   5.116   3.712
 9204TIP3    H127555   8.215   5.211   3.720
 9204TIP3    H227556   8.294   5.083   3.704
 9205TIP3   OH227557   7.734   2.901   2.174
 9205TIP3    H127558   7.699   2.941   2.095
 9205TIP3    H227559   7.829   2.916   2.168
 9206TIP3   OH227560   1.745   0.273   0.223
 9206TIP3    H127561   1.773   0.347   0.169
 9206TIP3    H227562   1.725   0.312   0.308
 9207TIP3   OH227563   1.299   3.642   0.542
 9207TIP3    H127564   1.310   3.736   0.528
 9207TIP3    H227565   1.207   3.631   0.565
 9208TIP3   OH227566   3.628   6.088   1.826
 9208TIP3    H127567   3.701   6.025   1.824
 9208TIP3    H227568   3.670   6.173   1.813
 9209TIP3   OH227569   3.120   5.382   5.220
 9209TIP3    H127570   3.057   5.319   5.256
 9209TIP3    H227571   3.075   5.421   5.145
 9210TIP3   OH227572   6.317   0.093   0.545
 9210TIP3    H127573   6.388   0.139   0.500
 9210TIP3    H227574   6.237   0.134   0.512
 9211TIP3   OH227575   6.618   0.013   3.036
 9211TIP3    H127576   6.528  -0.004   3.064
 9211TIP3    H227577   6.665   0.031   3.117
 9212TIP3   OH227578   7.478   2.582   3.440
 9212TIP3    H127579   7.480   2.620   3.352
 9212TIP3    H227580   7.491   2.656   3.499
 9213TIP3   OH227581   3.962   4.041   3.635
 9213TIP3    H127582   3.998   4.082   3.557
 9213TIP3    H227583   3.973   3.947   3.620
 9214TIP3   OH227584   5.447   6.868   2.805
 9214TIP3    H127585   5.416   6.927   2.874
 9214TIP3    H227586   5.526   6.828   2.840
 9215TIP3   OH227587   5.267   3.468   1.771
 9215TIP3    H127588   5.268   3.456   1.866
 9215TIP3    H227589   5.213   3.396   1.738
 9216TIP3   OH227590   4.949   6.355   4.775
 9216TIP3    H127591   4.886   6.410   4.728
 9216TIP3    H227592   4.924   6.265   4.753
 9217TIP3   OH227593   2.600   6.068   6.527
 9217TIP3    H127594   2.536   6.013   6.482
 9217TIP3    H227595   2.593   6.043   6.619
 9218TIP3   OH227596   5.415   4.500   0.231
 9218TIP3    H127597   5.423   4.552   0.151
 9218TIP3    H227598   5.506   4.480   0.255
 9219TIP3   OH227599   4.896   7.242   5.366
 9219TIP3    H127600   4.886   7.163   5.314
 9219TIP3    H227601   4.847   7.224   5.447
 9220TIP3   OH227602   5.087   2.398   0.906
 9220TIP3    H127603   5.124   2.433   0.825
 9220TIP3    H227604   5.145   2.325   0.929
 9221TIP3   OH227605   7.053   0.642   5.877
 9221TIP3    H127606   6.996   0.621   5.803
 9221TIP3    H227607   7.061   0.737   5.874
 9222TIP3   OH227608   2.516   4.133   1.837
 9222TIP3    H127609   2.475   4.181   1.765
 9222TIP3    H227610   2.606   4.119   1.808
 9223TIP3   OH227611   7.102   3.161   3.646
 9223TIP3    H127612   7.130   3.224   3.713
 9223TIP3    H227613   7.153   3.082   3.665
 9224TIP3   OH227614   2.067   1.756   2.984
 9224TIP3    H127615   2.013   1.685   2.949
 9224TIP3    H227616   2.157   1.727   2.970
 9225TIP3   OH227617   4.799   7.235   6.673
 9225TIP3    H127618   4.751   7.160   6.639
 9225TIP3    H227619   4.772   7.240   6.765
 9226TIP3   OH227620   7.113   0.811   0.558
 9226TIP3    H127621   7.019   0.796   0.554
 9226TIP3    H227622   7.151   0.724   0.569
 9227TIP3   OH227623   1.801   7.530   2.668
 9227TIP3    H127624   1.712   7.553   2.696
 9227TIP3    H227625   1.788   7.468   2.596
 9228TIP3   OH227626   3.115   4.140   0.822
 9228TIP3    H127627   3.197   4.170   0.862
 9228TIP3    H227628   3.129   4.151   0.728
 9229TIP3   OH227629   1.236   1.633  -0.017
 9229TIP3    H127630   1.191   1.717  -0.009
 9229TIP3    H227631   1.182   1.573   0.035
 9230TIP3   OH227632   2.962   5.178   1.407
 9230TIP3    H127633   2.919   5.208   1.326
 9230TIP3    H227634   2.955   5.251   1.467
 9231TIP3   OH227635   2.736   4.603   3.916
 9231TIP3    H127636   2.768   4.677   3.864
 9231TIP3    H227637   2.643   4.620   3.928
 9232TIP3   OH227638   2.201   0.875   3.601
 9232TIP3    H127639   2.155   0.791   3.593
 9232TIP3    H227640   2.202   0.892   3.695
 9233TIP3   OH227641   7.860   2.616   3.917
 9233TIP3    H127642   7.876   2.576   3.832
 9233TIP3    H227643   7.930   2.584   3.973
 9234TIP3   OH227644   1.105   1.867   0.287
 9234TIP3    H127645   1.028   1.812   0.271
 9234TIP3    H227646   1.089   1.906   0.372
 9235TIP3   OH227647   4.739   5.615   3.928
 9235TIP3    H127648   4.788   5.548   3.974
 9235TIP3    H227649   4.647   5.597   3.950
 9236TIP3   OH227650   1.369   1.265   1.564
 9236TIP3    H127651   1.425   1.239   1.490
 9236TIP3    H227652   1.283   1.281   1.525
 9237TIP3   OH227653   6.778   6.052   6.071
 9237TIP3    H127654   6.866   6.021   6.049
 9237TIP3    H227655   6.728   5.973   6.088
 9238TIP3   OH227656   6.279   4.512   4.721
 9238TIP3    H127657   6.206   4.525   4.781
 9238TIP3    H227658   6.252   4.440   4.664
 9239TIP3   OH227659   7.787   0.083   0.636
 9239TIP3    H127660   7.857   0.028   0.671
 9239TIP3    H227661   7.707   0.033   0.650
 9240TIP3   OH227662   5.225   4.903   3.270
 9240TIP3    H127663   5.150   4.905   3.329
 9240TIP3    H227664   5.241   4.810   3.254
 9241TIP3   OH227665   2.183   3.568   1.503
 9241TIP3    H127666   2.128   3.498   1.537
 9241TIP3    H227667   2.121   3.634   1.472
 9242TIP3   OH227668   6.660   2.192   2.120
 9242TIP3    H127669   6.721   2.143   2.174
 9242TIP3    H227670   6.577   2.145   2.128
 9243TIP3   OH227671   0.804   4.074   0.822
 9243TIP3    H127672   0.891   4.113   0.830
 9243TIP3    H227673   0.808   4.023   0.742
 9244TIP3   OH227674   3.794   1.491   6.062
 9244TIP3    H127675   3.720   1.511   6.119
 9244TIP3    H227676   3.865   1.547   6.095
 9245TIP3   OH227677   1.711   2.989   0.897
 9245TIP3    H127678   1.773   2.986   0.970
 9245TIP3    H227679   1.765   2.988   0.819
 9246TIP3   OH227680   3.579   6.922   0.624
 9246TIP3    H127681   3.533   6.951   0.546
 9246TIP3    H227682   3.557   6.988   0.690
 9247TIP3   OH227683   4.318   5.834   3.155
 9247TIP3    H127684   4.270   5.917   3.162
 9247TIP3    H227685   4.374   5.846   3.078
 9248TIP3   OH227686   3.916   3.249   3.766
 9248TIP3    H127687   3.968   3.327   3.745
 9248TIP3    H227688   3.844   3.250   3.702
 9249TIP3   OH227689   0.805   0.266   4.498
 9249TIP3    H127690   0.731   0.316   4.463
 9249TIP3    H227691   0.869   0.265   4.427
 9250TIP3   OH227692   4.280   0.481   1.103
 9250TIP3    H127693   4.192   0.488   1.066
 9250TIP3    H227694   4.267   0.434   1.186
 9251TIP3   OH227695   7.391   5.512   5.343
 9251TIP3    H127696   7.417   5.435   5.395
 9251TIP3    H227697   7.455   5.579   5.367
 9252TIP3   OH227698   7.131   6.583   4.952
 9252TIP3    H127699   7.156   6.526   5.024
 9252TIP3    H227700   7.064   6.534   4.904
 9253TIP3   OH227701   1.932   5.262   3.085
 9253TIP3    H127702   1.845   5.239   3.052
 9253TIP3    H227703   1.952   5.195   3.150
 9254TIP3   OH227704   6.131   6.732   2.679
 9254TIP3    H127705   6.046   6.689   2.668
 9254TIP3    H227706   6.113   6.804   2.739
 9255TIP3   OH227707   6.179   1.424   2.626
 9255TIP3    H127708   6.165   1.441   2.719
 9255TIP3    H227709   6.122   1.350   2.606
 9256TIP3   OH227710   8.245   3.663   5.989
 9256TIP3    H127711   8.225   3.686   6.080
 9256TIP3    H227712   8.310   3.727   5.961
 9257TIP3   OH227713   3.464   5.975   1.142
 9257TIP3    H127714   3.439   5.904   1.083
 9257TIP3    H227715   3.382   6.003   1.183
 9258TIP3   OH227716   5.531   1.461   3.958
 9258TIP3    H127717   5.445   1.491   3.929
 9258TIP3    H227718   5.588   1.537   3.950
 9259TIP3   OH227719   8.069   1.660   5.390
 9259TIP3    H127720   8.094   1.698   5.473
 9259TIP3    H227721   8.090   1.567   5.399
 9260TIP3   OH227722   2.604   2.234   2.715
 9260TIP3    H127723   2.606   2.189   2.799
 9260TIP3    H227724   2.687   2.282   2.711
 9261TIP3   OH227725   1.788   3.271   5.688
 9261TIP3    H127726   1.772   3.183   5.653
 9261TIP3    H227727   1.883   3.283   5.683
 9262TIP3   OH227728   4.175   2.346   4.701
 9262TIP3    H127729   4.224   2.286   4.758
 9262TIP3    H227730   4.162   2.295   4.621
 9263TIP3   OH227731   6.197   6.482   3.184
 9263TIP3    H127732   6.202   6.395   3.143
 9263TIP3    H227733   6.287   6.504   3.206
 9264TIP3   OH227734   0.795   0.678   2.900
 9264TIP3    H127735   0.835   0.747   2.953
 9264TIP3    H227736   0.860   0.659   2.833
 9265TIP3   OH227737   2.639   6.180   3.016
 9265TIP3    H127738   2.723   6.151   2.978
 9265TIP3    H227739   2.605   6.243   2.953
 9266TIP3   OH227740   4.239   6.303   2.299
 9266TIP3    H127741   4.178   6.261   2.239
 9266TIP3    H227742   4.217   6.396   2.296
 9267TIP3   OH227743   6.522   6.558   3.027
 9267TIP3    H127744   6.490   6.547   3.117
 9267TIP3    H227745   6.469   6.498   2.975
 9268TIP3   OH227746   8.283   4.879   2.582
 9268TIP3    H127747   8.252   4.821   2.513
 9268TIP3    H227748   8.306   4.820   2.654
 9269TIP3   OH227749   8.168   5.098   2.446
 9269TIP3    H127750   8.137   5.163   2.509
 9269TIP3    H227751   8.209   5.030   2.499
 9270TIP3   OH227752   7.434   3.321   4.764
 9270TIP3    H127753   7.409   3.413   4.770
 9270TIP3    H227754   7.464   3.298   4.852
 9271TIP3   OH227755   5.172   1.489   1.978
 9271TIP3    H127756   5.143   1.488   1.886
 9271TIP3    H227757   5.267   1.477   1.973
 9272TIP3   OH227758   2.085   2.665   1.226
 9272TIP3    H127759   2.066   2.583   1.272
 9272TIP3    H227760   2.054   2.649   1.136
 9273TIP3   OH227761   5.807   1.225   0.588
 9273TIP3    H127762   5.746   1.240   0.516
 9273TIP3    H227763   5.889   1.264   0.559
 9274TIP3   OH227764   6.936   1.457   1.574
 9274TIP3    H127765   6.866   1.476   1.636
 9274TIP3    H227766   6.917   1.368   1.543
 9275TIP3   OH227767   0.565   1.313   3.900
 9275TIP3    H127768   0.514   1.232   3.889
 9275TIP3    H227769   0.539   1.344   3.987
 9276TIP3   OH227770   0.167   5.768   4.709
 9276TIP3    H127771   0.215   5.842   4.674
 9276TIP3    H227772   0.175   5.700   4.642
 9277TIP3   OH227773   0.569   6.944   6.601
 9277TIP3    H127774   0.561   6.873   6.665
 9277TIP3    H227775   0.544   6.905   6.518
 9278TIP3   OH227776   1.435   0.081   6.242
 9278TIP3    H127777   1.511   0.139   6.243
 9278TIP3    H227778   1.400   0.089   6.153
 9279TIP3   OH227779   6.629   3.845   4.959
 9279TIP3    H127780   6.558   3.791   4.994
 9279TIP3    H227781   6.586   3.900   4.894
 9280TIP3   OH227782   4.737   0.854   3.503
 9280TIP3    H127783   4.748   0.918   3.433
 9280TIP3    H227784   4.670   0.794   3.470
 9281TIP3   OH227785   4.249   5.357   6.521
 9281TIP3    H127786   4.160   5.378   6.550
 9281TIP3    H227787   4.268   5.272   6.560
 9282TIP3   OH227788   0.527   4.857   5.940
 9282TIP3    H127789   0.495   4.945   5.960
 9282TIP3    H227790   0.502   4.843   5.848
 9283TIP3   OH227791   7.069   4.597   4.729
 9283TIP3    H127792   7.055   4.691   4.719
 9283TIP3    H227793   7.119   4.588   4.810
 9284TIP3   OH227794   3.172   1.119   0.877
 9284TIP3    H127795   3.109   1.101   0.947
 9284TIP3    H227796   3.120   1.159   0.807
 9285TIP3   OH227797   5.192   0.874   2.632
 9285TIP3    H127798   5.128   0.810   2.602
 9285TIP3    H227799   5.266   0.822   2.663
 9286TIP3   OH227800   1.531   0.773   6.663
 9286TIP3    H127801   1.509   0.842   6.600
 9286TIP3    H227802   1.626   0.762   6.653
 9287TIP3   OH227803   0.589   4.202   0.973
 9287TIP3    H127804   0.648   4.162   0.909
 9287TIP3    H227805   0.501   4.176   0.944
 9288TIP3   OH227806   1.663   4.858   0.323
 9288TIP3    H127807   1.649   4.764   0.310
 9288TIP3    H227808   1.585   4.899   0.287
 9289TIP3   OH227809   3.493   3.462   5.890
 9289TIP3    H127810   3.471   3.465   5.983
 9289TIP3    H227811   3.511   3.553   5.867
 9290TIP3   OH227812   7.184   6.331   3.798
 9290TIP3    H127813   7.097   6.353   3.830
 9290TIP3    H227814   7.174   6.328   3.703
 9291TIP3   OH227815   1.609   4.993   0.773
 9291TIP3    H127816   1.640   4.930   0.709
 9291TIP3    H227817   1.563   5.059   0.722
 9292TIP3   OH227818   0.523   1.966   2.309
 9292TIP3    H127819   0.432   1.949   2.284
 9292TIP3    H227820   0.575   1.907   2.254
 9293TIP3   OH227821   2.453   1.075   5.819
 9293TIP3    H127822   2.489   1.162   5.801
 9293TIP3    H227823   2.366   1.076   5.780
 9294TIP3   OH227824   3.466   6.329   1.254
 9294TIP3    H127825   3.463   6.414   1.297
 9294TIP3    H227826   3.558   6.305   1.254
 9295TIP3   OH227827   4.136   4.540   5.042
 9295TIP3    H127828   4.150   4.454   5.080
 9295TIP3    H227829   4.183   4.537   4.959
 9296TIP3   OH227830   6.588   6.428   5.533
 9296TIP3    H127831   6.670   6.461   5.497
 9296TIP3    H227832   6.613   6.347   5.578
 9297TIP3   OH227833   4.716   0.497   3.185
 9297TIP3    H127834   4.786   0.524   3.126
 9297TIP3    H227835   4.757   0.435   3.244
 9298TIP3   OH227836   6.569   6.665   3.964
 9298TIP3    H127837   6.559   6.713   3.882
 9298TIP3    H227838   6.496   6.695   4.019
 9299TIP3   OH227839   6.388   0.028   2.618
 9299TIP3    H127840   6.401   0.095   2.685
 9299TIP3    H227841   6.338  -0.041   2.663
 9300TIP3   OH227842   3.193   2.927   2.518
 9300TIP3    H127843   3.141   2.890   2.590
 9300TIP3    H227844   3.201   3.020   2.539
 9301TIP3   OH227845   2.622   2.214   5.075
 9301TIP3    H127846   2.596   2.136   5.125
 9301TIP3    H227847   2.683   2.181   5.010
 9302TIP3   OH227848   7.623   7.419   2.059
 9302TIP3    H127849   7.621   7.330   2.094
 9302TIP3    H227850   7.532   7.446   2.056
 9303TIP3   OH227851   3.130   1.702   3.451
 9303TIP3    H127852   3.090   1.734   3.370
 9303TIP3    H227853   3.141   1.608   3.436
 9304TIP3   OH227854   1.057   0.212   2.489
 9304TIP3    H127855   1.129   0.157   2.519
 9304TIP3    H227856   1.042   0.273   2.560
 9305TIP3   OH227857   7.565   2.427   4.026
 9305TIP3    H127858   7.520   2.452   4.107
 9305TIP3    H227859   7.561   2.505   3.971
 9306TIP3   OH227860   0.140   4.399   2.239
 9306TIP3    H127861   0.157   4.305   2.231
 9306TIP3    H227862   0.086   4.420   2.163
 9307TIP3   OH227863   7.680   5.511   2.368
 9307TIP3    H127864   7.728   5.483   2.290
 9307TIP3    H227865   7.611   5.446   2.378
 9308TIP3   OH227866   2.426   4.674   1.639
 9308TIP3    H127867   2.403   4.676   1.546
 9308TIP3    H227868   2.366   4.737   1.679
 9309TIP3   OH227869   1.717   3.106   5.251
 9309TIP3    H127870   1.776   3.134   5.321
 9309TIP3    H227871   1.733   3.012   5.242
 9310TIP3   OH227872   5.644   3.797   1.084
 9310TIP3    H127873   5.563   3.756   1.054
 9310TIP3    H227874   5.638   3.794   1.180
 9311TIP3   OH227875   8.106   4.497   3.234
 9311TIP3    H127876   8.020   4.455   3.230
 9311TIP3    H227877   8.090   4.580   3.280
 9312TIP3   OH227878   7.747   0.774   6.473
 9312TIP3    H127879   7.754   0.728   6.557
 9312TIP3    H227880   7.663   0.747   6.437
 9313TIP3   OH227881   7.670   7.474   4.089
 9313TIP3    H127882   7.717   7.557   4.095
 9313TIP3    H227883   7.649   7.465   3.996
 9314TIP3   OH227884   7.646   7.091   2.528
 9314TIP3    H127885   7.643   6.998   2.551
 9314TIP3    H227886   7.671   7.136   2.609
 9315TIP3   OH227887   2.741   4.449   6.114
 9315TIP3    H127888   2.752   4.505   6.037
 9315TIP3    H227889   2.652   4.416   6.107
 9316TIP3   OH227890   4.279   2.738   1.429
 9316TIP3    H127891   4.313   2.819   1.392
 9316TIP3    H227892   4.296   2.672   1.362
 9317TIP3   OH227893   2.369   3.950   0.396
 9317TIP3    H127894   2.331   4.030   0.359
 9317TIP3    H227895   2.411   3.907   0.321
 9318TIP3   OH227896   2.651   2.692   4.426
 9318TIP3    H127897   2.596   2.636   4.481
 9318TIP3    H227898   2.609   2.778   4.431
 9319TIP3   OH227899   7.862   6.569   4.421
 9319TIP3    H127900   7.843   6.534   4.334
 9319TIP3    H227901   7.840   6.662   4.416
 9320TIP3   OH227902   2.065   7.028   0.838
 9320TIP3    H127903   2.115   7.078   0.773
 9320TIP3    H227904   2.053   7.089   0.911
 9321TIP3   OH227905   0.313   0.144   2.000
 9321TIP3    H127906   0.326   0.079   1.932
 9321TIP3    H227907   0.397   0.190   2.006
 9322TIP3   OH227908   1.022   6.763   3.150
 9322TIP3    H127909   0.986   6.839   3.195
 9322TIP3    H227910   1.041   6.794   3.061
 9323TIP3   OH227911   0.666   5.213   0.105
 9323TIP3    H127912   0.579   5.172   0.111
 9323TIP3    H227913   0.648   5.304   0.083
 9324TIP3   OH227914   5.349   3.357   4.314
 9324TIP3    H127915   5.373   3.285   4.256
 9324TIP3    H227916   5.427   3.371   4.369
 9325TIP3   OH227917   4.206   1.097   4.680
 9325TIP3    H127918   4.275   1.161   4.664
 9325TIP3    H227919   4.243   1.037   4.744
 9326TIP3   OH227920   8.126   6.563   6.518
 9326TIP3    H127921   8.156   6.648   6.483
 9326TIP3    H227922   8.138   6.571   6.612
 9327TIP3   OH227923   1.539   2.482   2.964
 9327TIP3    H127924   1.599   2.409   2.950
 9327TIP3    H227925   1.545   2.501   3.057
 9328TIP3   OH227926   0.532   4.956   5.615
 9328TIP3    H127927   0.510   5.046   5.593
 9328TIP3    H227928   0.615   4.939   5.571
 9329TIP3   OH227929   5.774   2.091   4.305
 9329TIP3    H127930   5.745   2.149   4.376
 9329TIP3    H227931   5.694   2.066   4.260
 9330TIP3   OH227932   7.718   2.677   0.350
 9330TIP3    H127933   7.704   2.769   0.374
 9330TIP3    H227934   7.732   2.679   0.255
 9331TIP3   OH227935   7.169   5.940   3.664
 9331TIP3    H127936   7.199   5.999   3.733
 9331TIP3    H227937   7.206   5.976   3.583
 9332TIP3   OH227938   5.972   6.281   4.911
 9332TIP3    H127939   5.915   6.205   4.897
 9332TIP3    H227940   5.994   6.277   5.004
 9333TIP3   OH227941   2.688   4.769   0.702
 9333TIP3    H127942   2.778   4.764   0.670
 9333TIP3    H227943   2.677   4.691   0.755
 9334TIP3   OH227944   4.875   0.514   3.647
 9334TIP3    H127945   4.841   0.590   3.694
 9334TIP3    H227946   4.797   0.475   3.606
 9335TIP3   OH227947   7.456   2.538   5.156
 9335TIP3    H127948   7.410   2.504   5.233
 9335TIP3    H227949   7.440   2.474   5.087
 9336TIP3   OH227950   1.040   5.207   1.501
 9336TIP3    H127951   0.968   5.167   1.453
 9336TIP3    H227952   1.002   5.232   1.585
 9337TIP3   OH227953   1.898   5.665   2.624
 9337TIP3    H127954   1.834   5.668   2.553
 9337TIP3    H227955   1.977   5.703   2.587
 9338TIP3   OH227956   2.045   7.371   2.566
 9338TIP3    H127957   2.017   7.425   2.640
 9338TIP3    H227958   2.137   7.352   2.583
 9339TIP3   OH227959   3.597   0.572   5.577
 9339TIP3    H127960   3.608   0.553   5.484
 9339TIP3    H227961   3.537   0.647   5.579
 9340TIP3   OH227962   4.530   0.152   1.289
 9340TIP3    H127963   4.500   0.201   1.212
 9340TIP3    H227964   4.465   0.082   1.298
 9341TIP3   OH227965   6.313   2.430   0.272
 9341TIP3    H127966   6.394   2.454   0.227
 9341TIP3    H227967   6.275   2.514   0.299
 9342TIP3   OH227968   7.827   3.920   5.448
 9342TIP3    H127969   7.743   3.955   5.477
 9342TIP3    H227970   7.806   3.860   5.377
 9343TIP3   OH227971   4.788   6.385   6.204
 9343TIP3    H127972   4.770   6.371   6.111
 9343TIP3    H227973   4.757   6.306   6.247
 9344TIP3   OH227974   5.082   0.998   5.381
 9344TIP3    H127975   5.073   1.001   5.285
 9344TIP3    H227976   5.026   0.926   5.408
 9345TIP3   OH227977   5.160   4.717   5.719
 9345TIP3    H127978   5.092   4.688   5.780
 9345TIP3    H227979   5.242   4.700   5.765
 9346TIP3   OH227980   4.966   1.575   0.430
 9346TIP3    H127981   4.884   1.610   0.396
 9346TIP3    H227982   5.000   1.645   0.486
 9347TIP3   OH227983   2.153   2.130   1.782
 9347TIP3    H127984   2.120   2.156   1.868
 9347TIP3    H227985   2.224   2.192   1.763
 9348TIP3   OH227986   7.905   5.540   1.814
 9348TIP3    H127987   7.886   5.603   1.883
 9348TIP3    H227988   7.958   5.473   1.856
 9349TIP3   OH227989   1.248   6.427   4.273
 9349TIP3    H127990   1.276   6.337   4.290
 9349TIP3    H227991   1.322   6.480   4.301
 9350TIP3   OH227992   4.007   1.943   3.489
 9350TIP3    H127993   3.992   1.875   3.555
 9350TIP3    H227994   3.955   2.017   3.519
 9351TIP3   OH227995   6.943   3.504   4.905
 9351TIP3    H127996   7.000   3.468   4.836
 9351TIP3    H227997   6.874   3.439   4.916
 9352TIP3   OH227998   3.750   7.335   2.438
 9352TIP3    H127999   3.775   7.249   2.471
 9352TIP3    H228000   3.655   7.335   2.439
 9353TIP3   OH228001   3.512   5.781   2.310
 9353TIP3    H128002   3.444   5.717   2.333
 9353TIP3    H228003   3.540   5.817   2.395
 9354TIP3   OH228004   5.426   7.722   4.097
 9354TIP3    H128005   5.471   7.799   4.131
 9354TIP3    H228006   5.463   7.648   4.144
 9355TIP3   OH228007   6.104   2.805   1.565
 9355TIP3    H128008   6.095   2.731   1.625
 9355TIP3    H228009   6.044   2.785   1.493
 9356TIP3   OH228010   3.177   7.817   5.621
 9356TIP3    H128011   3.109   7.865   5.669
 9356TIP3    H228012   3.148   7.726   5.621
 9357TIP3   OH228013   1.795   6.543   2.109
 9357TIP3    H128014   1.796   6.615   2.172
 9357TIP3    H228015   1.870   6.559   2.053
 9358TIP3   OH228016   2.148   7.733   0.743
 9358TIP3    H128017   2.059   7.763   0.762
 9358TIP3    H228018   2.146   7.639   0.763
 9359TIP3   OH228019   4.006   7.215   5.325
 9359TIP3    H128020   3.982   7.185   5.413
 9359TIP3    H228021   3.924   7.212   5.276
 9360TIP3   OH228022   0.281   0.757   3.487
 9360TIP3    H128023   0.261   0.772   3.580
 9360TIP3    H228024   0.196   0.747   3.445
 9361TIP3   OH228025   2.974   3.040   0.159
 9361TIP3    H128026   3.019   3.013   0.239
 9361TIP3    H228027   3.028   3.005   0.088
 9362TIP3   OH228028   7.300   6.283   6.185
 9362TIP3    H128029   7.395   6.289   6.184
 9362TIP3    H228030   7.276   6.258   6.096
 9363TIP3   OH228031   4.514   3.167   2.979
 9363TIP3    H128032   4.604   3.195   2.963
 9363TIP3    H228033   4.522   3.078   3.014
 9364TIP3   OH228034   3.986   2.968   3.062
 9364TIP3    H128035   4.073   2.958   3.023
 9364TIP3    H228036   3.997   2.944   3.154
 9365TIP3   OH228037   5.956   0.335   1.293
 9365TIP3    H128038   5.905   0.408   1.329
 9365TIP3    H228039   5.896   0.292   1.231
 9366TIP3   OH228040   3.236   2.661   5.674
 9366TIP3    H128041   3.169   2.630   5.613
 9366TIP3    H228042   3.216   2.754   5.687
 9367TIP3   OH228043   4.353   0.142   4.263
 9367TIP3    H128044   4.326   0.221   4.218
 9367TIP3    H228045   4.435   0.165   4.307
 9368TIP3   OH228046   2.444   4.755   4.535
 9368TIP3    H128047   2.467   4.844   4.562
 9368TIP3    H228048   2.348   4.753   4.538
 9369TIP3   OH228049   0.188   4.780   3.512
 9369TIP3    H128050   0.195   4.830   3.430
 9369TIP3    H228051   0.175   4.689   3.484
 9370TIP3   OH228052   0.117   3.858   0.603
 9370TIP3    H128053   0.117   3.924   0.672
 9370TIP3    H228054   0.025   3.843   0.583
 9371TIP3   OH228055   7.408   0.010   6.685
 9371TIP3    H128056   7.493  -0.032   6.673
 9371TIP3    H228057   7.428   0.104   6.685
 9372TIP3   OH228058   2.302   4.816   3.696
 9372TIP3    H128059   2.269   4.734   3.659
 9372TIP3    H228060   2.230   4.878   3.685
 9373TIP3   OH228061   5.523   6.601   6.196
 9373TIP3    H128062   5.438   6.624   6.234
 9373TIP3    H228063   5.504   6.528   6.138
 9374TIP3   OH228064   1.413   1.043   1.033
 9374TIP3    H128065   1.365   1.036   1.115
 9374TIP3    H228066   1.384   1.126   0.995
 9375TIP3   OH228067   3.742   5.435   1.523
 9375TIP3    H128068   3.746   5.487   1.442
 9375TIP3    H228069   3.676   5.479   1.576
 9376TIP3   OH228070   6.762   5.362   3.316
 9376TIP3    H128071   6.741   5.367   3.410
 9376TIP3    H228072   6.678   5.346   3.274
 9377TIP3   OH228073   2.732   6.462   5.285
 9377TIP3    H128074   2.755   6.538   5.338
 9377TIP3    H228075   2.712   6.498   5.198
 9378TIP3   OH228076   0.693   7.414   4.297
 9378TIP3    H128077   0.629   7.356   4.255
 9378TIP3    H228078   0.681   7.398   4.391
 9379TIP3   OH228079   0.578   7.635   5.595
 9379TIP3    H128080   0.653   7.693   5.586
 9379TIP3    H228081   0.534   7.641   5.510
 9380TIP3   OH228082   1.734   5.782   0.310
 9380TIP3    H128083   1.764   5.697   0.345
 9380TIP3    H228084   1.645   5.792   0.345
 9381TIP3   OH228085   4.707   6.873   5.686
 9381TIP3    H128086   4.656   6.813   5.631
 9381TIP3    H228087   4.645   6.903   5.752
 9382TIP3   OH228088   2.116   7.002   4.225
 9382TIP3    H128089   2.110   6.908   4.206
 9382TIP3    H228090   2.144   7.041   4.142
 9383TIP3   OH228091   2.456   2.624   0.281
 9383TIP3    H128092   2.550   2.616   0.261
 9383TIP3    H228093   2.448   2.709   0.324
 9384TIP3   OH228094   3.481   1.136   1.317
 9384TIP3    H128095   3.431   1.060   1.289
 9384TIP3    H228096   3.494   1.187   1.238
 9385TIP3   OH228097   0.341   7.661   4.638
 9385TIP3    H128098   0.355   7.671   4.732
 9385TIP3    H228099   0.266   7.602   4.630
 9386TIP3   OH228100   6.548   7.774   1.477
 9386TIP3    H128101   6.579   7.855   1.438
 9386TIP3    H228102   6.456   7.767   1.450
 9387TIP3   OH228103   4.752   5.914   4.423
 9387TIP3    H128104   4.740   5.936   4.331
 9387TIP3    H228105   4.669   5.936   4.464
 9388TIP3   OH228106   3.688   3.927   0.505
 9388TIP3    H128107   3.669   3.945   0.413
 9388TIP3    H228108   3.655   4.004   0.552
 9389TIP3   OH228109   2.893   2.794   4.492
 9389TIP3    H128110   2.951   2.719   4.481
 9389TIP3    H228111   2.808   2.763   4.464
 9390TIP3   OH228112   0.243   5.926   0.032
 9390TIP3    H128113   0.225   5.842  -0.009
 9390TIP3    H228114   0.318   5.962  -0.015
 9391TIP3   OH228115   2.623   2.140   1.187
 9391TIP3    H128116   2.549   2.080   1.178
 9391TIP3    H228117   2.629   2.156   1.281
 9392TIP3   OH228118   5.532   0.353   5.131
 9392TIP3    H128119   5.519   0.259   5.141
 9392TIP3    H228120   5.532   0.387   5.221
 9393TIP3   OH228121   4.627   3.368   2.382
 9393TIP3    H128122   4.614   3.463   2.390
 9393TIP3    H228123   4.661   3.341   2.467
 9394TIP3   OH228124   6.323   6.239   3.100
 9394TIP3    H128125   6.400   6.186   3.077
 9394TIP3    H228126   6.254   6.175   3.116
 9395TIP3   OH228127   3.904   2.300   2.968
 9395TIP3    H128128   3.820   2.344   2.974
 9395TIP3    H228129   3.899   2.230   3.033
 9396TIP3   OH228130   2.500   7.569   1.615
 9396TIP3    H128131   2.556   7.572   1.538
 9396TIP3    H228132   2.519   7.485   1.656
 9397TIP3   OH228133   2.715   6.976   0.554
 9397TIP3    H128134   2.765   6.895   0.548
 9397TIP3    H228135   2.639   6.962   0.497
 9398TIP3   OH228136   7.694   4.972   3.313
 9398TIP3    H128137   7.636   4.904   3.347
 9398TIP3    H228138   7.645   5.013   3.242
 9399TIP3   OH228139   1.960   1.253   1.187
 9399TIP3    H128140   1.898   1.219   1.122
 9399TIP3    H228141   2.044   1.256   1.140
 9400TIP3   OH228142   8.232   7.084   2.713
 9400TIP3    H128143   8.318   7.056   2.680
 9400TIP3    H228144   8.243   7.089   2.808
 9401TIP3   OH228145   5.033   1.655   5.762
 9401TIP3    H128146   5.044   1.656   5.667
 9401TIP3    H228147   4.938   1.663   5.775
 9402TIP3   OH228148   2.993   7.664   6.746
 9402TIP3    H128149   3.004   7.570   6.735
 9402TIP3    H228150   3.058   7.703   6.687
 9403TIP3   OH228151   4.332   3.334   3.912
 9403TIP3    H128152   4.304   3.244   3.893
 9403TIP3    H228153   4.270   3.366   3.977
 9404TIP3   OH228154   2.134   5.262   4.338
 9404TIP3    H128155   2.179   5.186   4.375
 9404TIP3    H228156   2.194   5.336   4.355
 9405TIP3   OH228157   3.610   0.422   1.607
 9405TIP3    H128158   3.576   0.412   1.518
 9405TIP3    H228159   3.636   0.514   1.612
 9406TIP3   OH228160   4.241   3.975   6.231
 9406TIP3    H128161   4.155   4.010   6.206
 9406TIP3    H228162   4.281   3.947   6.149
 9407TIP3   OH228163   6.674   1.893   6.656
 9407TIP3    H128164   6.617   1.905   6.732
 9407TIP3    H228165   6.751   1.946   6.674
 9408TIP3   OH228166   4.088   1.746   3.048
 9408TIP3    H128167   4.080   1.829   3.002
 9408TIP3    H228168   3.998   1.718   3.063
 9409TIP3   OH228169   5.385   6.144   2.074
 9409TIP3    H128170   5.452   6.100   2.021
 9409TIP3    H228171   5.303   6.102   2.048
 9410TIP3   OH228172   5.381   7.585   5.652
 9410TIP3    H128173   5.315   7.634   5.604
 9410TIP3    H228174   5.428   7.651   5.703
 9411TIP3   OH228175   2.903   1.821   4.317
 9411TIP3    H128176   2.891   1.880   4.243
 9411TIP3    H228177   2.814   1.792   4.338
 9412TIP3   OH228178   4.497   0.725   0.791
 9412TIP3    H128179   4.410   0.698   0.818
 9412TIP3    H228180   4.532   0.649   0.743
 9413TIP3   OH228181   4.316   7.014   0.051
 9413TIP3    H128182   4.340   7.035  -0.039
 9413TIP3    H228183   4.310   7.100   0.095
 9414TIP3   OH228184   3.513   1.277   6.334
 9414TIP3    H128185   3.512   1.184   6.312
 9414TIP3    H228186   3.434   1.291   6.385
 9415TIP3   OH228187   7.032   1.061   2.962
 9415TIP3    H128188   7.080   1.019   3.034
 9415TIP3    H228189   7.021   1.151   2.990
 9416TIP3   OH228190   2.710   6.938   1.135
 9416TIP3    H128191   2.681   7.017   1.181
 9416TIP3    H228192   2.791   6.913   1.180
 9417TIP3   OH228193   1.950   5.697   4.309
 9417TIP3    H128194   1.949   5.602   4.296
 9417TIP3    H228195   1.868   5.716   4.354
 9418TIP3   OH228196   3.489   0.620   1.864
 9418TIP3    H128197   3.505   0.529   1.886
 9418TIP3    H228198   3.394   0.626   1.854
 9419TIP3   OH228199   3.491   2.744   0.756
 9419TIP3    H128200   3.412   2.692   0.771
 9419TIP3    H228201   3.484   2.817   0.818
 9420TIP3   OH228202   1.731   2.282   1.377
 9420TIP3    H128203   1.647   2.326   1.365
 9420TIP3    H228204   1.783   2.343   1.430
 9421TIP3   OH228205   6.264   0.582   0.680
 9421TIP3    H128206   6.232   0.612   0.765
 9421TIP3    H228207   6.359   0.589   0.687
 9422TIP3   OH228208   7.735   1.619   5.785
 9422TIP3    H128209   7.827   1.595   5.779
 9422TIP3    H228210   7.725   1.692   5.724
 9423TIP3   OH228211   3.004   2.111   1.171
 9423TIP3    H128212   2.976   2.066   1.251
 9423TIP3    H228213   3.014   2.202   1.197
 9424TIP3   OH228214   4.078   1.279   3.271
 9424TIP3    H128215   4.099   1.372   3.260
 9424TIP3    H228216   4.034   1.255   3.190
 9425TIP3   OH228217   5.891   6.100   3.875
 9425TIP3    H128218   5.879   6.007   3.856
 9425TIP3    H228219   5.807   6.140   3.851
 9426TIP3   OH228220   7.966   2.963   1.206
 9426TIP3    H128221   8.016   3.025   1.260
 9426TIP3    H228222   8.000   2.976   1.117
 9427TIP3   OH228223   2.145   6.263   1.508
 9427TIP3    H128224   2.180   6.352   1.499
 9427TIP3    H228225   2.185   6.230   1.588
 9428TIP3   OH228226   0.810   5.834   5.111
 9428TIP3    H128227   0.795   5.769   5.180
 9428TIP3    H228228   0.763   5.799   5.035
 9429TIP3   OH228229   6.421   6.842   0.480
 9429TIP3    H128230   6.354   6.774   0.469
 9429TIP3    H228231   6.398   6.884   0.563
 9430TIP3   OH228232   5.381   2.178   0.270
 9430TIP3    H128233   5.471   2.179   0.237
 9430TIP3    H228234   5.365   2.267   0.300
 9431TIP3   OH228235   8.296   5.491   6.139
 9431TIP3    H128236   8.255   5.427   6.197
 9431TIP3    H228237   8.245   5.571   6.153
 9432TIP3   OH228238   3.105   3.843   2.425
 9432TIP3    H128239   3.165   3.874   2.357
 9432TIP3    H228240   3.052   3.776   2.381
 9433TIP3   OH228241   1.668   3.219   0.509
 9433TIP3    H128242   1.645   3.180   0.425
 9433TIP3    H228243   1.635   3.309   0.504
 9434TIP3   OH228244   6.037   0.624   2.487
 9434TIP3    H128245   6.028   0.610   2.393
 9434TIP3    H228246   6.128   0.651   2.499
 9435TIP3   OH228247   0.788   1.501   5.559
 9435TIP3    H128248   0.870   1.512   5.510
 9435TIP3    H228249   0.733   1.573   5.530
 9436TIP3   OH228250   3.954   5.003   3.465
 9436TIP3    H128251   3.879   4.998   3.525
 9436TIP3    H228252   3.929   5.071   3.402
 9437TIP3   OH228253   7.206   0.934   6.270
 9437TIP3    H128254   7.273   0.937   6.201
 9437TIP3    H228255   7.151   0.860   6.246
 9438TIP3   OH228256   2.112   5.918   0.228
 9438TIP3    H128257   2.135   5.910   0.320
 9438TIP3    H228258   2.137   5.834   0.189
 9439TIP3   OH228259   1.401   0.073   0.588
 9439TIP3    H128260   1.399   0.019   0.509
 9439TIP3    H228261   1.384   0.012   0.660
 9440TIP3   OH228262   0.176   3.170   5.504
 9440TIP3    H128263   0.111   3.239   5.513
 9440TIP3    H228264   0.258   3.210   5.530
 9441TIP3   OH228265   2.819   7.433   0.156
 9441TIP3    H128266   2.814   7.351   0.205
 9441TIP3    H228267   2.896   7.477   0.191
 9442TIP3   OH228268   3.977   3.930   0.394
 9442TIP3    H128269   3.886   3.914   0.419
 9442TIP3    H228270   4.029   3.900   0.469
 9443TIP3   OH228271   2.475   7.719   0.244
 9443TIP3    H128272   2.424   7.644   0.215
 9443TIP3    H228273   2.494   7.768   0.164
 9444TIP3   OH228274   4.517   3.154   2.240
 9444TIP3    H128275   4.531   3.224   2.304
 9444TIP3    H228276   4.534   3.073   2.288
 9445TIP3   OH228277   1.096   2.014   5.609
 9445TIP3    H128278   1.174   1.982   5.563
 9445TIP3    H228279   1.029   1.948   5.590
 9446TIP3   OH228280   5.871   4.742   5.440
 9446TIP3    H128281   5.777   4.756   5.425
 9446TIP3    H228282   5.876   4.652   5.473
 9447TIP3   OH228283   5.982   3.134   5.301
 9447TIP3    H128284   5.898   3.132   5.255
 9447TIP3    H228285   5.959   3.137   5.393
 9448TIP3   OH228286   6.051   7.149   3.872
 9448TIP3    H128287   6.110   7.219   3.901
 9448TIP3    H228288   5.965   7.172   3.907
 9449TIP3   OH228289   5.996   1.374   3.313
 9449TIP3    H128290   5.941   1.308   3.270
 9449TIP3    H228291   6.017   1.336   3.398
 9450TIP3   OH228292   7.636   4.523   0.180
 9450TIP3    H128293   7.542   4.542   0.181
 9450TIP3    H228294   7.642   4.431   0.205
 9451TIP3   OH228295   6.252   5.543   0.144
 9451TIP3    H128296   6.224   5.571   0.231
 9451TIP3    H228297   6.348   5.542   0.150
 9452TIP3   OH228298   1.231   6.754  -0.002
 9452TIP3    H128299   1.238   6.775   0.091
 9452TIP3    H228300   1.321   6.760  -0.035
 9453TIP3   OH228301   4.315   1.870   5.965
 9453TIP3    H128302   4.323   1.775   5.956
 9453TIP3    H228303   4.263   1.883   6.044
 9454TIP3   OH228304   6.777   2.988   2.627
 9454TIP3    H128305   6.813   3.063   2.579
 9454TIP3    H228306   6.854   2.942   2.661
 9455TIP3   OH228307   8.047   1.213   4.381
 9455TIP3    H128308   8.133   1.236   4.346
 9455TIP3    H228309   8.028   1.283   4.445
 9456TIP3   OH228310   1.157   0.202   2.102
 9456TIP3    H128311   1.211   0.255   2.160
 9456TIP3    H228312   1.200   0.207   2.017
 9457TIP3   OH228313   1.958   6.601   0.332
 9457TIP3    H128314   1.878   6.632   0.289
 9457TIP3    H228315   1.948   6.625   0.424
 9458TIP3   OH228316   4.077   3.706   2.460
 9458TIP3    H128317   4.079   3.775   2.527
 9458TIP3    H228318   4.026   3.744   2.388
 9459TIP3   OH228319   3.808   1.726   3.083
 9459TIP3    H128320   3.717   1.697   3.082
 9459TIP3    H228321   3.813   1.794   3.015
 9460TIP3   OH228322   4.359   3.009   1.342
 9460TIP3    H128323   4.294   3.079   1.347
 9460TIP3    H228324   4.435   3.045   1.389
 9461TIP3   OH228325   2.774   6.477   1.620
 9461TIP3    H128326   2.783   6.382   1.612
 9461TIP3    H228327   2.694   6.490   1.671
 9462TIP3   OH228328   7.975   1.529   2.095
 9462TIP3    H128329   7.897   1.479   2.117
 9462TIP3    H228330   8.048   1.476   2.127
 9463TIP3   OH228331   7.532   3.934   4.491
 9463TIP3    H128332   7.592   3.870   4.529
 9463TIP3    H228333   7.451   3.885   4.474
 9464TIP3   OH228334   5.759   6.686   2.142
 9464TIP3    H128335   5.759   6.626   2.067
 9464TIP3    H228336   5.666   6.706   2.156
 9465TIP3   OH228337   2.627   1.297   3.500
 9465TIP3    H128338   2.699   1.338   3.452
 9465TIP3    H228339   2.613   1.353   3.576
 9466TIP3   OH228340   1.773   5.393   1.137
 9466TIP3    H128341   1.678   5.394   1.153
 9466TIP3    H228342   1.782   5.432   1.050
 9467TIP3   OH228343   1.289   4.039   4.284
 9467TIP3    H128344   1.198   4.019   4.261
 9467TIP3    H228345   1.305   3.989   4.364
 9468TIP3   OH228346   3.296   1.161   3.732
 9468TIP3    H128347   3.269   1.084   3.682
 9468TIP3    H228348   3.321   1.226   3.667
 9469TIP3   OH228349   0.688   7.645   6.552
 9469TIP3    H128350   0.675   7.635   6.646
 9469TIP3    H228351   0.653   7.564   6.514
 9470TIP3   OH228352   8.185   5.028   5.811
 9470TIP3    H128353   8.104   4.978   5.799
 9470TIP3    H228354   8.174   5.072   5.895
 9471TIP3   OH228355   4.714   2.971   1.632
 9471TIP3    H128356   4.659   2.927   1.697
 9471TIP3    H228357   4.754   3.044   1.679
 9472TIP3   OH228358   5.152   1.243   4.582
 9472TIP3    H128359   5.093   1.289   4.643
 9472TIP3    H228360   5.224   1.212   4.638
 9473TIP3   OH228361   3.245   2.541   4.234
 9473TIP3    H128362   3.257   2.632   4.262
 9473TIP3    H228363   3.316   2.493   4.277
 9474TIP3   OH228364   0.238   0.117   3.930
 9474TIP3    H128365   0.197   0.165   3.857
 9474TIP3    H228366   0.277   0.040   3.888
 9475TIP3   OH228367   6.328   3.252   5.030
 9475TIP3    H128368   6.296   3.179   5.083
 9475TIP3    H228369   6.409   3.220   4.991
 9476TIP3   OH228370   7.240   7.261   6.152
 9476TIP3    H128371   7.256   7.323   6.223
 9476TIP3    H228372   7.147   7.270   6.132
 9477TIP3   OH228373   5.715   2.302   5.257
 9477TIP3    H128374   5.803   2.313   5.222
 9477TIP3    H228375   5.689   2.213   5.231
 9478TIP3   OH228376   5.049   7.128   6.176
 9478TIP3    H128377   4.958   7.135   6.205
 9478TIP3    H228378   5.043   7.122   6.081
 9479TIP3   OH228379   6.300   1.312   0.737
 9479TIP3    H128380   6.281   1.342   0.648
 9479TIP3    H228381   6.350   1.231   0.724
 9480TIP3   OH228382   0.399   6.125   5.376
 9480TIP3    H128383   0.436   6.210   5.396
 9480TIP3    H228384   0.474   6.065   5.372
 9481TIP3   OH228385   0.991   3.157   6.395
 9481TIP3    H128386   1.034   3.133   6.313
 9481TIP3    H228387   0.898   3.136   6.380
 9482TIP3   OH228388   0.278   1.905   2.943
 9482TIP3    H128389   0.274   1.854   2.862
 9482TIP3    H228390   0.370   1.900   2.970
 9483TIP3   OH228391   4.555   2.776   5.077
 9483TIP3    H128392   4.530   2.740   5.162
 9483TIP3    H228393   4.626   2.837   5.097
 9484TIP3   OH228394   4.418   4.896   4.383
 9484TIP3    H128395   4.332   4.938   4.393
 9484TIP3    H228396   4.481   4.965   4.406
 9485TIP3   OH228397   0.346   0.729   5.731
 9485TIP3    H128398   0.277   0.759   5.790
 9485TIP3    H228399   0.300   0.679   5.664
 9486TIP3   OH228400   3.762   6.938   2.057
 9486TIP3    H128401   3.763   6.958   1.964
 9486TIP3    H228402   3.755   7.023   2.100
 9487TIP3   OH228403   5.022   5.147   1.848
 9487TIP3    H128404   4.979   5.063   1.866
 9487TIP3    H228405   4.951   5.205   1.821
 9488TIP3   OH228406   6.790   6.749   1.051
 9488TIP3    H128407   6.761   6.736   1.142
 9488TIP3    H228408   6.752   6.833   1.026
 9489TIP3   OH228409   3.243   4.493   1.544
 9489TIP3    H128410   3.220   4.549   1.619
 9489TIP3    H228411   3.159   4.471   1.504
 9490TIP3   OH228412   6.987   5.551   4.711
 9490TIP3    H128413   6.906   5.517   4.748
 9490TIP3    H228414   7.041   5.573   4.788
 9491TIP3   OH228415   1.853   5.341   4.772
 9491TIP3    H128416   1.814   5.426   4.749
 9491TIP3    H228417   1.806   5.314   4.851
 9492TIP3   OH228418   4.145   7.246   6.495
 9492TIP3    H128419   4.106   7.322   6.452
 9492TIP3    H228420   4.122   7.172   6.438
 9493TIP3   OH228421   8.064   1.021   5.183
 9493TIP3    H128422   8.085   1.066   5.101
 9493TIP3    H228423   7.981   1.059   5.211
 9494TIP3   OH228424   1.357   1.946   6.070
 9494TIP3    H128425   1.263   1.932   6.059
 9494TIP3    H228426   1.393   1.935   5.982
 9495TIP3   OH228427   7.984   0.243   1.788
 9495TIP3    H128428   7.897   0.221   1.756
 9495TIP3    H228429   8.012   0.317   1.734
 9496TIP3   OH228430   3.723   2.409   4.820
 9496TIP3    H128431   3.689   2.497   4.805
 9496TIP3    H228432   3.707   2.363   4.738
 9497TIP3   OH228433   2.077   7.578   1.164
 9497TIP3    H128434   2.125   7.608   1.241
 9497TIP3    H228435   2.144   7.551   1.102
 9498TIP3   OH228436   6.063   5.939   0.602
 9498TIP3    H128437   6.063   5.909   0.512
 9498TIP3    H228438   6.060   6.035   0.596
 9499TIP3   OH228439   1.098   6.297   5.674
 9499TIP3    H128440   1.146   6.248   5.740
 9499TIP3    H228441   1.163   6.354   5.633
 9500TIP3   OH228442   0.879   1.900   4.989
 9500TIP3    H128443   0.962   1.897   4.942
 9500TIP3    H228444   0.897   1.950   5.068
 9501TIP3   OH228445   3.010   6.357   5.120
 9501TIP3    H128446   2.943   6.334   5.184
 9501TIP3    H228447   3.089   6.372   5.173
 9502TIP3   OH228448   8.123   5.095   4.608
 9502TIP3    H128449   8.103   5.018   4.555
 9502TIP3    H228450   8.040   5.118   4.649
 9503TIP3   OH228451   1.879   5.886   6.461
 9503TIP3    H128452   1.894   5.911   6.552
 9503TIP3    H228453   1.862   5.792   6.464
 9504TIP3   OH228454   5.706   0.622   4.943
 9504TIP3    H128455   5.779   0.684   4.953
 9504TIP3    H228456   5.651   0.637   5.020
 9505TIP3   OH228457   5.478   7.147   3.372
 9505TIP3    H128458   5.433   7.167   3.289
 9505TIP3    H228459   5.543   7.082   3.349
 9506TIP3   OH228460   0.769   1.747   2.866
 9506TIP3    H128461   0.848   1.771   2.914
 9506TIP3    H228462   0.784   1.781   2.777
 9507TIP3   OH228463   6.948   2.117   1.466
 9507TIP3    H128464   6.936   2.180   1.537
 9507TIP3    H228465   6.866   2.068   1.462
 9508TIP3   OH228466   1.756   1.452   2.933
 9508TIP3    H128467   1.802   1.400   2.867
 9508TIP3    H228468   1.671   1.473   2.893
 9509TIP3   OH228469   8.087   7.519   2.939
 9509TIP3    H128470   8.034   7.488   2.866
 9509TIP3    H228471   8.081   7.614   2.934
 9510TIP3   OH228472   6.580   1.514   0.236
 9510TIP3    H128473   6.580   1.513   0.332
 9510TIP3    H228474   6.562   1.423   0.212
 9511TIP3   OH228475   2.150   3.033   5.562
 9511TIP3    H128476   2.135   2.943   5.533
 9511TIP3    H228477   2.188   3.024   5.650
 9512TIP3   OH228478   8.296   1.269   5.055
 9512TIP3    H128479   8.284   1.334   4.985
 9512TIP3    H228480   8.232   1.201   5.037
 9513TIP3   OH228481   3.459   3.633   3.408
 9513TIP3    H128482   3.526   3.679   3.357
 9513TIP3    H228483   3.503   3.608   3.489
 9514TIP3   OH228484   7.607   0.554   1.031
 9514TIP3    H128485   7.587   0.467   0.996
 9514TIP3    H228486   7.653   0.598   0.960
 9515TIP3   OH228487   7.350   7.081   1.382
 9515TIP3    H128488   7.295   7.105   1.457
 9515TIP3    H228489   7.403   7.158   1.365
 9516TIP3   OH228490   0.866   4.135   0.537
 9516TIP3    H128491   0.912   4.202   0.487
 9516TIP3    H228492   0.806   4.184   0.594
 9517TIP3   OH228493   4.818   5.386   6.735
 9517TIP3    H128494   4.899   5.385   6.685
 9517TIP3    H228495   4.837   5.440   6.812
 9518TIP3   OH228496   8.256   6.002   4.178
 9518TIP3    H128497   8.278   5.921   4.223
 9518TIP3    H228498   8.316   6.067   4.215
 9519TIP3   OH228499  -0.009   1.147   3.806
 9519TIP3    H128500   0.029   1.073   3.854
 9519TIP3    H228501   0.058   1.216   3.812
 9520TIP3   OH228502   3.124   4.605   5.533
 9520TIP3    H128503   3.171   4.532   5.493
 9520TIP3    H228504   3.114   4.578   5.625
 9521TIP3   OH228505   5.586   7.284   3.605
 9521TIP3    H128506   5.524   7.247   3.668
 9521TIP3    H228507   5.566   7.239   3.523
 9522TIP3   OH228508   3.169   7.107   0.528
 9522TIP3    H128509   3.116   7.028   0.530
 9522TIP3    H228510   3.258   7.076   0.513
 9523TIP3   OH228511   5.338   7.246   5.971
 9523TIP3    H128512   5.256   7.276   6.010
 9523TIP3    H228513   5.313   7.173   5.914
 9524TIP3   OH228514   3.547   2.758   4.486
 9524TIP3    H128515   3.575   2.832   4.539
 9524TIP3    H228516   3.612   2.754   4.415
 9525TIP3   OH228517   0.997   5.857   4.534
 9525TIP3    H128518   0.904   5.855   4.513
 9525TIP3    H228519   1.000   5.884   4.625
 9526TIP3   OH228520   6.860   5.097   2.034
 9526TIP3    H128521   6.892   5.105   1.945
 9526TIP3    H228522   6.925   5.042   2.078
 9527TIP3   OH228523   0.321   1.305   1.308
 9527TIP3    H128524   0.318   1.292   1.402
 9527TIP3    H228525   0.239   1.269   1.275
 9528TIP3   OH228526   4.423   6.975   1.856
 9528TIP3    H128527   4.384   6.895   1.892
 9528TIP3    H228528   4.349   7.032   1.836
 9529TIP3   OH228529   5.625   5.089   1.135
 9529TIP3    H128530   5.706   5.039   1.147
 9529TIP3    H228531   5.645   5.149   1.063
 9530TIP3   OH228532   0.543   5.833   3.935
 9530TIP3    H128533   0.575   5.774   3.867
 9530TIP3    H228534   0.607   5.904   3.936
 9531TIP3   OH228535   8.120   7.048   3.578
 9531TIP3    H128536   8.148   7.078   3.491
 9531TIP3    H228537   8.118   6.953   3.571
 9532TIP3   OH228538   4.700   6.887   2.182
 9532TIP3    H128539   4.767   6.956   2.176
 9532TIP3    H228540   4.685   6.861   2.091
 9533TIP3   OH228541   6.813   0.346   1.161
 9533TIP3    H128542   6.812   0.278   1.095
 9533TIP3    H228543   6.902   0.382   1.158
 9534TIP3   OH228544   2.775   6.910   4.464
 9534TIP3    H128545   2.842   6.855   4.424
 9534TIP3    H228546   2.699   6.853   4.475
 9535TIP3   OH228547   5.956   5.872   2.126
 9535TIP3    H128548   5.960   5.776   2.124
 9535TIP3    H228549   5.910   5.891   2.208
 9536TIP3   OH228550   7.023   7.722   1.081
 9536TIP3    H128551   7.117   7.739   1.090
 9536TIP3    H228552   7.006   7.645   1.135
 9537TIP3   OH228553   3.724   1.371   5.608
 9537TIP3    H128554   3.815   1.345   5.619
 9537TIP3    H228555   3.709   1.438   5.675
 9538TIP3   OH228556   1.553   4.475   5.785
 9538TIP3    H128557   1.464   4.495   5.758
 9538TIP3    H228558   1.593   4.561   5.802
 9539TIP3   OH228559   0.571   3.349   0.835
 9539TIP3    H128560   0.643   3.412   0.841
 9539TIP3    H228561   0.492   3.403   0.838
 9540TIP3   OH228562   0.749   5.101   1.687
 9540TIP3    H128563   0.736   5.195   1.697
 9540TIP3    H228564   0.790   5.091   1.601
 9541TIP3   OH228565   2.706   7.222   0.794
 9541TIP3    H128566   2.769   7.237   0.723
 9541TIP3    H228567   2.760   7.203   0.870
 9542TIP3   OH228568   3.465   1.339   0.579
 9542TIP3    H128569   3.460   1.396   0.656
 9542TIP3    H228570   3.539   1.373   0.529
 9543TIP3   OH228571   5.558   6.736  -0.015
 9543TIP3    H128572   5.575   6.828   0.006
 9543TIP3    H228573   5.471   6.719   0.022
 9544TIP3   OH228574   7.295   5.042   0.540
 9544TIP3    H128575   7.353   5.083   0.476
 9544TIP3    H228576   7.280   5.109   0.606
 9545TIP3   OH228577   5.926   1.409   1.131
 9545TIP3    H128578   5.841   1.365   1.128
 9545TIP3    H228579   5.962   1.386   1.217
 9546TIP3   OH228580   3.904   0.820   0.064
 9546TIP3    H128581   3.864   0.860   0.141
 9546TIP3    H228582   3.991   0.794   0.092
 9547TIP3   OH228583   4.070   1.821   0.435
 9547TIP3    H128584   4.003   1.873   0.391
 9547TIP3    H228585   4.046   1.823   0.527
 9548TIP3   OH228586   6.388   4.557   1.951
 9548TIP3    H128587   6.334   4.486   1.987
 9548TIP3    H228588   6.336   4.636   1.966
 9549TIP3   OH228589   4.379   2.268   5.508
 9549TIP3    H128590   4.325   2.321   5.566
 9549TIP3    H228591   4.456   2.322   5.491
 9550TIP3   OH228592   5.887   0.417   6.289
 9550TIP3    H128593   5.822   0.449   6.352
 9550TIP3    H228594   5.923   0.496   6.249
 9551TIP3   OH228595   3.643   5.335   1.224
 9551TIP3    H128596   3.664   5.426   1.243
 9551TIP3    H228597   3.724   5.298   1.188
 9552TIP3   OH228598   0.102   6.161   5.052
 9552TIP3    H128599   0.093   6.201   5.138
 9552TIP3    H228600   0.067   6.226   4.991
 9553TIP3   OH228601   4.986   7.377   1.450
 9553TIP3    H128602   4.959   7.316   1.382
 9553TIP3    H228603   4.905   7.421   1.477
 9554TIP3   OH228604   3.078   5.717   4.617
 9554TIP3    H128605   3.125   5.759   4.545
 9554TIP3    H228606   3.145   5.665   4.662
 9555TIP3   OH228607   2.603   3.029   6.528
 9555TIP3    H128608   2.520   2.996   6.494
 9555TIP3    H228609   2.668   3.004   6.462
 9556TIP3   OH228610   4.920   0.154   2.712
 9556TIP3    H128611   4.840   0.102   2.723
 9556TIP3    H228612   4.951   0.170   2.801
 9557TIP3   OH228613   1.784   4.830   4.681
 9557TIP3    H128614   1.780   4.804   4.773
 9557TIP3    H228615   1.831   4.914   4.682
 9558TIP3   OH228616   4.484   0.603   3.624
 9558TIP3    H128617   4.400   0.643   3.646
 9558TIP3    H228618   4.527   0.589   3.708
 9559TIP3   OH228619   2.515   0.903   3.858
 9559TIP3    H128620   2.539   0.956   3.782
 9559TIP3    H228621   2.580   0.924   3.925
 9560TIP3   OH228622   5.549   0.919   2.103
 9560TIP3    H128623   5.489   0.897   2.175
 9560TIP3    H228624   5.605   0.843   2.095
 9561TIP3   OH228625   7.867   5.279   1.576
 9561TIP3    H128626   7.866   5.279   1.480
 9561TIP3    H228627   7.952   5.316   1.599
 9562TIP3   OH228628   6.432   0.940   1.002
 9562TIP3    H128629   6.491   0.867   1.022
 9562TIP3    H228630   6.344   0.904   1.015
 9563TIP3   OH228631   1.132   4.064   6.001
 9563TIP3    H128632   1.226   4.079   5.996
 9563TIP3    H228633   1.110   4.021   5.918
 9564TIP3   OH228634   5.242   5.258   2.887
 9564TIP3    H128635   5.262   5.200   2.961
 9564TIP3    H228636   5.153   5.233   2.860
 9565TIP3   OH228637   0.948   1.792   5.524
 9565TIP3    H128638   0.969   1.714   5.472
 9565TIP3    H228639   0.888   1.842   5.468
 9566TIP3   OH228640   2.541   7.055   6.715
 9566TIP3    H128641   2.506   7.100   6.638
 9566TIP3    H228642   2.504   6.967   6.711
 9567TIP3   OH228643   1.848   6.454   5.860
 9567TIP3    H128644   1.834   6.372   5.812
 9567TIP3    H228645   1.811   6.522   5.803
 9568TIP3   OH228646   4.867   5.107   3.607
 9568TIP3    H128647   4.888   5.098   3.699
 9568TIP3    H228648   4.775   5.136   3.606
 9569TIP3   OH228649   5.276   3.087   5.072
 9569TIP3    H128650   5.294   3.140   5.150
 9569TIP3    H228651   5.281   2.997   5.102
 9570TIP3   OH228652   2.002   6.534   3.905
 9570TIP3    H128653   2.094   6.542   3.879
 9570TIP3    H228654   1.961   6.485   3.833
 9571TIP3   OH228655   5.022   0.580   3.978
 9571TIP3    H128656   5.087   0.587   3.908
 9571TIP3    H228657   4.964   0.509   3.950
 9572TIP3   OH228658   4.406   3.532   0.940
 9572TIP3    H128659   4.496   3.556   0.961
 9572TIP3    H228660   4.414   3.452   0.888
 9573TIP3   OH228661   2.550   7.450   3.167
 9573TIP3    H128662   2.517   7.377   3.220
 9573TIP3    H228663   2.471   7.493   3.136
 9574TIP3   OH228664   2.345   5.782   5.312
 9574TIP3    H128665   2.351   5.824   5.226
 9574TIP3    H228666   2.323   5.691   5.293
 9575TIP3   OH228667   1.462   1.820   6.273
 9575TIP3    H128668   1.395   1.835   6.339
 9575TIP3    H228669   1.432   1.869   6.197
 9576TIP3   OH228670   5.705   1.034   6.120
 9576TIP3    H128671   5.774   1.101   6.117
 9576TIP3    H228672   5.633   1.071   6.070
 9577TIP3   OH228673   6.026   5.895   6.555
 9577TIP3    H128674   5.952   5.835   6.545
 9577TIP3    H228675   6.002   5.950   6.630
 9578TIP3   OH228676   5.127   3.438   0.448
 9578TIP3    H128677   5.154   3.529   0.453
 9578TIP3    H228678   5.196   3.390   0.494
 9579TIP3   OH228679   8.122   7.560   2.320
 9579TIP3    H128680   8.053   7.594   2.378
 9579TIP3    H228681   8.182   7.514   2.379
 9580TIP3   OH228682   5.207   6.043   0.049
 9580TIP3    H128683   5.118   6.015   0.030
 9580TIP3    H228684   5.254   6.028  -0.033
 9581TIP3   OH228685   7.995   5.616   1.311
 9581TIP3    H128686   7.954   5.538   1.273
 9581TIP3    H228687   7.977   5.610   1.405
 9582TIP3   OH228688   6.635   3.241   6.331
 9582TIP3    H128689   6.587   3.271   6.254
 9582TIP3    H228690   6.584   3.275   6.405
 9583TIP3   OH228691   2.552   6.158   5.477
 9583TIP3    H128692   2.553   6.141   5.382
 9583TIP3    H228693   2.471   6.117   5.507
 9584TIP3   OH228694   7.890   7.028   0.703
 9584TIP3    H128695   7.935   6.960   0.753
 9584TIP3    H228696   7.890   7.104   0.760
 9585TIP3   OH228697   6.260   3.709   2.694
 9585TIP3    H128698   6.330   3.651   2.723
 9585TIP3    H228699   6.199   3.712   2.767
 9586TIP3   OH228700   2.744   2.812   3.471
 9586TIP3    H128701   2.785   2.874   3.410
 9586TIP3    H228702   2.704   2.867   3.538
 9587TIP3   OH228703   0.250   5.724   6.283
 9587TIP3    H128704   0.309   5.714   6.357
 9587TIP3    H228705   0.172   5.765   6.321
 9588TIP3   OH228706   6.988   2.526   5.122
 9588TIP3    H128707   6.944   2.497   5.202
 9588TIP3    H228708   7.031   2.447   5.089
 9589TIP3   OH228709   1.984   0.888   1.216
 9589TIP3    H128710   2.000   0.911   1.307
 9589TIP3    H228711   1.984   0.792   1.214
 9590TIP3   OH228712   7.729   1.965   1.902
 9590TIP3    H128713   7.666   1.908   1.947
 9590TIP3    H228714   7.680   2.004   1.830
 9591TIP3   OH228715   6.585   4.224   3.349
 9591TIP3    H128716   6.562   4.214   3.256
 9591TIP3    H228717   6.504   4.204   3.396
 9592TIP3   OH228718   4.277   2.058   2.170
 9592TIP3    H128719   4.231   2.129   2.216
 9592TIP3    H228720   4.342   2.103   2.117
 9593TIP3   OH228721   3.798   0.851   3.418
 9593TIP3    H128722   3.782   0.889   3.504
 9593TIP3    H228723   3.893   0.858   3.406
 9594TIP3   OH228724   1.512   1.935   2.670
 9594TIP3    H128725   1.545   1.861   2.619
 9594TIP3    H228726   1.424   1.951   2.636
 9595TIP3   OH228727   1.524   4.766   5.848
 9595TIP3    H128728   1.474   4.787   5.927
 9595TIP3    H228729   1.615   4.768   5.877
 9596TIP3   OH228730   8.083   2.409   1.405
 9596TIP3    H128731   8.140   2.472   1.360
 9596TIP3    H228732   8.040   2.461   1.474
 9597TIP3   OH228733   6.046   5.185   1.353
 9597TIP3    H128734   6.073   5.186   1.262
 9597TIP3    H228735   6.123   5.214   1.402
 9598TIP3   OH228736   6.759   0.921   5.837
 9598TIP3    H128737   6.751   0.827   5.851
 9598TIP3    H228738   6.781   0.956   5.923
 9599TIP3   OH228739   1.351   7.255   2.411
 9599TIP3    H128740   1.443   7.228   2.409
 9599TIP3    H228741   1.346   7.327   2.348
 9600TIP3   OH228742   3.921   3.339   6.722
 9600TIP3    H128743   3.905   3.273   6.655
 9600TIP3    H228744   3.999   3.386   6.692
 9601TIP3   OH228745   4.787   6.448   2.516
 9601TIP3    H128746   4.692   6.441   2.519
 9601TIP3    H228747   4.814   6.390   2.445
 9602TIP3   OH228748   0.130   5.965   5.773
 9602TIP3    H128749   0.116   5.873   5.747
 9602TIP3    H228750   0.121   5.965   5.868
 9603TIP3   OH228751   5.440   1.092   0.534
 9603TIP3    H128752   5.479   1.174   0.563
 9603TIP3    H228753   5.406   1.052   0.614
 9604TIP3   OH228754   7.643   0.153   4.596
 9604TIP3    H128755   7.599   0.113   4.671
 9604TIP3    H228756   7.629   0.091   4.525
 9605TIP3   OH228757   1.898   2.771   3.274
 9605TIP3    H128758   1.966   2.707   3.252
 9605TIP3    H228759   1.880   2.756   3.367
 9606TIP3   OH228760   2.341   2.643   4.931
 9606TIP3    H128761   2.404   2.700   4.975
 9606TIP3    H228762   2.392   2.567   4.904
 9607TIP3   OH228763   7.773   4.022   4.381
 9607TIP3    H128764   7.688   4.022   4.425
 9607TIP3    H228765   7.811   3.937   4.402
 9608TIP3   OH228766   6.864   5.470   3.587
 9608TIP3    H128767   6.925   5.411   3.632
 9608TIP3    H228768   6.789   5.476   3.646
 9609TIP3   OH228769   7.381   4.458   6.646
 9609TIP3    H128770   7.339   4.416   6.721
 9609TIP3    H228771   7.309   4.501   6.599
 9610TIP3   OH228772   2.998   6.641   3.747
 9610TIP3    H128773   2.932   6.661   3.680
 9610TIP3    H228774   3.077   6.686   3.715
 9611TIP3   OH228775   1.924   3.816   2.212
 9611TIP3    H128776   1.967   3.889   2.256
 9611TIP3    H228777   1.845   3.801   2.263
 9612TIP3   OH228778   8.128   6.837   0.873
 9612TIP3    H128779   8.203   6.896   0.872
 9612TIP3    H228780   8.166   6.750   0.861
 9613TIP3   OH228781   3.452   4.458   5.163
 9613TIP3    H128782   3.462   4.525   5.231
 9613TIP3    H228783   3.455   4.375   5.211
 9614TIP3   OH228784   7.760   4.701   4.299
 9614TIP3    H128785   7.845   4.735   4.274
 9614TIP3    H228786   7.748   4.729   4.389
 9615TIP3   OH228787   0.475   6.643   0.287
 9615TIP3    H128788   0.500   6.734   0.271
 9615TIP3    H228789   0.486   6.600   0.202
 9616TIP3   OH228790   4.565   1.091   2.488
 9616TIP3    H128791   4.563   1.185   2.505
 9616TIP3    H228792   4.616   1.082   2.407
 9617TIP3   OH228793   7.630   3.564   3.421
 9617TIP3    H128794   7.600   3.646   3.460
 9617TIP3    H228795   7.725   3.566   3.432
 9618TIP3   OH228796   8.102   5.387   1.651
 9618TIP3    H128797   8.161   5.413   1.580
 9618TIP3    H228798   8.147   5.414   1.731
 9619TIP3   OH228799   2.574   2.194   2.991
 9619TIP3    H128800   2.520   2.142   3.052
 9619TIP3    H228801   2.556   2.285   3.014
 9620TIP3   OH228802   6.155   4.815   1.279
 9620TIP3    H128803   6.070   4.772   1.277
 9620TIP3    H228804   6.161   4.861   1.195
 9621TIP3   OH228805   5.604   3.691   6.638
 9621TIP3    H128806   5.636   3.780   6.647
 9621TIP3    H228807   5.630   3.665   6.549
 9622TIP3   OH228808   8.284   3.049   3.188
 9622TIP3    H128809   8.345   3.100   3.242
 9622TIP3    H228810   8.199   3.060   3.231
 9623TIP3   OH228811   6.845   1.747   1.326
 9623TIP3    H128812   6.849   1.818   1.391
 9623TIP3    H228813   6.766   1.764   1.276
 9624TIP3   OH228814   2.004   5.516   3.505
 9624TIP3    H128815   1.970   5.561   3.582
 9624TIP3    H228816   1.993   5.578   3.433
 9625TIP3   OH228817   3.943   3.113   5.291
 9625TIP3    H128818   4.011   3.065   5.339
 9625TIP3    H228819   3.883   3.145   5.358
 9626TIP3   OH228820   7.455   3.278   3.050
 9626TIP3    H128821   7.453   3.188   3.084
 9626TIP3    H228822   7.447   3.333   3.128
 9627TIP3   OH228823   3.625   7.677   2.952
 9627TIP3    H128824   3.597   7.635   2.871
 9627TIP3    H228825   3.600   7.615   3.021
 9628TIP3   OH228826   1.890   1.837   3.184
 9628TIP3    H128827   1.950   1.823   3.111
 9628TIP3    H228828   1.866   1.929   3.179
 9629TIP3   OH228829   1.304   2.460   1.108
 9629TIP3    H128830   1.315   2.483   1.016
 9629TIP3    H228831   1.382   2.494   1.151
 9630TIP3   OH228832   5.883   4.489   3.905
 9630TIP3    H128833   5.949   4.558   3.908
 9630TIP3    H228834   5.928   4.415   3.865
 9631TIP3   OH228835   3.947   6.900   1.508
 9631TIP3    H128836   4.030   6.868   1.473
 9631TIP3    H228837   3.894   6.919   1.431
 9632TIP3   OH228838   1.380   1.377   4.482
 9632TIP3    H128839   1.433   1.297   4.484
 9632TIP3    H228840   1.298   1.350   4.441
 9633TIP3   OH228841   4.550   0.538   0.598
 9633TIP3    H128842   4.632   0.529   0.549
 9633TIP3    H228843   4.503   0.456   0.581
 9634TIP3   OH228844   3.875   2.773   4.702
 9634TIP3    H128845   3.864   2.791   4.795
 9634TIP3    H228846   3.812   2.832   4.659
 9635TIP3   OH228847   6.017   6.876   2.399
 9635TIP3    H128848   5.965   6.852   2.476
 9635TIP3    H228849   6.017   6.971   2.398
 9636TIP3   OH228850   1.352   4.767   2.048
 9636TIP3    H128851   1.364   4.753   2.142
 9636TIP3    H228852   1.271   4.817   2.041
 9637TIP3   OH228853   5.518   4.135   5.129
 9637TIP3    H128854   5.518   4.075   5.054
 9637TIP3    H228855   5.467   4.210   5.100
 9638TIP3   OH228856   5.008   5.137   0.334
 9638TIP3    H128857   5.083   5.194   0.350
 9638TIP3    H228858   4.985   5.104   0.421
 9639TIP3   OH228859   8.023   1.899   4.789
 9639TIP3    H128860   8.100   1.921   4.840
 9639TIP3    H228861   7.958   1.871   4.854
 9640TIP3   OH228862   3.592   2.877   4.946
 9640TIP3    H128863   3.680   2.886   4.983
 9640TIP3    H228864   3.576   2.960   4.902
 9641TIP3   OH228865   1.726   1.074   0.098
 9641TIP3    H128866   1.804   1.100   0.049
 9641TIP3    H228867   1.732   1.120   0.181
 9642TIP3   OH228868   6.270   6.231   1.760
 9642TIP3    H128869   6.358   6.231   1.800
 9642TIP3    H228870   6.211   6.250   1.833
 9643TIP3   OH228871   3.889   5.782   0.717
 9643TIP3    H128872   3.801   5.771   0.681
 9643TIP3    H228873   3.881   5.856   0.778
 9644TIP3   OH228874   7.358   4.409   4.688
 9644TIP3    H128875   7.375   4.341   4.623
 9644TIP3    H228876   7.401   4.487   4.653
 9645TIP3   OH228877   1.198   3.339   3.601
 9645TIP3    H128878   1.168   3.398   3.532
 9645TIP3    H228879   1.212   3.396   3.677
 9646TIP3   OH228880   6.184   5.792   2.403
 9646TIP3    H128881   6.156   5.704   2.428
 9646TIP3    H228882   6.185   5.841   2.485
 9647TIP3   OH228883   3.622   1.630   4.395
 9647TIP3    H128884   3.714   1.641   4.421
 9647TIP3    H228885   3.626   1.585   4.311
 9648TIP3   OH228886   1.145   2.751   6.723
 9648TIP3    H128887   1.109   2.787   6.642
 9648TIP3    H228888   1.239   2.772   6.719
 9649TIP3   OH228889   7.139   4.267   3.605
 9649TIP3    H128890   7.210   4.241   3.665
 9649TIP3    H228891   7.089   4.331   3.654
 9650TIP3   OH228892   2.398   3.527   5.861
 9650TIP3    H128893   2.431   3.472   5.791
 9650TIP3    H228894   2.369   3.465   5.928
 9651TIP3   OH228895   4.140   6.984   1.798
 9651TIP3    H128896   4.158   6.892   1.776
 9651TIP3    H228897   4.049   6.997   1.773
 9652TIP3   OH228898   1.995   5.611   1.477
 9652TIP3    H128899   1.960   5.610   1.567
 9652TIP3    H228900   1.924   5.576   1.424
 9653TIP3   OH228901   3.549   6.875   4.664
 9653TIP3    H128902   3.473   6.845   4.613
 9653TIP3    H228903   3.512   6.900   4.749
 9654TIP3   OH228904   4.733   2.696   2.367
 9654TIP3    H128905   4.821   2.675   2.399
 9654TIP3    H228906   4.674   2.652   2.429
 9655TIP3   OH228907   5.794   6.512   1.925
 9655TIP3    H128908   5.804   6.419   1.946
 9655TIP3    H228909   5.881   6.539   1.896
 9656TIP3   OH228910   6.840   7.295   6.662
 9656TIP3    H128911   6.893   7.360   6.709
 9656TIP3    H228912   6.885   7.284   6.578
 9657TIP3   OH228913   4.554   2.449   1.385
 9657TIP3    H128914   4.515   2.506   1.451
 9657TIP3    H228915   4.494   2.374   1.380
 9658TIP3   OH228916   0.250   0.424   1.048
 9658TIP3    H128917   0.312   0.357   1.078
 9658TIP3    H228918   0.225   0.471   1.127
 9659TIP3   OH228919   5.536   0.215   5.894
 9659TIP3    H128920   5.596   0.287   5.874
 9659TIP3    H228921   5.548   0.200   5.988
 9660TIP3   OH228922   5.934   2.580   0.895
 9660TIP3    H128923   5.978   2.518   0.837
 9660TIP3    H228924   6.001   2.604   0.959
 9661TIP3   OH228925   8.159   0.273   0.922
 9661TIP3    H128926   8.120   0.223   0.850
 9661TIP3    H228927   8.240   0.308   0.886
 9662TIP3   OH228928   2.145   4.934   5.013
 9662TIP3    H128929   2.165   4.893   4.928
 9662TIP3    H228930   2.230   4.947   5.054
 9663TIP3   OH228931   3.489   6.174   5.063
 9663TIP3    H128932   3.434   6.108   5.021
 9663TIP3    H228933   3.436   6.208   5.134
 9664TIP3   OH228934   1.241   1.898   6.433
 9664TIP3    H128935   1.182   1.865   6.365
 9664TIP3    H228936   1.203   1.867   6.515
 9665TIP3   OH228937   7.217   3.035   2.780
 9665TIP3    H128938   7.224   3.130   2.781
 9665TIP3    H228939   7.131   3.017   2.819
 9666TIP3   OH228940   7.114   4.381   3.872
 9666TIP3    H128941   7.155   4.466   3.855
 9666TIP3    H228942   7.187   4.322   3.888
 9667TIP3   OH228943   6.117   1.191   2.245
 9667TIP3    H128944   6.167   1.219   2.168
 9667TIP3    H228945   6.068   1.268   2.272
 9668TIP3   OH228946   6.326   3.100   3.088
 9668TIP3    H128947   6.319   3.018   3.137
 9668TIP3    H228948   6.236   3.127   3.073
 9669TIP3   OH228949   3.517   2.595   1.615
 9669TIP3    H128950   3.579   2.542   1.664
 9669TIP3    H228951   3.466   2.640   1.682
 9670TIP3   OH228952   3.543   2.239   2.525
 9670TIP3    H128953   3.573   2.327   2.546
 9670TIP3    H228954   3.584   2.183   2.591
 9671TIP3   OH228955   4.999   0.565   4.822
 9671TIP3    H128956   4.988   0.570   4.917
 9671TIP3    H228957   5.069   0.628   4.803
 9672TIP3   OH228958   5.607   4.761   5.414
 9672TIP3    H128959   5.526   4.713   5.432
 9672TIP3    H228960   5.611   4.827   5.483
 9673TIP3   OH228961   3.636   0.983   4.090
 9673TIP3    H128962   3.627   1.059   4.146
 9673TIP3    H228963   3.613   1.014   4.002
 9674TIP3   OH228964   3.143   6.107   3.647
 9674TIP3    H128965   3.197   6.049   3.700
 9674TIP3    H228966   3.104   6.168   3.710
 9675TIP3   OH228967   0.501   1.063   3.694
 9675TIP3    H128968   0.543   1.032   3.774
 9675TIP3    H228969   0.556   1.136   3.665
 9676TIP3   OH228970   6.554   4.832   4.548
 9676TIP3    H128971   6.565   4.916   4.503
 9676TIP3    H228972   6.642   4.796   4.554
 9677TIP3   OH228973   1.845   1.753   5.045
 9677TIP3    H128974   1.880   1.672   5.081
 9677TIP3    H228975   1.802   1.795   5.119
 9678TIP3   OH228976   1.512   4.802   1.444
 9678TIP3    H128977   1.567   4.842   1.377
 9678TIP3    H228978   1.425   4.840   1.429
 9679TIP3   OH228979   4.525   5.884   3.699
 9679TIP3    H128980   4.518   5.928   3.614
 9679TIP3    H228981   4.523   5.791   3.678
 9680TIP3   OH228982   5.455   7.552   1.245
 9680TIP3    H128983   5.455   7.475   1.302
 9680TIP3    H228984   5.470   7.625   1.305
 9681TIP3   OH228985   1.683   1.757   5.916
 9681TIP3    H128986   1.742   1.777   5.989
 9681TIP3    H228987   1.629   1.684   5.948
 9682TIP3   OH228988   5.194   5.551   2.887
 9682TIP3    H128989   5.212   5.556   2.793
 9682TIP3    H228990   5.177   5.459   2.903
 9683TIP3   OH228991   8.147   5.855   2.027
 9683TIP3    H128992   8.097   5.901   2.094
 9683TIP3    H228993   8.238   5.864   2.054
 9684TIP3   OH228994   7.495   7.482   1.386
 9684TIP3    H128995   7.404   7.509   1.376
 9684TIP3    H228996   7.519   7.444   1.302
 9685TIP3   OH228997   3.187   7.329   6.101
 9685TIP3    H128998   3.241   7.346   6.024
 9685TIP3    H228999   3.129   7.258   6.075
 9686TIP3   OH229000   4.883   3.527   6.268
 9686TIP3    H129001   4.881   3.608   6.218
 9686TIP3    H229002   4.845   3.461   6.209
 9687TIP3   OH229003   2.832   6.307   2.661
 9687TIP3    H129004   2.745   6.313   2.702
 9687TIP3    H229005   2.823   6.237   2.597
 9688TIP3   OH229006   4.734   7.160   3.435
 9688TIP3    H129007   4.675   7.235   3.424
 9688TIP3    H229008   4.699   7.093   3.376
 9689TIP3   OH229009   3.263   7.505   2.228
 9689TIP3    H129010   3.209   7.426   2.220
 9689TIP3    H229011   3.203   7.577   2.206
 9690TIP3   OH229012   5.315   6.548   5.047
 9690TIP3    H129013   5.313   6.524   5.139
 9690TIP3    H229014   5.283   6.471   5.001
 9691TIP3   OH229015   5.163   0.640   0.930
 9691TIP3    H129016   5.134   0.587   0.857
 9691TIP3    H229017   5.201   0.578   0.992
 9692TIP3   OH229018   8.187   5.989   5.459
 9692TIP3    H129019   8.269   5.976   5.412
 9692TIP3    H229020   8.193   6.077   5.494
 9693TIP3   OH229021   3.094   6.272   5.811
 9693TIP3    H129022   3.002   6.289   5.791
 9693TIP3    H229023   3.092   6.224   5.894
 9694TIP3   OH229024   0.810   3.965   1.595
 9694TIP3    H129025   0.863   3.936   1.670
 9694TIP3    H229026   0.807   4.061   1.604
 9695TIP3   OH229027   3.889   1.747   0.924
 9695TIP3    H129028   3.889   1.803   1.001
 9695TIP3    H229029   3.796   1.731   0.906
 9696TIP3   OH229030   1.766   1.483   3.592
 9696TIP3    H129031   1.691   1.429   3.568
 9696TIP3    H229032   1.826   1.423   3.637
 9697TIP3   OH229033   4.099   2.506   5.287
 9697TIP3    H129034   4.156   2.478   5.359
 9697TIP3    H229035   4.113   2.440   5.219
 9698TIP3   OH229036   0.425   6.186   3.165
 9698TIP3    H129037   0.347   6.231   3.133
 9698TIP3    H229038   0.458   6.242   3.235
 9699TIP3   OH229039   7.604   3.728   5.313
 9699TIP3    H129040   7.573   3.761   5.229
 9699TIP3    H229041   7.525   3.717   5.365
 9700TIP3   OH229042   1.988   1.806   4.815
 9700TIP3    H129043   1.933   1.775   4.888
 9700TIP3    H229044   2.076   1.808   4.851
 9701TIP3   OH229045   5.352   2.129   6.557
 9701TIP3    H129046   5.367   2.185   6.480
 9701TIP3    H229047   5.271   2.082   6.537
 9702TIP3   OH229048   6.867   2.090   6.655
 9702TIP3    H129049   6.941   2.128   6.702
 9702TIP3    H229050   6.793   2.149   6.673
 9703TIP3   OH229051   1.403   3.062   4.113
 9703TIP3    H129052   1.443   2.982   4.078
 9703TIP3    H229053   1.467   3.095   4.176
 9704TIP3   OH229054   0.015   1.409   3.273
 9704TIP3    H129055  -0.037   1.328   3.274
 9704TIP3    H229056   0.062   1.406   3.190
 9705TIP3   OH229057   4.409   5.642   0.202
 9705TIP3    H129058   4.323   5.682   0.216
 9705TIP3    H229059   4.467   5.688   0.263
 9706TIP3   OH229060   4.859   5.146   1.322
 9706TIP3    H129061   4.924   5.079   1.343
 9706TIP3    H229062   4.840   5.190   1.405
 9707TIP3   OH229063   1.928   1.701   6.277
 9707TIP3    H129064   1.932   1.764   6.205
 9707TIP3    H229065   2.004   1.721   6.331
 9708TIP3   OH229066   7.772   3.570   6.072
 9708TIP3    H129067   7.784   3.665   6.082
 9708TIP3    H229068   7.858   3.533   6.095
 9709TIP3   OH229069   6.266   5.192   1.543
 9709TIP3    H129070   6.259   5.120   1.606
 9709TIP3    H229071   6.354   5.183   1.506
 9710TIP3   OH229072   4.484   7.784   4.371
 9710TIP3    H129073   4.410   7.832   4.408
 9710TIP3    H229074   4.532   7.751   4.446
 9711TIP3   OH229075   4.795   0.770   2.061
 9711TIP3    H129076   4.863   0.732   2.005
 9711TIP3    H229077   4.721   0.786   2.002
 9712TIP3   OH229078   5.268   1.749   2.480
 9712TIP3    H129079   5.182   1.711   2.460
 9712TIP3    H229080   5.251   1.843   2.490
 9713TIP3   OH229081   5.144   5.602   6.134
 9713TIP3    H129082   5.190   5.644   6.206
 9713TIP3    H229083   5.204   5.607   6.060
 9714TIP3   OH229084   3.822   1.874   5.757
 9714TIP3    H129085   3.853   1.962   5.733
 9714TIP3    H229086   3.836   1.821   5.678
 9715TIP3   OH229087   2.871   6.567   2.577
 9715TIP3    H129088   2.893   6.475   2.593
 9715TIP3    H229089   2.833   6.597   2.659
 9716TIP3   OH229090   7.953   5.326   1.287
 9716TIP3    H129091   8.039   5.310   1.326
 9716TIP3    H229092   7.955   5.277   1.205
 9717TIP3   OH229093   5.145   3.509   6.407
 9717TIP3    H129094   5.060   3.506   6.362
 9717TIP3    H229095   5.190   3.430   6.377
 9718TIP3   OH229096   1.867   0.011   4.968
 9718TIP3    H129097   1.935   0.070   4.938
 9718TIP3    H229098   1.907  -0.076   4.962
 9719TIP3   OH229099   3.994   6.460   3.583
 9719TIP3    H129100   3.924   6.521   3.604
 9719TIP3    H229101   4.074   6.511   3.591
 9720TIP3   OH229102   1.770   0.991   2.163
 9720TIP3    H129103   1.829   0.974   2.090
 9720TIP3    H229104   1.777   1.086   2.178
 9721TIP3   OH229105   3.778   3.327   5.013
 9721TIP3    H129106   3.735   3.413   5.019
 9721TIP3    H229107   3.842   3.338   4.943
 9722TIP3   OH229108   3.877   1.235   3.463
 9722TIP3    H129109   3.936   1.293   3.512
 9722TIP3    H229110   3.912   1.235   3.374
 9723TIP3   OH229111   6.217   6.277   1.476
 9723TIP3    H129112   6.267   6.297   1.555
 9723TIP3    H229113   6.265   6.321   1.406
 9724TIP3   OH229114   0.740   4.391   5.732
 9724TIP3    H129115   0.772   4.301   5.746
 9724TIP3    H229116   0.799   4.427   5.666
 9725TIP3   OH229117   4.756   7.247   4.784
 9725TIP3    H129118   4.847   7.236   4.813
 9725TIP3    H229119   4.704   7.215   4.858
 9726TIP3   OH229120   3.978   1.654   2.255
 9726TIP3    H129121   3.911   1.644   2.188
 9726TIP3    H229122   3.929   1.654   2.337
 9727TIP3   OH229123   0.389   2.048  -0.015
 9727TIP3    H129124   0.414   2.055   0.076
 9727TIP3    H229125   0.399   1.955  -0.036
 9728TIP3   OH229126   1.462   2.825   2.403
 9728TIP3    H129127   1.420   2.911   2.402
 9728TIP3    H229128   1.555   2.844   2.393
 9729TIP3   OH229129   4.673   6.016   0.633
 9729TIP3    H129130   4.648   6.021   0.540
 9729TIP3    H229131   4.760   6.057   0.636
 9730TIP3   OH229132   1.112   7.519   6.113
 9730TIP3    H129133   1.103   7.609   6.081
 9730TIP3    H229134   1.206   7.503   6.113
 9731TIP3   OH229135   1.944   4.029   1.385
 9731TIP3    H129136   1.941   4.013   1.291
 9731TIP3    H229137   1.861   4.072   1.405
 9732TIP3   OH229138   1.708   5.503   3.792
 9732TIP3    H129139   1.745   5.414   3.791
 9732TIP3    H229140   1.782   5.559   3.769
 9733TIP3   OH229141   1.867   4.456   5.921
 9733TIP3    H129142   1.819   4.439   6.001
 9733TIP3    H229143   1.844   4.546   5.897
 9734TIP3   OH229144   5.971   4.125   4.276
 9734TIP3    H129145   6.039   4.133   4.343
 9734TIP3    H229146   5.889   4.115   4.326
 9735TIP3   OH229147   0.441   3.871   6.067
 9735TIP3    H129148   0.351   3.842   6.082
 9735TIP3    H229149   0.445   3.958   6.105
 9736TIP3   OH229150   2.224   1.819   0.772
 9736TIP3    H129151   2.218   1.851   0.862
 9736TIP3    H229152   2.253   1.895   0.722
 9737TIP3   OH229153   0.590   4.418   5.969
 9737TIP3    H129154   0.615   4.340   6.019
 9737TIP3    H229155   0.647   4.416   5.892
 9738TIP3   OH229156   2.099   5.542   5.301
 9738TIP3    H129157   2.139   5.478   5.243
 9738TIP3    H229158   2.057   5.490   5.369
 9739TIP3   OH229159   3.163   2.352   2.745
 9739TIP3    H129160   3.154   2.417   2.675
 9739TIP3    H229161   3.223   2.392   2.808
 9740TIP3   OH229162   1.829   0.505   0.100
 9740TIP3    H129163   1.790   0.556   0.029
 9740TIP3    H229164   1.915   0.479   0.067
 9741TIP3   OH229165   2.411   1.484   0.169
 9741TIP3    H129166   2.490   1.466   0.220
 9741TIP3    H229167   2.341   1.486   0.234
 9742TIP3   OH229168   6.029   2.925   2.487
 9742TIP3    H129169   6.059   3.014   2.465
 9742TIP3    H229170   6.039   2.920   2.582
 9743TIP3   OH229171   2.516   4.079   2.114
 9743TIP3    H129172   2.592   4.136   2.129
 9743TIP3    H229173   2.514   4.066   2.019
 9744TIP3   OH229174   3.216   5.096   2.405
 9744TIP3    H129175   3.304   5.072   2.377
 9744TIP3    H229176   3.170   5.013   2.414
 9745TIP3   OH229177   7.163   6.526   3.336
 9745TIP3    H129178   7.093   6.559   3.280
 9745TIP3    H229179   7.234   6.590   3.326
 9746TIP3   OH229180   7.606   3.880   0.207
 9746TIP3    H129181   7.659   3.930   0.144
 9746TIP3    H229182   7.668   3.857   0.277
 9747TIP3   OH229183   4.156   6.278   4.259
 9747TIP3    H129184   4.142   6.365   4.298
 9747TIP3    H229185   4.150   6.293   4.165
 9748TIP3   OH229186   1.496   4.497   3.515
 9748TIP3    H129187   1.499   4.410   3.477
 9748TIP3    H229188   1.406   4.526   3.503
 9749TIP3   OH229189   1.605   5.077   5.394
 9749TIP3    H129190   1.524   5.069   5.342
 9749TIP3    H229191   1.662   5.132   5.341
 9750TIP3   OH229192   8.003   0.627   0.938
 9750TIP3    H129193   8.059   0.629   0.860
 9750TIP3    H229194   7.914   0.616   0.904
 9751TIP3   OH229195   2.947   1.347   4.596
 9751TIP3    H129196   3.042   1.342   4.600
 9751TIP3    H229197   2.929   1.412   4.528
 9752TIP3   OH229198   3.338   0.449   1.098
 9752TIP3    H129199   3.297   0.363   1.104
 9752TIP3    H229200   3.422   0.433   1.056
 9753TIP3   OH229201   7.031   4.812   4.323
 9753TIP3    H129202   7.055   4.794   4.232
 9753TIP3    H229203   7.056   4.732   4.370
 9754TIP3   OH229204   6.491   3.459   4.148
 9754TIP3    H129205   6.398   3.464   4.173
 9754TIP3    H229206   6.537   3.503   4.219
 9755TIP3   OH229207   8.135   0.615   2.339
 9755TIP3    H129208   8.079   0.665   2.398
 9755TIP3    H229209   8.205   0.581   2.395
 9756TIP3   OH229210   7.526   4.348   5.924
 9756TIP3    H129211   7.479   4.431   5.924
 9756TIP3    H229212   7.590   4.357   5.995
 9757TIP3   OH229213   5.034   1.134   2.708
 9757TIP3    H129214   5.037   1.041   2.686
 9757TIP3    H229215   5.121   1.167   2.683
 9758TIP3   OH229216   0.136   6.539   3.746
 9758TIP3    H129217   0.058   6.571   3.791
 9758TIP3    H229218   0.104   6.472   3.687
 9759TIP3   OH229219   0.540   3.548   0.146
 9759TIP3    H129220   0.564   3.599   0.069
 9759TIP3    H229221   0.465   3.495   0.117
 9760TIP3   OH229222   6.125   1.934   1.586
 9760TIP3    H129223   6.218   1.913   1.591
 9760TIP3    H229224   6.084   1.853   1.555
 9761TIP3   OH229225   3.591   6.820   1.037
 9761TIP3    H129226   3.628   6.769   0.965
 9761TIP3    H229227   3.497   6.802   1.034
 9762TIP3   OH229228   5.006   3.512   1.483
 9762TIP3    H129229   5.002   3.528   1.389
 9762TIP3    H229230   4.932   3.455   1.501
 9763TIP3   OH229231   1.301   3.151   2.100
 9763TIP3    H129232   1.349   3.208   2.161
 9763TIP3    H229233   1.209   3.159   2.128
 9764TIP3   OH229234   7.789   1.037   6.465
 9764TIP3    H129235   7.775   1.088   6.545
 9764TIP3    H229236   7.761   0.948   6.487
 9765TIP3   OH229237   2.415   6.593   2.365
 9765TIP3    H129238   2.468   6.588   2.444
 9765TIP3    H229239   2.431   6.511   2.319
 9766TIP3   OH229240   1.846   3.056   5.514
 9766TIP3    H129241   1.820   2.969   5.485
 9766TIP3    H229242   1.941   3.054   5.514
 9767TIP3   OH229243   1.383   6.530   0.780
 9767TIP3    H129244   1.338   6.459   0.827
 9767TIP3    H229245   1.406   6.491   0.696
 9768TIP3   OH229246   5.861   6.407   6.538
 9768TIP3    H129247   5.845   6.331   6.482
 9768TIP3    H229248   5.854   6.482   6.479
 9769TIP3   OH229249   5.410   7.503   1.650
 9769TIP3    H129250   5.481   7.442   1.673
 9769TIP3    H229251   5.341   7.447   1.615
 9770TIP3   OH229252   3.750   2.542   0.263
 9770TIP3    H129253   3.812   2.614   0.252
 9770TIP3    H229254   3.779   2.476   0.201
 9771TIP3   OH229255   5.205   1.840   4.181
 9771TIP3    H129256   5.266   1.767   4.192
 9771TIP3    H229257   5.182   1.867   4.270
 9772TIP3   OH229258   1.499   2.423   1.347
 9772TIP3    H129259   1.405   2.406   1.354
 9772TIP3    H229260   1.507   2.493   1.282
 9773TIP3   OH229261   1.801   6.251   2.802
 9773TIP3    H129262   1.856   6.251   2.723
 9773TIP3    H229263   1.862   6.238   2.874
 9774TIP3   OH229264   6.247   1.480   3.978
 9774TIP3    H129265   6.212   1.495   4.065
 9774TIP3    H229266   6.182   1.423   3.936
 9775TIP3   OH229267   5.131   3.449   0.030
 9775TIP3    H129268   5.177   3.453   0.114
 9775TIP3    H229269   5.054   3.396   0.048
 9776TIP3   OH229270   3.087   6.285   0.829
 9776TIP3    H129271   3.153   6.270   0.897
 9776TIP3    H229272   3.092   6.379   0.812
 9777TIP3   OH229273   8.210   1.264   6.716
 9777TIP3    H129274   8.286   1.206   6.717
 9777TIP3    H229275   8.210   1.302   6.628
 9778TIP3   OH229276   4.923   1.083   0.611
 9778TIP3    H129277   4.952   0.994   0.631
 9778TIP3    H229278   4.866   1.073   0.535
 9779TIP3   OH229279   5.495   6.380   6.600
 9779TIP3    H129280   5.519   6.471   6.612
 9779TIP3    H229281   5.415   6.383   6.547
 9780TIP3   OH229282   5.772   6.334   1.154
 9780TIP3    H129283   5.778   6.361   1.246
 9780TIP3    H229284   5.840   6.385   1.110
 9781TIP3   OH229285   1.551   4.313   3.877
 9781TIP3    H129286   1.483   4.315   3.811
 9781TIP3    H229287   1.555   4.222   3.906
 9782TIP3   OH229288   7.902   6.065   4.686
 9782TIP3    H129289   7.821   6.035   4.727
 9782TIP3    H229290   7.969   6.004   4.717
 9783TIP3   OH229291   0.343   1.791   2.662
 9783TIP3    H129292   0.435   1.793   2.636
 9783TIP3    H229293   0.309   1.710   2.623
 9784TIP3   OH229294   2.165   7.654   4.107
 9784TIP3    H129295   2.197   7.674   4.195
 9784TIP3    H229296   2.222   7.705   4.049
 9785TIP3   OH229297   2.675   7.338   1.666
 9785TIP3    H129298   2.705   7.414   1.716
 9785TIP3    H229299   2.736   7.268   1.689
 9786TIP3   OH229300   6.012   2.396   0.719
 9786TIP3    H129301   5.996   2.363   0.631
 9786TIP3    H229302   5.987   2.324   0.777
 9787TIP3   OH229303   3.500   0.911   2.754
 9787TIP3    H129304   3.498   0.931   2.661
 9787TIP3    H229305   3.586   0.942   2.784
 9788TIP3   OH229306   4.160   5.788   0.263
 9788TIP3    H129307   4.077   5.813   0.222
 9788TIP3    H229308   4.146   5.800   0.356
 9789TIP3   OH229309   7.242   6.344   2.431
 9789TIP3    H129310   7.326   6.298   2.437
 9789TIP3    H229311   7.265   6.432   2.402
 9790TIP3   OH229312   5.836   2.680   3.059
 9790TIP3    H129313   5.774   2.740   3.018
 9790TIP3    H229314   5.785   2.601   3.079
 9791TIP3   OH229315   3.073   5.036   3.140
 9791TIP3    H129316   2.998   5.019   3.197
 9791TIP3    H229317   3.101   4.949   3.110
 9792TIP3   OH229318   6.403   1.060   1.267
 9792TIP3    H129319   6.399   1.030   1.177
 9792TIP3    H229320   6.464   1.134   1.266
 9793TIP3   OH229321   4.379   3.495   1.206
 9793TIP3    H129322   4.298   3.527   1.245
 9793TIP3    H229323   4.373   3.518   1.114
 9794TIP3   OH229324   3.717   1.883   4.627
 9794TIP3    H129325   3.749   1.973   4.635
 9794TIP3    H229326   3.788   1.828   4.660
 9795TIP3   OH229327   4.614   4.997   3.209
 9795TIP3    H129328   4.637   4.932   3.276
 9795TIP3    H229329   4.645   5.080   3.245
 9796TIP3   OH229330   3.473   3.788   2.807
 9796TIP3    H129331   3.420   3.865   2.786
 9796TIP3    H229332   3.478   3.740   2.725
 9797TIP3   OH229333   3.738   4.440   3.349
 9797TIP3    H129334   3.716   4.365   3.294
 9797TIP3    H229335   3.788   4.499   3.292
 9798TIP3   OH229336   1.530   0.055   5.799
 9798TIP3    H129337   1.532  -0.039   5.814
 9798TIP3    H229338   1.470   0.089   5.865
 9799TIP3   OH229339   1.454   0.201   2.474
 9799TIP3    H129340   1.503   0.133   2.428
 9799TIP3    H229341   1.497   0.206   2.560
 9800TIP3   OH229342   6.125   4.184   1.510
 9800TIP3    H129343   6.118   4.203   1.603
 9800TIP3    H229344   6.210   4.143   1.499
 9801TIP3   OH229345   1.496   6.581   3.380
 9801TIP3    H129346   1.462   6.493   3.370
 9801TIP3    H229347   1.421   6.634   3.406
 9802TIP3   OH229348   4.830   2.455   5.296
 9802TIP3    H129349   4.835   2.440   5.391
 9802TIP3    H229350   4.921   2.468   5.269
 9803TIP3   OH229351   2.881   4.734   2.065
 9803TIP3    H129352   2.871   4.718   1.971
 9803TIP3    H229353   2.819   4.674   2.107
 9804TIP3   OH229354   4.879   7.627   0.065
 9804TIP3    H129355   4.880   7.538   0.029
 9804TIP3    H229356   4.842   7.681  -0.004
 9805TIP3   OH229357   1.716   5.512   6.233
 9805TIP3    H129358   1.713   5.575   6.161
 9805TIP3    H229359   1.628   5.473   6.235
 9806TIP3   OH229360   2.798   3.584   6.398
 9806TIP3    H129361   2.748   3.506   6.374
 9806TIP3    H229362   2.780   3.646   6.328
 9807TIP3   OH229363   5.338   2.110   5.893
 9807TIP3    H129364   5.313   2.093   5.802
 9807TIP3    H229365   5.367   2.201   5.893
 9808TIP3   OH229366   8.165   1.665   4.681
 9808TIP3    H129367   8.245   1.718   4.669
 9808TIP3    H229368   8.100   1.728   4.712
 9809TIP3   OH229369   3.113   1.462   0.491
 9809TIP3    H129370   3.075   1.477   0.404
 9809TIP3    H229371   3.202   1.432   0.474
 9810TIP3   OH229372   4.944   7.548   4.332
 9810TIP3    H129373   4.896   7.485   4.278
 9810TIP3    H229374   5.036   7.536   4.308
 9811TIP3   OH229375   2.347   2.277   4.747
 9811TIP3    H129376   2.438   2.284   4.719
 9811TIP3    H229377   2.307   2.359   4.717
 9812TIP3   OH229378   3.946   7.620   3.820
 9812TIP3    H129379   4.037   7.631   3.793
 9812TIP3    H229380   3.941   7.667   3.903
 9813TIP3   OH229381   2.997   6.119   3.242
 9813TIP3    H129382   3.077   6.126   3.190
 9813TIP3    H229383   2.956   6.205   3.234
 9814TIP3   OH229384   3.664   7.646   3.369
 9814TIP3    H129385   3.741   7.634   3.425
 9814TIP3    H229386   3.680   7.727   3.322
 9815TIP3   OH229387   1.573   0.044   4.312
 9815TIP3    H129388   1.645   0.008   4.260
 9815TIP3    H229389   1.533   0.111   4.256
 9816TIP3   OH229390   6.257   3.975   6.339
 9816TIP3    H129391   6.347   3.948   6.321
 9816TIP3    H229392   6.220   3.903   6.390
 9817TIP3   OH229393   0.737   6.355   2.998
 9817TIP3    H129394   0.722   6.418   2.927
 9817TIP3    H229395   0.670   6.288   2.985
 9818TIP3   OH229396   3.723   3.294   6.437
 9818TIP3    H129397   3.704   3.282   6.344
 9818TIP3    H229398   3.640   3.277   6.481
 9819TIP3   OH229399   6.692   5.667   1.497
 9819TIP3    H129400   6.749   5.661   1.420
 9819TIP3    H229401   6.604   5.681   1.461
 9820TIP3   OH229402   4.138   2.695   5.813
 9820TIP3    H129403   4.180   2.775   5.781
 9820TIP3    H229404   4.046   2.718   5.820
 9821TIP3   OH229405   6.419   0.578   5.851
 9821TIP3    H129406   6.326   0.597   5.855
 9821TIP3    H229407   6.425   0.483   5.861
 9822TIP3   OH229408   2.579   2.974   6.132
 9822TIP3    H129409   2.590   3.066   6.156
 9822TIP3    H229410   2.667   2.946   6.107
 9823TIP3   OH229411   7.201   3.802   1.691
 9823TIP3    H129412   7.220   3.838   1.605
 9823TIP3    H229413   7.143   3.727   1.674
 9824TIP3   OH229414   2.706   4.400   6.644
 9824TIP3    H129415   2.688   4.320   6.595
 9824TIP3    H229416   2.684   4.471   6.584
 9825TIP3   OH229417   0.718   0.117   4.225
 9825TIP3    H129418   0.709   0.029   4.186
 9825TIP3    H229419   0.642   0.125   4.283
 9826TIP3   OH229420   3.423   3.821   3.154
 9826TIP3    H129421   3.424   3.759   3.081
 9826TIP3    H229422   3.494   3.883   3.134
 9827TIP3   OH229423   0.695   5.718   5.754
 9827TIP3    H129424   0.773   5.691   5.802
 9827TIP3    H229425   0.704   5.812   5.743
 9828TIP3   OH229426   3.716   2.598   0.778
 9828TIP3    H129427   3.678   2.534   0.837
 9828TIP3    H229428   3.640   2.641   0.737
 9829TIP3   OH229429   0.403   5.814   0.806
 9829TIP3    H129430   0.386   5.841   0.716
 9829TIP3    H229431   0.329   5.759   0.829
 9830TIP3   OH229432   3.843   7.485   2.800
 9830TIP3    H129433   3.872   7.547   2.867
 9830TIP3    H229434   3.798   7.416   2.850
 9831TIP3   OH229435   1.135   0.211   1.378
 9831TIP3    H129436   1.210   0.198   1.320
 9831TIP3    H229437   1.173   0.239   1.461
 9832TIP3   OH229438   6.803   3.778   6.716
 9832TIP3    H129439   6.882   3.823   6.687
 9832TIP3    H229440   6.804   3.788   6.811
 9833TIP3   OH229441   4.111   4.550   2.145
 9833TIP3    H129442   4.106   4.455   2.154
 9833TIP3    H229443   4.097   4.566   2.052
 9834TIP3   OH229444   2.897   5.115   5.295
 9834TIP3    H129445   2.870   5.037   5.344
 9834TIP3    H229446   2.832   5.181   5.318
 9835TIP3   OH229447   6.314   6.053   0.923
 9835TIP3    H129448   6.333   6.139   0.960
 9835TIP3    H229449   6.261   6.010   0.990
 9836TIP3   OH229450   1.956   3.709   5.623
 9836TIP3    H129451   1.942   3.672   5.535
 9836TIP3    H229452   2.036   3.666   5.654
 9837TIP3   OH229453   7.059   3.825   2.042
 9837TIP3    H129454   6.972   3.791   2.021
 9837TIP3    H229455   7.042   3.909   2.086
 9838TIP3   OH229456   1.859   4.436   3.632
 9838TIP3    H129457   1.940   4.445   3.683
 9838TIP3    H229458   1.862   4.510   3.571
 9839TIP3   OH229459   4.635   4.978   5.876
 9839TIP3    H129460   4.604   4.894   5.908
 9839TIP3    H229461   4.556   5.022   5.844
 9840TIP3   OH229462   4.119   3.911   5.242
 9840TIP3    H129463   4.132   3.825   5.282
 9840TIP3    H229464   4.042   3.947   5.285
 9841TIP3   OH229465   6.104   7.378   1.334
 9841TIP3    H129466   6.180   7.332   1.300
 9841TIP3    H229467   6.119   7.383   1.428
 9842TIP3   OH229468   3.784   1.530   1.761
 9842TIP3    H129469   3.703   1.528   1.712
 9842TIP3    H229470   3.828   1.610   1.731
 9843TIP3   OH229471   3.711   1.138   1.896
 9843TIP3    H129472   3.716   1.109   1.987
 9843TIP3    H229473   3.798   1.172   1.877
 9844TIP3   OH229474   3.605   3.419   1.737
 9844TIP3    H129475   3.545   3.420   1.663
 9844TIP3    H229476   3.621   3.326   1.754
 9845TIP3   OH229477   1.584   3.082   3.269
 9845TIP3    H129478   1.641   3.130   3.207
 9845TIP3    H229479   1.640   3.012   3.302
 9846TIP3   OH229480   5.923   0.814   4.920
 9846TIP3    H129481   6.003   0.814   4.867
 9846TIP3    H229482   5.857   0.855   4.864
 9847TIP3   OH229483   3.817   6.397   5.955
 9847TIP3    H129484   3.784   6.309   5.935
 9847TIP3    H229485   3.799   6.408   6.049
 9848TIP3   OH229486   0.019   6.110   1.591
 9848TIP3    H129487   0.070   6.069   1.521
 9848TIP3    H229488  -0.045   6.044   1.616
 9849TIP3   OH229489   5.156   6.152   3.642
 9849TIP3    H129490   5.211   6.091   3.592
 9849TIP3    H229491   5.066   6.124   3.624
 9850TIP3   OH229492   3.645   4.479   5.430
 9850TIP3    H129493   3.642   4.396   5.479
 9850TIP3    H229494   3.736   4.486   5.402
 9851TIP3   OH229495   1.799   0.253   1.492
 9851TIP3    H129496   1.760   0.319   1.434
 9851TIP3    H229497   1.815   0.299   1.574
 9852TIP3   OH229498   8.098   5.106   5.214
 9852TIP3    H129499   8.115   5.196   5.243
 9852TIP3    H229500   8.075   5.059   5.294
 9853TIP3   OH229501   1.795   1.918   0.538
 9853TIP3    H129502   1.703   1.903   0.559
 9853TIP3    H229503   1.810   1.868   0.458
 9854TIP3   OH229504   8.224   4.408   0.547
 9854TIP3    H129505   8.236   4.411   0.452
 9854TIP3    H229506   8.191   4.495   0.570
 9855TIP3   OH229507   2.179   2.531   4.643
 9855TIP3    H129508   2.103   2.520   4.587
 9855TIP3    H229509   2.162   2.611   4.692
 9856TIP3   OH229510   5.054   3.618   4.213
 9856TIP3    H129511   5.016   3.536   4.182
 9856TIP3    H229512   5.033   3.682   4.144
 9857TIP3   OH229513   0.696   2.870   1.197
 9857TIP3    H129514   0.737   2.789   1.226
 9857TIP3    H229515   0.756   2.939   1.227
 9858TIP3   OH229516   2.237   7.383   5.672
 9858TIP3    H129517   2.248   7.351   5.761
 9858TIP3    H229518   2.144   7.407   5.667
 9859TIP3   OH229519   1.691   5.220   2.947
 9859TIP3    H129520   1.634   5.295   2.933
 9859TIP3    H229521   1.757   5.227   2.878
 9860TIP3   OH229522   4.428   6.445   5.655
 9860TIP3    H129523   4.459   6.355   5.644
 9860TIP3    H229524   4.413   6.454   5.749
 9861TIP3   OH229525   6.628   1.980   3.671
 9861TIP3    H129526   6.664   1.892   3.681
 9861TIP3    H229527   6.618   2.012   3.760
 9862TIP3   OH229528   8.030   0.050   4.437
 9862TIP3    H129529   8.000   0.043   4.347
 9862TIP3    H229530   7.956   0.018   4.490
 9863TIP3   OH229531   0.047   6.451   1.307
 9863TIP3    H129532   0.077   6.461   1.397
 9863TIP3    H229533   0.059   6.358   1.288
 9864TIP3   OH229534   1.511   3.734   5.222
 9864TIP3    H129535   1.549   3.814   5.259
 9864TIP3    H229536   1.448   3.705   5.287
 9865TIP3   OH229537   7.924   7.103   3.906
 9865TIP3    H129538   7.928   7.170   3.838
 9865TIP3    H229539   8.010   7.106   3.948
 9866TIP3   OH229540   4.565   6.468   5.229
 9866TIP3    H129541   4.592   6.431   5.144
 9866TIP3    H229542   4.491   6.413   5.256
 9867TIP3   OH229543   0.702   0.824   3.552
 9867TIP3    H129544   0.630   0.863   3.600
 9867TIP3    H229545   0.770   0.810   3.617
 9868TIP3   OH229546   2.841   7.656   5.771
 9868TIP3    H129547   2.912   7.617   5.721
 9868TIP3    H229548   2.883   7.722   5.826
 9869TIP3   OH229549   4.683   5.044   4.373
 9869TIP3    H129550   4.731   5.004   4.300
 9869TIP3    H229551   4.659   5.131   4.341
 9870TIP3   OH229552   4.283   4.570   1.217
 9870TIP3    H129553   4.338   4.550   1.292
 9870TIP3    H229554   4.312   4.656   1.188
 9871TIP3   OH229555   3.999   1.884   6.558
 9871TIP3    H129556   3.998   1.855   6.467
 9871TIP3    H229557   3.967   1.808   6.608
 9872TIP3   OH229558   3.503   6.598   4.851
 9872TIP3    H129559   3.460   6.552   4.779
 9872TIP3    H229560   3.448   6.581   4.927
 9873TIP3   OH229561   0.089   4.886   6.280
 9873TIP3    H129562   0.080   4.832   6.358
 9873TIP3    H229563   0.179   4.868   6.250
 9874TIP3   OH229564   7.023   4.365   0.655
 9874TIP3    H129565   7.036   4.281   0.699
 9874TIP3    H229566   6.962   4.345   0.584
 9875TIP3   OH229567   2.034   7.477   0.870
 9875TIP3    H129568   2.129   7.483   0.882
 9875TIP3    H229569   2.020   7.395   0.823
 9876TIP3   OH229570   7.421   7.276   5.923
 9876TIP3    H129571   7.369   7.197   5.915
 9876TIP3    H229572   7.420   7.296   6.016
 9877TIP3   OH229573   1.133   1.805   5.146
 9877TIP3    H129574   1.113   1.822   5.054
 9877TIP3    H229575   1.103   1.883   5.193
 9878TIP3   OH229576   6.265   2.159   0.575
 9878TIP3    H129577   6.312   2.225   0.626
 9878TIP3    H229578   6.309   2.077   0.598
 9879TIP3   OH229579   1.802   2.947   3.034
 9879TIP3    H129580   1.822   2.899   3.114
 9879TIP3    H229581   1.813   2.882   2.964
 9880TIP3   OH229582   3.825   5.664   4.187
 9880TIP3    H129583   3.771   5.586   4.202
 9880TIP3    H229584   3.842   5.664   4.093
 9881TIP3   OH229585   0.406   5.834   4.164
 9881TIP3    H129586   0.320   5.845   4.123
 9881TIP3    H229587   0.468   5.846   4.092
 9882TIP3   OH229588   3.741   6.853   1.315
 9882TIP3    H129589   3.675   6.875   1.381
 9882TIP3    H229590   3.692   6.845   1.233
 9883TIP3   OH229591   6.472   1.072   6.133
 9883TIP3    H129592   6.418   0.997   6.108
 9883TIP3    H229593   6.493   1.116   6.051
 9884TIP3   OH229594   6.882   0.453   5.205
 9884TIP3    H129595   6.911   0.365   5.230
 9884TIP3    H229596   6.869   0.449   5.110
 9885TIP3   OH229597   1.325   1.330   2.175
 9885TIP3    H129598   1.367   1.360   2.256
 9885TIP3    H229599   1.330   1.406   2.116
 9886TIP3   OH229600   1.984   7.350   1.975
 9886TIP3    H129601   1.966   7.353   2.069
 9886TIP3    H229602   1.910   7.302   1.938
 9887TIP3   OH229603   7.934   5.400   2.868
 9887TIP3    H129604   7.861   5.339   2.859
 9887TIP3    H229605   8.012   5.346   2.854
 9888TIP3   OH229606   3.968   7.327   4.658
 9888TIP3    H129607   3.919   7.409   4.647
 9888TIP3    H229608   4.056   7.355   4.680
 9889TIP3   OH229609   2.111   3.073   4.576
 9889TIP3    H129610   2.125   3.122   4.494
 9889TIP3    H229611   2.154   3.127   4.643
 9890TIP3   OH229612   0.996   5.521   3.466
 9890TIP3    H129613   0.914   5.478   3.490
 9890TIP3    H229614   1.028   5.470   3.391
 9891TIP3   OH229615   1.357   4.863   6.065
 9891TIP3    H129616   1.333   4.947   6.026
 9891TIP3    H229617   1.275   4.827   6.098
 9892TIP3   OH229618   4.931   2.631   4.875
 9892TIP3    H129619   4.984   2.554   4.897
 9892TIP3    H229620   4.845   2.595   4.852
 9893TIP3   OH229621   3.416   2.698   2.778
 9893TIP3    H129622   3.372   2.759   2.836
 9893TIP3    H229623   3.505   2.732   2.770
 9894TIP3   OH229624   4.094   6.362   0.058
 9894TIP3    H129625   4.154   6.416   0.110
 9894TIP3    H229626   4.008   6.400   0.075
 9895TIP3   OH229627   0.670   2.380   4.431
 9895TIP3    H129628   0.649   2.309   4.372
 9895TIP3    H229629   0.761   2.401   4.413
 9896TIP3   OH229630   5.445   1.265   5.559
 9896TIP3    H129631   5.480   1.246   5.471
 9896TIP3    H229632   5.361   1.219   5.562
 9897TIP3   OH229633   7.174   6.828   4.414
 9897TIP3    H129634   7.219   6.781   4.484
 9897TIP3    H229635   7.240   6.841   4.346
 9898TIP3   OH229636   4.791   1.964   0.383
 9898TIP3    H129637   4.718   2.022   0.359
 9898TIP3    H229638   4.869   2.018   0.372
 9899TIP3   OH229639   3.938   2.840   4.098
 9899TIP3    H129640   3.962   2.932   4.095
 9899TIP3    H229641   3.985   2.805   4.174
 9900TIP3   OH229642   2.701   4.227   2.957
 9900TIP3    H129643   2.686   4.232   3.051
 9900TIP3    H229644   2.797   4.225   2.948
 9901TIP3   OH229645   1.110   0.839   6.137
 9901TIP3    H129646   1.174   0.806   6.074
 9901TIP3    H229647   1.036   0.779   6.129
 9902TIP3   OH229648   2.279   5.154   1.229
 9902TIP3    H129649   2.213   5.224   1.231
 9902TIP3    H229650   2.307   5.145   1.320
 9903TIP3   OH229651   1.882   5.461   4.188
 9903TIP3    H129652   1.795   5.433   4.218
 9903TIP3    H229653   1.928   5.379   4.169
 9904TIP3   OH229654   0.186   7.770   0.753
 9904TIP3    H129655   0.120   7.770   0.822
 9904TIP3    H229656   0.240   7.846   0.771
 9905TIP3   OH229657   1.199   3.063   5.103
 9905TIP3    H129658   1.214   3.041   5.011
 9905TIP3    H229659   1.126   3.125   5.102
 9906TIP3   OH229660   6.613   2.131   5.590
 9906TIP3    H129661   6.602   2.105   5.681
 9906TIP3    H229662   6.686   2.193   5.591
 9907TIP3   OH229663   1.795   5.423   1.997
 9907TIP3    H129664   1.847   5.346   1.975
 9907TIP3    H229665   1.724   5.388   2.051
 9908TIP3   OH229666   3.056   4.916   1.631
 9908TIP3    H129667   3.000   4.954   1.699
 9908TIP3    H229668   3.134   4.888   1.678
 9909TIP3   OH229669   7.715   6.794   4.764
 9909TIP3    H129670   7.811   6.799   4.759
 9909TIP3    H229671   7.685   6.879   4.730
 9910TIP3   OH229672   7.911   1.861   5.031
 9910TIP3    H129673   7.923   1.956   5.036
 9910TIP3    H229674   7.818   1.847   5.048
 9911TIP3   OH229675   5.530   4.982   4.420
 9911TIP3    H129676   5.590   5.010   4.489
 9911TIP3    H229677   5.580   4.918   4.369
 9912TIP3   OH229678   2.200   1.945   0.999
 9912TIP3    H129679   2.205   1.958   1.094
 9912TIP3    H229680   2.120   1.992   0.973
 9913TIP3   OH229681   1.239   0.438   1.190
 9913TIP3    H129682   1.145   0.424   1.193
 9913TIP3    H229683   1.249   0.532   1.175
 9914TIP3   OH229684   4.509   6.254   4.917
 9914TIP3    H129685   4.533   6.178   4.864
 9914TIP3    H229686   4.506   6.327   4.855
 9915TIP3   OH229687   5.565   4.089   1.051
 9915TIP3    H129688   5.562   4.136   0.967
 9915TIP3    H229689   5.633   4.023   1.039
 9916TIP3   OH229690   1.524   6.955   1.355
 9916TIP3    H129691   1.572   7.033   1.381
 9916TIP3    H229692   1.432   6.981   1.357
 9917TIP3   OH229693   3.884   5.344   2.467
 9917TIP3    H129694   3.966   5.331   2.515
 9917TIP3    H229695   3.895   5.428   2.422
 9918TIP3   OH229696   3.059   2.390   1.261
 9918TIP3    H129697   3.041   2.423   1.349
 9918TIP3    H229698   3.011   2.449   1.203
 9919TIP3   OH229699   0.940   0.429   3.634
 9919TIP3    H129700   1.026   0.412   3.595
 9919TIP3    H229701   0.897   0.488   3.573
 9920TIP3   OH229702   6.070   3.471   6.064
 9920TIP3    H129703   5.991   3.485   6.012
 9920TIP3    H229704   6.119   3.552   6.055
 9921TIP3   OH229705   2.022   0.048   0.000
 9921TIP3    H129706   2.012   0.073   0.092
 9921TIP3    H229707   1.933   0.053  -0.036
 9922TIP3   OH229708   0.837   0.517   1.326
 9922TIP3    H129709   0.755   0.474   1.349
 9922TIP3    H229710   0.826   0.607   1.357
 9923TIP3   OH229711   3.992   6.774   2.319
 9923TIP3    H129712   4.051   6.849   2.327
 9923TIP3    H229713   3.936   6.795   2.244
 9924TIP3   OH229714   0.072   0.103   4.160
 9924TIP3    H129715   0.087   0.191   4.194
 9924TIP3    H229716   0.126   0.098   4.081
 9925TIP3   OH229717   0.985   4.698   5.730
 9925TIP3    H129718   0.930   4.634   5.685
 9925TIP3    H229719   1.069   4.694   5.684
 9926TIP3   OH229720   2.599   1.613   5.500
 9926TIP3    H129721   2.613   1.684   5.438
 9926TIP3    H229722   2.670   1.551   5.482
 9927TIP3   OH229723   3.295   1.614   5.630
 9927TIP3    H129724   3.336   1.695   5.600
 9927TIP3    H229725   3.365   1.549   5.629
 9928TIP3   OH229726   3.230   3.962   1.099
 9928TIP3    H129727   3.325   3.964   1.087
 9928TIP3    H229728   3.200   3.899   1.033
 9929TIP3   OH229729   2.382   1.795   2.949
 9929TIP3    H129730   2.446   1.812   3.018
 9929TIP3    H229731   2.424   1.729   2.893
 9930TIP3   OH229732   7.004   2.474   2.784
 9930TIP3    H129733   6.960   2.461   2.868
 9930TIP3    H229734   7.039   2.388   2.761
 9931TIP3   OH229735   1.029   4.721   3.938
 9931TIP3    H129736   1.061   4.808   3.959
 9931TIP3    H229737   0.962   4.735   3.872
 9932TIP3   OH229738   4.681   0.820   1.597
 9932TIP3    H129739   4.677   0.874   1.519
 9932TIP3    H229740   4.708   0.734   1.566
 9933TIP3   OH229741   0.392   7.075   5.428
 9933TIP3    H129742   0.383   7.054   5.336
 9933TIP3    H229743   0.304   7.100   5.457
 9934TIP3   OH229744   1.694   3.473   2.854
 9934TIP3    H129745   1.615   3.420   2.866
 9934TIP3    H229746   1.681   3.549   2.911
 9935TIP3   OH229747   5.778   1.130   2.685
 9935TIP3    H129748   5.699   1.150   2.636
 9935TIP3    H229749   5.767   1.039   2.713
 9936TIP3   OH229750   2.836   1.787   2.130
 9936TIP3    H129751   2.750   1.763   2.165
 9936TIP3    H229752   2.835   1.882   2.127
 9937TIP3   OH229753   2.864   2.382   5.148
 9937TIP3    H129754   2.827   2.371   5.236
 9937TIP3    H229755   2.810   2.326   5.092
 9938TIP3   OH229756   6.734   1.952   1.553
 9938TIP3    H129757   6.708   1.978   1.642
 9938TIP3    H229758   6.718   1.858   1.550
 9939TIP3   OH229759   7.417   6.856   2.824
 9939TIP3    H129760   7.342   6.915   2.817
 9939TIP3    H229761   7.489   6.904   2.782
 9940TIP3   OH229762   5.710   7.514   6.548
 9940TIP3    H129763   5.695   7.573   6.621
 9940TIP3    H229764   5.648   7.442   6.561
 9941TIP3   OH229765   3.097   3.977   6.042
 9941TIP3    H129766   3.007   3.954   6.015
 9941TIP3    H229767   3.086   4.055   6.096
 9942TIP3   OH229768   1.680   2.812   3.908
 9942TIP3    H129769   1.697   2.734   3.855
 9942TIP3    H229770   1.588   2.805   3.931
 9943TIP3   OH229771   7.255   0.587   0.405
 9943TIP3    H129772   7.187   0.602   0.339
 9943TIP3    H229773   7.330   0.554   0.356
 9944TIP3   OH229774   5.772   2.931   5.474
 9944TIP3    H129775   5.788   2.872   5.548
 9944TIP3    H229776   5.740   2.873   5.405
 9945TIP3   OH229777   6.808   7.052   1.879
 9945TIP3    H129778   6.840   7.123   1.823
 9945TIP3    H229779   6.857   7.061   1.961
 9946TIP3   OH229780   3.179   2.280   5.829
 9946TIP3    H129781   3.105   2.310   5.777
 9946TIP3    H229782   3.145   2.206   5.879
 9947TIP3   OH229783   8.065   5.390   4.827
 9947TIP3    H129784   7.971   5.382   4.811
 9947TIP3    H229785   8.101   5.424   4.745
 9948TIP3   OH229786   7.806   1.247   2.375
 9948TIP3    H129787   7.720   1.289   2.369
 9948TIP3    H229788   7.811   1.190   2.298
 9949TIP3   OH229789   3.101   5.262   4.265
 9949TIP3    H129790   3.045   5.298   4.334
 9949TIP3    H229791   3.070   5.172   4.253
 9950TIP3   OH229792   0.231   1.385   3.487
 9950TIP3    H129793   0.187   1.405   3.404
 9950TIP3    H229794   0.321   1.364   3.462
 9951TIP3   OH229795   0.809   0.597   3.425
 9951TIP3    H129796   0.832   0.589   3.332
 9951TIP3    H229797   0.772   0.684   3.433
 9952TIP3   OH229798   1.964   1.260   0.496
 9952TIP3    H129799   1.958   1.351   0.526
 9952TIP3    H229800   2.011   1.215   0.566
 9953TIP3   OH229801   6.804   4.420   0.246
 9953TIP3    H129802   6.788   4.499   0.298
 9953TIP3    H229803   6.717   4.386   0.226
 9954TIP3   OH229804   3.078   6.908   1.801
 9954TIP3    H129805   3.152   6.913   1.861
 9954TIP3    H229806   3.010   6.861   1.850
 9955TIP3   OH229807   5.836   7.800   5.478
 9955TIP3    H129808   5.841   7.792   5.574
 9955TIP3    H229809   5.754   7.757   5.454
 9956TIP3   OH229810   1.377   3.953   0.481
 9956TIP3    H129811   1.311   3.990   0.539
 9956TIP3    H229812   1.406   4.027   0.427
 9957TIP3   OH229813   2.102   0.672   0.098
 9957TIP3    H129814   2.193   0.679   0.070
 9957TIP3    H229815   2.098   0.588   0.145
 9958TIP3   OH229816   3.263   4.997   4.944
 9958TIP3    H129817   3.319   4.922   4.925
 9958TIP3    H229818   3.175   4.958   4.954
 9959TIP3   OH229819   7.350   5.958   2.707
 9959TIP3    H129820   7.272   5.985   2.659
 9959TIP3    H229821   7.359   5.865   2.690
 9960TIP3   OH229822   4.001   3.159   0.893
 9960TIP3    H129823   4.014   3.087   0.831
 9960TIP3    H229824   3.996   3.116   0.978
 9961TIP3   OH229825   0.518   6.608   4.681
 9961TIP3    H129826   0.598   6.556   4.682
 9961TIP3    H229827   0.537   6.681   4.622
 9962TIP3   OH229828   0.721   4.232   4.536
 9962TIP3    H129829   0.784   4.172   4.575
 9962TIP3    H229830   0.668   4.264   4.609
 9963TIP3   OH229831   3.736   2.374   1.382
 9963TIP3    H129832   3.780   2.398   1.463
 9963TIP3    H229833   3.714   2.281   1.394
 9964TIP3   OH229834   6.517   1.540   1.178
 9964TIP3    H129835   6.596   1.588   1.204
 9964TIP3    H229836   6.451   1.607   1.165
 9965TIP3   OH229837   8.245   2.636   4.604
 9965TIP3    H129838   8.219   2.550   4.637
 9965TIP3    H229839   8.340   2.638   4.615
 9966TIP3   OH229840   4.578   5.520   5.693
 9966TIP3    H129841   4.655   5.544   5.642
 9966TIP3    H229842   4.596   5.554   5.781
 9967TIP3   OH229843   6.337   4.588   6.342
 9967TIP3    H129844   6.421   4.631   6.326
 9967TIP3    H229845   6.329   4.587   6.438
 9968TIP3   OH229846   6.150   5.986   4.700
 9968TIP3    H129847   6.213   6.058   4.699
 9968TIP3    H229848   6.123   5.978   4.791
 9969TIP3   OH229849   6.931   1.343   5.443
 9969TIP3    H129850   6.960   1.300   5.523
 9969TIP3    H229851   6.836   1.349   5.452
 9970TIP3   OH229852   4.707   3.041   4.147
 9970TIP3    H129853   4.779   3.097   4.177
 9970TIP3    H229854   4.749   2.976   4.091
 9971TIP3   OH229855   5.261   0.089   6.682
 9971TIP3    H129856   5.198   0.034   6.729
 9971TIP3    H229857   5.279   0.161   6.742
 9972TIP3   OH229858   0.493   4.064   6.228
 9972TIP3    H129859   0.562   4.128   6.212
 9972TIP3    H229860   0.414   4.117   6.237
 9973TIP3   OH229861   5.016   5.148   5.177
 9973TIP3    H129862   4.989   5.187   5.094
 9973TIP3    H229863   5.090   5.202   5.206
 9974TIP3   OH229864   7.235   2.894   2.541
 9974TIP3    H129865   7.172   2.917   2.472
 9974TIP3    H229866   7.207   2.946   2.617
 9975TIP3   OH229867   2.405   3.981   1.415
 9975TIP3    H129868   2.441   4.042   1.351
 9975TIP3    H229869   2.338   4.031   1.461
 9976TIP3   OH229870   7.962   6.268   1.440
 9976TIP3    H129871   8.058   6.258   1.443
 9976TIP3    H229872   7.933   6.241   1.526
 9977TIP3   OH229873   6.834   0.886   5.150
 9977TIP3    H129874   6.905   0.822   5.156
 9977TIP3    H229875   6.758   0.842   5.188
 9978TIP3   OH229876   3.443   6.057   2.272
 9978TIP3    H129877   3.444   6.056   2.176
 9978TIP3    H229878   3.366   6.004   2.295
 9979TIP3   OH229879   2.183   5.839   1.566
 9979TIP3    H129880   2.168   5.745   1.570
 9979TIP3    H229881   2.122   5.870   1.498
 9980TIP3   OH229882   1.453   2.061   0.320
 9980TIP3    H129883   1.477   1.969   0.325
 9980TIP3    H229884   1.382   2.063   0.255
 9981TIP3   OH229885   1.254   3.412   1.214
 9981TIP3    H129886   1.174   3.443   1.257
 9981TIP3    H229887   1.224   3.376   1.130
 9982TIP3   OH229888   0.483   5.931   6.021
 9982TIP3    H129889   0.414   5.878   5.980
 9982TIP3    H229890   0.552   5.868   6.042
 9983TIP3   OH229891   6.282   7.574   5.935
 9983TIP3    H129892   6.206   7.530   5.974
 9983TIP3    H229893   6.327   7.615   6.009
 9984TIP3   OH229894   0.809   6.309   4.246
 9984TIP3    H129895   0.817   6.213   4.249
 9984TIP3    H229896   0.779   6.328   4.157
 9985TIP3   OH229897   0.642   2.046   1.635
 9985TIP3    H129898   0.722   2.096   1.617
 9985TIP3    H229899   0.632   2.051   1.730
 9986TIP3   OH229900   2.797   3.432   3.593
 9986TIP3    H129901   2.835   3.513   3.558
 9986TIP3    H229902   2.727   3.409   3.531
 9987TIP3   OH229903   6.147   4.213   4.969
 9987TIP3    H129904   6.104   4.216   4.884
 9987TIP3    H229905   6.077   4.194   5.032
 9988TIP3   OH229906   2.456   2.277   6.409
 9988TIP3    H129907   2.385   2.318   6.458
 9988TIP3    H229908   2.526   2.343   6.407
 9989TIP3   OH229909   7.709   3.302   0.971
 9989TIP3    H129910   7.752   3.376   0.929
 9989TIP3    H229911   7.759   3.225   0.941
 9990TIP3   OH229912   2.682   2.935   4.962
 9990TIP3    H129913   2.631   2.944   4.882
 9990TIP3    H229914   2.773   2.938   4.932
 9991TIP3   OH229915   3.459   1.397   3.357
 9991TIP3    H129916   3.517   1.429   3.288
 9991TIP3    H229917   3.417   1.320   3.319
 9992TIP3   OH229918   2.881   4.325   0.762
 9992TIP3    H129919   2.947   4.374   0.713
 9992TIP3    H229920   2.931   4.278   0.828
 9993TIP3   OH229921   2.389   7.805   4.007
 9993TIP3    H129922   2.480   7.805   4.036
 9993TIP3    H229923   2.395   7.801   3.912
 9994TIP3   OH229924   6.906   0.305   2.472
 9994TIP3    H129925   6.980   0.362   2.493
 9994TIP3    H229926   6.909   0.297   2.376
 9995TIP3   OH229927   0.054   3.041   1.107
 9995TIP3    H129928   0.102   3.034   1.025
 9995TIP3    H229929   0.000   3.120   1.096
 9996TIP3   OH229930   3.902   7.558   6.463
 9996TIP3    H129931   3.831   7.620   6.479
 9996TIP3    H229932   3.887   7.488   6.527
 9997TIP3   OH229933   8.118   3.348   1.978
 9997TIP3    H129934   8.103   3.435   2.015
 9997TIP3    H229935   8.155   3.364   1.892
 9998TIP3   OH229936   7.930   7.131   5.087
 9998TIP3    H129937   7.915   7.185   5.009
 9998TIP3    H229938   7.852   7.076   5.092
 9999TIP3   OH229939   7.427   5.458   3.680
 9999TIP3    H129940   7.464   5.513   3.612
 9999TIP3    H229941   7.429   5.514   3.759
10000TIP3   OH229942   1.271   7.680   2.697
10000TIP3    H129943   1.352   7.687   2.647
10000TIP3    H229944   1.258   7.586   2.709
10001TIP3   OH229945   6.561   0.860   1.518
10001TIP3    H129946   6.557   0.769   1.548
10001TIP3    H229947   6.546   0.855   1.424
10002TIP3   OH229948   3.535   2.648   5.359
10002TIP3    H129949   3.527   2.605   5.444
10002TIP3    H229950   3.544   2.576   5.297
10003TIP3   OH229951   7.748   2.007   4.786
10003TIP3    H129952   7.659   2.032   4.811
10003TIP3    H229953   7.802   2.035   4.860
10004TIP3   OH229954   5.269   7.189   4.286
10004TIP3    H129955   5.356   7.228   4.279
10004TIP3    H229956   5.281   7.099   4.257
10005TIP3   OH229957   3.271   3.147   2.861
10005TIP3    H129958   3.272   3.149   2.765
10005TIP3    H229959   3.207   3.213   2.886
10006TIP3   OH229960   5.087   0.358   1.780
10006TIP3    H129961   5.049   0.388   1.863
10006TIP3    H229962   5.127   0.274   1.801
10007TIP3   OH229963   0.302   3.643   0.487
10007TIP3    H129964   0.277   3.593   0.410
10007TIP3    H229965   0.240   3.715   0.490
10008TIP3   OH229966   6.291   6.875   5.256
10008TIP3    H129967   6.257   6.957   5.292
10008TIP3    H229968   6.244   6.807   5.304
10009TIP3   OH229969   2.824   6.299   5.796
10009TIP3    H129970   2.787   6.386   5.804
10009TIP3    H229971   2.753   6.245   5.761
10010TIP3   OH229972   1.796   2.701   1.474
10010TIP3    H129973   1.765   2.792   1.466
10010TIP3    H229974   1.729   2.657   1.524
10011TIP3   OH229975   6.953   2.477   3.695
10011TIP3    H129976   7.029   2.425   3.722
10011TIP3    H229977   6.962   2.559   3.743
10012TIP3   OH229978   4.440   1.492   3.258
10012TIP3    H129979   4.438   1.529   3.346
10012TIP3    H229980   4.531   1.498   3.231
10013TIP3   OH229981   4.386   4.688   5.260
10013TIP3    H129982   4.392   4.770   5.309
10013TIP3    H229983   4.309   4.644   5.298
10014TIP3   OH229984   6.179   3.683   5.028
10014TIP3    H129985   6.161   3.615   5.093
10014TIP3    H229986   6.242   3.642   4.968
10015TIP3   OH229987   0.200   5.632   4.492
10015TIP3    H129988   0.186   5.542   4.461
10015TIP3    H229989   0.287   5.655   4.461
10016TIP3   OH229990   2.119   0.279   1.629
10016TIP3    H129991   2.158   0.364   1.611
10016TIP3    H229992   2.181   0.237   1.689
10017TIP3   OH229993   6.689   3.305   3.426
10017TIP3    H129994   6.784   3.311   3.421
10017TIP3    H229995   6.672   3.253   3.505
10018TIP3   OH229996   2.093   7.008   3.327
10018TIP3    H129997   2.010   6.962   3.319
10018TIP3    H229998   2.154   6.959   3.271
10019TIP3   OH229999   2.277   5.008   2.158
10019TIP3    H130000   2.370   5.030   2.160
10019TIP3    H230001   2.242   5.043   2.240
10020TIP3   OH230002   2.978   0.822   0.115
10020TIP3    H130003   2.946   0.741   0.075
10020TIP3    H230004   2.940   0.822   0.203
10021TIP3   OH230005   1.877   4.820   2.427
10021TIP3    H130006   1.811   4.858   2.485
10021TIP3    H230007   1.883   4.882   2.354
10022TIP3   OH230008   7.197   4.062   0.709
10022TIP3    H130009   7.286   4.081   0.681
10022TIP3    H230010   7.202   4.058   0.804
10023TIP3   OH230011   7.578   3.355   6.556
10023TIP3    H130012   7.671   3.341   6.571
10023TIP3    H230013   7.545   3.387   6.640
10024TIP3   OH230014   2.108   6.234   1.231
10024TIP3    H130015   2.024   6.277   1.219
10024TIP3    H230016   2.133   6.254   1.321
10025TIP3   OH230017   6.998   4.990   2.553
10025TIP3    H130018   7.089   4.961   2.545
10025TIP3    H230019   6.971   4.960   2.640
10026TIP3   OH230020   6.868   6.978   3.855
10026TIP3    H130021   6.938   7.036   3.825
10026TIP3    H230022   6.888   6.894   3.814
10027TIP3   OH230023   2.269   3.156   3.337
10027TIP3    H130024   2.246   3.168   3.245
10027TIP3    H230025   2.268   3.245   3.374
10028TIP3   OH230026   2.064   0.818   5.110
10028TIP3    H130027   2.086   0.739   5.160
10028TIP3    H230028   2.115   0.811   5.030
10029TIP3   OH230029   6.055   0.941   4.186
10029TIP3    H130030   6.110   0.909   4.257
10029TIP3    H230031   6.017   1.022   4.220
10030TIP3   OH230032   2.993   3.911   4.854
10030TIP3    H130033   2.978   3.884   4.764
10030TIP3    H230034   2.920   3.970   4.873
10031TIP3   OH230035   2.840   3.320   2.284
10031TIP3    H130036   2.746   3.335   2.271
10031TIP3    H230037   2.844   3.240   2.337
10032TIP3   OH230038   1.826   2.773   2.827
10032TIP3    H130039   1.921   2.772   2.841
10032TIP3    H230040   1.805   2.683   2.801
10033TIP3   OH230041   5.156   1.342   0.130
10033TIP3    H130042   5.141   1.262   0.079
10033TIP3    H230043   5.097   1.334   0.205
10034TIP3   OH230044   0.261   1.902   4.118
10034TIP3    H130045   0.262   1.834   4.050
10034TIP3    H230046   0.225   1.859   4.195
10035TIP3   OH230047   3.043   7.276   1.897
10035TIP3    H130048   2.965   7.260   1.844
10035TIP3    H230049   3.084   7.352   1.856
10036TIP3   OH230050   6.290   2.582   2.025
10036TIP3    H130051   6.246   2.499   2.005
10036TIP3    H230052   6.379   2.558   2.049
10037TIP3   OH230053   5.594   2.082   6.038
10037TIP3    H130054   5.629   2.048   5.956
10037TIP3    H230055   5.524   2.142   6.012
10038TIP3   OH230056   3.430   7.688   3.527
10038TIP3    H130057   3.515   7.672   3.487
10038TIP3    H230058   3.367   7.657   3.462
10039TIP3   OH230059   5.758   2.285   2.043
10039TIP3    H130060   5.793   2.305   1.956
10039TIP3    H230061   5.777   2.193   2.057
10040TIP3   OH230062   4.503   1.204   4.319
10040TIP3    H130063   4.460   1.229   4.401
10040TIP3    H230064   4.595   1.197   4.341
10041TIP3   OH230065   4.392   6.676   6.535
10041TIP3    H130066   4.436   6.756   6.562
10041TIP3    H230067   4.371   6.631   6.617
10042TIP3   OH230068   3.903   4.858   0.296
10042TIP3    H130069   3.944   4.888   0.215
10042TIP3    H230070   3.976   4.824   0.349
10043TIP3   OH230071   3.427   0.295   5.588
10043TIP3    H130072   3.402   0.279   5.679
10043TIP3    H230073   3.448   0.388   5.585
10044TIP3   OH230074   4.104   2.662   4.795
10044TIP3    H130075   4.022   2.666   4.745
10044TIP3    H230076   4.078   2.682   4.885
10045TIP3   OH230077   3.007   4.741   5.795
10045TIP3    H130078   3.005   4.781   5.882
10045TIP3    H230079   2.915   4.731   5.770
10046TIP3   OH230080   7.119   4.567   2.550
10046TIP3    H130081   7.062   4.564   2.627
10046TIP3    H230082   7.178   4.641   2.566
10047TIP3   OH230083   6.001   7.101   1.870
10047TIP3    H130084   5.957   7.153   1.803
10047TIP3    H230085   6.094   7.105   1.847
10048TIP3   OH230086   0.395   3.059   5.917
10048TIP3    H130087   0.320   3.064   5.858
10048TIP3    H230088   0.403   3.148   5.952
10049TIP3   OH230089   5.356   1.029   0.292
10049TIP3    H130090   5.395   1.054   0.376
10049TIP3    H230091   5.392   1.093   0.229
10050TIP3   OH230092   1.961   6.853   3.960
10050TIP3    H130093   1.884   6.884   4.007
10050TIP3    H230094   1.954   6.758   3.961
10051TIP3   OH230095   0.361   1.957   4.632
10051TIP3    H130096   0.266   1.965   4.628
10051TIP3    H230097   0.389   2.031   4.685
10052TIP3   OH230098   7.221   1.114   2.595
10052TIP3    H130099   7.135   1.080   2.571
10052TIP3    H230100   7.203   1.176   2.666
10053TIP3   OH230101   8.089   4.810   6.667
10053TIP3    H130102   8.122   4.759   6.741
10053TIP3    H230103   7.994   4.800   6.670
10054TIP3   OH230104   4.767   2.089   2.700
10054TIP3    H130105   4.764   2.009   2.753
10054TIP3    H230106   4.676   2.101   2.671
10055TIP3   OH230107   5.368   3.653   4.308
10055TIP3    H130108   5.294   3.698   4.268
10055TIP3    H230109   5.353   3.561   4.287
10056TIP3   OH230110   6.757   7.602   6.494
10056TIP3    H130111   6.768   7.578   6.586
10056TIP3    H230112   6.775   7.696   6.491
10057TIP3   OH230113   2.291   7.747   1.684
10057TIP3    H130114   2.383   7.721   1.688
10057TIP3    H230115   2.245   7.668   1.655
10058TIP3   OH230116   0.504   7.622   1.399
10058TIP3    H130117   0.445   7.550   1.423
10058TIP3    H230118   0.446   7.689   1.363
10059TIP3   OH230119   0.881   3.394   1.025
10059TIP3    H130120   0.903   3.436   0.942
10059TIP3    H230121   0.940   3.434   1.089
10060TIP3   OH230122   4.210   7.811   4.872
10060TIP3    H130123   4.134   7.754   4.880
10060TIP3    H230124   4.272   7.761   4.819
10061TIP3   OH230125   6.171   3.775   0.108
10061TIP3    H130126   6.204   3.817   0.187
10061TIP3    H230127   6.165   3.682   0.131
10062TIP3   OH230128   4.586   4.641   4.391
10062TIP3    H130129   4.618   4.611   4.306
10062TIP3    H230130   4.556   4.731   4.374
10063TIP3   OH230131   1.291   6.242   2.712
10063TIP3    H130132   1.353   6.296   2.663
10063TIP3    H230133   1.221   6.303   2.737
10064TIP3   OH230134   4.398   0.635   4.069
10064TIP3    H130135   4.436   0.701   4.126
10064TIP3    H230136   4.415   0.668   3.980
10065TIP3   OH230137   1.029   6.539   2.303
10065TIP3    H130138   1.050   6.469   2.365
10065TIP3    H230139   1.091   6.609   2.324
10066TIP3   OH230140   2.955   4.908   3.384
10066TIP3    H130141   3.028   4.958   3.421
10066TIP3    H230142   2.942   4.836   3.445
10067TIP3   OH230143   8.088   4.900   4.426
10067TIP3    H130144   8.021   4.833   4.438
10067TIP3    H230145   8.171   4.855   4.444
10068TIP3   OH230146   1.188   1.752   0.935
10068TIP3    H130147   1.193   1.757   1.031
10068TIP3    H230148   1.191   1.844   0.907
10069TIP3   OH230149   3.090   0.012   1.338
10069TIP3    H130150   3.098   0.032   1.431
10069TIP3    H230151   2.999   0.031   1.317
10070TIP3   OH230152   0.172   2.442   6.142
10070TIP3    H130153   0.164   2.532   6.171
10070TIP3    H230154   0.259   2.414   6.170
10071TIP3   OH230155   0.055   4.743   2.804
10071TIP3    H130156   0.105   4.789   2.871
10071TIP3    H230157   0.002   4.680   2.853
10072TIP3   OH230158   0.393   6.411   4.838
10072TIP3    H130159   0.447   6.472   4.788
10072TIP3    H230160   0.427   6.325   4.814
10073TIP3   OH230161   1.924   4.414   5.102
10073TIP3    H130162   1.904   4.349   5.169
10073TIP3    H230163   2.006   4.383   5.062
10074TIP3   OH230164   2.280   5.428   5.692
10074TIP3    H130165   2.318   5.342   5.674
10074TIP3    H230166   2.328   5.458   5.769
10075TIP3   OH230167   2.909   1.689   5.697
10075TIP3    H130168   2.924   1.755   5.630
10075TIP3    H230169   2.816   1.699   5.720
10076TIP3   OH230170   0.048   3.391   4.221
10076TIP3    H130171  -0.015   3.440   4.274
10076TIP3    H230172   0.109   3.355   4.286
10077TIP3   OH230173   2.247   7.233   3.191
10077TIP3    H130174   2.285   7.174   3.126
10077TIP3    H230175   2.198   7.175   3.250
10078TIP3   OH230176   7.966   4.677   1.250
10078TIP3    H130177   7.938   4.639   1.167
10078TIP3    H230178   7.895   4.736   1.275
10079TIP3   OH230179   3.241   1.182   5.335
10079TIP3    H130180   3.336   1.168   5.335
10079TIP3    H230181   3.205   1.103   5.376
10080TIP3   OH230182   1.706   5.669   5.399
10080TIP3    H130183   1.680   5.624   5.319
10080TIP3    H230184   1.650   5.746   5.403
10081TIP3   OH230185   6.534   6.215   6.216
10081TIP3    H130186   6.580   6.133   6.199
10081TIP3    H230187   6.603   6.276   6.244
10082TIP3   OH230188   1.620   7.207   1.405
10082TIP3    H130189   1.714   7.191   1.410
10082TIP3    H230190   1.597   7.243   1.490
10083TIP3   OH230191   3.122   3.372   2.897
10083TIP3    H130192   3.126   3.445   2.835
10083TIP3    H230193   3.032   3.374   2.930
10084TIP3   OH230194   7.277   2.959   3.712
10084TIP3    H130195   7.356   2.992   3.756
10084TIP3    H230196   7.288   2.864   3.712
10085TIP3   OH230197   3.365   6.088   2.010
10085TIP3    H130198   3.340   6.163   1.957
10085TIP3    H230199   3.441   6.051   1.965
10086TIP3   OH230200   4.951   5.542   0.806
10086TIP3    H130201   4.873   5.587   0.775
10086TIP3    H230202   4.950   5.457   0.762
10087TIP3   OH230203   7.140   4.615   1.344
10087TIP3    H130204   7.166   4.594   1.434
10087TIP3    H230205   7.129   4.710   1.344
10088TIP3   OH230206   5.912   5.685   0.128
10088TIP3    H130207   5.974   5.627   0.085
10088TIP3    H230208   5.845   5.702   0.063
10089TIP3   OH230209   6.312   7.138   0.984
10089TIP3    H130210   6.366   7.149   1.062
10089TIP3    H230211   6.232   7.098   1.016
10090TIP3   OH230212   7.949   0.014   3.213
10090TIP3    H130213   8.014  -0.045   3.174
10090TIP3    H230214   7.923   0.072   3.141
10091TIP3   OH230215   2.419   5.703   1.108
10091TIP3    H130216   2.439   5.726   1.018
10091TIP3    H230217   2.326   5.682   1.108
10092TIP3   OH230218   6.055   3.096   3.044
10092TIP3    H130219   5.975   3.148   3.044
10092TIP3    H230220   6.035   3.021   3.099
10093TIP3   OH230221   6.103   1.897   0.754
10093TIP3    H130222   6.050   1.835   0.804
10093TIP3    H230223   6.039   1.951   0.707
10094TIP3   OH230224   4.742   7.370   4.307
10094TIP3    H130225   4.670   7.429   4.287
10094TIP3    H230226   4.708   7.312   4.375
10095TIP3   OH230227   5.612   6.946   0.368
10095TIP3    H130228   5.629   7.039   0.380
10095TIP3    H230229   5.576   6.917   0.453
10096TIP3   OH230230   3.819   2.484   4.506
10096TIP3    H130231   3.776   2.555   4.553
10096TIP3    H230232   3.907   2.517   4.487
10097TIP3   OH230233   5.632   7.811   2.448
10097TIP3    H130234   5.621   7.796   2.354
10097TIP3    H230235   5.700   7.750   2.474
10098TIP3   OH230236   0.756   7.262   1.964
10098TIP3    H130237   0.724   7.343   1.923
10098TIP3    H230238   0.736   7.193   1.901
10099TIP3   OH230239   5.080   7.601   5.814
10099TIP3    H130240   5.146   7.618   5.747
10099TIP3    H230241   5.128   7.604   5.897
10100TIP3   OH230242   5.973   0.680   4.477
10100TIP3    H130243   5.880   0.662   4.492
10100TIP3    H230244   6.017   0.596   4.493
10101TIP3   OH230245   7.637  -0.007   2.482
10101TIP3    H130246   7.551   0.020   2.450
10101TIP3    H230247   7.635   0.014   2.576
10102TIP3   OH230248   5.888   4.476   0.358
10102TIP3    H130249   5.792   4.470   0.362
10102TIP3    H230250   5.917   4.453   0.447
10103TIP3   OH230251   6.094   1.658   5.011
10103TIP3    H130252   6.161   1.717   5.046
10103TIP3    H230253   6.014   1.682   5.056
10104TIP3   OH230254   6.534   0.637   6.710
10104TIP3    H130255   6.557   0.707   6.649
10104TIP3    H230256   6.479   0.679   6.776
10105TIP3   OH230257   7.325   5.892   4.246
10105TIP3    H130258   7.345   5.839   4.169
10105TIP3    H230259   7.268   5.961   4.214
10106TIP3   OH230260   3.498   3.325   6.736
10106TIP3    H130261   3.467   3.328   6.827
10106TIP3    H230262   3.510   3.231   6.718
10107TIP3   OH230263   2.406   4.096   6.418
10107TIP3    H130264   2.388   4.042   6.341
10107TIP3    H230265   2.323   4.142   6.434
10108TIP3   OH230266   7.767   4.285   2.875
10108TIP3    H130267   7.785   4.357   2.815
10108TIP3    H230268   7.785   4.206   2.824
10109TIP3   OH230269   6.704   2.557   1.111
10109TIP3    H130270   6.705   2.642   1.155
10109TIP3    H230271   6.752   2.499   1.171
10110TIP3   OH230272   1.946   7.264   0.644
10110TIP3    H130273   2.010   7.203   0.608
10110TIP3    H230274   1.908   7.308   0.568
10111TIP3   OH230275   0.119   1.346   3.002
10111TIP3    H130276   0.050   1.386   2.950
10111TIP3    H230277   0.191   1.332   2.940
10112TIP3   OH230278   0.357   3.565   2.053
10112TIP3    H130279   0.347   3.590   2.145
10112TIP3    H230280   0.267   3.561   2.019
10113TIP3   OH230281   6.337   3.682   1.496
10113TIP3    H130282   6.306   3.606   1.544
10113TIP3    H230283   6.392   3.730   1.559
10114TIP3   OH230284   7.022   1.001   6.450
10114TIP3    H130285   7.050   0.934   6.513
10114TIP3    H230286   7.090   1.000   6.383
10115TIP3   OH230287   1.384   7.246   0.583
10115TIP3    H130288   1.380   7.177   0.516
10115TIP3    H230289   1.292   7.264   0.603
10116TIP3   OH230290   2.911   2.372   2.443
10116TIP3    H130291   2.989   2.353   2.391
10116TIP3    H230292   2.865   2.288   2.448
10117TIP3   OH230293   1.358   2.117   3.252
10117TIP3    H130294   1.438   2.160   3.225
10117TIP3    H230295   1.379   2.024   3.251
10118TIP3   OH230296   0.692   6.321   6.641
10118TIP3    H130297   0.779   6.322   6.681
10118TIP3    H230298   0.657   6.235   6.663
10119TIP3   OH230299   1.031   1.503   6.361
10119TIP3    H130300   1.038   1.448   6.439
10119TIP3    H230301   0.940   1.493   6.333
10120TIP3   OH230302   4.200   4.661   3.098
10120TIP3    H130303   4.207   4.587   3.158
10120TIP3    H230304   4.167   4.733   3.152
10121TIP3   OH230305   0.639   6.614   5.728
10121TIP3    H130306   0.683   6.601   5.644
10121TIP3    H230307   0.685   6.555   5.788
10122TIP3   OH230308   2.591   2.145   1.944
10122TIP3    H130309   2.638   2.183   1.870
10122TIP3    H230310   2.513   2.105   1.906
10123TIP3   OH230311   5.846   6.311   3.526
10123TIP3    H130312   5.786   6.302   3.600
10123TIP3    H230313   5.793   6.289   3.449
10124TIP3   OH230314   2.457   2.011   4.739
10124TIP3    H130315   2.387   2.066   4.703
10124TIP3    H230316   2.532   2.030   4.682
10125TIP3   OH230317   2.796   5.125   0.444
10125TIP3    H130318   2.702   5.137   0.463
10125TIP3    H230319   2.840   5.167   0.518
10126TIP3   OH230320   4.472   6.998   3.747
10126TIP3    H130321   4.458   6.903   3.756
10126TIP3    H230322   4.561   7.006   3.711
10127TIP3   OH230323   0.537   6.877   1.841
10127TIP3    H130324   0.545   6.783   1.822
10127TIP3    H230325   0.628   6.908   1.846
10128TIP3   OH230326   0.466   0.261   1.126
10128TIP3    H130327   0.433   0.219   1.205
10128TIP3    H230328   0.542   0.207   1.101
10129TIP3   OH230329   3.467   1.253   6.636
10129TIP3    H130330   3.555   1.246   6.600
10129TIP3    H230331   3.440   1.163   6.653
10130TIP3   OH230332   8.000   2.064   2.892
10130TIP3    H130333   8.080   2.015   2.877
10130TIP3    H230334   7.972   2.092   2.804
10131TIP3   OH230335   7.960   4.482   0.038
10131TIP3    H130336   7.912   4.563   0.020
10131TIP3    H230337   7.901   4.431   0.093
10132TIP3   OH230338   0.947   3.851   3.864
10132TIP3    H130339   0.861   3.854   3.823
10132TIP3    H230340   0.935   3.796   3.941
10133TIP3   OH230341   7.933   1.510   4.232
10133TIP3    H130342   7.949   1.520   4.325
10133TIP3    H230343   7.891   1.425   4.224
10134TIP3   OH230344   6.993   3.464   5.474
10134TIP3    H130345   7.068   3.418   5.513
10134TIP3    H230346   7.011   3.462   5.380
10135TIP3   OH230347   1.136   3.409   4.530
10135TIP3    H130348   1.208   3.378   4.585
10135TIP3    H230349   1.178   3.430   4.446
10136TIP3   OH230350   2.187   2.645   5.875
10136TIP3    H130351   2.255   2.701   5.836
10136TIP3    H230352   2.216   2.631   5.965
10137TIP3   OH230353   8.190   5.547   3.404
10137TIP3    H130354   8.254   5.567   3.336
10137TIP3    H230355   8.161   5.458   3.384
10138TIP3   OH230356   2.206   4.349   4.460
10138TIP3    H130357   2.294   4.382   4.444
10138TIP3    H230358   2.171   4.405   4.529
10139TIP3   OH230359   1.866   2.580   5.088
10139TIP3    H130360   1.957   2.607   5.095
10139TIP3    H230361   1.870   2.492   5.049
10140TIP3   OH230362   6.653   0.060   6.242
10140TIP3    H130363   6.704   0.054   6.323
10140TIP3    H230364   6.692  -0.006   6.185
10141TIP3   OH230365   5.209   6.413   2.867
10141TIP3    H130366   5.253   6.486   2.911
10141TIP3    H230367   5.117   6.421   2.894
10142TIP3   OH230368   7.754   5.395   6.061
10142TIP3    H130369   7.703   5.315   6.076
10142TIP3    H230370   7.702   5.465   6.100
10143TIP3   OH230371   7.575   0.098   2.734
10143TIP3    H130372   7.636   0.160   2.774
10143TIP3    H230373   7.489   0.127   2.763
10144TIP3   OH230374   6.122   2.665   3.903
10144TIP3    H130375   6.171   2.677   3.984
10144TIP3    H230376   6.032   2.647   3.931
10145TIP3   OH230377   7.309   5.169   0.796
10145TIP3    H130378   7.385   5.114   0.814
10145TIP3    H230379   7.236   5.121   0.835
10146TIP3   OH230380   8.097   6.638   1.616
10146TIP3    H130381   8.149   6.697   1.561
10146TIP3    H230382   8.011   6.636   1.574
10147TIP3   OH230383   3.813   2.713   2.533
10147TIP3    H130384   3.884   2.747   2.588
10147TIP3    H230385   3.843   2.727   2.443
10148TIP3   OH230386   0.096   3.752   2.823
10148TIP3    H130387   0.060   3.664   2.827
10148TIP3    H230388   0.050   3.801   2.891
10149TIP3   OH230389   5.054   1.494   0.949
10149TIP3    H130390   5.003   1.477   1.028
10149TIP3    H230391   5.036   1.419   0.892
10150TIP3   OH230392   6.148   7.180   6.323
10150TIP3    H130393   6.091   7.181   6.246
10150TIP3    H230394   6.172   7.272   6.337
10151TIP3   OH230395   7.553   4.485   5.320
10151TIP3    H130396   7.634   4.436   5.335
10151TIP3    H230397   7.544   4.487   5.225
10152TIP3   OH230398   5.252   4.092   3.737
10152TIP3    H130399   5.253   4.063   3.645
10152TIP3    H230400   5.280   4.183   3.733
10153TIP3   OH230401   5.035   4.973   0.893
10153TIP3    H130402   4.980   5.000   0.966
10153TIP3    H230403   4.973   4.949   0.824
10154TIP3   OH230404   2.893   1.524   5.356
10154TIP3    H130405   2.934   1.600   5.313
10154TIP3    H230406   2.951   1.504   5.429
10155TIP3   OH230407   7.014   5.970   0.507
10155TIP3    H130408   6.965   5.974   0.425
10155TIP3    H230409   7.046   5.879   0.511
10156TIP3   OH230410   7.019   6.593   2.874
10156TIP3    H130411   6.932   6.558   2.891
10156TIP3    H230412   7.066   6.580   2.956
10157TIP3   OH230413   3.860   7.409   3.252
10157TIP3    H130414   3.917   7.373   3.320
10157TIP3    H230415   3.775   7.420   3.295
10158TIP3   OH230416   0.141   7.565   1.286
10158TIP3    H130417   0.197   7.488   1.297
10158TIP3    H230418   0.186   7.634   1.335
10159TIP3   OH230419   3.561   5.816   2.045
10159TIP3    H130420   3.535   5.724   2.054
10159TIP3    H230421   3.520   5.860   2.119
10160TIP3   OH230422   4.632   7.659   4.572
10160TIP3    H130423   4.691   7.589   4.542
10160TIP3    H230424   4.690   7.723   4.614
10161TIP3   OH230425   3.110   6.191   2.459
10161TIP3    H130426   3.119   6.097   2.477
10161TIP3    H230427   3.062   6.194   2.376
10162TIP3   OH230428   7.555   6.187   4.916
10162TIP3    H130429   7.468   6.161   4.945
10162TIP3    H230430   7.543   6.217   4.826
10163TIP3   OH230431   7.501   0.784   1.144
10163TIP3    H130432   7.547   0.706   1.112
10163TIP3    H230433   7.528   0.792   1.235
10164TIP3   OH230434   5.091   0.426   0.789
10164TIP3    H130435   5.109   0.416   0.695
10164TIP3    H230436   5.143   0.358   0.831
10165TIP3   OH230437   6.753   0.541   1.619
10165TIP3    H130438   6.710   0.456   1.629
10165TIP3    H230439   6.729   0.569   1.530
10166TIP3   OH230440   2.303   3.446   2.911
10166TIP3    H130441   2.248   3.414   2.983
10166TIP3    H230442   2.274   3.397   2.834
10167TIP3   OH230443   2.843   5.286   3.738
10167TIP3    H130444   2.792   5.242   3.806
10167TIP3    H230445   2.790   5.363   3.715
10168TIP3   OH230446   3.178   4.758   0.587
10168TIP3    H130447   3.237   4.802   0.649
10168TIP3    H230448   3.198   4.797   0.502
10169TIP3   OH230449   5.484   3.834   5.981
10169TIP3    H130450   5.466   3.752   6.027
10169TIP3    H230451   5.401   3.857   5.939
10170TIP3   OH230452   4.908   3.215   4.276
10170TIP3    H130453   4.869   3.287   4.226
10170TIP3    H230454   4.990   3.196   4.230
10171TIP3   OH230455   3.809   0.969   2.143
10171TIP3    H130456   3.869   0.949   2.071
10171TIP3    H230457   3.732   0.915   2.126
10172TIP3   OH230458   7.463   6.503   6.026
10172TIP3    H130459   7.396   6.553   6.071
10172TIP3    H230460   7.494   6.561   5.957
10173TIP3   OH230461   3.610   7.540   1.053
10173TIP3    H130462   3.667   7.514   1.126
10173TIP3    H230463   3.566   7.618   1.085
10174TIP3   OH230464   4.938   7.024   2.161
10174TIP3    H130465   4.943   7.025   2.066
10174TIP3    H230466   5.004   7.086   2.190
10175TIP3   OH230467   4.960   4.900   6.070
10175TIP3    H130468   4.883   4.850   6.098
10175TIP3    H230469   5.008   4.840   6.014
10176TIP3   OH230470   2.913   2.364   6.127
10176TIP3    H130471   2.886   2.273   6.138
10176TIP3    H230472   2.846   2.414   6.173
10177TIP3   OH230473   4.746   0.561   4.079
10177TIP3    H130474   4.737   0.596   4.168
10177TIP3    H230475   4.788   0.476   4.091
10178TIP3   OH230476   7.308   5.459   0.364
10178TIP3    H130477   7.370   5.430   0.431
10178TIP3    H230478   7.222   5.432   0.399
10179TIP3   OH230479   6.791   5.287   2.948
10179TIP3    H130480   6.808   5.219   3.013
10179TIP3    H230481   6.874   5.298   2.902
10180TIP3   OH230482   8.202   0.534   4.616
10180TIP3    H130483   8.201   0.615   4.668
10180TIP3    H230484   8.137   0.548   4.548
10181TIP3   OH230485   6.690   7.790   1.713
10181TIP3    H130486   6.653   7.762   1.629
10181TIP3    H230487   6.638   7.866   1.738
10182TIP3   OH230488   5.403   7.487   0.590
10182TIP3    H130489   5.358   7.421   0.538
10182TIP3    H230490   5.418   7.445   0.675
10183TIP3   OH230491   0.708   0.587   0.700
10183TIP3    H130492   0.669   0.544   0.776
10183TIP3    H230493   0.749   0.516   0.650
10184TIP3   OH230494   3.471   0.420   3.063
10184TIP3    H130495   3.510   0.506   3.047
10184TIP3    H230496   3.418   0.403   2.985
10185TIP3   OH230497   5.009   1.034   4.471
10185TIP3    H130498   5.073   0.976   4.511
10185TIP3    H230499   5.044   1.122   4.485
10186TIP3   OH230500   6.409   4.898   1.345
10186TIP3    H130501   6.421   4.867   1.434
10186TIP3    H230502   6.315   4.888   1.328
10187TIP3   OH230503   1.410   5.976   5.045
10187TIP3    H130504   1.502   6.004   5.043
10187TIP3    H230505   1.414   5.883   5.066
10188TIP3   OH230506   1.224   6.353   0.578
10188TIP3    H130507   1.162   6.358   0.651
10188TIP3    H230508   1.188   6.285   0.521
10189TIP3   OH230509   1.348   3.537   3.111
10189TIP3    H130510   1.354   3.524   3.205
10189TIP3    H230511   1.277   3.601   3.100
10190TIP3   OH230512   0.806   3.663   3.401
10190TIP3    H130513   0.868   3.591   3.389
10190TIP3    H230514   0.774   3.653   3.490
10191TIP3   OH230515   8.137   4.678   1.947
10191TIP3    H130516   8.045   4.656   1.937
10191TIP3    H230517   8.184   4.605   1.907
10192TIP3   OH230518   2.666   7.031   3.825
10192TIP3    H130519   2.570   7.027   3.820
10192TIP3    H230520   2.693   7.068   3.741
10193TIP3   OH230521   6.869   2.100   1.183
10193TIP3    H130522   6.894   2.080   1.274
10193TIP3    H230523   6.775   2.081   1.179
10194TIP3   OH230524   5.630   2.717   2.080
10194TIP3    H130525   5.610   2.704   1.987
10194TIP3    H230526   5.598   2.805   2.099
10195TIP3   OH230527   6.838   5.019   3.091
10195TIP3    H130528   6.810   5.028   3.182
10195TIP3    H230529   6.775   4.958   3.053
10196TIP3   OH230530   0.857   4.378   0.997
10196TIP3    H130531   0.771   4.412   0.970
10196TIP3    H230532   0.896   4.450   1.046
10197TIP3   OH230533   6.624   5.439   6.529
10197TIP3    H130534   6.553   5.500   6.547
10197TIP3    H230535   6.580   5.354   6.518
10198TIP3   OH230536   1.679   2.249   2.689
10198TIP3    H130537   1.591   2.284   2.698
10198TIP3    H230538   1.676   2.196   2.609
10199TIP3   OH230539   4.963   7.363   0.033
10199TIP3    H130540   4.969   7.279   0.079
10199TIP3    H230541   5.055   7.389   0.021
10200TIP3   OH230542   5.988   0.249   2.463
10200TIP3    H130543   5.986   0.235   2.369
10200TIP3    H230544   6.081   0.263   2.483
10201TIP3   OH230545   6.314   7.788   6.588
10201TIP3    H130546   6.349   7.716   6.536
10201TIP3    H230547   6.275   7.746   6.665
10202TIP3   OH230548   1.048   0.992   6.742
10202TIP3    H130549   1.065   1.041   6.662
10202TIP3    H230550   1.135   0.963   6.772
10203TIP3   OH230551   1.953   6.530   4.423
10203TIP3    H130552   1.862   6.550   4.401
10203TIP3    H230553   1.978   6.461   4.363
10204TIP3   OH230554   6.680   3.845   4.193
10204TIP3    H130555   6.675   3.941   4.195
10204TIP3    H230556   6.685   3.824   4.100
10205TIP3   OH230557   5.798   7.485   4.012
10205TIP3    H130558   5.833   7.460   4.097
10205TIP3    H230559   5.871   7.529   3.968
10206TIP3   OH230560   3.445   0.894   1.123
10206TIP3    H130561   3.434   0.891   1.028
10206TIP3    H230562   3.356   0.896   1.158
10207TIP3   OH230563   2.645   2.756   3.205
10207TIP3    H130564   2.682   2.738   3.119
10207TIP3    H230565   2.685   2.839   3.232
10208TIP3   OH230566   7.587   2.506   0.541
10208TIP3    H130567   7.514   2.494   0.480
10208TIP3    H230568   7.640   2.576   0.501
10209TIP3   OH230569   6.529   3.586   4.877
10209TIP3    H130570   6.508   3.583   4.970
10209TIP3    H230571   6.619   3.620   4.874
10210TIP3   OH230572   8.141   2.202   3.332
10210TIP3    H130573   8.206   2.255   3.287
10210TIP3    H230574   8.179   2.114   3.335
10211TIP3   OH230575   1.338   1.241   2.670
10211TIP3    H130576   1.332   1.236   2.766
10211TIP3    H230577   1.313   1.154   2.639
10212TIP3   OH230578   3.272   1.647   1.522
10212TIP3    H130579   3.306   1.634   1.434
10212TIP3    H230580   3.193   1.593   1.526
10213TIP3   OH230581   4.811   7.055   5.190
10213TIP3    H130582   4.833   6.964   5.173
10213TIP3    H230583   4.717   7.053   5.212
10214TIP3   OH230584   5.184   4.548   0.637
10214TIP3    H130585   5.187   4.453   0.649
10214TIP3    H230586   5.270   4.578   0.665
10215TIP3   OH230587   5.397   3.983   4.332
10215TIP3    H130588   5.324   3.923   4.319
10215TIP3    H230589   5.399   4.036   4.251
10216TIP3   OH230590   7.892   2.170   0.366
10216TIP3    H130591   7.838   2.186   0.288
10216TIP3    H230592   7.921   2.257   0.394
10217TIP3   OH230593   1.761   3.811   5.951
10217TIP3    H130594   1.757   3.825   5.856
10217TIP3    H230595   1.789   3.895   5.987
10218TIP3   OH230596   5.225   1.897   4.492
10218TIP3    H130597   5.187   1.982   4.471
10218TIP3    H230598   5.316   1.915   4.514
10219TIP3   OH230599   8.270   7.559   2.065
10219TIP3    H130600   8.282   7.599   2.151
10219TIP3    H230601   8.193   7.603   2.029
10220TIP3   OH230602   6.862   7.416   4.626
10220TIP3    H130603   6.814   7.347   4.673
10220TIP3    H230604   6.949   7.379   4.614
10221TIP3   OH230605   5.119   6.136   5.315
10221TIP3    H130606   5.103   6.127   5.409
10221TIP3    H230607   5.214   6.146   5.307
10222TIP3   OH230608   3.871   4.631   0.595
10222TIP3    H130609   3.824   4.591   0.521
10222TIP3    H230610   3.958   4.591   0.592
10223TIP3   OH230611   8.222   6.159   6.156
10223TIP3    H130612   8.278   6.235   6.166
10223TIP3    H230613   8.282   6.086   6.138
10224TIP3   OH230614   8.112   6.044   6.662
10224TIP3    H130615   8.137   6.079   6.577
10224TIP3    H230616   8.187   5.992   6.690
10225TIP3   OH230617   4.880   2.374   5.540
10225TIP3    H130618   4.890   2.369   5.635
10225TIP3    H230619   4.898   2.285   5.509
10226TIP3   OH230620   3.129   7.333   4.620
10226TIP3    H130621   3.047   7.319   4.574
10226TIP3    H230622   3.138   7.429   4.625
10227TIP3   OH230623   7.960   7.242   2.409
10227TIP3    H130624   7.962   7.182   2.334
10227TIP3    H230625   7.922   7.323   2.374
10228TIP3   OH230626   3.027   0.652   4.138
10228TIP3    H130627   3.030   0.605   4.054
10228TIP3    H230628   3.106   0.706   4.138
10229TIP3   OH230629   7.715   1.415   6.405
10229TIP3    H130630   7.788   1.467   6.373
10229TIP3    H230631   7.723   1.331   6.359
10230TIP3   OH230632   4.646   2.017   4.568
10230TIP3    H130633   4.649   1.922   4.569
10230TIP3    H230634   4.581   2.039   4.502
10231TIP3   OH230635   1.250   4.653   5.573
10231TIP3    H130636   1.344   4.644   5.559
10231TIP3    H230637   1.210   4.620   5.492
10232TIP3   OH230638   0.587   7.453   4.565
10232TIP3    H130639   0.500   7.445   4.602
10232TIP3    H230640   0.604   7.547   4.563
10233TIP3   OH230641   6.678   1.165   0.231
10233TIP3    H130642   6.704   1.254   0.256
10233TIP3    H230643   6.689   1.114   0.311
10234TIP3   OH230644   2.656   1.442   5.993
10234TIP3    H130645   2.731   1.398   6.033
10234TIP3    H230646   2.619   1.377   5.933
10235TIP3   OH230647   1.629   5.311   0.233
10235TIP3    H130648   1.715   5.316   0.191
10235TIP3    H230649   1.574   5.370   0.182
10236TIP3   OH230650   1.393   1.951   2.303
10236TIP3    H130651   1.453   1.903   2.247
10236TIP3    H230652   1.319   1.891   2.316
10237TIP3   OH230653   5.321   3.432   3.382
10237TIP3    H130654   5.395   3.385   3.422
10237TIP3    H230655   5.362   3.489   3.317
10238TIP3   OH230656   3.077   0.495   0.300
10238TIP3    H130657   3.147   0.505   0.236
10238TIP3    H230658   3.100   0.416   0.350
10239TIP3   OH230659   0.791   6.431   4.763
10239TIP3    H130660   0.769   6.345   4.799
10239TIP3    H230661   0.851   6.469   4.827
10240TIP3   OH230662   7.183   4.465   6.349
10240TIP3    H130663   7.108   4.505   6.393
10240TIP3    H230664   7.154   4.376   6.328
10241TIP3   OH230665   3.349   2.923   3.238
10241TIP3    H130666   3.427   2.881   3.275
10241TIP3    H230667   3.304   2.961   3.314
10242TIP3   OH230668   0.127   4.883   3.044
10242TIP3    H130669   0.190   4.835   3.098
10242TIP3    H230670   0.053   4.900   3.103
10243TIP3   OH230671   7.226   3.756   6.249
10243TIP3    H130672   7.249   3.761   6.342
10243TIP3    H230673   7.271   3.677   6.217
10244TIP3   OH230674   8.182   6.824   6.440
10244TIP3    H130675   8.267   6.815   6.397
10244TIP3    H230676   8.184   6.912   6.479
10245TIP3   OH230677   2.683   5.413   0.493
10245TIP3    H130678   2.758   5.442   0.442
10245TIP3    H230679   2.609   5.418   0.432
10246TIP3   OH230680   6.724   0.019   2.799
10246TIP3    H130681   6.665   0.014   2.874
10246TIP3    H230682   6.803  -0.026   2.828
10247TIP3   OH230683   2.607   3.640   4.141
10247TIP3    H130684   2.682   3.581   4.150
10247TIP3    H230685   2.620   3.683   4.057
10248TIP3   OH230686   6.592   0.230   1.264
10248TIP3    H130687   6.666   0.286   1.290
10248TIP3    H230688   6.574   0.255   1.173
10249TIP3   OH230689   2.021   0.017   4.503
10249TIP3    H130690   1.930   0.043   4.506
10249TIP3    H230691   2.062   0.079   4.443
10250TIP3   OH230692   2.333   6.894   2.520
10250TIP3    H130693   2.411   6.838   2.514
10250TIP3    H230694   2.262   6.840   2.483
10251TIP3   OH230695   2.935   7.366   5.254
10251TIP3    H130696   2.928   7.272   5.272
10251TIP3    H230697   3.024   7.389   5.281
10252TIP3   OH230698   3.976   3.124   3.362
10252TIP3    H130699   3.995   3.030   3.360
10252TIP3    H230700   3.904   3.135   3.300
10253TIP3   OH230701   3.130   7.313   0.346
10253TIP3    H130702   3.129   7.374   0.420
10253TIP3    H230703   3.118   7.226   0.386
10254TIP3   OH230704   4.031   2.851   0.339
10254TIP3    H130705   4.109   2.899   0.366
10254TIP3    H230706   3.959   2.913   0.351
10255TIP3   OH230707   6.022   4.331   2.883
10255TIP3    H130708   6.078   4.255   2.868
10255TIP3    H230709   5.935   4.304   2.852
10256TIP3   OH230710   3.714   1.634   0.530
10256TIP3    H130711   3.771   1.581   0.475
10256TIP3    H230712   3.728   1.601   0.619
10257TIP3   OH230713   7.119   7.792   1.493
10257TIP3    H130714   7.107   7.884   1.518
10257TIP3    H230715   7.138   7.747   1.576
10258TIP3   OH230716   0.258   7.390   5.494
10258TIP3    H130717   0.185   7.370   5.552
10258TIP3    H230718   0.311   7.452   5.544
10259TIP3   OH230719   8.059   7.203   4.577
10259TIP3    H130720   8.016   7.127   4.616
10259TIP3    H230721   8.114   7.166   4.508
10260TIP3   OH230722   2.097   3.767   4.032
10260TIP3    H130723   2.177   3.795   3.987
10260TIP3    H230724   2.060   3.847   4.068
10261TIP3   OH230725   6.994   0.647   6.445
10261TIP3    H130726   6.959   0.591   6.514
10261TIP3    H230727   6.926   0.712   6.429
10262TIP3   OH230728   3.008   1.027   2.743
10262TIP3    H130729   3.093   1.067   2.727
10262TIP3    H230730   2.967   1.084   2.808
10263TIP3   OH230731   5.139   4.591   6.732
10263TIP3    H130732   5.182   4.619   6.651
10263TIP3    H230733   5.202   4.533   6.774
10264TIP3   OH230734   0.641   1.778   1.235
10264TIP3    H130735   0.564   1.738   1.194
10264TIP3    H230736   0.666   1.716   1.304
10265TIP3   OH230737   0.744   2.520   1.019
10265TIP3    H130738   0.835   2.546   1.035
10265TIP3    H230739   0.729   2.446   1.077
10266TIP3   OH230740   5.259   6.962   0.557
10266TIP3    H130741   5.216   6.886   0.517
10266TIP3    H230742   5.194   6.997   0.619
10267TIP3   OH230743   2.713   3.476   0.624
10267TIP3    H130744   2.665   3.393   0.627
10267TIP3    H230745   2.800   3.456   0.657
10268TIP3   OH230746   6.116   0.495   3.405
10268TIP3    H130747   6.189   0.532   3.354
10268TIP3    H230748   6.069   0.441   3.342
10269TIP3   OH230749   0.883  -0.026   2.000
10269TIP3    H130750   0.835   0.055   1.984
10269TIP3    H230751   0.974   0.002   2.012
10270TIP3   OH230752   4.217   6.376   4.012
10270TIP3    H130753   4.250   6.331   3.934
10270TIP3    H230754   4.212   6.468   3.986
10271TIP3   OH230755   1.209   7.058   3.880
10271TIP3    H130756   1.142   7.125   3.864
10271TIP3    H230757   1.285   7.087   3.830
10272TIP3   OH230758   5.854   1.873   3.821
10272TIP3    H130759   5.872   1.859   3.914
10272TIP3    H230760   5.916   1.816   3.775
10273TIP3   OH230761   3.895   5.939   1.796
10273TIP3    H130762   3.945   5.915   1.875
10273TIP3    H230763   3.951   5.911   1.724
10274TIP3   OH230764   2.938   3.170   4.786
10274TIP3    H130765   3.017   3.169   4.733
10274TIP3    H230766   2.874   3.121   4.734
10275TIP3   OH230767   8.124   7.674   5.968
10275TIP3    H130768   8.034   7.703   5.979
10275TIP3    H230769   8.176   7.742   6.011
10276TIP3   OH230770   7.758   4.218   5.352
10276TIP3    H130771   7.751   4.150   5.285
10276TIP3    H230772   7.835   4.269   5.325
10277TIP3   OH230773   4.133   3.324   4.124
10277TIP3    H130774   4.167   3.404   4.165
10277TIP3    H230775   4.198   3.257   4.146
10278TIP3   OH230776   7.792   7.815   1.963
10278TIP3    H130777   7.703   7.830   1.997
10278TIP3    H230778   7.788   7.729   1.923
10279TIP3   OH230779   0.274   6.211   1.135
10279TIP3    H130780   0.288   6.124   1.098
10279TIP3    H230781   0.194   6.202   1.187
10280TIP3   OH230782   7.343   6.701   0.581
10280TIP3    H130783   7.360   6.762   0.653
10280TIP3    H230784   7.258   6.729   0.546
10281TIP3   OH230785   1.758   1.863   4.657
10281TIP3    H130786   1.829   1.863   4.721
10281TIP3    H230787   1.709   1.943   4.675
10282TIP3   OH230788   3.730   1.978   4.339
10282TIP3    H130789   3.703   1.905   4.395
10282TIP3    H230790   3.661   1.984   4.273
10283TIP3   OH230791   6.300   3.638   3.410
10283TIP3    H130792   6.280   3.550   3.443
10283TIP3    H230793   6.394   3.635   3.390
10284TIP3   OH230794   7.664   2.788   6.142
10284TIP3    H130795   7.654   2.710   6.087
10284TIP3    H230796   7.663   2.754   6.231
10285TIP3   OH230797   5.129   5.557   1.027
10285TIP3    H130798   5.120   5.486   1.091
10285TIP3    H230799   5.046   5.557   0.979
10286TIP3   OH230800   2.609   7.523   0.375
10286TIP3    H130801   2.564   7.599   0.337
10286TIP3    H230802   2.674   7.498   0.309
10287TIP3   OH230803   1.611   1.514   2.235
10287TIP3    H130804   1.686   1.573   2.243
10287TIP3    H230805   1.542   1.570   2.198
10288TIP3   OH230806   1.758   0.172   4.485
10288TIP3    H130807   1.670   0.178   4.448
10288TIP3    H230808   1.748   0.200   4.576
10289TIP3   OH230809   4.499   0.589   0.134
10289TIP3    H130810   4.476   0.627   0.219
10289TIP3    H230811   4.581   0.543   0.150
10290TIP3   OH230812   6.614   5.435   1.591
10290TIP3    H130813   6.657   5.520   1.585
10290TIP3    H230814   6.680   5.377   1.630
10291TIP3   OH230815   2.903   5.298   0.188
10291TIP3    H130816   2.962   5.237   0.144
10291TIP3    H230817   2.952   5.327   0.265
10292TIP3   OH230818   0.065   2.217   5.070
10292TIP3    H130819   0.027   2.293   5.113
10292TIP3    H230820   0.108   2.169   5.141
10293TIP3   OH230821   4.969   5.624   4.933
10293TIP3    H130822   5.063   5.631   4.916
10293TIP3    H230823   4.943   5.541   4.894
10294TIP3   OH230824   7.745   6.513   3.323
10294TIP3    H130825   7.663   6.472   3.294
10294TIP3    H230826   7.752   6.489   3.416
10295TIP3   OH230827   6.234   3.331   3.414
10295TIP3    H130828   6.231   3.250   3.465
10295TIP3    H230829   6.295   3.312   3.343
10296TIP3   OH230830   2.952   5.613   6.469
10296TIP3    H130831   2.864   5.644   6.491
10296TIP3    H230832   2.952   5.521   6.495
10297TIP3   OH230833   0.173   0.594   1.631
10297TIP3    H130834   0.131   0.579   1.546
10297TIP3    H230835   0.117   0.550   1.694
10298TIP3   OH230836   1.564   6.417   2.875
10298TIP3    H130837   1.593   6.327   2.858
10298TIP3    H230838   1.552   6.420   2.970
10299TIP3   OH230839   7.932   1.096   2.153
10299TIP3    H130840   7.877   1.029   2.113
10299TIP3    H230841   7.987   1.129   2.082
10300TIP3   OH230842   3.671   3.324   4.052
10300TIP3    H130843   3.672   3.234   4.020
10300TIP3    H230844   3.761   3.355   4.041
10301TIP3   OH230845   3.765   1.439   0.738
10301TIP3    H130846   3.860   1.427   0.740
10301TIP3    H230847   3.739   1.443   0.830
10302TIP3   OH230848   5.719   4.416   3.307
10302TIP3    H130849   5.629   4.408   3.341
10302TIP3    H230850   5.718   4.367   3.225
10303TIP3   OH230851   0.446   1.455   6.265
10303TIP3    H130852   0.484   1.457   6.353
10303TIP3    H230853   0.509   1.404   6.213
10304TIP3   OH230854   0.416   4.642   3.631
10304TIP3    H130855   0.337   4.660   3.579
10304TIP3    H230856   0.442   4.728   3.664
10305TIP3   OH230857   1.506   4.649   0.075
10305TIP3    H130858   1.537   4.577   0.129
10305TIP3    H230859   1.423   4.617   0.038
10306TIP3   OH230860   1.963   7.421   2.866
10306TIP3    H130861   1.905   7.475   2.812
10306TIP3    H230862   2.041   7.476   2.879
10307TIP3   OH230863   6.122   0.354   2.757
10307TIP3    H130864   6.194   0.367   2.696
10307TIP3    H230865   6.068   0.286   2.716
10308TIP3   OH230866   5.499   5.856   1.969
10308TIP3    H130867   5.591   5.876   1.952
10308TIP3    H230868   5.451   5.914   1.909
10309TIP3   OH230869   0.710   2.877   5.511
10309TIP3    H130870   0.776   2.817   5.546
10309TIP3    H230871   0.675   2.921   5.589
10310TIP3   OH230872   0.251   4.258   4.509
10310TIP3    H130873   0.195   4.189   4.546
10310TIP3    H230874   0.335   4.214   4.494
10311TIP3   OH230875   7.355   1.837   1.891
10311TIP3    H130876   7.404   1.802   1.817
10311TIP3    H230877   7.297   1.903   1.853
10312TIP3   OH230878   4.984   2.916   1.007
10312TIP3    H130879   5.004   3.001   1.046
10312TIP3    H230880   4.903   2.931   0.957
10313TIP3   OH230881   5.484   4.679   3.343
10313TIP3    H130882   5.408   4.678   3.284
10313TIP3    H230883   5.514   4.770   3.341
10314TIP3   OH230884   2.078   1.370   0.756
10314TIP3    H130885   2.117   1.350   0.841
10314TIP3    H230886   1.984   1.368   0.771
10315TIP3   OH230887   2.825   1.792   3.255
10315TIP3    H130888   2.816   1.882   3.287
10315TIP3    H230889   2.910   1.792   3.209
10316TIP3   OH230890   2.428   0.709   3.510
10316TIP3    H130891   2.417   0.757   3.592
10316TIP3    H230892   2.340   0.680   3.487
10317TIP3   OH230893   3.206   4.471   2.845
10317TIP3    H130894   3.274   4.405   2.826
10317TIP3    H230895   3.224   4.499   2.935
10318TIP3   OH230896   5.691   0.542   1.713
10318TIP3    H130897   5.754   0.555   1.784
10318TIP3    H230898   5.698   0.449   1.692
10319TIP3   OH230899   4.856   4.321   1.998
10319TIP3    H130900   4.829   4.412   1.990
10319TIP3    H230901   4.922   4.310   1.930
10320TIP3   OH230902   6.093   7.263   3.084
10320TIP3    H130903   6.188   7.268   3.076
10320TIP3    H230904   6.061   7.272   2.994
10321TIP3   OH230905   5.079   1.863   1.258
10321TIP3    H130906   5.144   1.866   1.328
10321TIP3    H230907   5.105   1.934   1.198
10322TIP3   OH230908   5.772   3.146   5.121
10322TIP3    H130909   5.722   3.103   5.052
10322TIP3    H230910   5.706   3.175   5.184
10323TIP3   OH230911   3.797   5.114   0.345
10323TIP3    H130912   3.854   5.167   0.289
10323TIP3    H230913   3.842   5.030   0.354
10324TIP3   OH230914   0.444   0.352   4.039
10324TIP3    H130915   0.354   0.383   4.031
10324TIP3    H230916   0.437   0.268   4.085
10325TIP3   OH230917   3.407   1.297   3.986
10325TIP3    H130918   3.374   1.243   3.914
10325TIP3    H230919   3.499   1.312   3.965
10326TIP3   OH230920   3.154   2.913   0.571
10326TIP3    H130921   3.230   2.927   0.515
10326TIP3    H230922   3.183   2.939   0.659
10327TIP3   OH230923   6.553   5.772   5.752
10327TIP3    H130924   6.498   5.845   5.726
10327TIP3    H230925   6.494   5.697   5.754
10328TIP3   OH230926   0.109   7.695   2.770
10328TIP3    H130927   0.192   7.686   2.816
10328TIP3    H230928   0.071   7.608   2.769
10329TIP3   OH230929   7.414   7.409   5.111
10329TIP3    H130930   7.379   7.384   5.026
10329TIP3    H230931   7.482   7.344   5.129
10330TIP3   OH230932   0.860   2.746   4.281
10330TIP3    H130933   0.824   2.736   4.193
10330TIP3    H230934   0.953   2.764   4.267
10331TIP3   OH230935   1.160   0.195   2.836
10331TIP3    H130936   1.249   0.212   2.804
10331TIP3    H230937   1.153   0.100   2.838
10332TIP3   OH230938   1.604   0.952   3.190
10332TIP3    H130939   1.630   0.860   3.181
10332TIP3    H230940   1.672   1.001   3.144
10333TIP3   OH230941   3.001   4.400   1.425
10333TIP3    H130942   2.936   4.367   1.487
10333TIP3    H230943   3.034   4.322   1.381
10334TIP3   OH230944   3.215   5.846   4.419
10334TIP3    H130945   3.271   5.910   4.375
10334TIP3    H230946   3.161   5.808   4.349
10335TIP3   OH230947   2.066   5.335   1.219
10335TIP3    H130948   2.039   5.306   1.132
10335TIP3    H230949   1.987   5.325   1.273
10336TIP3   OH230950   4.207   2.377   3.190
10336TIP3    H130951   4.204   2.284   3.165
10336TIP3    H230952   4.159   2.381   3.272
10337TIP3   OH230953   2.184   4.580   2.574
10337TIP3    H130954   2.155   4.587   2.665
10337TIP3    H230955   2.222   4.665   2.554
10338TIP3   OH230956   3.104   0.727   5.894
10338TIP3    H130957   3.128   0.642   5.857
10338TIP3    H230958   3.039   0.763   5.833
10339TIP3   OH230959   3.039   3.294   0.082
10339TIP3    H130960   3.026   3.204   0.112
10339TIP3    H230961   3.113   3.289   0.022
10340TIP3   OH230962   2.917   0.252   0.593
10340TIP3    H130963   2.973   0.268   0.669
10340TIP3    H230964   2.978   0.232   0.521
10341TIP3   OH230965   7.193   3.886   5.575
10341TIP3    H130966   7.202   3.980   5.587
10341TIP3    H230967   7.183   3.851   5.663
10342TIP3   OH230968   2.192   3.209   4.336
10342TIP3    H130969   2.163   3.135   4.281
10342TIP3    H230970   2.268   3.244   4.290
10343TIP3   OH230971   3.689   4.451   4.230
10343TIP3    H130972   3.765   4.469   4.286
10343TIP3    H230973   3.613   4.466   4.286
10344TIP3   OH230974   1.506   5.407   6.415
10344TIP3    H130975   1.598   5.430   6.405
10344TIP3    H230976   1.470   5.475   6.473
10345TIP3   OH230977   2.441   0.972   4.403
10345TIP3    H130978   2.532   0.998   4.390
10345TIP3    H230979   2.399   1.048   4.444
10346TIP3   OH230980   4.003   2.673   4.355
10346TIP3    H130981   4.070   2.613   4.322
10346TIP3    H230982   4.046   2.758   4.360
10347TIP3   OH230983   6.383   1.137   3.728
10347TIP3    H130984   6.429   1.093   3.799
10347TIP3    H230985   6.291   1.112   3.740
10348TIP3   OH230986   5.263   4.362   1.972
10348TIP3    H130987   5.341   4.411   1.944
10348TIP3    H230988   5.282   4.335   2.062
10349TIP3   OH230989   1.390   3.063   0.439
10349TIP3    H130990   1.432   2.991   0.392
10349TIP3    H230991   1.446   3.076   0.516
10350TIP3   OH230992   7.000   6.897   5.446
10350TIP3    H130993   7.051   6.885   5.366
10350TIP3    H230994   7.017   6.987   5.473
10351TIP3   OH230995   0.239   3.176   2.246
10351TIP3    H130996   0.246   3.228   2.326
10351TIP3    H230997   0.309   3.111   2.254
10352TIP3   OH230998   1.236   1.153   6.192
10352TIP3    H130999   1.228   1.135   6.098
10352TIP3    H231000   1.214   1.070   6.234
10353TIP3   OH231001   5.104   3.497   3.767
10353TIP3    H131002   5.036   3.466   3.706
10353TIP3    H231003   5.060   3.564   3.819
10354TIP3   OH231004   4.394   2.754   0.102
10354TIP3    H131005   4.464   2.797   0.054
10354TIP3    H231006   4.317   2.810   0.088
10355TIP3   OH231007   5.001   0.353   5.439
10355TIP3    H131008   4.984   0.326   5.529
10355TIP3    H231009   4.950   0.434   5.427
10356TIP3   OH231010   2.337   5.566   4.374
10356TIP3    H131011   2.319   5.595   4.284
10356TIP3    H231012   2.423   5.604   4.394
10357TIP3   OH231013   2.515   1.777   6.429
10357TIP3    H131014   2.488   1.847   6.489
10357TIP3    H231015   2.583   1.817   6.375
10358TIP3   OH231016   4.452   6.146   2.628
10358TIP3    H131017   4.466   6.088   2.552
10358TIP3    H231018   4.532   6.138   2.679
10359TIP3   OH231019   7.811   6.833   1.492
10359TIP3    H131020   7.723   6.830   1.453
10359TIP3    H231021   7.833   6.741   1.510
10360TIP3   OH231022   0.840   6.836   1.557
10360TIP3    H131023   0.823   6.832   1.651
10360TIP3    H231024   0.753   6.843   1.518
10361TIP3   OH231025   7.209   0.923   5.300
10361TIP3    H131026   7.147   0.994   5.290
10361TIP3    H231027   7.272   0.955   5.364
10362TIP3   OH231028   7.572   5.522   6.399
10362TIP3    H131029   7.542   5.518   6.489
10362TIP3    H231030   7.639   5.454   6.393
10363TIP3   OH231031   1.312   4.352   5.416
10363TIP3    H131032   1.258   4.373   5.492
10363TIP3    H231033   1.382   4.297   5.451
10364TIP3   OH231034   5.711   5.387   1.219
10364TIP3    H131035   5.691   5.453   1.285
10364TIP3    H231036   5.625   5.355   1.191
10365TIP3   OH231037   7.189   6.436   0.552
10365TIP3    H131038   7.167   6.455   0.643
10365TIP3    H231039   7.278   6.469   0.542
10366TIP3   OH231040   3.491   0.119   1.908
10366TIP3    H131041   3.452   0.079   1.831
10366TIP3    H231042   3.454   0.070   1.982
10367TIP3   OH231043   3.602   3.131   4.861
10367TIP3    H131044   3.641   3.199   4.915
10367TIP3    H231045   3.508   3.151   4.861
10368TIP3   OH231046   5.828   5.508   3.276
10368TIP3    H131047   5.791   5.421   3.261
10368TIP3    H231048   5.794   5.561   3.204
10369TIP3   OH231049   2.844   5.860   2.659
10369TIP3    H131050   2.787   5.787   2.684
10369TIP3    H231051   2.926   5.843   2.706
10370TIP3   OH231052   2.396   5.060   6.621
10370TIP3    H131053   2.314   5.046   6.574
10370TIP3    H231054   2.369   5.067   6.713
10371TIP3   OH231055   0.680   1.950   0.442
10371TIP3    H131056   0.771   1.925   0.457
10371TIP3    H231057   0.629   1.891   0.497
10372TIP3   OH231058   2.671   7.018   3.527
10372TIP3    H131059   2.747   6.985   3.575
10372TIP3    H231060   2.623   6.940   3.500
10373TIP3   OH231061   1.314   1.578   2.054
10373TIP3    H131062   1.223   1.581   2.082
10373TIP3    H231063   1.310   1.594   1.959
10374TIP3   OH231064   1.870   6.175   1.489
10374TIP3    H131065   1.811   6.236   1.531
10374TIP3    H231066   1.957   6.202   1.517
10375TIP3   OH231067   5.552   6.303   6.259
10375TIP3    H131068   5.493   6.341   6.195
10375TIP3    H231069   5.568   6.373   6.322
10376TIP3   OH231070   5.430   3.365   2.701
10376TIP3    H131071   5.363   3.384   2.635
10376TIP3    H231072   5.513   3.387   2.658
10377TIP3   OH231073   5.257   6.610   6.307
10377TIP3    H131074   5.216   6.660   6.378
10377TIP3    H231075   5.189   6.606   6.239
10378TIP3   OH231076   2.027   2.517   4.221
10378TIP3    H131077   2.040   2.579   4.293
10378TIP3    H231078   2.110   2.517   4.174
10379TIP3   OH231079   3.871   4.966   5.426
10379TIP3    H131080   3.801   4.901   5.430
10379TIP3    H231081   3.844   5.035   5.487
10380TIP3   OH231082   4.296   5.434   2.252
10380TIP3    H131083   4.280   5.525   2.228
10380TIP3    H231084   4.214   5.389   2.229
10381TIP3   OH231085   7.386   7.015   2.057
10381TIP3    H131086   7.336   7.063   2.123
10381TIP3    H231087   7.319   6.977   1.999
10382TIP3   OH231088   5.629   3.732   6.216
10382TIP3    H131089   5.534   3.740   6.207
10382TIP3    H231090   5.658   3.694   6.133
10383TIP3   OH231091   5.079   6.267   2.553
10383TIP3    H131092   5.122   6.304   2.477
10383TIP3    H231093   5.056   6.343   2.607
10384TIP3   OH231094   2.671   1.949   0.097
10384TIP3    H131095   2.689   2.016   0.163
10384TIP3    H231096   2.624   1.995   0.027
10385TIP3   OH231097   7.152   0.175   3.888
10385TIP3    H131098   7.151   0.240   3.818
10385TIP3    H231099   7.119   0.095   3.847
10386TIP3   OH231100   0.277   0.378   2.717
10386TIP3    H131101   0.226   0.356   2.639
10386TIP3    H231102   0.297   0.294   2.758
10387TIP3   OH231103   0.166   0.438   3.152
10387TIP3    H131104   0.101   0.462   3.218
10387TIP3    H231105   0.118   0.443   3.069
10388TIP3   OH231106   7.594   0.295   4.346
10388TIP3    H131107   7.632   0.227   4.401
10388TIP3    H231108   7.657   0.307   4.275
10389TIP3   OH231109   6.836   1.301   3.668
10389TIP3    H131110   6.846   1.303   3.573
10389TIP3    H231111   6.888   1.226   3.696
10390TIP3   OH231112   2.472   7.275   4.332
10390TIP3    H131113   2.432   7.266   4.245
10390TIP3    H231114   2.432   7.206   4.384
10391TIP3   OH231115   1.522   7.361   4.305
10391TIP3    H131116   1.616   7.377   4.312
10391TIP3    H231117   1.503   7.298   4.375
10392TIP3   OH231118   0.085   3.603   2.018
10392TIP3    H131119   0.051   3.626   1.931
10392TIP3    H231120   0.009   3.567   2.064
10393TIP3   OH231121   6.360   6.365   2.872
10393TIP3    H131122   6.354   6.315   2.954
10393TIP3    H231123   6.326   6.305   2.806
10394TIP3   OH231124   3.106   4.733   5.286
10394TIP3    H131125   3.112   4.825   5.310
10394TIP3    H231126   3.116   4.686   5.369
10395TIP3   OH231127   3.125   3.578   3.150
10395TIP3    H131128   3.184   3.567   3.075
10395TIP3    H231129   3.095   3.669   3.143
10396TIP3   OH231130   6.779   2.673   5.366
10396TIP3    H131131   6.805   2.740   5.302
10396TIP3    H231132   6.696   2.638   5.331
10397TIP3   OH231133   0.918   7.601   2.122
10397TIP3    H131134   0.889   7.686   2.156
10397TIP3    H231135   0.985   7.572   2.184
10398TIP3   OH231136   6.489   1.504   4.438
10398TIP3    H131137   6.411   1.516   4.491
10398TIP3    H231138   6.513   1.593   4.409
10399TIP3   OH231139   3.696   2.399   4.197
10399TIP3    H131140   3.625   2.395   4.261
10399TIP3    H231141   3.681   2.323   4.140
10400TIP3   OH231142   2.600   1.277   1.565
10400TIP3    H131143   2.506   1.257   1.561
10400TIP3    H231144   2.628   1.242   1.649
10401TIP3   OH231145   4.193   4.021   4.401
10401TIP3    H131146   4.248   4.003   4.477
10401TIP3    H231147   4.120   3.959   4.410
10402TIP3   OH231148   2.875   2.523   2.056
10402TIP3    H131149   2.944   2.505   1.992
10402TIP3    H231150   2.794   2.498   2.012
10403TIP3   OH231151   0.113   6.380   4.441
10403TIP3    H131152   0.135   6.416   4.527
10403TIP3    H231153   0.017   6.380   4.439
10404TIP3   OH231154   2.557   6.944   2.183
10404TIP3    H131155   2.626   6.947   2.117
10404TIP3    H231156   2.590   6.882   2.249
10405TIP3   OH231157   6.318   5.178   2.887
10405TIP3    H131158   6.360   5.255   2.926
10405TIP3    H231159   6.340   5.183   2.794
10406TIP3   OH231160   1.731   6.732   6.733
10406TIP3    H131161   1.719   6.640   6.709
10406TIP3    H231162   1.802   6.730   6.798
10407TIP3   OH231163   4.817   5.545   0.345
10407TIP3    H131164   4.746   5.583   0.294
10407TIP3    H231165   4.871   5.620   0.371
10408TIP3   OH231166   2.781   5.753   1.089
10408TIP3    H131167   2.741   5.684   1.142
10408TIP3    H231168   2.727   5.830   1.104
10409TIP3   OH231169   6.092   6.955   5.899
10409TIP3    H131170   6.038   6.940   5.977
10409TIP3    H231171   6.036   7.004   5.839
10410TIP3   OH231172   5.479   6.533   3.563
10410TIP3    H131173   5.465   6.564   3.653
10410TIP3    H231174   5.457   6.440   3.565
10411TIP3   OH231175   2.958   1.525   0.746
10411TIP3    H131176   3.017   1.471   0.694
10411TIP3    H231177   2.891   1.464   0.777
10412TIP3   OH231178   5.649   0.125   4.020
10412TIP3    H131179   5.657   0.207   4.067
10412TIP3    H231180   5.684   0.143   3.933
10413TIP3   OH231181   6.115   3.080   4.818
10413TIP3    H131182   6.155   3.031   4.746
10413TIP3    H231183   6.174   3.154   4.831
10414TIP3   OH231184   7.270   4.958   3.299
10414TIP3    H131185   7.235   4.948   3.387
10414TIP3    H231186   7.237   4.881   3.251
10415TIP3   OH231187   4.120   1.496   5.675
10415TIP3    H131188   4.034   1.462   5.651
10415TIP3    H231189   4.177   1.471   5.602
10416TIP3   OH231190   3.940   1.287   1.841
10416TIP3    H131191   4.012   1.327   1.890
10416TIP3    H231192   3.898   1.360   1.796
10417TIP3   OH231193   1.712   1.800   6.430
10417TIP3    H131194   1.783   1.772   6.372
10417TIP3    H231195   1.636   1.808   6.373
10418TIP3   OH231196   5.639   4.310   0.280
10418TIP3    H131197   5.593   4.239   0.325
10418TIP3    H231198   5.719   4.271   0.247
10419TIP3   OH231199   6.218   0.986   2.409
10419TIP3    H131200   6.173   1.064   2.377
10419TIP3    H231201   6.311   1.011   2.412
10420TIP3   OH231202   7.524   2.161   2.486
10420TIP3    H131203   7.450   2.221   2.485
10420TIP3    H231204   7.591   2.205   2.539
10421TIP3   OH231205   1.967   0.143   0.723
10421TIP3    H131206   2.000   0.076   0.664
10421TIP3    H231207   1.872   0.127   0.726
10422TIP3   OH231208   4.666   0.374   2.637
10422TIP3    H131209   4.655   0.291   2.683
10422TIP3    H231210   4.760   0.394   2.645
10423TIP3   OH231211   0.052   2.645   5.777
10423TIP3    H131212   0.120   2.598   5.826
10423TIP3    H231213   0.078   2.635   5.685
10424TIP3   OH231214   4.407   6.966   6.318
10424TIP3    H131215   4.311   6.963   6.315
10424TIP3    H231216   4.427   6.984   6.410
10425TIP3   OH231217   3.296   7.628   6.384
10425TIP3    H131218   3.370   7.601   6.437
10425TIP3    H231219   3.334   7.672   6.308
10426TIP3   OH231220   1.207   2.876   0.635
10426TIP3    H131221   1.174   2.962   0.660
10426TIP3    H231222   1.290   2.894   0.590
10427TIP3   OH231223   6.846   2.277   4.320
10427TIP3    H131224   6.831   2.226   4.241
10427TIP3    H231225   6.940   2.265   4.339
10428TIP3   OH231226   3.727   6.900   4.475
10428TIP3    H131227   3.670   6.887   4.551
10428TIP3    H231228   3.708   6.826   4.417
10429TIP3   OH231229   0.254   0.887   3.072
10429TIP3    H131230   0.283   0.914   3.159
10429TIP3    H231231   0.191   0.955   3.046
10430TIP3   OH231232   2.135   6.228   0.850
10430TIP3    H131233   2.204   6.184   0.799
10430TIP3    H231234   2.176   6.309   0.879
10431TIP3   OH231235   2.925   6.399   1.964
10431TIP3    H131236   2.975   6.322   1.990
10431TIP3    H231237   2.859   6.366   1.903
10432TIP3   OH231238   5.315   2.866   1.868
10432TIP3    H131239   5.280   2.788   1.912
10432TIP3    H231240   5.400   2.837   1.834
10433TIP3   OH231241   3.907   5.632   6.055
10433TIP3    H131242   3.867   5.690   5.991
10433TIP3    H231243   3.964   5.689   6.108
10434TIP3   OH231244   3.839   2.808   2.011
10434TIP3    H131245   3.818   2.778   1.922
10434TIP3    H231246   3.791   2.890   2.021
10435TIP3   OH231247   1.190   2.072   5.858
10435TIP3    H131248   1.137   2.028   5.925
10435TIP3    H231249   1.138   2.066   5.778
10436TIP3   OH231250   6.276   7.427   5.676
10436TIP3    H131251   6.222   7.496   5.638
10436TIP3    H231252   6.291   7.455   5.766
10437TIP3   OH231253   1.665   1.929   2.921
10437TIP3    H131254   1.600   1.946   2.852
10437TIP3    H231255   1.710   1.850   2.891
10438TIP3   OH231256   5.207   4.755   4.497
10438TIP3    H131257   5.147   4.736   4.425
10438TIP3    H231258   5.266   4.679   4.500
10439TIP3   OH231259   7.988   6.818   5.369
10439TIP3    H131260   8.070   6.840   5.413
10439TIP3    H231261   7.934   6.897   5.380
10440TIP3   OH231262   1.553   6.911   6.543
10440TIP3    H131263   1.603   6.980   6.499
10440TIP3    H231264   1.618   6.847   6.568
10441TIP3   OH231265   0.334   4.530   6.391
10441TIP3    H131266   0.270   4.538   6.462
10441TIP3    H231267   0.310   4.449   6.346
10442TIP3   OH231268   0.593   3.800   3.287
10442TIP3    H131269   0.648   3.733   3.327
10442TIP3    H231270   0.588   3.870   3.352
10443TIP3   OH231271   7.564   2.335   5.660
10443TIP3    H131272   7.533   2.246   5.677
10443TIP3    H231273   7.628   2.326   5.589
10444TIP3   OH231274   0.227   4.940   5.450
10444TIP3    H131275   0.245   4.850   5.476
10444TIP3    H231276   0.237   4.940   5.355
10445TIP3   OH231277   3.795   5.175   1.624
10445TIP3    H131278   3.812   5.125   1.544
10445TIP3    H231279   3.759   5.258   1.593
10446TIP3   OH231280   1.468   7.444   3.511
10446TIP3    H131281   1.559   7.472   3.516
10446TIP3    H231282   1.469   7.369   3.451
10447TIP3   OH231283   5.602   2.491   1.602
10447TIP3    H131284   5.598   2.396   1.593
10447TIP3    H231285   5.540   2.525   1.538
10448TIP3   OH231286   2.702   0.783   0.562
10448TIP3    H131287   2.641   0.802   0.490
10448TIP3    H231288   2.755   0.710   0.529
10449TIP3   OH231289   7.345   4.207   3.781
10449TIP3    H131290   7.375   4.133   3.832
10449TIP3    H231291   7.423   4.261   3.768
10450TIP3   OH231292   2.021   1.246   4.871
10450TIP3    H131293   2.102   1.237   4.922
10450TIP3    H231294   2.049   1.291   4.791
10451TIP3   OH231295   0.688   1.322   2.068
10451TIP3    H131296   0.720   1.412   2.060
10451TIP3    H231297   0.765   1.273   2.097
10452TIP3   OH231298   1.187   6.406   4.747
10452TIP3    H131299   1.107   6.422   4.797
10452TIP3    H231300   1.223   6.326   4.785
10453TIP3   OH231301   4.174   7.474   2.923
10453TIP3    H131302   4.174   7.389   2.966
10453TIP3    H231303   4.188   7.455   2.831
10454TIP3   OH231304   1.756   1.199   0.345
10454TIP3    H131305   1.726   1.112   0.371
10454TIP3    H231306   1.829   1.217   0.404
10455TIP3   OH231307   0.096   3.792   6.778
10455TIP3    H131308   0.019   3.840   6.747
10455TIP3    H231309   0.072   3.700   6.770
10456TIP3   OH231310   2.862   6.136   4.182
10456TIP3    H131311   2.851   6.059   4.125
10456TIP3    H231312   2.940   6.179   4.149
10457TIP3   OH231313   6.103   7.787   0.285
10457TIP3    H131314   6.122   7.817   0.196
10457TIP3    H231315   6.013   7.816   0.301
10458TIP3   OH231316   3.099   2.589   2.565
10458TIP3    H131317   3.183   2.612   2.526
10458TIP3    H231318   3.050   2.548   2.494
10459TIP3   OH231319   2.454   6.992   5.489
10459TIP3    H131320   2.488   7.004   5.401
10459TIP3    H231321   2.483   7.070   5.537
10460TIP3   OH231322   0.521   0.227   2.983
10460TIP3    H131323   0.540   0.304   2.929
10460TIP3    H231324   0.470   0.262   3.056
10461TIP3   OH231325   3.450   5.042   0.583
10461TIP3    H131326   3.477   4.952   0.567
10461TIP3    H231327   3.497   5.067   0.663
10462TIP3   OH231328   7.318   1.105   5.053
10462TIP3    H131329   7.230   1.077   5.024
10462TIP3    H231330   7.368   1.023   5.058
10463TIP3   OH231331   5.618   7.182   5.299
10463TIP3    H131332   5.560   7.117   5.339
10463TIP3    H231333   5.659   7.137   5.226
10464TIP3   OH231334   4.679   4.505   1.106
10464TIP3    H131335   4.601   4.556   1.084
10464TIP3    H231336   4.752   4.566   1.093
10465TIP3   OH231337   0.517   2.527   2.899
10465TIP3    H131338   0.465   2.591   2.850
10465TIP3    H231339   0.462   2.448   2.900
10466TIP3   OH231340   4.922   3.666   2.802
10466TIP3    H131341   4.989   3.632   2.860
10466TIP3    H231342   4.945   3.759   2.790
10467TIP3   OH231343   7.775   1.508   0.394
10467TIP3    H131344   7.856   1.458   0.404
10467TIP3    H231345   7.804   1.599   0.383
10468TIP3   OH231346   5.118   3.149   1.638
10468TIP3    H131347   5.028   3.130   1.609
10468TIP3    H231348   5.106   3.195   1.721
10469TIP3   OH231349   5.321   5.745   6.338
10469TIP3    H131350   5.323   5.773   6.429
10469TIP3    H231351   5.369   5.813   6.290
10470TIP3   OH231352   3.862   4.148   0.727
10470TIP3    H131353   3.787   4.166   0.670
10470TIP3    H231354   3.880   4.055   0.715
10471TIP3   OH231355   4.922   4.776   1.630
10471TIP3    H131356   5.009   4.738   1.613
10471TIP3    H231357   4.933   4.824   1.712
10472TIP3   OH231358   1.057   5.567   2.746
10472TIP3    H131359   1.006   5.645   2.767
10472TIP3    H231360   0.995   5.495   2.755
10473TIP3   OH231361   1.067   3.790   5.007
10473TIP3    H131362   1.113   3.710   4.980
10473TIP3    H231363   0.978   3.779   4.974
10474TIP3   OH231364   5.820   3.680   5.763
10474TIP3    H131365   5.733   3.642   5.750
10474TIP3    H231366   5.809   3.772   5.738
10475TIP3   OH231367   4.669   1.225   1.622
10475TIP3    H131368   4.692   1.178   1.703
10475TIP3    H231369   4.717   1.179   1.553
10476TIP3   OH231370   7.524   2.861   0.068
10476TIP3    H131371   7.515   2.935   0.129
10476TIP3    H231372   7.584   2.892   0.000
10477TIP3   OH231373   3.855   2.799   1.260
10477TIP3    H131374   3.847   2.703   1.259
10477TIP3    H231375   3.799   2.829   1.189
10478TIP3   OH231376   6.149   2.229   2.204
10478TIP3    H131377   6.085   2.287   2.247
10478TIP3    H231378   6.159   2.267   2.116
10479TIP3   OH231379   0.906   4.583   3.300
10479TIP3    H131380   0.992   4.574   3.341
10479TIP3    H231381   0.848   4.609   3.372
10480TIP3   OH231382   4.165   5.180   3.040
10480TIP3    H131383   4.231   5.219   2.983
10480TIP3    H231384   4.089   5.236   3.031
10481TIP3   OH231385   8.120   7.210   4.844
10481TIP3    H131386   8.075   7.233   4.763
10481TIP3    H231387   8.161   7.125   4.825
10482TIP3   OH231388   8.034   3.647   0.290
10482TIP3    H131389   8.045   3.552   0.288
10482TIP3    H231390   8.099   3.680   0.229
10483TIP3   OH231391   7.839   2.669   6.615
10483TIP3    H131392   7.907   2.736   6.624
10483TIP3    H231393   7.875   2.593   6.661
10484TIP3   OH231394   0.499   0.941   1.302
10484TIP3    H131395   0.558   0.966   1.231
10484TIP3    H231396   0.417   0.985   1.282
10485TIP3   OH231397   7.634   7.061   0.366
10485TIP3    H131398   7.543   7.079   0.390
10485TIP3    H231399   7.681   7.142   0.385
10486TIP3   OH231400   7.763   5.343   5.751
10486TIP3    H131401   7.721   5.283   5.812
10486TIP3    H231402   7.777   5.423   5.800
10487TIP3   OH231403   0.535   4.404   1.425
10487TIP3    H131404   0.546   4.416   1.331
10487TIP3    H231405   0.530   4.493   1.461
10488TIP3   OH231406   5.325   5.642   4.165
10488TIP3    H131407   5.385   5.638   4.091
10488TIP3    H231408   5.320   5.735   4.187
10489TIP3   OH231409   4.468   7.168   3.977
10489TIP3    H131410   4.542   7.209   3.931
10489TIP3    H231411   4.447   7.092   3.924
10490TIP3   OH231412   4.846   5.029   2.519
10490TIP3    H131413   4.811   4.949   2.480
10490TIP3    H231414   4.934   5.005   2.550
10491TIP3   OH231415   4.448   5.640   6.144
10491TIP3    H131416   4.367   5.619   6.190
10491TIP3    H231417   4.517   5.603   6.199
10492TIP3   OH231418   2.082   2.660   2.940
10492TIP3    H131419   2.124   2.632   2.858
10492TIP3    H231420   2.097   2.754   2.944
10493TIP3   OH231421   4.101   6.209   0.776
10493TIP3    H131422   4.073   6.229   0.865
10493TIP3    H231423   4.024   6.224   0.722
10494TIP3   OH231424   0.618   0.330   2.590
10494TIP3    H131425   0.651   0.274   2.661
10494TIP3    H231426   0.551   0.277   2.547
10495TIP3   OH231427   6.975   6.201   5.204
10495TIP3    H131428   6.897   6.189   5.258
10495TIP3    H231429   7.046   6.162   5.255
10496TIP3   OH231430   2.925   7.667   4.388
10496TIP3    H131431   2.977   7.668   4.468
10496TIP3    H231432   2.834   7.674   4.418
10497TIP3   OH231433   6.974   5.963   4.614
10497TIP3    H131434   7.001   5.919   4.534
10497TIP3    H231435   6.924   6.039   4.584
10498TIP3   OH231436   5.619   6.819   5.249
10498TIP3    H131437   5.621   6.732   5.208
10498TIP3    H231438   5.529   6.831   5.278
10499TIP3   OH231439   3.993   6.572   1.904
10499TIP3    H131440   3.927   6.588   1.972
10499TIP3    H231441   3.966   6.628   1.831
10500TIP3   OH231442   7.607   5.694   1.535
10500TIP3    H131443   7.533   5.654   1.580
10500TIP3    H231444   7.601   5.662   1.444
10501TIP3   OH231445   5.223   2.578   3.415
10501TIP3    H131446   5.154   2.636   3.450
10501TIP3    H231447   5.247   2.619   3.332
10502TIP3   OH231448   3.336   5.036   0.108
10502TIP3    H131449   3.330   4.964   0.171
10502TIP3    H231450   3.425   5.070   0.119
10503TIP3   OH231451   5.033   5.814   4.392
10503TIP3    H131452   4.945   5.849   4.405
10503TIP3    H231453   5.032   5.729   4.436
10504TIP3   OH231454   3.494   2.416   4.366
10504TIP3    H131455   3.436   2.341   4.380
10504TIP3    H231456   3.507   2.453   4.453
10505TIP3   OH231457   6.090   7.437   3.729
10505TIP3    H131458   6.015   7.392   3.690
10505TIP3    H231459   6.066   7.529   3.727
10506TIP3   OH231460   7.470   6.512   4.415
10506TIP3    H131461   7.543   6.473   4.367
10506TIP3    H231462   7.394   6.461   4.387
10507TIP3   OH231463   3.542   1.006   2.501
10507TIP3    H131464   3.467   0.966   2.458
10507TIP3    H231465   3.589   1.052   2.431
10508TIP3   OH231466   3.821   7.477   1.250
10508TIP3    H131467   3.763   7.430   1.309
10508TIP3    H231468   3.819   7.567   1.281
10509TIP3   OH231469   7.335   5.859   3.435
10509TIP3    H131470   7.243   5.836   3.448
10509TIP3    H231471   7.380   5.822   3.511
10510TIP3   OH231472   2.967   0.001   6.056
10510TIP3    H131473   2.919   0.071   6.012
10510TIP3    H231474   2.898  -0.053   6.096
10511TIP3   OH231475   2.934   5.668   0.350
10511TIP3    H131476   3.009   5.688   0.294
10511TIP3    H231477   2.964   5.686   0.439
10512TIP3   OH231478   6.504   0.863   3.616
10512TIP3    H131479   6.519   0.926   3.687
10512TIP3    H231480   6.465   0.787   3.660
10513TIP3   OH231481   3.761   3.647   5.403
10513TIP3    H131482   3.706   3.714   5.443
10513TIP3    H231483   3.768   3.579   5.470
10514TIP3   OH231484   2.520   3.809   1.830
10514TIP3    H131485   2.475   3.739   1.781
10514TIP3    H231486   2.450   3.853   1.878
10515TIP3   OH231487   5.267   7.630   6.030
10515TIP3    H131488   5.269   7.569   6.104
10515TIP3    H231489   5.322   7.704   6.059
10516TIP3   OH231490   2.724   5.290   4.035
10516TIP3    H131491   2.773   5.373   4.035
10516TIP3    H231492   2.695   5.280   4.125
10517TIP3   OH231493   0.628   0.099   4.636
10517TIP3    H131494   0.686   0.137   4.570
10517TIP3    H231495   0.548   0.151   4.631
10518TIP3   OH231496   1.030   4.469   2.647
10518TIP3    H131497   1.107   4.460   2.591
10518TIP3    H231498   0.956   4.448   2.590
10519TIP3   OH231499   3.876   0.331   4.860
10519TIP3    H131500   3.903   0.252   4.814
10519TIP3    H231501   3.814   0.373   4.800
10520TIP3   OH231502   1.363   2.109   1.698
10520TIP3    H131503   1.452   2.077   1.685
10520TIP3    H231504   1.319   2.089   1.615
10521TIP3   OH231505   8.052   5.951   2.800
10521TIP3    H131506   8.027   5.940   2.892
10521TIP3    H231507   8.098   6.035   2.799
10522TIP3   OH231508   4.093   0.540   6.440
10522TIP3    H131509   4.086   0.464   6.382
10522TIP3    H231510   4.178   0.578   6.418
10523TIP3   OH231511   1.620   0.355   3.742
10523TIP3    H131512   1.695   0.337   3.800
10523TIP3    H231513   1.543   0.341   3.798
10524TIP3   OH231514   2.181   5.004   5.451
10524TIP3    H131515   2.116   4.942   5.483
10524TIP3    H231516   2.250   4.949   5.414
10525TIP3   OH231517   7.198   3.854   4.187
10525TIP3    H131518   7.195   3.946   4.215
10525TIP3    H231519   7.218   3.805   4.266
10526TIP3   OH231520   0.506   6.374   5.360
10526TIP3    H131521   0.449   6.408   5.429
10526TIP3    H231522   0.459   6.391   5.279
10527TIP3   OH231523   1.842   3.747   4.909
10527TIP3    H131524   1.775   3.757   4.841
10527TIP3    H231525   1.823   3.819   4.970
10528TIP3   OH231526   5.218   0.318   2.257
10528TIP3    H131527   5.293   0.378   2.263
10528TIP3    H231528   5.180   0.319   2.345
10529TIP3   OH231529   8.036   2.182   2.632
10529TIP3    H131530   8.065   2.136   2.553
10529TIP3    H231531   8.117   2.211   2.675
10530TIP3   OH231532   2.774   5.575   3.954
10530TIP3    H131533   2.743   5.658   3.919
10530TIP3    H231534   2.855   5.557   3.906
10531TIP3   OH231535   6.163   6.803   1.898
10531TIP3    H131536   6.195   6.776   1.984
10531TIP3    H231537   6.090   6.862   1.916
10532TIP3   OH231538   3.399   3.355   0.546
10532TIP3    H131539   3.423   3.273   0.503
10532TIP3    H231540   3.362   3.409   0.476
10533TIP3   OH231541   0.556   0.309   1.981
10533TIP3    H131542   0.581   0.314   2.074
10533TIP3    H231543   0.632   0.270   1.938
10534TIP3   OH231544   8.258   5.078   4.306
10534TIP3    H131545   8.183   5.031   4.342
10534TIP3    H231546   8.249   5.070   4.211
10535TIP3   OH231547   7.460   6.151   1.291
10535TIP3    H131548   7.542   6.102   1.287
10535TIP3    H231549   7.477   6.231   1.241
10536TIP3   OH231550   1.002   4.896   0.987
10536TIP3    H131551   1.082   4.926   1.031
10536TIP3    H231552   1.002   4.943   0.903
10537TIP3   OH231553   4.919   3.534   6.574
10537TIP3    H131554   4.935   3.609   6.631
10537TIP3    H231555   5.004   3.516   6.533
10538TIP3   OH231556   4.991   2.214   1.715
10538TIP3    H131557   5.025   2.153   1.650
10538TIP3    H231558   4.902   2.233   1.686
10539TIP3   OH231559   0.092   5.179   0.168
10539TIP3    H131560   0.103   5.106   0.107
10539TIP3    H231561   0.171   5.178   0.221
10540TIP3   OH231562   6.125   6.743   4.194
10540TIP3    H131563   6.064   6.814   4.214
10540TIP3    H231564   6.115   6.681   4.267
10541TIP3   OH231565   8.242   0.678   3.831
10541TIP3    H131566   8.213   0.680   3.922
10541TIP3    H231567   8.198   0.602   3.793
10542TIP3   OH231568   4.528   5.712   2.735
10542TIP3    H131569   4.542   5.677   2.648
10542TIP3    H231570   4.594   5.669   2.790
10543TIP3   OH231571   2.470   2.239   5.823
10543TIP3    H131572   2.516   2.322   5.826
10543TIP3    H231573   2.421   2.235   5.905
10544TIP3   OH231574   5.808   5.556   4.524
10544TIP3    H131575   5.847   5.478   4.484
10544TIP3    H231576   5.759   5.521   4.599
10545TIP3   OH231577   0.730   5.071   2.095
10545TIP3    H131578   0.764   4.985   2.070
10545TIP3    H231579   0.636   5.058   2.106
10546TIP3   OH231580   3.481   2.233   1.724
10546TIP3    H131581   3.524   2.307   1.766
10546TIP3    H231582   3.499   2.244   1.630
10547TIP3   OH231583   1.221   5.093   5.987
10547TIP3    H131584   1.254   5.140   6.063
10547TIP3    H231585   1.127   5.084   6.004
10548TIP3   OH231586   0.698   3.691  -0.008
10548TIP3    H131587   0.777   3.639  -0.023
10548TIP3    H231588   0.707   3.724   0.081
10549TIP3   OH231589   2.390   1.560   6.581
10549TIP3    H131590   2.410   1.628   6.517
10549TIP3    H231591   2.318   1.511   6.541
10550TIP3   OH231592   5.351   7.736   1.803
10550TIP3    H131593   5.340   7.800   1.732
10550TIP3    H231594   5.392   7.660   1.760
10551TIP3   OH231595   1.394   4.484   0.560
10551TIP3    H131596   1.400   4.411   0.622
10551TIP3    H231597   1.393   4.562   0.615
10552TIP3   OH231598   5.526   3.786   2.252
10552TIP3    H131599   5.478   3.831   2.322
10552TIP3    H231600   5.511   3.693   2.269
10553TIP3   OH231601   5.539   7.435   5.230
10553TIP3    H131602   5.591   7.356   5.247
10553TIP3    H231603   5.455   7.417   5.272
10554TIP3   OH231604   4.245   2.134   0.855
10554TIP3    H131605   4.240   2.178   0.770
10554TIP3    H231606   4.283   2.048   0.835
10555TIP3   OH231607   7.020   6.187   4.941
10555TIP3    H131608   7.005   6.215   5.031
10555TIP3    H231609   7.004   6.266   4.889
10556TIP3   OH231610   1.781   6.950   2.983
10556TIP3    H131611   1.876   6.941   2.971
10556TIP3    H231612   1.753   7.011   2.915
10557TIP3   OH231613   8.080   4.924   3.856
10557TIP3    H131614   8.122   4.979   3.790
10557TIP3    H231615   7.990   4.958   3.862
10558TIP3   OH231616   8.272   5.163   6.661
10558TIP3    H131617   8.250   5.117   6.580
10558TIP3    H231618   8.349   5.117   6.694
10559TIP3   OH231619   7.749   3.669   2.344
10559TIP3    H131620   7.726   3.680   2.252
10559TIP3    H231621   7.727   3.752   2.384
10560TIP3   OH231622   6.214   7.628   1.154
10560TIP3    H131623   6.260   7.635   1.070
10560TIP3    H231624   6.151   7.557   1.141
10561TIP3   OH231625   5.387   6.283   3.952
10561TIP3    H131626   5.438   6.251   4.027
10561TIP3    H231627   5.297   6.260   3.972
10562TIP3   OH231628   8.057   0.541   4.081
10562TIP3    H131629   8.116   0.617   4.082
10562TIP3    H231630   8.009   0.548   4.164
10563TIP3   OH231631   0.853   0.312   4.070
10563TIP3    H131632   0.780   0.374   4.061
10563TIP3    H231633   0.814   0.236   4.114
10564TIP3   OH231634   7.917   3.494   4.097
10564TIP3    H131635   7.950   3.564   4.153
10564TIP3    H231636   7.835   3.527   4.062
10565TIP3   OH231637   6.654   3.039   2.882
10565TIP3    H131638   6.562   3.043   2.857
10565TIP3    H231639   6.701   3.015   2.802
10566TIP3   OH231640   7.856   6.754   2.080
10566TIP3    H131641   7.934   6.793   2.119
10566TIP3    H231642   7.804   6.724   2.155
10567TIP3   OH231643  -0.008   4.713   6.481
10567TIP3    H131644  -0.062   4.730   6.558
10567TIP3    H231645   0.072   4.674   6.516
10568TIP3   OH231646   7.896   7.813   5.996
10568TIP3    H131647   7.833   7.884   6.012
10568TIP3    H231648   7.846   7.733   6.011
10569TIP3   OH231649   1.947   4.815   5.618
10569TIP3    H131650   1.979   4.818   5.709
10569TIP3    H231651   1.853   4.831   5.626
10570TIP3   OH231652   6.734   2.258   3.823
10570TIP3    H131653   6.795   2.237   3.753
10570TIP3    H231654   6.678   2.327   3.787
10571TIP3   OH231655   0.488   0.178   4.341
10571TIP3    H131656   0.408   0.135   4.312
10571TIP3    H231657   0.462   0.268   4.359
10572TIP3   OH231658   6.866   4.255   2.401
10572TIP3    H131659   6.807   4.222   2.333
10572TIP3    H231660   6.876   4.181   2.461
10573TIP3   OH231661   1.384   0.047   4.536
10573TIP3    H131662   1.342   0.131   4.521
10573TIP3    H231663   1.471   0.055   4.499
10574TIP3   OH231664   1.578   3.479   0.492
10574TIP3    H131665   1.486   3.479   0.463
10574TIP3    H231666   1.574   3.504   0.584
10575TIP3   OH231667   3.609   3.284   3.697
10575TIP3    H131668   3.640   3.251   3.782
10575TIP3    H231669   3.519   3.311   3.713
10576TIP3   OH231670   5.247   6.832   1.414
10576TIP3    H131671   5.195   6.758   1.443
10576TIP3    H231672   5.336   6.797   1.405
10577TIP3   OH231673   0.996   6.558   6.629
10577TIP3    H131674   0.995   6.463   6.633
10577TIP3    H231675   0.912   6.582   6.591
10578TIP3   OH231676   7.030   3.597   1.382
10578TIP3    H131677   7.014   3.632   1.294
10578TIP3    H231678   7.085   3.520   1.367
10579TIP3   OH231679   0.234   2.657   2.524
10579TIP3    H131680   0.258   2.749   2.510
10579TIP3    H231681   0.180   2.657   2.603
10580TIP3   OH231682   5.570   1.864   4.882
10580TIP3    H131683   5.596   1.955   4.872
10580TIP3    H231684   5.652   1.815   4.886
10581TIP3   OH231685   4.042   1.382   3.624
10581TIP3    H131686   4.019   1.380   3.717
10581TIP3    H231687   4.072   1.471   3.609
10582TIP3   OH231688   7.315   1.574   2.966
10582TIP3    H131689   7.372   1.503   2.938
10582TIP3    H231690   7.366   1.653   2.949
10583TIP3   OH231691   1.080   2.164   3.098
10583TIP3    H131692   1.108   2.075   3.118
10583TIP3    H231693   0.990   2.169   3.132
10584TIP3   OH231694   6.760   7.285   4.389
10584TIP3    H131695   6.780   7.290   4.482
10584TIP3    H231696   6.763   7.191   4.368
10585TIP3   OH231697   5.661   4.397   0.637
10585TIP3    H131698   5.640   4.318   0.588
10585TIP3    H231699   5.756   4.394   0.649
10586TIP3   OH231700   3.184   7.677   1.479
10586TIP3    H131701   3.198   7.712   1.391
10586TIP3    H231702   3.240   7.731   1.535
10587TIP3   OH231703   2.158   5.887   0.805
10587TIP3    H131704   2.205   5.959   0.764
10587TIP3    H231705   2.165   5.905   0.899
10588TIP3   OH231706   0.248   4.099   6.675
10588TIP3    H131707   0.154   4.079   6.674
10588TIP3    H231708   0.269   4.110   6.768
10589TIP3   OH231709   2.134   3.926   1.777
10589TIP3    H131710   2.048   3.889   1.794
10589TIP3    H231711   2.189   3.894   1.848
10590TIP3   OH231712   6.987   2.883   4.990
10590TIP3    H131713   6.933   2.825   4.937
10590TIP3    H231714   7.072   2.838   4.997
10591TIP3   OH231715   1.806   6.850   1.969
10591TIP3    H131716   1.879   6.790   1.956
10591TIP3    H231717   1.835   6.911   2.036
10592TIP3   OH231718   6.056   2.335   6.482
10592TIP3    H131719   6.105   2.355   6.403
10592TIP3    H231720   5.992   2.406   6.490
10593TIP3   OH231721   2.269   1.095   3.471
10593TIP3    H131722   2.215   1.018   3.490
10593TIP3    H231723   2.289   1.087   3.378
10594TIP3   OH231724   6.216   4.113   0.496
10594TIP3    H131725   6.219   4.145   0.587
10594TIP3    H231726   6.125   4.120   0.471
10595TIP3   OH231727   6.193   1.403   2.973
10595TIP3    H131728   6.188   1.454   3.055
10595TIP3    H231729   6.103   1.399   2.942
10596TIP3   OH231730   1.102   3.013   0.332
10596TIP3    H131731   1.195   3.028   0.348
10596TIP3    H231732   1.097   2.987   0.240
10597TIP3   OH231733   0.321   5.017   1.962
10597TIP3    H131734   0.412   4.995   1.940
10597TIP3    H231735   0.325   5.105   1.998
10598TIP3   OH231736   4.916   1.004   3.960
10598TIP3    H131737   4.949   0.975   3.875
10598TIP3    H231738   4.880   1.091   3.943
10599TIP3   OH231739   3.042   3.838   3.174
10599TIP3    H131740   3.012   3.892   3.247
10599TIP3    H231741   3.106   3.893   3.129
10600TIP3   OH231742   5.161   2.487   2.169
10600TIP3    H131743   5.160   2.416   2.106
10600TIP3    H231744   5.138   2.445   2.252
10601TIP3   OH231745   1.838   1.441   6.148
10601TIP3    H131746   1.886   1.524   6.136
10601TIP3    H231747   1.847   1.423   6.242
10602TIP3   OH231748   8.301   7.585   6.481
10602TIP3    H131749   8.276   7.624   6.565
10602TIP3    H231750   8.293   7.491   6.495
10603TIP3   OH231751   3.767   2.827   3.887
10603TIP3    H131752   3.819   2.828   3.967
10603TIP3    H231753   3.732   2.738   3.882
10604TIP3   OH231754   5.057   5.001   4.290
10604TIP3    H131755   5.125   4.938   4.267
10604TIP3    H231756   4.975   4.959   4.265
10605TIP3   OH231757   7.143   5.639   4.934
10605TIP3    H131758   7.139   5.730   4.904
10605TIP3    H231759   7.143   5.645   5.029
10606TIP3   OH231760   4.170   4.639   3.489
10606TIP3    H131761   4.188   4.598   3.574
10606TIP3    H231762   4.207   4.727   3.496
10607TIP3   OH231763   1.511   2.864   5.896
10607TIP3    H131764   1.549   2.921   5.963
10607TIP3    H231765   1.553   2.892   5.815
10608TIP3   OH231766   2.388   6.906   6.523
10608TIP3    H131767   2.472   6.869   6.549
10608TIP3    H231768   2.371   6.869   6.436
10609TIP3   OH231769   0.254   6.643   1.305
10609TIP3    H131770   0.183   6.581   1.290
10609TIP3    H231771   0.304   6.605   1.377
10610TIP3   OH231772   1.581   4.904   2.187
10610TIP3    H131773   1.602   4.834   2.249
10610TIP3    H231774   1.540   4.972   2.241
10611TIP3   OH231775   7.337   1.709   5.729
10611TIP3    H131776   7.246   1.683   5.713
10611TIP3    H231777   7.332   1.769   5.804
10612TIP3   OH231778   3.805   0.168   3.283
10612TIP3    H131779   3.726   0.152   3.333
10612TIP3    H231780   3.776   0.215   3.205
10613TIP3   OH231781   5.710   4.272   5.982
10613TIP3    H131782   5.798   4.267   5.944
10613TIP3    H231783   5.680   4.181   5.986
10614TIP3   OH231784   5.547   5.360   5.219
10614TIP3    H131785   5.470   5.405   5.252
10614TIP3    H231786   5.546   5.377   5.124
10615TIP3   OH231787   4.537   7.441   3.580
10615TIP3    H131788   4.589   7.519   3.557
10615TIP3    H231789   4.529   7.393   3.498
10616TIP3   OH231790   0.345   3.278   6.096
10616TIP3    H131791   0.433   3.253   6.127
10616TIP3    H231792   0.350   3.373   6.087
10617TIP3   OH231793   7.840   6.141   3.712
10617TIP3    H131794   7.900   6.067   3.715
10617TIP3    H231795   7.858   6.184   3.628
10618TIP3   OH231796   3.366   6.478   6.438
10618TIP3    H131797   3.391   6.418   6.367
10618TIP3    H231798   3.310   6.543   6.396
10619TIP3   OH231799   1.798   2.186   2.147
10619TIP3    H131800   1.780   2.105   2.099
10619TIP3    H231801   1.881   2.216   2.113
10620TIP3   OH231802   1.041   5.623   4.389
10620TIP3    H131803   1.075   5.583   4.469
10620TIP3    H231804   1.014   5.711   4.415
10621TIP3   OH231805   0.601   3.102   3.906
10621TIP3    H131806   0.678   3.091   3.850
10621TIP3    H231807   0.625   3.059   3.988
10622TIP3   OH231808   6.908   6.670   5.962
10622TIP3    H131809   6.956   6.747   5.929
10622TIP3    H231810   6.927   6.601   5.898
10623TIP3   OH231811   5.158   6.393   3.738
10623TIP3    H131812   5.095   6.392   3.810
10623TIP3    H231813   5.164   6.301   3.711
10624TIP3   OH231814   4.611   7.640   1.980
10624TIP3    H131815   4.681   7.575   1.985
10624TIP3    H231816   4.537   7.593   1.942
10625TIP3   OH231817   0.464   6.719   2.380
10625TIP3    H131818   0.496   6.698   2.292
10625TIP3    H231819   0.432   6.809   2.374
10626TIP3   OH231820   7.664   0.879   3.743
10626TIP3    H131821   7.644   0.951   3.684
10626TIP3    H231822   7.647   0.914   3.831
10627TIP3   OH231823   2.677   4.545   2.038
10627TIP3    H131824   2.664   4.579   1.949
10627TIP3    H231825   2.596   4.496   2.056
10628TIP3   OH231826   4.870   6.118   4.148
10628TIP3    H131827   4.793   6.078   4.109
10628TIP3    H231828   4.943   6.065   4.117
10629TIP3   OH231829   7.796   6.598   2.730
10629TIP3    H131830   7.796   6.517   2.679
10629TIP3    H231831   7.721   6.589   2.789
10630TIP3   OH231832   3.834   2.317   0.821
10630TIP3    H131833   3.744   2.294   0.843
10630TIP3    H231834   3.828   2.405   0.782
10631TIP3   OH231835   0.262   5.580   2.031
10631TIP3    H131836   0.245   5.492   2.065
10631TIP3    H231837   0.190   5.633   2.063
10632TIP3   OH231838   1.608   5.547   2.257
10632TIP3    H131839   1.544   5.583   2.320
10632TIP3    H231840   1.563   5.550   2.173
10633TIP3   OH231841   0.682   0.179   0.097
10633TIP3    H131842   0.758   0.235   0.113
10633TIP3    H231843   0.706   0.126   0.021
10634TIP3   OH231844   2.672   5.828   5.798
10634TIP3    H131845   2.717   5.906   5.767
10634TIP3    H231846   2.687   5.827   5.892
10635TIP3   OH231847   6.281   6.401   3.894
10635TIP3    H131848   6.336   6.444   3.828
10635TIP3    H231849   6.199   6.451   3.894
10636TIP3   OH231850   1.855   7.406   0.406
10636TIP3    H131851   1.800   7.485   0.402
10636TIP3    H231852   1.801   7.338   0.366
10637TIP3   OH231853   4.980   1.532   3.901
10637TIP3    H131854   4.927   1.470   3.951
10637TIP3    H231855   4.943   1.529   3.813
10638TIP3   OH231856   1.871   5.553   1.763
10638TIP3    H131857   1.913   5.639   1.766
10638TIP3    H231858   1.830   5.543   1.849
10639TIP3   OH231859   3.937   3.485   2.522
10639TIP3    H131860   3.969   3.568   2.487
10639TIP3    H231861   3.844   3.499   2.537
10640TIP3   OH231862   8.173   1.012   6.139
10640TIP3    H131863   8.160   1.096   6.094
10640TIP3    H231864   8.130   0.948   6.082
10641TIP3   OH231865   0.475   2.398   5.574
10641TIP3    H131866   0.549   2.432   5.625
10641TIP3    H231867   0.513   2.371   5.491
10642TIP3   OH231868   2.717  -0.019   0.218
10642TIP3    H131869   2.717   0.069   0.179
10642TIP3    H231870   2.792  -0.019   0.277
10643TIP3   OH231871   8.250   2.794   0.724
10643TIP3    H131872   8.275   2.847   0.648
10643TIP3    H231873   8.197   2.723   0.687
10644TIP3   OH231874   4.377   2.791   1.858
10644TIP3    H131875   4.302   2.846   1.879
10644TIP3    H231876   4.342   2.723   1.800
10645TIP3   OH231877   1.232   0.115   5.336
10645TIP3    H131878   1.325   0.132   5.323
10645TIP3    H231879   1.230   0.039   5.395
10646TIP3   OH231880   2.460   4.628   1.028
10646TIP3    H131881   2.477   4.676   1.109
10646TIP3    H231882   2.410   4.688   0.974
10647TIP3   OH231883   4.207   1.072   2.267
10647TIP3    H131884   4.127   1.027   2.293
10647TIP3    H231885   4.268   1.057   2.339
10648TIP3   OH231886   7.905   3.565   5.041
10648TIP3    H131887   7.918   3.482   5.085
10648TIP3    H231888   7.991   3.607   5.040
10649TIP3   OH231889   1.634   3.784   4.683
10649TIP3    H131890   1.641   3.696   4.647
10649TIP3    H231891   1.657   3.842   4.610
10650TIP3   OH231892   6.076   6.856   6.296
10650TIP3    H131893   6.166   6.868   6.325
10650TIP3    H231894   6.049   6.773   6.336
10651TIP3   OH231895   7.860   2.288   4.699
10651TIP3    H131896   7.805   2.221   4.659
10651TIP3    H231897   7.813   2.314   4.779
10652TIP3   OH231898   5.013   1.213   1.740
10652TIP3    H131899   4.944   1.215   1.805
10652TIP3    H231900   4.983   1.274   1.672
10653TIP3   OH231901   0.454   0.645   1.926
10653TIP3    H131902   0.365   0.619   1.901
10653TIP3    H231903   0.495   0.672   1.844
10654TIP3   OH231904   6.414   4.891   0.543
10654TIP3    H131905   6.384   4.955   0.479
10654TIP3    H231906   6.356   4.904   0.619
10655TIP3   OH231907   2.647   2.438   3.116
10655TIP3    H131908   2.731   2.415   3.075
10655TIP3    H231909   2.672   2.481   3.198
10656TIP3   OH231910   6.574   3.000   0.550
10656TIP3    H131911   6.535   3.083   0.522
10656TIP3    H231912   6.549   2.992   0.642
10657TIP3   OH231913   7.416   5.308   5.545
10657TIP3    H131914   7.457   5.236   5.497
10657TIP3    H231915   7.360   5.266   5.610
10658TIP3   OH231916   7.838   3.102   5.752
10658TIP3    H131917   7.856   3.008   5.747
10658TIP3    H231918   7.746   3.110   5.726
10659TIP3   OH231919   5.411   1.839   5.162
10659TIP3    H131920   5.420   1.847   5.067
10659TIP3    H231921   5.353   1.912   5.186
10660TIP3   OH231922   4.290   2.087   6.691
10660TIP3    H131923   4.365   2.092   6.749
10660TIP3    H231924   4.238   2.014   6.725
10661TIP3   OH231925   6.567   4.357   2.522
10661TIP3    H131926   6.474   4.357   2.546
10661TIP3    H231927   6.589   4.265   2.508
10662TIP3   OH231928   3.332   5.210   4.132
10662TIP3    H131929   3.270   5.261   4.184
10662TIP3    H231930   3.418   5.245   4.157
10663TIP3   OH231931   5.382   0.825   6.149
10663TIP3    H131932   5.400   0.869   6.066
10663TIP3    H231933   5.447   0.755   6.154
10664TIP3   OH231934   3.018   4.224   6.206
10664TIP3    H131935   2.936   4.178   6.228
10664TIP3    H231936   3.024   4.294   6.271
10665TIP3   OH231937   6.591   6.707   6.636
10665TIP3    H131938   6.653   6.677   6.569
10665TIP3    H231939   6.620   6.796   6.657
10666TIP3   OH231940   7.517   1.590   6.407
10666TIP3    H131941   7.551   1.634   6.485
10666TIP3    H231942   7.575   1.516   6.393
10667TIP3   OH231943   1.560   2.098   0.984
10667TIP3    H131944   1.526   2.135   0.903
10667TIP3    H231945   1.612   2.168   1.023
10668TIP3   OH231946   3.716   6.224   1.303
10668TIP3    H131947   3.757   6.292   1.249
10668TIP3    H231948   3.777   6.151   1.300
10669TIP3   OH231949   6.923   0.699   4.171
10669TIP3    H131950   6.937   0.779   4.222
10669TIP3    H231951   6.857   0.723   4.106
10670TIP3   OH231952   4.881   5.402   4.770
10670TIP3    H131953   4.847   5.325   4.815
10670TIP3    H231954   4.863   5.386   4.678
10671TIP3   OH231955   5.679   7.451   2.199
10671TIP3    H131956   5.648   7.455   2.289
10671TIP3    H231957   5.680   7.542   2.169
10672TIP3   OH231958   6.255   4.447   3.281
10672TIP3    H131959   6.244   4.360   3.243
10672TIP3    H231960   6.215   4.506   3.218
10673TIP3   OH231961   2.515   1.995   3.184
10673TIP3    H131962   2.558   2.018   3.267
10673TIP3    H231963   2.545   1.906   3.165
10674TIP3   OH231964   7.971   4.383   0.301
10674TIP3    H131965   7.901   4.362   0.362
10674TIP3    H231966   8.013   4.460   0.338
10675TIP3   OH231967   2.705   4.891   3.257
10675TIP3    H131968   2.772   4.888   3.326
10675TIP3    H231969   2.721   4.814   3.204
10676TIP3   OH231970   5.375   4.895   3.492
10676TIP3    H131971   5.293   4.849   3.511
10676TIP3    H231972   5.363   4.929   3.403
10677TIP3   OH231973   7.747   2.611   0.939
10677TIP3    H131974   7.842   2.614   0.938
10677TIP3    H231975   7.724   2.609   1.032
10678TIP3   OH231976   0.643   6.963   0.620
10678TIP3    H131977   0.588   7.022   0.672
10678TIP3    H231978   0.723   7.013   0.604
10679TIP3   OH231979   3.040   3.827   6.740
10679TIP3    H131980   2.969   3.854   6.798
10679TIP3    H231981   3.048   3.899   6.677
10680TIP3   OH231982   5.877   1.273   6.133
10680TIP3    H131983   5.789   1.308   6.118
10680TIP3    H231984   5.916   1.332   6.198
10681TIP3   OH231985   7.759   1.132   5.501
10681TIP3    H131986   7.790   1.175   5.422
10681TIP3    H231987   7.723   1.049   5.470
10682TIP3   OH231988   4.321   1.792   3.550
10682TIP3    H131989   4.288   1.799   3.461
10682TIP3    H231990   4.391   1.727   3.544
10683TIP3   OH231991   1.733   4.331   0.528
10683TIP3    H131992   1.792   4.391   0.482
10683TIP3    H231993   1.783   4.301   0.604
10684TIP3   OH231994   5.005   4.043   1.583
10684TIP3    H131995   5.037   4.026   1.494
10684TIP3    H231996   4.980   3.957   1.616
10685TIP3   OH231997   7.129   3.345   1.274
10685TIP3    H131998   7.118   3.252   1.257
10685TIP3    H231999   7.122   3.387   1.188
10686TIP3   OH232000   5.113   5.990   6.131
10686TIP3    H132001   5.030   6.036   6.141
10686TIP3    H232002   5.147   5.981   6.220
10687TIP3   OH232003   7.323   5.718   2.387
10687TIP3    H132004   7.400   5.772   2.366
10687TIP3    H232005   7.259   5.780   2.422
10688TIP3   OH232006   1.363   6.922   3.562
10688TIP3    H132007   1.441   6.925   3.506
10688TIP3    H232008   1.294   6.961   3.509
10689TIP3   OH232009   7.277   1.433   2.170
10689TIP3    H132010   7.213   1.438   2.241
10689TIP3    H232011   7.323   1.517   2.173
10690TIP3   OH232012   8.188   0.721   0.381
10690TIP3    H132013   8.244   0.711   0.458
10690TIP3    H232014   8.217   0.651   0.322
10691TIP3   OH232015   1.528   3.710   6.071
10691TIP3    H132016   1.622   3.726   6.076
10691TIP3    H232017   1.509   3.704   5.977
10692TIP3   OH232018   2.646   0.289   4.747
10692TIP3    H132019   2.705   0.314   4.676
10692TIP3    H232020   2.674   0.343   4.821
10693TIP3   OH232021   3.391   7.125   3.152
10693TIP3    H132022   3.364   7.184   3.222
10693TIP3    H232023   3.317   7.065   3.140
10694TIP3   OH232024   5.685   3.348   6.175
10694TIP3    H132025   5.697   3.437   6.143
10694TIP3    H232026   5.647   3.358   6.262
10695TIP3   OH232027   4.775   2.424   6.016
10695TIP3    H132028   4.696   2.409   6.068
10695TIP3    H232029   4.835   2.468   6.077
10696TIP3   OH232030   2.750   2.329   5.440
10696TIP3    H132031   2.817   2.305   5.503
10696TIP3    H232032   2.669   2.334   5.491
10697TIP3   OH232033   6.074   6.896   4.438
10697TIP3    H132034   6.153   6.940   4.469
10697TIP3    H232035   6.036   6.856   4.516
10698TIP3   OH232036   0.630   2.436   1.462
10698TIP3    H132037   0.623   2.358   1.408
10698TIP3    H232038   0.546   2.481   1.450
10699TIP3   OH232039   0.325   5.422   4.326
10699TIP3    H132040   0.305   5.357   4.260
10699TIP3    H232041   0.306   5.379   4.410
10700TIP3   OH232042   4.748   1.910   2.927
10700TIP3    H132043   4.831   1.929   2.971
10700TIP3    H232044   4.682   1.956   2.979
10701TIP3   OH232045   6.388   0.166   5.479
10701TIP3    H132046   6.319   0.229   5.504
10701TIP3    H232047   6.391   0.171   5.384
10702TIP3   OH232048   2.096   5.974   1.058
10702TIP3    H132049   2.159   5.999   1.125
10702TIP3    H232050   2.073   6.056   1.014
10703TIP3   OH232051   3.756   6.317   2.186
10703TIP3    H132052   3.694   6.373   2.141
10703TIP3    H232053   3.823   6.297   2.120
10704TIP3   OH232054   1.167   4.000   2.688
10704TIP3    H132055   1.072   4.008   2.694
10704TIP3    H232056   1.197   4.089   2.669
10705TIP3   OH232057   6.832   5.737   4.578
10705TIP3    H132058   6.906   5.677   4.589
10705TIP3    H232059   6.859   5.816   4.626
10706TIP3   OH232060   7.601   2.321   3.784
10706TIP3    H132061   7.613   2.226   3.789
10706TIP3    H232062   7.606   2.351   3.874
10707TIP3   OH232063   1.463   5.191   6.620
10707TIP3    H132064   1.553   5.168   6.644
10707TIP3    H232065   1.473   5.263   6.558
10708TIP3   OH232066   5.564   4.097   3.873
10708TIP3    H132067   5.605   4.181   3.894
10708TIP3    H232068   5.482   4.120   3.829
10709TIP3   OH232069   4.168   4.003   3.828
10709TIP3    H132070   4.144   3.949   3.904
10709TIP3    H232071   4.087   4.009   3.777
10710TIP3   OH232072   5.142   5.503   0.434
10710TIP3    H132073   5.088   5.581   0.443
10710TIP3    H232074   5.084   5.431   0.459
10711TIP3   OH232075   3.844   0.847   2.493
10711TIP3    H132076   3.852   0.790   2.569
10711TIP3    H232077   3.756   0.829   2.459
10712TIP3   OH232078   6.134   6.055   3.279
10712TIP3    H132079   6.200   5.991   3.253
10712TIP3    H232080   6.169   6.094   3.359
10713TIP3   OH232081   5.397   1.545   0.829
10713TIP3    H132082   5.401   1.461   0.875
10713TIP3    H232083   5.318   1.539   0.775
10714TIP3   OH232084   7.279   6.269   1.441
10714TIP3    H132085   7.332   6.214   1.384
10714TIP3    H232086   7.316   6.257   1.528
10715TIP3   OH232087   4.068   5.099   0.496
10715TIP3    H132088   4.134   5.030   0.488
10715TIP3    H232089   3.994   5.056   0.540
10716TIP3   OH232090   8.068   7.795   4.165
10716TIP3    H132091   8.131   7.746   4.114
10716TIP3    H232092   8.063   7.749   4.249
10717TIP3   OH232093   6.523   4.144   0.399
10717TIP3    H132094   6.488   4.193   0.473
10717TIP3    H232095   6.524   4.053   0.428
10718TIP3   OH232096   0.826   0.406   0.515
10718TIP3    H132097   0.845   0.327   0.565
10718TIP3    H232098   0.912   0.441   0.491
10719TIP3   OH232099   0.772   3.977   5.504
10719TIP3    H132100   0.726   4.049   5.462
10719TIP3    H232101   0.819   4.018   5.576
10720TIP3   OH232102   3.037   6.096   1.393
10720TIP3    H132103   3.020   6.148   1.471
10720TIP3    H232104   3.125   6.122   1.366
10721TIP3   OH232105   3.331   6.836   2.994
10721TIP3    H132106   3.271   6.872   2.929
10721TIP3    H232107   3.399   6.792   2.942
10722TIP3   OH232108   6.091   5.207   3.828
10722TIP3    H132109   6.081   5.172   3.740
10722TIP3    H232110   6.099   5.302   3.816
10723TIP3   OH232111   0.217   1.675   2.265
10723TIP3    H132112   0.307   1.649   2.246
10723TIP3    H232113   0.217   1.770   2.255
10724TIP3   OH232114   4.153   2.934   1.896
10724TIP3    H132115   4.183   3.013   1.940
10724TIP3    H232116   4.064   2.921   1.928
10725TIP3   OH232117   6.282   1.906   0.969
10725TIP3    H132118   6.222   1.912   0.894
10725TIP3    H232119   6.369   1.916   0.931
10726TIP3   OH232120   2.682   5.060   4.376
10726TIP3    H132121   2.621   5.059   4.450
10726TIP3    H232122   2.641   5.002   4.312
10727TIP3   OH232123   5.445   3.164   4.117
10727TIP3    H132124   5.492   3.168   4.033
10727TIP3    H232125   5.407   3.076   4.118
10728TIP3   OH232126   1.541   5.788   6.272
10728TIP3    H132127   1.595   5.867   6.282
10728TIP3    H232128   1.451   5.820   6.277
10729TIP3   OH232129   1.626   2.751   6.630
10729TIP3    H132130   1.612   2.736   6.536
10729TIP3    H232131   1.545   2.791   6.660
10730TIP3   OH232132   3.699   7.433   4.053
10730TIP3    H132133   3.720   7.405   3.964
10730TIP3    H232134   3.617   7.482   4.044
10731TIP3   OH232135   1.074   1.678   2.980
10731TIP3    H132136   1.117   1.749   2.932
10731TIP3    H232137   1.032   1.625   2.912
10732TIP3   OH232138   4.691   0.844   6.537
10732TIP3    H132139   4.731   0.912   6.482
10732TIP3    H232140   4.665   0.776   6.476
10733TIP3   OH232141   2.835   6.463   6.335
10733TIP3    H132142   2.804   6.391   6.281
10733TIP3    H232143   2.904   6.424   6.389
10734TIP3   OH232144   1.357   0.475   0.279
10734TIP3    H132145   1.413   0.490   0.202
10734TIP3    H232146   1.407   0.510   0.352
10735TIP3   OH232147   6.644   4.508   1.870
10735TIP3    H132148   6.557   4.512   1.909
10735TIP3    H232149   6.636   4.443   1.800
10736TIP3   OH232150   7.983   0.251   6.124
10736TIP3    H132151   7.920   0.318   6.148
10736TIP3    H232152   7.930   0.179   6.088
10737TIP3   OH232153   0.257   2.713   6.641
10737TIP3    H132154   0.234   2.649   6.708
10737TIP3    H232155   0.174   2.739   6.603
10738TIP3   OH232156   6.612   6.882   3.033
10738TIP3    H132157   6.553   6.957   3.043
10738TIP3    H232158   6.563   6.820   2.978
10739TIP3   OH232159   6.909   3.930   1.774
10739TIP3    H132160   6.999   3.898   1.766
10739TIP3    H232161   6.864   3.860   1.822
10740TIP3   OH232162   0.716   4.384   5.284
10740TIP3    H132163   0.674   4.311   5.330
10740TIP3    H232164   0.780   4.342   5.227
10741TIP3   OH232165   8.208   1.534   5.925
10741TIP3    H132166   8.122   1.494   5.939
10741TIP3    H232167   8.225   1.582   6.006
10742TIP3   OH232168   2.832   7.161   0.288
10742TIP3    H132169   2.855   7.127   0.375
10742TIP3    H232170   2.799   7.085   0.240
10743TIP3   OH232171   5.516   0.837   2.503
10743TIP3    H132172   5.594   0.785   2.484
10743TIP3    H232173   5.483   0.801   2.586
10744TIP3   OH232174   2.869   4.997   4.013
10744TIP3    H132175   2.808   5.062   4.048
10744TIP3    H232176   2.914   4.962   4.090
10745TIP3   OH232177   4.752   0.126   3.373
10745TIP3    H132178   4.679   0.148   3.316
10745TIP3    H232179   4.813   0.199   3.364
10746TIP3   OH232180   1.240   0.625   3.999
10746TIP3    H132181   1.244   0.720   3.985
10746TIP3    H232182   1.162   0.597   3.950
10747TIP3   OH232183   0.171   6.943   0.230
10747TIP3    H132184   0.179   6.848   0.228
10747TIP3    H232185   0.078   6.959   0.249
10748TIP3   OH232186   0.018   2.526   3.441
10748TIP3    H132187   0.061   2.450   3.400
10748TIP3    H232188   0.064   2.601   3.403
10749TIP3   OH232189   1.878   5.442   2.298
10749TIP3    H132190   1.853   5.365   2.246
10749TIP3    H232191   1.805   5.503   2.287
10750TIP3   OH232192   5.062   0.652   1.384
10750TIP3    H132193   5.035   0.734   1.344
10750TIP3    H232194   5.000   0.638   1.456
10751TIP3   OH232195   1.615   5.817   0.695
10751TIP3    H132196   1.660   5.901   0.698
10751TIP3    H232197   1.671   5.756   0.742
10752TIP3   OH232198   0.898   0.944   5.023
10752TIP3    H132199   0.930   1.029   5.053
10752TIP3    H232200   0.956   0.880   5.065
10753TIP3   OH232201   5.504   0.148   0.011
10753TIP3    H132202   5.504   0.244   0.007
10753TIP3    H232203   5.417   0.126   0.044
10754TIP3   OH232204   3.631   5.415   2.616
10754TIP3    H132205   3.710   5.425   2.561
10754TIP3    H232206   3.583   5.344   2.574
10755TIP3   OH232207   4.163   5.906   2.489
10755TIP3    H132208   4.257   5.910   2.476
10755TIP3    H232209   4.148   5.949   2.573
10756TIP3   OH232210   1.061   0.894   4.748
10756TIP3    H132211   0.989   0.846   4.708
10756TIP3    H232212   1.091   0.836   4.819
10757TIP3   OH232213   4.966   1.399   3.270
10757TIP3    H132214   4.983   1.326   3.210
10757TIP3    H232215   5.052   1.434   3.291
10758TIP3   OH232216   6.187   6.035   1.319
10758TIP3    H132217   6.187   6.113   1.374
10758TIP3    H232218   6.280   6.014   1.308
10759TIP3   OH232219   6.268   2.838   0.949
10759TIP3    H132220   6.213   2.764   0.975
10759TIP3    H232221   6.319   2.860   1.027
10760TIP3   OH232222   4.722   5.032   2.951
10760TIP3    H132223   4.768   4.958   2.911
10760TIP3    H232224   4.696   5.000   3.037
10761TIP3   OH232225   3.672   4.348   2.742
10761TIP3    H132226   3.600   4.342   2.679
10761TIP3    H232227   3.721   4.425   2.714
10762TIP3   OH232228   6.764   2.853   5.590
10762TIP3    H132229   6.842   2.868   5.537
10762TIP3    H232230   6.782   2.899   5.672
10763TIP3   OH232231   2.685   2.736   3.937
10763TIP3    H132232   2.706   2.693   4.019
10763TIP3    H232233   2.684   2.829   3.958
10764TIP3   OH232234   8.071   5.795   4.280
10764TIP3    H132235   8.165   5.789   4.297
10764TIP3    H232236   8.042   5.704   4.271
10765TIP3   OH232237   2.220   5.212   6.030
10765TIP3    H132238   2.200   5.305   6.028
10765TIP3    H232239   2.312   5.208   6.059
10766TIP3   OH232240   4.078   0.244   1.150
10766TIP3    H132241   4.048   0.244   1.241
10766TIP3    H232242   4.167   0.210   1.154
10767TIP3   OH232243   6.931   2.196   4.748
10767TIP3    H132244   6.884   2.114   4.733
10767TIP3    H232245   7.017   2.182   4.707
10768TIP3   OH232246   1.517   2.979   0.679
10768TIP3    H132247   1.539   2.905   0.622
10768TIP3    H232248   1.560   2.958   0.763
10769TIP3   OH232249   7.459   4.289   3.437
10769TIP3    H132250   7.500   4.285   3.523
10769TIP3    H232251   7.367   4.269   3.453
10770TIP3   OH232252   1.742   6.870   0.676
10770TIP3    H132253   1.747   6.884   0.582
10770TIP3    H232254   1.833   6.869   0.706
10771TIP3   OH232255   5.886   7.816   5.934
10771TIP3    H132256   5.981   7.826   5.943
10771TIP3    H232257   5.876   7.750   5.865
10772TIP3   OH232258   1.430   1.023   6.522
10772TIP3    H132259   1.442   1.116   6.503
10772TIP3    H232260   1.341   1.003   6.493
10773TIP3   OH232261   1.782   4.804   0.595
10773TIP3    H132262   1.866   4.764   0.569
10773TIP3    H232263   1.718   4.767   0.534
10774TIP3   OH232264   8.174   3.415   5.126
10774TIP3    H132265   8.166   3.451   5.214
10774TIP3    H232266   8.201   3.490   5.073
10775TIP3   OH232267   7.196   4.577   1.613
10775TIP3    H132268   7.263   4.510   1.629
10775TIP3    H232269   7.184   4.620   1.697
10776TIP3   OH232270   2.434   2.947   0.826
10776TIP3    H132271   2.446   2.890   0.902
10776TIP3    H232272   2.484   2.904   0.756
10777TIP3   OH232273   1.367   5.684   6.034
10777TIP3    H132274   1.299   5.680   5.967
10777TIP3    H232275   1.403   5.595   6.037
10778TIP3   OH232276   0.396   3.809   2.779
10778TIP3    H132277   0.372   3.841   2.692
10778TIP3    H232278   0.312   3.784   2.819
10779TIP3   OH232279   1.229   5.016   1.096
10779TIP3    H132280   1.203   4.995   1.186
10779TIP3    H232281   1.324   5.001   1.094
10780TIP3   OH232282   1.143   4.566   1.794
10780TIP3    H132283   1.141   4.660   1.776
10780TIP3    H232284   1.237   4.545   1.799
10781TIP3   OH232285   2.519   4.597   5.103
10781TIP3    H132286   2.539   4.504   5.092
10781TIP3    H232287   2.457   4.601   5.176
10782TIP3   OH232288   5.820   1.661   1.186
10782TIP3    H132289   5.733   1.641   1.150
10782TIP3    H232290   5.847   1.579   1.227
10783TIP3   OH232291   1.853   4.170   2.081
10783TIP3    H132292   1.948   4.162   2.090
10783TIP3    H232293   1.839   4.262   2.059
10784TIP3   OH232294   3.695   6.229   5.254
10784TIP3    H132295   3.643   6.175   5.194
10784TIP3    H232296   3.713   6.309   5.204
10785TIP3   OH232297   4.737   7.827   4.780
10785TIP3    H132298   4.766   7.741   4.810
10785TIP3    H232299   4.746   7.884   4.856
10786TIP3   OH232300   4.851   5.168   0.076
10786TIP3    H132301   4.934   5.157   0.029
10786TIP3    H232302   4.871   5.144   0.166
10787TIP3   OH232303   4.209   1.391   1.908
10787TIP3    H132304   4.288   1.370   1.857
10787TIP3    H232305   4.179   1.475   1.872
10788TIP3   OH232306   1.218   5.542   1.074
10788TIP3    H132307   1.190   5.463   1.121
10788TIP3    H232308   1.265   5.594   1.139
10789TIP3   OH232309   0.716   0.120   2.771
10789TIP3    H132310   0.713   0.171   2.852
10789TIP3    H232311   0.808   0.099   2.759
10790TIP3   OH232312   4.544   0.816   4.199
10790TIP3    H132313   4.581   0.867   4.128
10790TIP3    H232314   4.589   0.848   4.278
10791TIP3   OH232315   6.453   7.520   1.921
10791TIP3    H132316   6.454   7.614   1.940
10791TIP3    H232317   6.544   7.500   1.900
10792TIP3   OH232318   0.143   5.301   2.394
10792TIP3    H132319   0.147   5.211   2.427
10792TIP3    H232320   0.116   5.353   2.469
10793TIP3   OH232321   1.893   4.977   0.229
10793TIP3    H132322   1.882   5.010   0.140
10793TIP3    H232323   1.811   4.932   0.248
10794TIP3   OH232324   6.578   4.548   4.737
10794TIP3    H132325   6.612   4.465   4.769
10794TIP3    H232326   6.483   4.540   4.744
10795TIP3   OH232327   6.897   5.082   3.366
10795TIP3    H132328   6.955   5.151   3.333
10795TIP3    H232329   6.956   5.012   3.393
10796TIP3   OH232330   4.676   6.337   6.686
10796TIP3    H132331   4.599   6.330   6.743
10796TIP3    H232332   4.710   6.425   6.702
10797TIP3   OH232333   5.187   3.148   4.433
10797TIP3    H132334   5.195   3.174   4.524
10797TIP3    H232335   5.237   3.214   4.385
10798TIP3   OH232336   4.238   0.808   6.703
10798TIP3    H132337   4.203   0.857   6.777
10798TIP3    H232338   4.252   0.720   6.737
10799TIP3   OH232339   0.087   1.964   0.076
10799TIP3    H132340   0.166   1.995   0.030
10799TIP3    H232341   0.063   2.036   0.134
10800TIP3   OH232342   1.545   7.800   3.538
10800TIP3    H132343   1.636   7.779   3.518
10800TIP3    H232344   1.502   7.800   3.452
10801TIP3   OH232345   1.585   1.723   2.524
10801TIP3    H132346   1.572   1.652   2.587
10801TIP3    H232347   1.629   1.682   2.450
10802TIP3   OH232348   7.097   7.064   4.045
10802TIP3    H132349   7.051   6.984   4.071
10802TIP3    H232350   7.187   7.050   4.072
10803TIP3   OH232351   2.769   3.340   6.786
10803TIP3    H132352   2.778   3.433   6.804
10803TIP3    H232353   2.775   3.333   6.691
10804TIP3   OH232354   0.137   3.906   3.966
10804TIP3    H132355   0.074   3.977   3.951
10804TIP3    H232356   0.140   3.859   3.882
10805TIP3   OH232357   4.946   5.792   3.845
10805TIP3    H132358   4.900   5.876   3.846
10805TIP3    H232359   4.882   5.729   3.879
10806TIP3   OH232360   3.473   6.498   2.806
10806TIP3    H132361   3.380   6.486   2.785
10806TIP3    H232362   3.519   6.438   2.747
10807TIP3   OH232363   7.739   5.330   6.460
10807TIP3    H132364   7.766   5.238   6.453
10807TIP3    H232365   7.812   5.373   6.504
10808TIP3   OH232366   7.092   2.721   0.666
10808TIP3    H132367   7.120   2.798   0.716
10808TIP3    H232368   7.130   2.734   0.579
10809TIP3   OH232369   6.837   5.957   3.098
10809TIP3    H132370   6.766   5.924   3.153
10809TIP3    H232371   6.807   5.944   3.008
10810TIP3   OH232372   2.444   1.055   6.080
10810TIP3    H132373   2.349   1.043   6.086
10810TIP3    H232374   2.462   1.058   5.986
10811TIP3   OH232375   1.104   3.913   0.729
10811TIP3    H132376   1.024   3.878   0.690
10811TIP3    H232377   1.120   3.995   0.684
10812TIP3   OH232378   6.470   5.003   4.820
10812TIP3    H132379   6.448   5.023   4.911
10812TIP3    H232380   6.446   4.910   4.810
10813TIP3   OH232381   5.388   3.192   2.894
10813TIP3    H132382   5.331   3.246   2.949
10813TIP3    H232383   5.430   3.254   2.835
10814TIP3   OH232384   5.845   6.766   1.613
10814TIP3    H132385   5.790   6.817   1.673
10814TIP3    H232386   5.907   6.721   1.671
10815TIP3   OH232387   4.454   1.252   2.770
10815TIP3    H132388   4.433   1.160   2.754
10815TIP3    H232389   4.399   1.301   2.709
10816TIP3   OH232390   7.857   7.786   3.775
10816TIP3    H132391   7.849   7.878   3.752
10816TIP3    H232392   7.948   7.763   3.754
10817TIP3   OH232393   7.066   0.994   5.029
10817TIP3    H132394   7.065   0.922   5.093
10817TIP3    H232395   7.016   1.064   5.071
10818TIP3   OH232396   5.695   4.846   4.219
10818TIP3    H132397   5.771   4.900   4.196
10818TIP3    H232398   5.733   4.769   4.262
10819TIP3   OH232399   5.359   7.440   4.054
10819TIP3    H132400   5.391   7.521   4.013
10819TIP3    H232401   5.439   7.395   4.082
10820TIP3   OH232402   0.140   2.702   5.494
10820TIP3    H132403   0.074   2.768   5.476
10820TIP3    H232404   0.196   2.701   5.417
10821TIP3   OH232405   7.940   3.614   3.393
10821TIP3    H132406   7.915   3.547   3.329
10821TIP3    H232407   8.015   3.576   3.439
10822TIP3   OH232408   1.595   3.254   2.452
10822TIP3    H132409   1.601   3.191   2.380
10822TIP3    H232410   1.584   3.201   2.531
10823TIP3   OH232411   1.595   2.016   4.372
10823TIP3    H132412   1.523   1.961   4.403
10823TIP3    H232413   1.628   1.970   4.294
10824TIP3   OH232414   0.840   6.200   2.465
10824TIP3    H132415   0.851   6.245   2.382
10824TIP3    H232416   0.828   6.270   2.530
10825TIP3   OH232417   0.052   1.073   3.064
10825TIP3    H132418   0.023   1.074   3.155
10825TIP3    H232419   0.074   1.165   3.045
10826TIP3   OH232420   6.549   2.813   2.575
10826TIP3    H132421   6.538   2.798   2.669
10826TIP3    H232422   6.590   2.899   2.569
10827TIP3   OH232423   6.383   2.982   6.552
10827TIP3    H132424   6.332   2.910   6.589
10827TIP3    H232425   6.470   2.944   6.538
10828TIP3   OH232426   5.540   2.979   2.050
10828TIP3    H132427   5.503   3.058   2.090
10828TIP3    H232428   5.488   2.965   1.971
10829TIP3   OH232429   7.441   2.282   3.140
10829TIP3    H132430   7.407   2.266   3.052
10829TIP3    H232431   7.518   2.338   3.127
10830TIP3   OH232432   0.184   5.364   0.765
10830TIP3    H132433   0.269   5.348   0.725
10830TIP3    H232434   0.121   5.350   0.694
10831TIP3   OH232435   5.131   1.821   2.794
10831TIP3    H132436   5.099   1.836   2.883
10831TIP3    H232437   5.142   1.909   2.757
10832TIP3   OH232438   4.392   6.138   0.427
10832TIP3    H132439   4.392   6.067   0.491
10832TIP3    H232440   4.299   6.155   0.410
10833TIP3   OH232441   5.034   5.642   6.704
10833TIP3    H132442   4.968   5.634   6.772
10833TIP3    H232443   5.117   5.640   6.751
10834TIP3   OH232444   5.375   3.972   6.694
10834TIP3    H132445   5.345   3.883   6.706
10834TIP3    H232446   5.343   4.019   6.771
10835TIP3   OH232447   7.358   5.109   3.903
10835TIP3    H132448   7.264   5.121   3.890
10835TIP3    H232449   7.367   5.085   3.995
10836TIP3   OH232450   5.851   2.010   2.072
10836TIP3    H132451   5.804   1.976   2.148
10836TIP3    H232452   5.821   1.956   2.000
10837TIP3   OH232453   7.156   4.730   5.647
10837TIP3    H132454   7.170   4.706   5.555
10837TIP3    H232455   7.078   4.785   5.646
10838TIP3   OH232456   0.850   4.450   2.452
10838TIP3    H132457   0.807   4.534   2.468
10838TIP3    H232458   0.859   4.444   2.357
10839TIP3   OH232459   1.556   3.332   0.837
10839TIP3    H132460   1.522   3.404   0.783
10839TIP3    H232461   1.642   3.363   0.867
10840TIP3   OH232462   0.433   7.646   0.644
10840TIP3    H132463   0.347   7.686   0.656
10840TIP3    H232464   0.494   7.720   0.653
10841TIP3   OH232465   2.880   7.529   2.159
10841TIP3    H132466   2.822   7.594   2.122
10841TIP3    H232467   2.968   7.558   2.134
10842TIP3   OH232468   1.097   2.916   1.926
10842TIP3    H132469   1.109   2.937   2.019
10842TIP3    H232470   1.043   2.837   1.926
10843TIP3   OH232471   8.199   5.455   5.863
10843TIP3    H132472   8.245   5.475   5.945
10843TIP3    H232473   8.259   5.398   5.815
10844TIP3   OH232474   0.180   2.020   6.198
10844TIP3    H132475   0.159   1.936   6.155
10844TIP3    H232476   0.100   2.072   6.188
10845TIP3   OH232477   3.134   5.725  -0.006
10845TIP3    H132478   3.205   5.681   0.040
10845TIP3    H232479   3.068   5.657  -0.018
10846TIP3   OH232480   7.566   5.555   6.673
10846TIP3    H132481   7.645   5.530   6.721
10846TIP3    H232482   7.538   5.636   6.715
10847TIP3   OH232483   4.660   4.253   0.468
10847TIP3    H132484   4.676   4.347   0.463
10847TIP3    H232485   4.566   4.245   0.484
10848TIP3   OH232486   2.583   2.579   3.442
10848TIP3    H132487   2.501   2.586   3.492
10848TIP3    H232488   2.613   2.669   3.433
10849TIP3   OH232489   1.052   2.174   3.875
10849TIP3    H132490   1.136   2.129   3.865
10849TIP3    H232491   1.074   2.258   3.913
10850TIP3   OH232492   0.489   4.404   3.776
10850TIP3    H132493   0.444   4.472   3.727
10850TIP3    H232494   0.442   4.400   3.860
10851TIP3   OH232495   6.930   5.105   6.475
10851TIP3    H132496   7.013   5.116   6.521
10851TIP3    H232497   6.867   5.082   6.543
10852TIP3   OH232498   7.738   5.044   6.366
10852TIP3    H132499   7.799   4.971   6.375
10852TIP3    H232500   7.671   5.028   6.433
10853TIP3   OH232501   4.190   2.564   2.543
10853TIP3    H132502   4.181   2.620   2.620
10853TIP3    H232503   4.277   2.524   2.551
10854TIP3   OH232504   1.986   5.274   1.646
10854TIP3    H132505   1.916   5.218   1.679
10854TIP3    H232506   1.941   5.346   1.603
10855TIP3   OH232507   0.850   4.684   3.059
10855TIP3    H132508   0.795   4.761   3.074
10855TIP3    H232509   0.878   4.658   3.147
10856TIP3   OH232510   4.629   7.234   0.423
10856TIP3    H132511   4.672   7.312   0.391
10856TIP3    H232512   4.555   7.221   0.364
10857TIP3   OH232513   3.992   3.530   3.768
10857TIP3    H132514   4.065   3.535   3.707
10857TIP3    H232515   3.934   3.601   3.743
10858TIP3   OH232516   0.512   1.146   6.629
10858TIP3    H132517   0.514   1.147   6.725
10858TIP3    H232518   0.572   1.215   6.603
10859TIP3   OH232519   3.955   7.685   0.519
10859TIP3    H132520   4.032   7.682   0.463
10859TIP3    H232521   3.936   7.779   0.529
10860TIP3   OH232522   6.113   0.464   4.057
10860TIP3    H132523   6.121   0.383   4.006
10860TIP3    H232524   6.063   0.523   4.001
10861TIP3   OH232525   6.343   7.016   4.286
10861TIP3    H132526   6.316   6.998   4.376
10861TIP3    H232527   6.275   7.074   4.251
10862TIP3   OH232528   5.091   6.788   2.185
10862TIP3    H132529   5.168   6.822   2.139
10862TIP3    H232530   5.021   6.849   2.163
10863TIP3   OH232531   4.991   1.963   5.820
10863TIP3    H132532   5.060   1.901   5.798
10863TIP3    H232533   5.003   1.981   5.913
10864TIP3   OH232534   1.579   6.390   6.184
10864TIP3    H132535   1.609   6.481   6.184
10864TIP3    H232536   1.551   6.374   6.274
10865TIP3   OH232537   6.711   2.903   1.518
10865TIP3    H132538   6.635   2.924   1.572
10865TIP3    H232539   6.759   2.986   1.512
10866TIP3   OH232540   0.685   0.524   2.380
10866TIP3    H132541   0.726   0.609   2.397
10866TIP3    H232542   0.699   0.475   2.461
10867TIP3   OH232543   8.181   0.256   4.739
10867TIP3    H132544   8.220   0.300   4.663
10867TIP3    H232545   8.248   0.195   4.769
10868TIP3   OH232546   2.878   6.377   6.675
10868TIP3    H132547   2.786   6.351   6.669
10868TIP3    H232548   2.926   6.303   6.638
10869TIP3   OH232549   4.536   0.096   2.127
10869TIP3    H132550   4.611   0.125   2.179
10869TIP3    H232551   4.557   0.007   2.100
10870TIP3   OH232552   7.105   2.845   1.557
10870TIP3    H132553   7.192   2.863   1.594
10870TIP3    H232554   7.064   2.786   1.619
10871TIP3   OH232555   2.549   5.728   5.574
10871TIP3    H132556   2.478   5.779   5.534
10871TIP3    H232557   2.565   5.771   5.658
10872TIP3   OH232558   3.652   0.699   4.751
10872TIP3    H132559   3.596   0.641   4.803
10872TIP3    H232560   3.704   0.746   4.816
10873TIP3   OH232561   2.199   4.253   3.535
10873TIP3    H132562   2.249   4.321   3.581
10873TIP3    H232563   2.260   4.218   3.471
10874TIP3   OH232564   4.149   2.191   0.602
10874TIP3    H132565   4.179   2.158   0.517
10874TIP3    H232566   4.054   2.179   0.600
10875TIP3   OH232567   6.104   4.835   2.563
10875TIP3    H132568   6.028   4.864   2.513
10875TIP3    H232569   6.102   4.888   2.643
10876TIP3   OH232570   5.907   6.254   5.384
10876TIP3    H132571   5.848   6.301   5.443
10876TIP3    H232572   5.916   6.311   5.308
10877TIP3   OH232573   6.443   7.609   6.433
10877TIP3    H132574   6.492   7.570   6.506
10877TIP3    H232575   6.392   7.536   6.397
10878TIP3   OH232576   5.924   7.034   3.671
10878TIP3    H132577   6.013   6.999   3.678
10878TIP3    H232578   5.921   7.105   3.736
10879TIP3   OH232579   4.385   7.564   5.227
10879TIP3    H132580   4.420   7.477   5.246
10879TIP3    H232581   4.446   7.624   5.269
10880TIP3   OH232582   6.809   1.785   0.920
10880TIP3    H132583   6.830   1.877   0.904
10880TIP3    H232584   6.894   1.741   0.930
10881TIP3   OH232585   7.784   3.152   2.828
10881TIP3    H132586   7.704   3.167   2.777
10881TIP3    H232587   7.773   3.205   2.906
10882TIP3   OH232588   1.223   7.436   3.219
10882TIP3    H132589   1.220   7.503   3.151
10882TIP3    H232590   1.261   7.359   3.176
10883TIP3   OH232591   5.841   1.734   6.421
10883TIP3    H132592   5.928   1.731   6.383
10883TIP3    H232593   5.813   1.826   6.411
10884TIP3   OH232594   6.156   6.048   2.550
10884TIP3    H132595   6.065   6.062   2.574
10884TIP3    H232596   6.164   6.085   2.462
10885TIP3   OH232597   7.328   1.136   3.867
10885TIP3    H132598   7.422   1.121   3.877
10885TIP3    H232599   7.299   1.164   3.954
10886TIP3   OH232600   2.297   5.253   5.483
10886TIP3    H132601   2.254   5.168   5.492
10886TIP3    H232602   2.225   5.316   5.482
10887TIP3   OH232603   4.713   2.955   6.185
10887TIP3    H132604   4.788   3.014   6.195
10887TIP3    H232605   4.680   2.944   6.274
10888TIP3   OH232606   6.028   3.301   4.998
10888TIP3    H132607   5.981   3.237   5.052
10888TIP3    H232608   6.072   3.358   5.061
10889TIP3   OH232609   0.736   7.401   3.870
10889TIP3    H132610   0.732   7.437   3.781
10889TIP3    H232611   0.727   7.477   3.927
10890TIP3   OH232612   6.170   6.487   2.342
10890TIP3    H132613   6.206   6.538   2.269
10890TIP3    H232614   6.077   6.508   2.342
10891TIP3   OH232615   1.813   2.208   5.190
10891TIP3    H132616   1.891   2.153   5.187
10891TIP3    H232617   1.846   2.295   5.212
10892TIP3   OH232618   8.174   3.796   2.990
10892TIP3    H132619   8.179   3.891   2.982
10892TIP3    H232620   8.120   3.781   3.067
10893TIP3   OH232621   2.131   7.664   6.692
10893TIP3    H132622   2.061   7.600   6.679
10893TIP3    H232623   2.159   7.651   6.783
10894TIP3   OH232624   0.250   0.855   1.601
10894TIP3    H132625   0.211   0.771   1.625
10894TIP3    H232626   0.175   0.913   1.587
10895TIP3   OH232627   3.405   6.167   0.555
10895TIP3    H132628   3.342   6.238   0.567
10895TIP3    H232629   3.351   6.089   0.545
10896TIP3   OH232630   6.608   0.802   1.234
10896TIP3    H132631   6.605   0.721   1.184
10896TIP3    H232632   6.684   0.849   1.200
10897TIP3   OH232633   7.171   2.578   3.506
10897TIP3    H132634   7.209   2.511   3.449
10897TIP3    H232635   7.224   2.573   3.586
10898TIP3   OH232636   1.338   0.330   2.256
10898TIP3    H132637   1.367   0.382   2.331
10898TIP3    H232638   1.364   0.241   2.276
10899TIP3   OH232639   7.634   0.759   1.826
10899TIP3    H132640   7.703   0.771   1.891
10899TIP3    H232641   7.666   0.688   1.771
10900TIP3   OH232642   2.573   6.750   4.597
10900TIP3    H132643   2.496   6.766   4.543
10900TIP3    H232644   2.538   6.732   4.684
10901TIP3   OH232645   3.870   2.046   1.065
10901TIP3    H132646   3.950   2.089   1.037
10901TIP3    H232647   3.802   2.082   1.008
10902TIP3   OH232648   7.011   1.075   0.787
10902TIP3    H132649   6.931   1.122   0.762
10902TIP3    H232650   6.981   1.004   0.844
10903TIP3   OH232651   3.757   0.687   1.538
10903TIP3    H132652   3.829   0.671   1.599
10903TIP3    H232653   3.790   0.659   1.453
10904TIP3   OH232654   5.714   6.863   2.932
10904TIP3    H132655   5.709   6.913   3.014
10904TIP3    H232656   5.790   6.807   2.943
10905TIP3   OH232657   7.387   7.105   3.090
10905TIP3    H132658   7.410   7.040   3.157
10905TIP3    H232659   7.422   7.068   3.009
10906TIP3   OH232660   7.264   0.326   5.203
10906TIP3    H132661   7.315   0.265   5.256
10906TIP3    H232662   7.235   0.273   5.128
10907TIP3   OH232663   2.147   4.127   2.120
10907TIP3    H132664   2.210   4.067   2.159
10907TIP3    H232665   2.176   4.214   2.147
10908TIP3   OH232666   0.298   4.130   3.949
10908TIP3    H132667   0.279   4.170   4.034
10908TIP3    H232668   0.269   4.039   3.959
10909TIP3   OH232669   0.007   3.060   6.703
10909TIP3    H132670   0.094   3.090   6.726
10909TIP3    H232671  -0.025   3.015   6.782
10910TIP3   OH232672   2.895   5.742   2.228
10910TIP3    H132673   2.801   5.729   2.241
10910TIP3    H232674   2.902   5.774   2.138
10911TIP3   OH232675   5.494   6.016   2.786
10911TIP3    H132676   5.407   6.056   2.776
10911TIP3    H232677   5.551   6.068   2.729
10912TIP3   OH232678   3.658   1.265   5.894
10912TIP3    H132679   3.652   1.355   5.927
10912TIP3    H232680   3.751   1.245   5.897
10913TIP3   OH232681   6.881   4.532   2.755
10913TIP3    H132682   6.882   4.438   2.774
10913TIP3    H232683   6.802   4.546   2.704
10914TIP3   OH232684   3.608   5.831   3.019
10914TIP3    H132685   3.562   5.787   2.947
10914TIP3    H232686   3.625   5.762   3.083
10915TIP3   OH232687   7.076   5.924   4.863
10915TIP3    H132688   7.045   5.929   4.773
10915TIP3    H232689   7.039   6.001   4.906
10916TIP3   OH232690   5.461   4.574   0.747
10916TIP3    H132691   5.552   4.554   0.725
10916TIP3    H232692   5.462   4.667   0.768
10917TIP3   OH232693   6.372   4.027   5.006
10917TIP3    H132694   6.293   4.079   4.994
10917TIP3    H232695   6.415   4.029   4.920
10918TIP3   OH232696   4.278   1.442   5.466
10918TIP3    H132697   4.350   1.496   5.499
10918TIP3    H232698   4.312   1.403   5.386
10919TIP3   OH232699   3.380   5.894   3.266
10919TIP3    H132700   3.317   5.963   3.287
10919TIP3    H232701   3.462   5.923   3.307
10920TIP3   OH232702   1.632   4.765   3.859
10920TIP3    H132703   1.555   4.768   3.803
10920TIP3    H232704   1.605   4.713   3.935
10921TIP3   OH232705   3.148   7.724   0.061
10921TIP3    H132706   3.171   7.817   0.070
10921TIP3    H232707   3.054   7.724   0.043
10922TIP3   OH232708   8.012   2.320   3.010
10922TIP3    H132709   7.997   2.240   2.960
10922TIP3    H232710   8.008   2.293   3.102
10923TIP3   OH232711   2.855   4.056   1.465
10923TIP3    H132712   2.867   4.007   1.383
10923TIP3    H232713   2.772   4.024   1.500
10924TIP3   OH232714   6.236   3.471   4.863
10924TIP3    H132715   6.253   3.391   4.913
10924TIP3    H232716   6.220   3.441   4.774
10925TIP3   OH232717   5.443   0.289   4.828
10925TIP3    H132718   5.517   0.228   4.831
10925TIP3    H232719   5.396   0.274   4.910
10926TIP3   OH232720   2.995   5.516   3.802
10926TIP3    H132721   2.997   5.428   3.764
10926TIP3    H232722   2.992   5.575   3.727
10927TIP3   OH232723   0.019   2.927   4.985
10927TIP3    H132724   0.040   2.852   5.040
10927TIP3    H232725   0.020   3.002   5.045
10928TIP3   OH232726   6.420   3.721   5.528
10928TIP3    H132727   6.409   3.797   5.470
10928TIP3    H232728   6.431   3.647   5.469
10929TIP3   OH232729   3.131   6.774   0.497
10929TIP3    H132730   3.218   6.803   0.522
10929TIP3    H232731   3.142   6.736   0.410
10930TIP3   OH232732   1.125   5.734   3.359
10930TIP3    H132733   1.075   5.732   3.277
10930TIP3    H232734   1.074   5.679   3.419
10931TIP3   OH232735   3.921   3.479   4.817
10931TIP3    H132736   3.905   3.553   4.758
10931TIP3    H232737   3.910   3.515   4.905
10932TIP3   OH232738   2.811   2.911   6.388
10932TIP3    H132739   2.856   2.983   6.344
10932TIP3    H232740   2.879   2.845   6.399
10933TIP3   OH232741   0.166   4.461   5.635
10933TIP3    H132742   0.204   4.392   5.581
10933TIP3    H232743   0.205   4.447   5.722
10934TIP3   OH232744   5.676   6.493   5.923
10934TIP3    H132745   5.707   6.415   5.878
10934TIP3    H232746   5.615   6.534   5.861
10935TIP3   OH232747   1.896   1.356   3.375
10935TIP3    H132748   1.854   1.441   3.364
10935TIP3    H232749   1.886   1.313   3.290
10936TIP3   OH232750   6.023   3.659   2.892
10936TIP3    H132751   5.938   3.663   2.937
10936TIP3    H232752   6.018   3.579   2.840
10937TIP3   OH232753   8.007   7.688   4.727
10937TIP3    H132754   7.998   7.782   4.740
10937TIP3    H232755   8.086   7.664   4.775
10938TIP3   OH232756   2.156   5.647   0.208
10938TIP3    H132757   2.144   5.599   0.291
10938TIP3    H232758   2.231   5.604   0.166
10939TIP3   OH232759   4.397   6.195   1.298
10939TIP3    H132760   4.375   6.113   1.254
10939TIP3    H232761   4.487   6.184   1.327
10940TIP3   OH232762   7.815   6.432   0.890
10940TIP3    H132763   7.755   6.378   0.941
10940TIP3    H232764   7.758   6.497   0.847
10941TIP3   OH232765   1.867   1.403   6.430
10941TIP3    H132766   1.953   1.390   6.468
10941TIP3    H232767   1.831   1.478   6.477
10942TIP3   OH232768   4.125   7.601   5.171
10942TIP3    H132769   4.105   7.603   5.077
10942TIP3    H232770   4.218   7.579   5.175
10943TIP3   OH232771   3.884   2.667   6.507
10943TIP3    H132772   3.955   2.731   6.512
10943TIP3    H232773   3.866   2.658   6.413
10944TIP3   OH232774   5.625   2.692   2.407
10944TIP3    H132775   5.687   2.662   2.474
10944TIP3    H232776   5.678   2.701   2.328
10945TIP3   OH232777   6.542   2.517   2.108
10945TIP3    H132778   6.561   2.442   2.051
10945TIP3    H232779   6.574   2.490   2.194
10946TIP3   OH232780   0.760   1.281   5.385
10946TIP3    H132781   0.679   1.230   5.393
10946TIP3    H232782   0.743   1.361   5.435
10947TIP3   OH232783   8.016   5.328   1.986
10947TIP3    H132784   8.064   5.264   1.933
10947TIP3    H232785   8.030   5.299   2.077
10948TIP3   OH232786   2.416   4.693   3.200
10948TIP3    H132787   2.374   4.772   3.165
10948TIP3    H232788   2.502   4.692   3.157
10949TIP3   OH232789   6.298   1.226   4.308
10949TIP3    H132790   6.256   1.225   4.222
10949TIP3    H232791   6.265   1.306   4.349
10950TIP3   OH232792   6.330   2.133   2.649
10950TIP3    H132793   6.293   2.120   2.736
10950TIP3    H232794   6.413   2.085   2.650
10951TIP3   OH232795   7.007   6.351   0.295
10951TIP3    H132796   7.090   6.350   0.248
10951TIP3    H232797   7.026   6.394   0.378
10952TIP3   OH232798   0.203   3.876   2.126
10952TIP3    H132799   0.210   3.809   2.057
10952TIP3    H232800   0.264   3.847   2.193
10953TIP3   OH232801   2.799   2.421   6.610
10953TIP3    H132802   2.884   2.464   6.604
10953TIP3    H232803   2.785   2.407   6.703
10954TIP3   OH232804   0.568   4.484   6.522
10954TIP3    H132805   0.481   4.501   6.487
10954TIP3    H232806   0.608   4.424   6.459
10955TIP3   OH232807   5.424   6.180   5.273
10955TIP3    H132808   5.477   6.255   5.247
10955TIP3    H232809   5.485   6.106   5.272
10956TIP3   OH232810   4.844   5.952   5.259
10956TIP3    H132811   4.880   5.916   5.178
10956TIP3    H232812   4.904   6.023   5.282
10957TIP3   OH232813   4.372   0.048   5.071
10957TIP3    H132814   4.400   0.038   5.161
10957TIP3    H232815   4.289   0.000   5.066
10958TIP3   OH232816   7.640   2.015   5.383
10958TIP3    H132817   7.600   2.101   5.384
10958TIP3    H232818   7.574   1.957   5.421
10959TIP3   OH232819   5.125   7.062   5.374
10959TIP3    H132820   5.144   7.006   5.449
10959TIP3    H232821   5.091   7.143   5.413
10960TIP3   OH232822   6.828   4.972   4.004
10960TIP3    H132823   6.863   4.989   3.917
10960TIP3    H232824   6.836   5.056   4.050
10961TIP3   OH232825   6.512   6.355   4.044
10961TIP3    H132826   6.433   6.338   3.993
10961TIP3    H232827   6.565   6.412   3.988
10962TIP3   OH232828   5.636   2.358   0.665
10962TIP3    H132829   5.660   2.343   0.757
10962TIP3    H232830   5.565   2.295   0.649
10963TIP3   OH232831   7.716   0.042   5.489
10963TIP3    H132832   7.663  -0.007   5.425
10963TIP3    H232833   7.684   0.012   5.574
10964TIP3   OH232834   6.357   2.413   2.560
10964TIP3    H132835   6.397   2.457   2.635
10964TIP3    H232836   6.340   2.324   2.590
10965TIP3   OH232837   3.187   4.114   4.940
10965TIP3    H132838   3.151   4.025   4.944
10965TIP3    H232839   3.207   4.128   4.847
10966TIP3   OH232840   5.934   0.060   1.013
10966TIP3    H132841   5.899   0.147   0.996
10966TIP3    H232842   6.018   0.058   0.966
10967TIP3   OH232843   6.717   7.285   3.244
10967TIP3    H132844   6.719   7.236   3.326
10967TIP3    H232845   6.639   7.339   3.250
10968TIP3   OH232846   6.359   6.434   5.684
10968TIP3    H132847   6.408   6.434   5.602
10968TIP3    H232848   6.422   6.408   5.751
10969TIP3   OH232849   7.012   2.773   4.607
10969TIP3    H132850   7.091   2.759   4.659
10969TIP3    H232851   7.000   2.691   4.559
10970TIP3   OH232852   4.499   4.818   2.595
10970TIP3    H132853   4.423   4.760   2.582
10970TIP3    H232854   4.467   4.905   2.575
10971TIP3   OH232855   3.532   0.813   4.335
10971TIP3    H132856   3.453   0.866   4.335
10971TIP3    H232857   3.503   0.727   4.305
10972TIP3   OH232858   1.162   2.556   3.344
10972TIP3    H132859   1.089   2.577   3.286
10972TIP3    H232860   1.121   2.522   3.423
10973TIP3   OH232861   1.362   6.887   2.518
10973TIP3    H132862   1.445   6.847   2.542
10973TIP3    H232863   1.334   6.935   2.596
10974TIP3   OH232864   6.767   1.849   0.190
10974TIP3    H132865   6.787   1.796   0.268
10974TIP3    H232866   6.845   1.839   0.134
10975TIP3   OH232867   4.159   6.448   4.696
10975TIP3    H132868   4.083   6.413   4.741
10975TIP3    H232869   4.155   6.410   4.609
10976TIP3   OH232870   5.527   6.677   6.664
10976TIP3    H132871   5.593   6.746   6.654
10976TIP3    H232872   5.446   6.716   6.631
10977TIP3   OH232873   3.495   2.032   0.369
10977TIP3    H132874   3.412   2.076   0.353
10977TIP3    H232875   3.508   1.977   0.291
10978TIP3   OH232876   3.449   4.259   6.183
10978TIP3    H132877   3.497   4.297   6.109
10978TIP3    H232878   3.390   4.195   6.144
10979TIP3   OH232879   1.061   5.977   0.467
10979TIP3    H132880   1.145   5.973   0.513
10979TIP3    H232881   1.076   6.036   0.393
10980TIP3   OH232882   7.501   1.967   6.435
10980TIP3    H132883   7.541   2.028   6.497
10980TIP3    H232884   7.572   1.909   6.409
10981TIP3   OH232885   5.946   0.332   0.510
10981TIP3    H132886   5.929   0.423   0.487
10981TIP3    H232887   5.873   0.308   0.568
10982TIP3   OH232888   7.141   1.960   3.837
10982TIP3    H132889   7.116   2.025   3.903
10982TIP3    H232890   7.075   1.892   3.845
10983TIP3   OH232891   7.836   5.620   6.376
10983TIP3    H132892   7.856   5.662   6.459
10983TIP3    H232893   7.741   5.632   6.365
10984TIP3   OH232894   5.588   7.485   4.214
10984TIP3    H132895   5.626   7.491   4.302
10984TIP3    H232896   5.654   7.440   4.162
10985TIP3   OH232897   5.122   4.251   2.430
10985TIP3    H132898   5.095   4.328   2.480
10985TIP3    H232899   5.160   4.192   2.494
10986TIP3   OH232900   7.477   4.316   1.936
10986TIP3    H132901   7.523   4.306   2.020
10986TIP3    H232902   7.426   4.397   1.946
10987TIP3   OH232903   5.990   4.966   6.580
10987TIP3    H132904   5.945   4.882   6.573
10987TIP3    H232905   6.075   4.951   6.537
10988TIP3   OH232906   6.787   5.645   0.752
10988TIP3    H132907   6.701   5.620   0.716
10988TIP3    H232908   6.850   5.603   0.694
10989TIP3   OH232909   7.318   7.059   4.222
10989TIP3    H132910   7.359   7.136   4.260
10989TIP3    H232911   7.380   7.030   4.154
10990TIP3   OH232912   6.666   0.151   2.532
10990TIP3    H132913   6.649   0.108   2.616
10990TIP3    H232914   6.741   0.208   2.549
10991TIP3   OH232915   2.912   3.406   0.819
10991TIP3    H132916   3.004   3.432   0.818
10991TIP3    H232917   2.911   3.321   0.773
10992TIP3   OH232918   2.709   5.107   2.807
10992TIP3    H132919   2.690   5.088   2.715
10992TIP3    H232920   2.781   5.170   2.804
10993TIP3   OH232921   3.491   5.941   6.028
10993TIP3    H132922   3.488   6.020   6.082
10993TIP3    H232923   3.450   5.873   6.081
10994TIP3   OH232924   6.684   0.894   4.499
10994TIP3    H132925   6.598   0.852   4.500
10994TIP3    H232926   6.727   0.859   4.422
10995TIP3   OH232927   4.468   1.325   1.791
10995TIP3    H132928   4.504   1.272   1.721
10995TIP3    H232929   4.531   1.316   1.863
10996TIP3   OH232930   5.327   2.270   2.797
10996TIP3    H132931   5.278   2.350   2.778
10996TIP3    H232932   5.419   2.295   2.784
10997TIP3   OH232933   5.617   3.014   1.244
10997TIP3    H132934   5.588   3.104   1.254
10997TIP3    H232935   5.675   3.016   1.168
10998TIP3   OH232936   6.900   7.221   2.281
10998TIP3    H132937   6.827   7.163   2.258
10998TIP3    H232938   6.940   7.244   2.197
10999TIP3   OH232939   6.404   5.838   2.745
10999TIP3    H132940   6.404   5.773   2.675
10999TIP3    H232941   6.379   5.790   2.823
11000TIP3   OH232942   6.818   1.191   5.713
11000TIP3    H132943   6.904   1.232   5.708
11000TIP3    H232944   6.765   1.252   5.765
11001TIP3   OH232945   0.362   6.305   1.947
11001TIP3    H132946   0.295   6.243   1.917
11001TIP3    H232947   0.397   6.266   2.027
11002TIP3   OH232948   3.365   5.477   1.805
11002TIP3    H132949   3.368   5.485   1.900
11002TIP3    H232950   3.274   5.454   1.786
11003TIP3   OH232951   5.427   0.490   0.564
11003TIP3    H132952   5.452   0.579   0.538
11003TIP3    H232953   5.485   0.434   0.512
11004TIP3   OH232954   5.055   0.578   0.031
11004TIP3    H132955   5.018   0.566   0.118
11004TIP3    H232956   5.137   0.528   0.034
11005TIP3   OH232957   3.901   7.402   5.603
11005TIP3    H132958   3.983   7.443   5.575
11005TIP3    H232959   3.923   7.309   5.614
11006TIP3   OH232960   7.786   0.284   0.831
11006TIP3    H132961   7.783   0.202   0.782
11006TIP3    H232962   7.754   0.261   0.918
11007TIP3   OH232963   4.593   5.950   0.893
11007TIP3    H132964   4.626   6.018   0.951
11007TIP3    H232965   4.622   5.977   0.806
11008TIP3   OH232966   7.050   1.022   1.335
11008TIP3    H132967   6.981   1.015   1.400
11008TIP3    H232968   7.083   0.933   1.324
11009TIP3   OH232969   4.349   2.171   5.037
11009TIP3    H132970   4.307   2.251   5.006
11009TIP3    H232971   4.277   2.110   5.052
11010TIP3   OH232972   2.472   3.333   3.968
11010TIP3    H132973   2.550   3.372   3.928
11010TIP3    H232974   2.405   3.401   3.961
11011TIP3   OH232975   1.614   3.183   4.251
11011TIP3    H132976   1.613   3.274   4.221
11011TIP3    H232977   1.670   3.137   4.189
11012TIP3   OH232978   1.088   2.660   4.506
11012TIP3    H132979   1.126   2.680   4.591
11012TIP3    H232980   1.096   2.742   4.456
11013TIP3   OH232981   6.832   6.134   0.327
11013TIP3    H132982   6.893   6.208   0.327
11013TIP3    H232983   6.746   6.173   0.342
11014TIP3   OH232984   0.075   3.478   4.855
11014TIP3    H132985   0.007   3.543   4.837
11014TIP3    H232986   0.153   3.530   4.873
11015TIP3   OH232987   6.963   3.039   4.013
11015TIP3    H132988   6.902   2.973   4.045
11015TIP3    H232989   6.949   3.115   4.069
11016TIP3   OH232990   5.104   1.005   0.266
11016TIP3    H132991   5.192   1.037   0.281
11016TIP3    H232992   5.100   0.987   0.172
11017TIP3   OH232993   4.309   0.966   6.069
11017TIP3    H132994   4.290   0.902   6.137
11017TIP3    H232995   4.394   0.940   6.034
11018TIP3   OH232996   4.341   7.521   0.300
11018TIP3    H132997   4.291   7.587   0.347
11018TIP3    H232998   4.334   7.546   0.208
11019TIP3   OH232999   3.939   4.620   4.036
11019TIP3    H133000   3.845   4.610   4.026
11019TIP3    H233001   3.977   4.559   3.973
11020TIP3   OH233002   4.055   5.993   4.662
11020TIP3    H133003   4.101   5.978   4.579
11020TIP3    H233004   4.123   5.985   4.729
11021TIP3   OH233005   8.316   4.381   2.778
11021TIP3    H133006   8.305   4.403   2.686
11021TIP3    H233007   8.247   4.429   2.823
11022TIP3   OH233008   4.877   2.279   5.811
11022TIP3    H133009   4.831   2.308   5.890
11022TIP3    H233010   4.969   2.273   5.837
11023TIP3   OH233011   0.958   4.609   1.087
11023TIP3    H133012   0.962   4.703   1.069
11023TIP3    H233013   1.043   4.575   1.058
11024TIP3   OH233014   3.837   7.067   2.526
11024TIP3    H133015   3.911   7.121   2.553
11024TIP3    H233016   3.870   6.977   2.530
11025TIP3   OH233017   3.076   2.991   3.131
11025TIP3    H133018   3.144   3.024   3.189
11025TIP3    H233019   3.108   2.906   3.101
11026TIP3   OH233020   5.816   0.762   5.937
11026TIP3    H133021   5.748   0.740   5.874
11026TIP3    H233022   5.828   0.857   5.927
11027TIP3   OH233023   1.901   5.707   3.714
11027TIP3    H133024   1.921   5.753   3.796
11027TIP3    H233025   1.832   5.759   3.673
11028TIP3   OH233026   5.719   1.074   3.117
11028TIP3    H133027   5.689   1.131   3.188
11028TIP3    H233028   5.700   0.986   3.149
11029TIP3   OH233029   2.718   6.200   3.874
11029TIP3    H133030   2.649   6.156   3.924
11029TIP3    H233031   2.759   6.259   3.938
11030TIP3   OH233032   6.041   3.141   0.113
11030TIP3    H133033   6.049   3.193   0.033
11030TIP3    H233034   5.999   3.199   0.176
11031TIP3   OH233035   3.701   4.994   4.844
11031TIP3    H133036   3.676   5.079   4.881
11031TIP3    H233037   3.644   4.984   4.767
11032TIP3   OH233038   3.622   3.457   2.867
11032TIP3    H133039   3.664   3.534   2.828
11032TIP3    H233040   3.657   3.454   2.956
11033TIP3   OH233041   7.302   5.653   0.172
11033TIP3    H133042   7.364   5.723   0.193
11033TIP3    H233043   7.317   5.586   0.240
11034TIP3   OH233044   3.056   2.501   1.793
11034TIP3    H133045   3.085   2.460   1.712
11034TIP3    H233046   3.130   2.493   1.853
11035TIP3   OH233047   5.424   0.030   5.695
11035TIP3    H133048   5.451  -0.053   5.736
11035TIP3    H233049   5.462   0.098   5.750
11036TIP3   OH233050   3.431   3.861   3.690
11036TIP3    H133051   3.418   3.839   3.598
11036TIP3    H233052   3.382   3.794   3.738
11037TIP3   OH233053   2.731   5.069   1.597
11037TIP3    H133054   2.683   5.151   1.612
11037TIP3    H233055   2.765   5.045   1.683
11038TIP3   OH233056   2.521   0.499   5.126
11038TIP3    H133057   2.519   0.595   5.135
11038TIP3    H233058   2.438   0.477   5.085
11039TIP3   OH233059   4.851   0.914   1.284
11039TIP3    H133060   4.771   0.867   1.309
11039TIP3    H233061   4.874   0.877   1.198
11040TIP3   OH233062   6.917   1.982   2.867
11040TIP3    H133063   7.001   2.018   2.897
11040TIP3    H233064   6.941   1.902   2.821
11041TIP3   OH233065   1.069   6.247   3.029
11041TIP3    H133066   1.040   6.327   3.073
11041TIP3    H233067   1.079   6.272   2.937
11042TIP3   OH233068   2.232   0.555   3.810
11042TIP3    H133069   2.155   0.587   3.763
11042TIP3    H233070   2.196   0.522   3.893
11043TIP3   OH233071   7.522   6.431   5.249
11043TIP3    H133072   7.509   6.482   5.169
11043TIP3    H233073   7.502   6.341   5.225
11044TIP3   OH233074   6.284   5.996   6.192
11044TIP3    H133075   6.220   5.936   6.228
11044TIP3    H233076   6.331   6.031   6.268
11045TIP3   OH233077   5.406   3.965   4.622
11045TIP3    H133078   5.454   3.883   4.613
11045TIP3    H233079   5.427   4.014   4.542
11046TIP3   OH233080   3.162   4.531   5.803
11046TIP3    H133081   3.109   4.610   5.794
11046TIP3    H233082   3.148   4.502   5.893
11047TIP3   OH233083   4.108   5.135   5.285
11047TIP3    H133084   4.050   5.136   5.209
11047TIP3    H233085   4.053   5.102   5.357
11048TIP3   OH233086   5.071   3.984   1.318
11048TIP3    H133087   5.016   3.910   1.296
11048TIP3    H233088   5.155   3.966   1.275
11049TIP3   OH233089   1.569   7.328   6.523
11049TIP3    H133090   1.536   7.339   6.612
11049TIP3    H233091   1.521   7.252   6.489
11050TIP3   OH233092   4.369   5.421   1.657
11050TIP3    H133093   4.303   5.377   1.603
11050TIP3    H233094   4.401   5.352   1.715
11051TIP3   OH233095   4.646   7.144   4.541
11051TIP3    H133096   4.685   7.177   4.622
11051TIP3    H233097   4.717   7.095   4.499
11052TIP3   OH233098   2.265   2.409   2.475
11052TIP3    H133099   2.346   2.451   2.448
11052TIP3    H233100   2.288   2.360   2.554
11053TIP3   OH233101   7.891   3.507   0.841
11053TIP3    H133102   7.955   3.436   0.834
11053TIP3    H233103   7.935   3.583   0.803
11054TIP3   OH233104   7.269   2.783   0.389
11054TIP3    H133105   7.353   2.808   0.428
11054TIP3    H233106   7.251   2.850   0.324
11055TIP3   OH233107   3.002   0.897   1.469
11055TIP3    H133108   2.912   0.928   1.469
11055TIP3    H233109   3.005   0.830   1.537
11056TIP3   OH233110   7.987   2.384   6.021
11056TIP3    H133111   8.042   2.370   6.098
11056TIP3    H233112   7.941   2.301   6.009
11057TIP3   OH233113   6.357   7.239   3.540
11057TIP3    H133114   6.402   7.168   3.586
11057TIP3    H233115   6.365   7.315   3.598
11058TIP3   OH233116   8.206   5.963   4.790
11058TIP3    H133117   8.255   5.890   4.828
11058TIP3    H233118   8.253   5.986   4.710
11059TIP3   OH233119   2.005   7.111   2.445
11059TIP3    H133120   2.012   7.201   2.477
11059TIP3    H233121   2.044   7.058   2.514
11060TIP3   OH233122   3.922   5.897   6.477
11060TIP3    H133123   3.862   5.832   6.440
11060TIP3    H233124   3.919   5.881   6.572
11061TIP3   OH233125   0.125   0.462   3.725
11061TIP3    H133126   0.052   0.488   3.669
11061TIP3    H233127   0.100   0.375   3.757
11062TIP3   OH233128   6.886   6.114   3.739
11062TIP3    H133129   6.927   6.129   3.653
11062TIP3    H233130   6.889   6.200   3.782
11063TIP3   OH233131   1.642   4.097   2.240
11063TIP3    H133132   1.707   4.134   2.179
11063TIP3    H233133   1.694   4.056   2.309
11064TIP3   OH233134   4.593   1.343   2.083
11064TIP3    H133135   4.641   1.326   2.164
11064TIP3    H233136   4.546   1.425   2.100
11065TIP3   OH233137   5.501   4.252   1.769
11065TIP3    H133138   5.544   4.170   1.792
11065TIP3    H233139   5.530   4.314   1.836
11066TIP3   OH233140   7.290   0.217   3.610
11066TIP3    H133141   7.276   0.124   3.625
11066TIP3    H233142   7.345   0.221   3.532
11067TIP3   OH233143   3.378   5.994   4.882
11067TIP3    H133144   3.337   6.003   4.796
11067TIP3    H233145   3.457   5.942   4.866
11068TIP3   OH233146   0.938   4.436   5.534
11068TIP3    H133147   0.941   4.345   5.506
11068TIP3    H233148   0.951   4.487   5.454
11069TIP3   OH233149   7.833   6.231   3.966
11069TIP3    H133150   7.820   6.226   3.871
11069TIP3    H233151   7.925   6.211   3.979
11070TIP3   OH233152   5.302   5.820   2.228
11070TIP3    H133153   5.385   5.849   2.191
11070TIP3    H233154   5.258   5.902   2.254
11071TIP3   OH233155   6.583   6.913   4.917
11071TIP3    H133156   6.644   6.883   4.850
11071TIP3    H233157   6.639   6.960   4.980
11072TIP3   OH233158   3.953   1.682   6.377
11072TIP3    H133159   3.915   1.602   6.413
11072TIP3    H233160   4.011   1.652   6.308
11073TIP3   OH233161   0.317   2.514   2.165
11073TIP3    H133162   0.252   2.569   2.208
11073TIP3    H233163   0.315   2.543   2.073
11074TIP3   OH233164   4.503   0.603   2.652
11074TIP3    H133165   4.572   0.538   2.666
11074TIP3    H233166   4.484   0.598   2.559
11075TIP3   OH233167   4.210   0.436   1.369
11075TIP3    H133168   4.233   0.355   1.415
11075TIP3    H233169   4.276   0.499   1.397
11076TIP3   OH233170   6.093   4.661   3.939
11076TIP3    H133171   6.182   4.659   3.903
11076TIP3    H233172   6.076   4.753   3.957
11077TIP3   OH233173   1.276   6.354   5.250
11077TIP3    H133174   1.209   6.411   5.214
11077TIP3    H233175   1.338   6.414   5.292
11078TIP3   OH233176   7.955   5.384   5.485
11078TIP3    H133177   7.949   5.433   5.567
11078TIP3    H233178   8.044   5.349   5.485
11079TIP3   OH233179   3.771   2.898   0.975
11079TIP3    H133180   3.863   2.890   0.950
11079TIP3    H233181   3.731   2.950   0.905
11080TIP3   OH233182   8.102   3.613   0.705
11080TIP3    H133183   8.154   3.535   0.685
11080TIP3    H233184   8.129   3.677   0.639
11081TIP3   OH233185   7.859   6.025   6.424
11081TIP3    H133186   7.819   5.985   6.501
11081TIP3    H233187   7.876   5.952   6.365
11082TIP3   OH233188   4.124   4.907   6.689
11082TIP3    H133189   4.047   4.927   6.742
11082TIP3    H233190   4.096   4.838   6.630
11083TIP3   OH233191   0.063   4.334   6.495
11083TIP3    H133192   0.101   4.420   6.513
11083TIP3    H233193   0.114   4.300   6.421
11084TIP3   OH233194   3.070   3.838   5.257
11084TIP3    H133195   3.128   3.766   5.280
11084TIP3    H233196   3.031   3.865   5.341
11085TIP3   OH233197   3.183   2.427   5.403
11085TIP3    H133198   3.269   2.392   5.381
11085TIP3    H233199   3.124   2.352   5.400
11086TIP3   OH233200   1.962   6.938   2.238
11086TIP3    H133201   1.980   7.012   2.295
11086TIP3    H233202   2.043   6.924   2.190
11087TIP3   OH233203   5.475   3.459   0.825
11087TIP3    H133204   5.537   3.396   0.863
11087TIP3    H233205   5.531   3.530   0.792
11088TIP3   OH233206   7.684   6.045   1.493
11088TIP3    H133207   7.735   5.984   1.439
11088TIP3    H233208   7.749   6.108   1.525
11089TIP3   OH233209   0.721   3.184   4.595
11089TIP3    H133210   0.764   3.193   4.511
11089TIP3    H233211   0.735   3.268   4.639
11090TIP3   OH233212   0.349   5.108   0.327
11090TIP3    H133213   0.385   5.087   0.241
11090TIP3    H233214   0.380   5.038   0.384
11091TIP3   OH233215   2.712   0.429   1.866
11091TIP3    H133216   2.725   0.450   1.774
11091TIP3    H233217   2.765   0.351   1.881
11092TIP3   OH233218   3.032   5.281   1.009
11092TIP3    H133219   3.026   5.373   0.982
11092TIP3    H233220   2.943   5.257   1.032
11093TIP3   OH233221   7.468   6.255   2.902
11093TIP3    H133222   7.469   6.177   2.847
11093TIP3    H233223   7.524   6.233   2.976
11094TIP3   OH233224   0.180   4.970   1.314
11094TIP3    H133225   0.226   5.020   1.381
11094TIP3    H233226   0.202   5.013   1.232
11095TIP3   OH233227   1.253   1.609   3.795
11095TIP3    H133228   1.348   1.620   3.791
11095TIP3    H233229   1.217   1.696   3.777
11096TIP3   OH233230   6.738   6.796   5.336
11096TIP3    H133231   6.812   6.830   5.386
11096TIP3    H233232   6.686   6.874   5.314
11097TIP3   OH233233   7.032   0.728   1.455
11097TIP3    H133234   7.010   0.716   1.547
11097TIP3    H233235   6.959   0.689   1.407
11098TIP3   OH233236   3.073   5.936   3.952
11098TIP3    H133237   2.980   5.918   3.936
11098TIP3    H233238   3.074   6.024   3.991
11099TIP3   OH233239   0.718   3.353   5.167
11099TIP3    H133240   0.680   3.359   5.080
11099TIP3    H233241   0.773   3.431   5.174
11100TIP3   OH233242   4.264   3.633   3.334
11100TIP3    H133243   4.251   3.581   3.254
11100TIP3    H233244   4.304   3.715   3.303
11101TIP3   OH233245   5.415   1.466   4.625
11101TIP3    H133246   5.429   1.539   4.685
11101TIP3    H233247   5.372   1.399   4.678
11102TIP3   OH233248   5.486   2.805   4.251
11102TIP3    H133249   5.394   2.829   4.237
11102TIP3    H233250   5.532   2.840   4.175
11103TIP3   OH233251   0.933   1.090   1.130
11103TIP3    H133252   0.908   1.038   1.054
11103TIP3    H233253   0.891   1.175   1.116
11104TIP3   OH233254   1.517   5.085   4.196
11104TIP3    H133255   1.462   5.006   4.194
11104TIP3    H233256   1.455   5.156   4.212
11105TIP3   OH233257   6.084   3.940   1.785
11105TIP3    H133258   6.178   3.955   1.777
11105TIP3    H233259   6.047   4.027   1.797
11106TIP3   OH233260   5.752   7.652   0.889
11106TIP3    H133261   5.815   7.582   0.870
11106TIP3    H233262   5.805   7.722   0.927
11107TIP3   OH233263   7.055   7.684   3.910
11107TIP3    H133264   7.029   7.767   3.949
11107TIP3    H233265   7.003   7.618   3.956
11108TIP3   OH233266   1.656   6.730   1.257
11108TIP3    H133267   1.740   6.763   1.225
11108TIP3    H233268   1.611   6.807   1.290
11109TIP3   OH233269   5.041   7.448   2.667
11109TIP3    H133270   5.023   7.472   2.576
11109TIP3    H233271   4.957   7.458   2.711
11110TIP3   OH233272   4.674   6.620   1.310
11110TIP3    H133273   4.769   6.623   1.301
11110TIP3    H233274   4.646   6.550   1.250
11111TIP3   OH233275   4.749   3.221   5.303
11111TIP3    H133276   4.717   3.174   5.226
11111TIP3    H233277   4.841   3.197   5.310
11112TIP3   OH233278   7.111   7.657   2.983
11112TIP3    H133279   7.041   7.608   3.027
11112TIP3    H233280   7.179   7.592   2.967
11113TIP3   OH233281   4.412   6.856   4.433
11113TIP3    H133282   4.352   6.813   4.494
11113TIP3    H233283   4.356   6.901   4.371
11114TIP3   OH233284   0.628   6.888   5.288
11114TIP3    H133285   0.536   6.907   5.269
11114TIP3    H233286   0.649   6.814   5.232
11115TIP3   OH233287   6.740   3.259   5.548
11115TIP3    H133288   6.776   3.282   5.634
11115TIP3    H233289   6.805   3.293   5.486
11116TIP3   OH233290   6.831   5.075   1.414
11116TIP3    H133291   6.794   5.043   1.496
11116TIP3    H233292   6.756   5.112   1.366
11117TIP3   OH233293   2.454   2.553   0.610
11117TIP3    H133294   2.454   2.582   0.519
11117TIP3    H233295   2.444   2.458   0.605
11118TIP3   OH233296   1.861   4.535   2.428
11118TIP3    H133297   1.911   4.511   2.350
11118TIP3    H233298   1.881   4.627   2.442
11119TIP3   OH233299   2.225   0.759   5.465
11119TIP3    H133300   2.170   0.803   5.530
11119TIP3    H233301   2.286   0.706   5.517
11120TIP3   OH233302   3.416   1.756   1.727
11120TIP3    H133303   3.470   1.677   1.732
11120TIP3    H233304   3.353   1.738   1.658
11121TIP3   OH233305   2.247   4.504   5.751
11121TIP3    H133306   2.237   4.538   5.663
11121TIP3    H233307   2.284   4.416   5.739
11122TIP3   OH233308   3.197   1.659   2.814
11122TIP3    H133309   3.109   1.684   2.787
11122TIP3    H233310   3.185   1.576   2.861
11123TIP3   OH233311   3.035   1.187   2.102
11123TIP3    H133312   2.977   1.168   2.175
11123TIP3    H233313   3.044   1.283   2.102
11124TIP3   OH233314   5.442   2.603   0.584
11124TIP3    H133315   5.515   2.632   0.528
11124TIP3    H233316   5.479   2.532   0.637
11125TIP3   OH233317   2.994   5.738   0.606
11125TIP3    H133318   3.021   5.650   0.631
11125TIP3    H233319   2.995   5.787   0.688
11126TIP3   OH233320   5.743   4.958   5.252
11126TIP3    H133321   5.745   4.929   5.161
11126TIP3    H233322   5.691   4.893   5.298
11127TIP3   OH233323   1.272   0.689   2.862
11127TIP3    H133324   1.354   0.727   2.894
11127TIP3    H233325   1.285   0.681   2.768
11128TIP3   OH233326   1.509   1.425   1.108
11128TIP3    H133327   1.456   1.385   1.039
11128TIP3    H233328   1.568   1.485   1.061
11129TIP3   OH233329   4.983   2.066   3.548
11129TIP3    H133330   4.958   2.094   3.636
11129TIP3    H233331   5.076   2.044   3.555
11130TIP3   OH233332   4.643   0.477   2.220
11130TIP3    H133333   4.683   0.443   2.141
11130TIP3    H233334   4.603   0.401   2.261
11131TIP3   OH233335   2.107   0.468   0.266
11131TIP3    H133336   2.150   0.382   0.275
11131TIP3    H233337   2.081   0.490   0.355
11132TIP3   OH233338   0.985   3.452   3.294
11132TIP3    H133339   0.994   3.398   3.215
11132TIP3    H233340   0.963   3.389   3.362
11133TIP3   OH233341   7.386   2.139   1.535
11133TIP3    H133342   7.340   2.072   1.484
11133TIP3    H233343   7.369   2.116   1.626
11134TIP3   OH233344   6.213   5.431   6.102
11134TIP3    H133345   6.282   5.375   6.137
11134TIP3    H233346   6.171   5.377   6.035
11135TIP3   OH233347   4.444   5.713   2.231
11135TIP3    H133348   4.484   5.732   2.146
11135TIP3    H233349   4.350   5.703   2.212
11136TIP3   OH233350   2.976   4.453   3.606
11136TIP3    H133351   3.034   4.417   3.674
11136TIP3    H233352   2.889   4.421   3.629
11137TIP3   OH233353   1.401   5.714   3.993
11137TIP3    H133354   1.358   5.678   4.071
11137TIP3    H233355   1.494   5.714   4.015
11138TIP3   OH233356   6.544   4.240   3.068
11138TIP3    H133357   6.537   4.145   3.058
11138TIP3    H233358   6.465   4.274   3.025
11139TIP3   OH233359   3.195   2.078   1.622
11139TIP3    H133360   3.257   2.102   1.690
11139TIP3    H233361   3.248   2.036   1.555
11140TIP3   OH233362   0.876   3.474   5.709
11140TIP3    H133363   0.895   3.423   5.788
11140TIP3    H233364   0.877   3.409   5.638
11141TIP3   OH233365   0.674   2.054   3.732
11141TIP3    H133366   0.580   2.068   3.741
11141TIP3    H233367   0.711   2.143   3.731
11142TIP3   OH233368   8.052   3.875   0.908
11142TIP3    H133369   8.146   3.868   0.922
11142TIP3    H233370   8.014   3.798   0.950
11143TIP3   OH233371   6.633   4.457   1.574
11143TIP3    H133372   6.707   4.507   1.608
11143TIP3    H233373   6.656   4.442   1.482
11144TIP3   OH233374   2.843   1.993   4.117
11144TIP3    H133375   2.904   1.979   4.044
11144TIP3    H233376   2.756   1.988   4.077
11145TIP3   OH233377   0.245   3.288   1.957
11145TIP3    H133378   0.219   3.240   2.036
11145TIP3    H233379   0.288   3.366   1.990
11146TIP3   OH233380   3.937   5.996   5.043
11146TIP3    H133381   3.892   5.965   5.121
11146TIP3    H233382   3.935   6.092   5.051
11147TIP3   OH233383   4.953   3.122   6.234
11147TIP3    H133384   4.895   3.186   6.195
11147TIP3    H233385   5.040   3.145   6.202
11148TIP3   OH233386   3.624   3.656   1.898
11148TIP3    H133387   3.591   3.662   1.809
11148TIP3    H233388   3.623   3.562   1.918
11149TIP3   OH233389   6.584   2.420   3.607
11149TIP3    H133390   6.543   2.491   3.657
11149TIP3    H233391   6.545   2.426   3.520
11150TIP3   OH233392   1.582   5.407   2.569
11150TIP3    H133393   1.565   5.495   2.603
11150TIP3    H233394   1.674   5.411   2.540
11151TIP3   OH233395   6.458   5.996   3.571
11151TIP3    H133396   6.535   6.049   3.586
11151TIP3    H233397   6.422   5.981   3.659
11152TIP3   OH233398   5.455   6.107   5.588
11152TIP3    H133399   5.538   6.111   5.637
11152TIP3    H233400   5.478   6.131   5.499
11153TIP3   OH233401   7.339   2.634   3.766
11153TIP3    H133402   7.433   2.621   3.783
11153TIP3    H233403   7.298   2.627   3.852
11154TIP3   OH233404   1.240   7.477   4.304
11154TIP3    H133405   1.145   7.484   4.312
11154TIP3    H233406   1.274   7.550   4.357
11155TIP3   OH233407   7.704   5.025   2.195
11155TIP3    H133408   7.687   5.088   2.124
11155TIP3    H233409   7.627   4.968   2.195
11156TIP3   OH233410   5.261   5.117   0.513
11156TIP3    H133411   5.248   5.139   0.605
11156TIP3    H233412   5.261   5.021   0.511
11157TIP3   OH233413   5.713   0.265   1.711
11157TIP3    H133414   5.675   0.186   1.674
11157TIP3    H233415   5.772   0.233   1.780
11158TIP3   OH233416   0.233   6.403   0.754
11158TIP3    H133417   0.168   6.402   0.825
11158TIP3    H233418   0.219   6.321   0.707
11159TIP3   OH233419   1.913   5.931   2.910
11159TIP3    H133420   1.988   5.872   2.909
11159TIP3    H233421   1.837   5.872   2.919
11160TIP3   OH233422   0.900   5.482   4.696
11160TIP3    H133423   0.943   5.567   4.704
11160TIP3    H233424   0.835   5.494   4.627
11161TIP3   OH233425   3.235   2.748   3.865
11161TIP3    H133426   3.243   2.807   3.940
11161TIP3    H233427   3.153   2.701   3.880
11162TIP3   OH233428   7.303   7.770   1.097
11162TIP3    H133429   7.370   7.702   1.091
11162TIP3    H233430   7.342   7.837   1.153
11163TIP3   OH233431   1.391   3.082   2.569
11163TIP3    H133432   1.343   3.076   2.652
11163TIP3    H233433   1.324   3.106   2.505
11164TIP3   OH233434   2.058   3.678   1.145
11164TIP3    H133435   2.003   3.614   1.189
11164TIP3    H233436   2.145   3.668   1.185
11165TIP3   OH233437   1.373   5.657   2.357
11165TIP3    H133438   1.285   5.681   2.327
11165TIP3    H233439   1.392   5.719   2.426
11166TIP3   OH233440   4.811   6.270   2.933
11166TIP3    H133441   4.893   6.285   2.886
11166TIP3    H233442   4.836   6.262   3.025
11167TIP3   OH233443   2.940   1.957   0.247
11167TIP3    H133444   2.963   1.895   0.178
11167TIP3    H233445   2.941   2.042   0.205
11168TIP3   OH233446   4.066   3.553   0.695
11168TIP3    H133447   4.093   3.625   0.752
11168TIP3    H233448   4.117   3.478   0.725
11169TIP3   OH233449   7.990   6.722   6.048
11169TIP3    H133450   8.003   6.676   5.965
11169TIP3    H233451   8.069   6.775   6.059
11170TIP3   OH233452   7.515   7.324   4.545
11170TIP3    H133453   7.552   7.410   4.526
11170TIP3    H233454   7.456   7.339   4.619
11171TIP3   OH233455   0.834   3.634   6.177
11171TIP3    H133456   0.817   3.690   6.252
11171TIP3    H233457   0.766   3.657   6.114
11172TIP3   OH233458   3.605   6.252   3.496
11172TIP3    H133459   3.553   6.326   3.464
11172TIP3    H233460   3.605   6.261   3.591
11173TIP3   OH233461   4.539   1.199   5.287
11173TIP3    H133462   4.496   1.280   5.257
11173TIP3    H233463   4.597   1.228   5.358
11174TIP3   OH233464   6.535   2.004   4.727
11174TIP3    H133465   6.553   2.015   4.633
11174TIP3    H233466   6.613   2.038   4.770
11175TIP3   OH233467   8.239   0.618   1.220
11175TIP3    H133468   8.174   0.550   1.234
11175TIP3    H233469   8.322   0.571   1.214
11176TIP3   OH233470   6.384   4.595   1.279
11176TIP3    H133471   6.476   4.621   1.272
11176TIP3    H233472   6.335   4.674   1.258
11177TIP3   OH233473   1.622   3.607   2.018
11177TIP3    H133474   1.709   3.570   2.002
11177TIP3    H233475   1.620   3.624   2.112
11178TIP3   OH233476   0.889   4.083   2.704
11178TIP3    H133477   0.860   4.139   2.631
11178TIP3    H233478   0.816   4.024   2.719
11179TIP3   OH233479   8.018   2.931   0.233
11179TIP3    H133480   7.961   2.868   0.189
11179TIP3    H233481   8.103   2.887   0.237
11180TIP3   OH233482   7.837   4.695   3.064
11180TIP3    H133483   7.853   4.738   3.148
11180TIP3    H233484   7.895   4.739   3.003
11181TIP3   OH233485   2.405   5.865   3.429
11181TIP3    H133486   2.454   5.787   3.454
11181TIP3    H233487   2.471   5.925   3.394
11182TIP3   OH233488   4.420   5.942   5.535
11182TIP3    H133489   4.480   5.949   5.461
11182TIP3    H233490   4.342   5.991   5.508
11183TIP3   OH233491   1.829   0.508   4.895
11183TIP3    H133492   1.894   0.514   4.965
11183TIP3    H233493   1.850   0.580   4.836
11184TIP3   OH233494   3.322   6.828   0.766
11184TIP3    H133495   3.370   6.911   0.773
11184TIP3    H233496   3.252   6.836   0.830
11185TIP3   OH233497   3.222   5.608   2.703
11185TIP3    H133498   3.160   5.623   2.632
11185TIP3    H233499   3.195   5.525   2.741
11186TIP3   OH233500   4.653   3.879   2.744
11186TIP3    H133501   4.726   3.917   2.695
11186TIP3    H233502   4.656   3.786   2.723
11187TIP3   OH233503   1.004   2.751   0.779
11187TIP3    H133504   1.080   2.792   0.739
11187TIP3    H233505   0.977   2.811   0.848
11188TIP3   OH233506   3.108   6.854   2.747
11188TIP3    H133507   3.077   6.943   2.765
11188TIP3    H233508   3.064   6.800   2.812
11189TIP3   OH233509   7.627   5.273   4.866
11189TIP3    H133510   7.565   5.246   4.798
11189TIP3    H233511   7.582   5.253   4.949
11190TIP3   OH233512   5.218   7.732   0.782
11190TIP3    H133513   5.300   7.721   0.735
11190TIP3    H233514   5.226   7.674   0.858
11191TIP3   OH233515   4.468   6.331   3.523
11191TIP3    H133516   4.557   6.347   3.492
11191TIP3    H233517   4.413   6.385   3.466
11192TIP3   OH233518   1.484   2.616   6.117
11192TIP3    H133519   1.446   2.595   6.202
11192TIP3    H233520   1.409   2.648   6.066
11193TIP3   OH233521   2.953   6.684   2.934
11193TIP3    H133522   3.007   6.631   2.993
11193TIP3    H233523   2.877   6.629   2.916
11194TIP3   OH233524   1.404   2.890   3.147
11194TIP3    H133525   1.470   2.832   3.185
11194TIP3    H233526   1.441   2.978   3.155
11195TIP3   OH233527   0.144   3.543   0.292
11195TIP3    H133528   0.087   3.594   0.234
11195TIP3    H233529   0.164   3.464   0.242
11196TIP3   OH233530   6.374   4.674   2.689
11196TIP3    H133531   6.358   4.671   2.595
11196TIP3    H233532   6.292   4.645   2.729
11197TIP3   OH233533   5.466   4.532   1.891
11197TIP3    H133534   5.423   4.609   1.853
11197TIP3    H233535   5.558   4.544   1.870
11198TIP3   OH233536   7.020   3.980   1.492
11198TIP3    H133537   6.956   3.940   1.551
11198TIP3    H233538   7.078   4.030   1.549
11199TIP3   OH233539   6.900   0.940   4.268
11199TIP3    H133540   6.871   0.988   4.191
11199TIP3    H233541   6.947   1.005   4.321
11200TIP3   OH233542   3.466   0.276   0.798
11200TIP3    H133543   3.522   0.324   0.737
11200TIP3    H233544   3.503   0.294   0.884
11201TIP3   OH233545   1.815   4.057   6.045
11201TIP3    H133546   1.887   4.118   6.032
11201TIP3    H233547   1.742   4.096   5.996
11202TIP3   OH233548   8.048   7.394   5.439
11202TIP3    H133549   7.979   7.329   5.451
11202TIP3    H233550   8.051   7.441   5.522
11203TIP3   OH233551   3.778   0.932   6.217
11203TIP3    H133552   3.851   0.881   6.253
11203TIP3    H233553   3.787   1.018   6.258
11204TIP3   OH233554   6.220   3.169   3.622
11204TIP3    H133555   6.283   3.232   3.658
11204TIP3    H233556   6.261   3.083   3.638
11205TIP3   OH233557   3.177   2.652   0.433
11205TIP3    H133558   3.266   2.617   0.438
11205TIP3    H233559   3.157   2.680   0.522
11206TIP3   OH233560   0.809   6.108   5.186
11206TIP3    H133561   0.778   6.018   5.188
11206TIP3    H233562   0.879   6.112   5.251
11207TIP3   OH233563   7.067   3.985   5.114
11207TIP3    H133564   7.089   3.917   5.051
11207TIP3    H233565   7.097   3.950   5.199
11208TIP3   OH233566   6.700   1.085   6.296
11208TIP3    H133567   6.704   1.097   6.390
11208TIP3    H233568   6.609   1.104   6.272
11209TIP3   OH233569   2.037   4.493   4.625
11209TIP3    H133570   1.958   4.507   4.573
11209TIP3    H233571   2.014   4.522   4.713
11210TIP3   OH233572   4.381   1.337   0.297
11210TIP3    H133573   4.469   1.301   0.288
11210TIP3    H233574   4.345   1.292   0.373
11211TIP3   OH233575   8.199   4.753   0.607
11211TIP3    H133576   8.264   4.800   0.660
11211TIP3    H233577   8.117   4.800   0.623
11212TIP3   OH233578   4.449   6.493   1.666
11212TIP3    H133579   4.387   6.441   1.614
11212TIP3    H233580   4.417   6.583   1.658
11213TIP3   OH233581   2.649   6.711   5.442
11213TIP3    H133582   2.555   6.715   5.423
11213TIP3    H233583   2.690   6.745   5.363
11214TIP3   OH233584   6.376   0.239   4.466
11214TIP3    H133585   6.314   0.206   4.401
11214TIP3    H233586   6.462   0.212   4.432
11215TIP3   OH233587   5.236   6.497   1.122
11215TIP3    H133588   5.223   6.405   1.097
11215TIP3    H233589   5.313   6.495   1.178
11216TIP3   OH233590   7.007   2.538   1.419
11216TIP3    H133591   7.101   2.542   1.401
11216TIP3    H233592   6.973   2.474   1.356
11217TIP3   OH233593   5.071   1.640   5.224
11217TIP3    H133594   5.022   1.702   5.277
11217TIP3    H233595   5.162   1.669   5.230
11218TIP3   OH233596   6.935   7.146   2.737
11218TIP3    H133597   6.985   7.224   2.759
11218TIP3    H233598   6.882   7.172   2.661
11219TIP3   OH233599   1.357   0.185   0.016
11219TIP3    H133600   1.402   0.267  -0.006
11219TIP3    H233601   1.377   0.170   0.108
11220TIP3   OH233602   3.539   4.879   5.961
11220TIP3    H133603   3.562   4.938   6.033
11220TIP3    H233604   3.590   4.910   5.886
11221TIP3   OH233605   1.576   3.019   5.646
11221TIP3    H133606   1.638   2.974   5.589
11221TIP3    H233607   1.548   3.095   5.595
11222TIP3   OH233608   1.322   2.778   3.462
11222TIP3    H133609   1.308   2.686   3.438
11222TIP3    H233610   1.238   2.821   3.447
11223TIP3   OH233611   2.690   6.074   0.251
11223TIP3    H133612   2.733   6.000   0.294
11223TIP3    H233613   2.679   6.139   0.321
11224TIP3   OH233614   4.231   6.324   6.441
11224TIP3    H133615   4.305   6.265   6.438
11224TIP3    H233616   4.211   6.333   6.534
11225TIP3   OH233617   5.238   6.991   0.025
11225TIP3    H133618   5.323   6.962   0.057
11225TIP3    H233619   5.243   6.978  -0.070
11226TIP3   OH233620   3.764   0.780   4.506
11226TIP3    H133621   3.745   0.755   4.596
11226TIP3    H233622   3.683   0.820   4.474
11227TIP3   OH233623   6.184   6.354   4.228
11227TIP3    H133624   6.217   6.264   4.237
11227TIP3    H233625   6.261   6.409   4.240
11228TIP3   OH233626   7.263   4.825   0.353
11228TIP3    H133627   7.257   4.882   0.429
11228TIP3    H233628   7.178   4.832   0.310
11229TIP3   OH233629   5.334   2.191   2.225
11229TIP3    H133630   5.416   2.144   2.239
11229TIP3    H233631   5.361   2.280   2.200
11230TIP3   OH233632   3.495   6.777   3.278
11230TIP3    H133633   3.525   6.836   3.209
11230TIP3    H233634   3.568   6.717   3.292
11231TIP3   OH233635   3.152   6.481   1.848
11231TIP3    H133636   3.129   6.541   1.777
11231TIP3    H233637   3.071   6.432   1.865
11232TIP3   OH233638   0.775   7.127   6.516
11232TIP3    H133639   0.778   7.084   6.431
11232TIP3    H233640   0.711   7.077   6.567
11233TIP3   OH233641   1.911   3.403   3.959
11233TIP3    H133642   1.904   3.482   3.906
11233TIP3    H233643   1.951   3.432   4.041
11234TIP3   OH233644   1.282   6.446   2.187
11234TIP3    H133645   1.192   6.456   2.156
11234TIP3    H233646   1.336   6.464   2.110
11235TIP3   OH233647   0.972   6.552   5.835
11235TIP3    H133648   1.052   6.561   5.784
11235TIP3    H233649   0.946   6.461   5.824
11236TIP3   OH233650   2.250   4.941   5.834
11236TIP3    H133651   2.190   5.015   5.825
11236TIP3    H233652   2.326   4.977   5.881
11237TIP3   OH233653   4.013   6.776   2.915
11237TIP3    H133654   4.070   6.837   2.962
11237TIP3    H233655   4.061   6.756   2.834
11238TIP3   OH233656   4.405   2.265   1.043
11238TIP3    H133657   4.348   2.335   1.077
11238TIP3    H233658   4.356   2.228   0.969
11239TIP3   OH233659   5.071   7.477   0.848
11239TIP3    H133660   5.129   7.507   0.918
11239TIP3    H233661   5.061   7.384   0.863
11240TIP3   OH233662   2.601   0.136   2.211
11240TIP3    H133663   2.654   0.058   2.223
11240TIP3    H233664   2.652   0.206   2.252
11241TIP3   OH233665   7.280   0.567   1.288
11241TIP3    H133666   7.296   0.535   1.377
11241TIP3    H233667   7.356   0.536   1.238
11242TIP3   OH233668   8.132   6.156   0.063
11242TIP3    H133669   8.137   6.072   0.017
11242TIP3    H233670   8.151   6.222  -0.005
11243TIP3   OH233671   3.460   3.160   3.474
11243TIP3    H133672   3.538   3.186   3.524
11243TIP3    H233673   3.443   3.234   3.416
11244TIP3   OH233674   0.310   7.451   1.529
11244TIP3    H133675   0.219   7.472   1.552
11244TIP3    H233676   0.322   7.361   1.556
11245TIP3   OH233677   3.554   3.880   1.351
11245TIP3    H133678   3.542   3.853   1.259
11245TIP3    H233679   3.466   3.899   1.382
11246TIP3   OH233680   5.357   1.010   1.160
11246TIP3    H133681   5.433   0.968   1.120
11246TIP3    H233682   5.285   0.991   1.100
11247TIP3   OH233683   3.237   0.631   1.952
11247TIP3    H133684   3.170   0.568   1.927
11247TIP3    H233685   3.188   0.711   1.972
11248TIP3   OH233686   2.944   5.760   5.026
11248TIP3    H133687   2.966   5.832   4.967
11248TIP3    H233688   2.983   5.683   4.984
11249TIP3   OH233689   3.827   5.172   4.607
11249TIP3    H133690   3.837   5.099   4.545
11249TIP3    H233691   3.737   5.166   4.637
11250TIP3   OH233692   3.331   6.744   4.538
11250TIP3    H133693   3.283   6.817   4.500
11250TIP3    H233694   3.271   6.708   4.604
11251TIP3   OH233695   3.733   7.211   5.887
11251TIP3    H133696   3.735   7.116   5.893
11251TIP3    H233697   3.809   7.240   5.937
11252TIP3   OH233698   4.314   3.965   1.310
11252TIP3    H133699   4.367   3.962   1.389
11252TIP3    H233700   4.243   3.902   1.325
11253TIP3   OH233701   6.874   5.758   6.328
11253TIP3    H133702   6.828   5.750   6.244
11253TIP3    H233703   6.964   5.734   6.308
11254TIP3   OH233704   3.850   5.108   2.296
11254TIP3    H133705   3.872   5.181   2.355
11254TIP3    H233706   3.803   5.046   2.352
11255TIP3   OH233707   6.715   6.958   4.378
11255TIP3    H133708   6.735   6.961   4.471
11255TIP3    H233709   6.664   6.878   4.367
11256TIP3   OH233710   2.975   1.155   3.578
11256TIP3    H133711   2.962   1.171   3.484
11256TIP3    H233712   2.953   1.062   3.589
11257TIP3   OH233713   0.329   6.933   2.058
11257TIP3    H133714   0.395   6.895   2.000
11257TIP3    H233715   0.269   6.861   2.077
11258TIP3   OH233716   2.760   2.740   1.378
11258TIP3    H133717   2.753   2.644   1.381
11258TIP3    H233718   2.775   2.759   1.285
11259TIP3   OH233719   1.273   2.553   2.916
11259TIP3    H133720   1.368   2.550   2.914
11259TIP3    H233721   1.247   2.475   2.965
11260TIP3   OH233722   5.749   3.019   3.727
11260TIP3    H133723   5.781   3.045   3.640
11260TIP3    H233724   5.779   2.929   3.737
11261TIP3   OH233725   3.814   1.755   5.479
11261TIP3    H133726   3.796   1.677   5.427
11261TIP3    H233727   3.753   1.821   5.446
11262TIP3   OH233728   1.012   2.626   6.477
11262TIP3    H133729   0.944   2.560   6.488
11262TIP3    H233730   1.094   2.577   6.489
11263TIP3   OH233731   5.359   5.620   2.396
11263TIP3    H133732   5.372   5.566   2.318
11263TIP3    H233733   5.358   5.710   2.364
11264TIP3   OH233734   6.003   1.754   3.593
11264TIP3    H133735   6.006   1.659   3.587
11264TIP3    H233736   6.093   1.782   3.582
11265TIP3   OH233737   5.691   6.897   3.750
11265TIP3    H133738   5.697   6.926   3.841
11265TIP3    H233739   5.776   6.921   3.711
11266TIP3   OH233740   0.526   1.592   2.389
11266TIP3    H133741   0.495   1.585   2.299
11266TIP3    H233742   0.543   1.501   2.415
11267TIP3   OH233743   7.761   0.577   0.582
11267TIP3    H133744   7.778   0.618   0.497
11267TIP3    H233745   7.840   0.526   0.601
11268TIP3   OH233746   0.101   3.726   4.181
11268TIP3    H133747   0.095   3.803   4.124
11268TIP3    H233748   0.175   3.746   4.239
11269TIP3   OH233749   6.479   1.776   0.212
11269TIP3    H133750   6.461   1.682   0.206
11269TIP3    H233751   6.564   1.786   0.168
11270TIP3   OH233752   7.709   3.731   0.661
11270TIP3    H133753   7.722   3.662   0.725
11270TIP3    H233754   7.718   3.812   0.711
11271TIP3   OH233755   1.341   6.033   1.073
11271TIP3    H133756   1.275   5.970   1.102
11271TIP3    H233757   1.422   6.003   1.116
11272TIP3   OH233758   2.631   4.835   2.854
11272TIP3    H133759   2.538   4.814   2.846
11272TIP3    H233760   2.635   4.930   2.838
11273TIP3   OH233761   7.804   1.096   2.971
11273TIP3    H133762   7.739   1.111   3.040
11273TIP3    H233763   7.864   1.171   2.979
11274TIP3   OH233764   6.404   5.757   3.741
11274TIP3    H133765   6.453   5.778   3.820
11274TIP3    H233766   6.471   5.746   3.673
11275TIP3   OH233767   2.050   0.473   5.039
11275TIP3    H133768   2.067   0.517   5.121
11275TIP3    H233769   2.137   0.460   5.000
11276TIP3   OH233770   0.180   5.896   3.245
11276TIP3    H133771   0.085   5.883   3.251
11276TIP3    H233772   0.216   5.836   3.310
11277TIP3   OH233773   2.499   1.218   2.581
11277TIP3    H133774   2.483   1.181   2.494
11277TIP3    H233775   2.589   1.250   2.578
11278TIP3   OH233776   1.607   0.310   1.796
11278TIP3    H133777   1.547   0.380   1.820
11278TIP3    H233778   1.694   0.351   1.795
11279TIP3   OH233779   7.310   0.071   1.869
11279TIP3    H133780   7.303  -0.010   1.920
11279TIP3    H233781   7.298   0.141   1.932
11280TIP3   OH233782   3.447   5.630   3.840
11280TIP3    H133783   3.454   5.559   3.778
11280TIP3    H233784   3.486   5.596   3.921
11281TIP3   OH233785   1.525   2.035   4.040
11281TIP3    H133786   1.590   2.094   4.001
11281TIP3    H233787   1.575   1.958   4.066
11282TIP3   OH233788   4.315   7.586   0.029
11282TIP3    H133789   4.252   7.658   0.040
11282TIP3    H233790   4.370   7.613  -0.044
11283TIP3   OH233791   5.613   3.476   5.754
11283TIP3    H133792   5.625   3.381   5.757
11283TIP3    H233793   5.601   3.496   5.661
11284TIP3   OH233794   4.669   0.275   4.599
11284TIP3    H133795   4.655   0.349   4.540
11284TIP3    H233796   4.581   0.244   4.621
11285TIP3   OH233797   0.585   2.057   1.187
11285TIP3    H133798   0.582   1.966   1.218
11285TIP3    H233799   0.566   2.052   1.094
11286TIP3   OH233800   4.802   4.526   0.268
11286TIP3    H133801   4.800   4.618   0.295
11286TIP3    H233802   4.717   4.510   0.228
11287TIP3   OH233803   5.129   3.909   3.883
11287TIP3    H133804   5.109   3.952   3.966
11287TIP3    H233805   5.132   3.980   3.819
11288TIP3   OH233806   0.485   4.219   4.351
11288TIP3    H133807   0.567   4.225   4.400
11288TIP3    H233808   0.498   4.145   4.291
11289TIP3   OH233809   7.987   4.022   6.524
11289TIP3    H133810   7.905   3.996   6.482
11289TIP3    H233811   7.998   4.114   6.499
11290TIP3   OH233812   4.227   7.378   3.691
11290TIP3    H133813   4.195   7.400   3.779
11290TIP3    H233814   4.311   7.423   3.685
11291TIP3   OH233815   4.725   3.919   4.909
11291TIP3    H133816   4.747   3.827   4.918
11291TIP3    H233817   4.789   3.964   4.965
11292TIP3   OH233818   0.374   2.291   3.019
11292TIP3    H133819   0.369   2.200   3.048
11292TIP3    H233820   0.359   2.287   2.924
11293TIP3   OH233821   5.475   0.318   3.618
11293TIP3    H133822   5.548   0.344   3.675
11293TIP3    H233823   5.401   0.306   3.678
11294TIP3   OH233824   6.756   6.932   6.633
11294TIP3    H133825   6.803   6.988   6.570
11294TIP3    H233826   6.667   6.967   6.635
11295TIP3   OH233827   6.997   2.064   0.434
11295TIP3    H133828   7.028   2.104   0.353
11295TIP3    H233829   7.048   1.983   0.443
11296TIP3   OH233830   4.427   2.420   4.443
11296TIP3    H133831   4.474   2.426   4.527
11296TIP3    H233832   4.409   2.327   4.433
11297TIP3   OH233833   6.704   6.436   6.225
11297TIP3    H133834   6.690   6.527   6.250
11297TIP3    H233835   6.799   6.427   6.217
11298TIP3   OH233836   5.988   4.266   5.933
11298TIP3    H133837   6.029   4.249   5.848
11298TIP3    H233838   6.037   4.212   5.995
11299TIP3   OH233839   0.969   0.431   5.901
11299TIP3    H133840   0.951   0.517   5.862
11299TIP3    H233841   1.064   0.421   5.892
11300TIP3   OH233842   0.574   0.482   6.714
11300TIP3    H133843   0.526   0.447   6.638
11300TIP3    H233844   0.667   0.467   6.692
11301TIP3   OH233845   0.929   1.334   0.987
11301TIP3    H133846   1.006   1.383   0.960
11301TIP3    H233847   0.878   1.324   0.906
11302TIP3   OH233848   8.083   3.560   5.790
11302TIP3    H133849   8.135   3.606   5.856
11302TIP3    H233850   8.081   3.469   5.820
11303TIP3   OH233851   1.832   3.704   6.662
11303TIP3    H133852   1.815   3.794   6.690
11303TIP3    H233853   1.887   3.714   6.584
11304TIP3   OH233854   3.320   5.882   5.267
11304TIP3    H133855   3.279   5.840   5.343
11304TIP3    H233856   3.273   5.965   5.257
11305TIP3   OH233857   5.978   3.641   5.413
11305TIP3    H133858   5.901   3.586   5.397
11305TIP3    H233859   6.040   3.615   5.344
11306TIP3   OH233860   4.066   4.201   3.430
11306TIP3    H133861   4.159   4.181   3.415
11306TIP3    H233862   4.027   4.201   3.342
11307TIP3   OH233863   4.012   7.355   1.778
11307TIP3    H133864   3.939   7.416   1.768
11307TIP3    H233865   4.035   7.361   1.871
11308TIP3   OH233866   8.027   3.633   5.508
11308TIP3    H133867   8.024   3.614   5.602
11308TIP3    H233868   7.966   3.571   5.469
11309TIP3   OH233869   8.108   6.451   4.439
11309TIP3    H133870   8.161   6.499   4.502
11309TIP3    H233871   8.022   6.493   4.443
11310TIP3   OH233872   7.435   3.314   1.651
11310TIP3    H133873   7.356   3.364   1.673
11310TIP3    H233874   7.504   3.354   1.703
11311TIP3   OH233875   3.597   5.854   4.717
11311TIP3    H133876   3.593   5.758   4.709
11311TIP3    H233877   3.687   5.872   4.741
11312TIP3   OH233878   6.484   5.646   5.065
11312TIP3    H133879   6.500   5.696   5.144
11312TIP3    H233880   6.533   5.691   4.997
11313TIP3   OH233881   5.282   5.580   5.893
11313TIP3    H133882   5.302   5.658   5.842
11313TIP3    H233883   5.259   5.514   5.827
11314TIP3   OH233884   3.002   3.532   0.206
11314TIP3    H133885   3.028   3.465   0.143
11314TIP3    H233886   2.955   3.485   0.274
11315TIP3   OH233887   5.645   3.308   4.906
11315TIP3    H133888   5.696   3.358   4.971
11315TIP3    H233889   5.709   3.251   4.864
11316TIP3   OH233890   1.113   7.636   0.704
11316TIP3    H133891   1.023   7.603   0.701
11316TIP3    H233892   1.104   7.726   0.736
11317TIP3   OH233893   3.961   2.456   4.131
11317TIP3    H133894   3.878   2.439   4.175
11317TIP3    H233895   4.021   2.390   4.166
11318TIP3   OH233896   4.844   5.106   1.042
11318TIP3    H133897   4.770   5.147   0.998
11318TIP3    H233898   4.849   5.148   1.127
11319TIP3   OH233899   2.576   4.779   3.598
11319TIP3    H133900   2.491   4.822   3.603
11319TIP3    H233901   2.624   4.812   3.674
11320TIP3   OH233902   0.115   7.446   3.602
11320TIP3    H133903   0.169   7.384   3.552
11320TIP3    H233904   0.169   7.524   3.610
11321TIP3   OH233905   3.198   2.130   0.007
11321TIP3    H133906   3.108   2.120   0.040
11321TIP3    H233907   3.208   2.224  -0.007
11322TIP3   OH233908   7.912   5.671   6.639
11322TIP3    H133909   8.006   5.675   6.658
11322TIP3    H233910   7.872   5.647   6.723
11323TIP3   OH233911   7.229   6.138   3.159
11323TIP3    H133912   7.299   6.143   3.224
11323TIP3    H233913   7.156   6.099   3.207
11324TIP3   OH233914   2.217   5.742   5.879
11324TIP3    H133915   2.256   5.829   5.886
11324TIP3    H233916   2.185   5.737   5.789
11325TIP3   OH233917   7.251   7.528   0.791
11325TIP3    H133918   7.159   7.502   0.799
11325TIP3    H233919   7.254   7.586   0.715
11326TIP3   OH233920   4.537   2.465   4.710
11326TIP3    H133921   4.469   2.529   4.691
11326TIP3    H233922   4.582   2.500   4.786
11327TIP3   OH233923   0.597   1.831   4.998
11327TIP3    H133924   0.559   1.836   4.910
11327TIP3    H233925   0.691   1.836   4.983
11328TIP3   OH233926   3.426   7.691   2.380
11328TIP3    H133927   3.495   7.685   2.447
11328TIP3    H233928   3.347   7.713   2.429
11329TIP3   OH233929   7.263   1.841   4.937
11329TIP3    H133930   7.175   1.806   4.924
11329TIP3    H233931   7.279   1.831   5.031
11330TIP3   OH233932   4.184   6.583   2.299
11330TIP3    H133933   4.106   6.637   2.312
11330TIP3    H233934   4.191   6.575   2.203
11331TIP3   OH233935   5.839   7.028   3.404
11331TIP3    H133936   5.896   7.099   3.376
11331TIP3    H233937   5.854   7.019   3.498
11332TIP3   OH233938   2.443   0.493   6.531
11332TIP3    H133939   2.427   0.441   6.610
11332TIP3    H233940   2.473   0.428   6.467
11333TIP3   OH233941   8.211   5.425   6.708
11333TIP3    H133942   8.259   5.505   6.686
11333TIP3    H233943   8.272   5.354   6.685
11334TIP3   OH233944   3.027   3.753   6.351
11334TIP3    H133945   3.062   3.710   6.272
11334TIP3    H233946   2.983   3.682   6.399
11335TIP3   OH233947   0.676   5.410   6.143
11335TIP3    H133948   0.627   5.379   6.067
11335TIP3    H233949   0.644   5.357   6.216
11336TIP3   OH233950   6.732   2.291   0.229
11336TIP3    H133951   6.664   2.317   0.292
11336TIP3    H233952   6.732   2.195   0.233
11337TIP3   OH233953   2.384   0.421   4.544
11337TIP3    H133954   2.319   0.351   4.546
11337TIP3    H233955   2.420   0.417   4.455
11338TIP3   OH233956   4.309   3.636   5.415
11338TIP3    H133957   4.214   3.636   5.427
11338TIP3    H233958   4.344   3.661   5.501
11339TIP3   OH233959   7.246   3.709   0.048
11339TIP3    H133960   7.310   3.704  -0.023
11339TIP3    H233961   7.274   3.642   0.110
11340TIP3   OH233962   6.799   2.871   1.094
11340TIP3    H133963   6.825   2.856   1.003
11340TIP3    H233964   6.851   2.946   1.121
11341TIP3   OH233965   5.097   0.844   3.286
11341TIP3    H133966   5.094   0.894   3.367
11341TIP3    H233967   5.162   0.889   3.232
11342TIP3   OH233968   4.499   4.864   1.475
11342TIP3    H133969   4.570   4.816   1.432
11342TIP3    H233970   4.512   4.955   1.451
11343TIP3   OH233971   0.026   7.466   0.879
11343TIP3    H133972   0.025   7.439   0.971
11343TIP3    H233973  -0.006   7.556   0.880
11344TIP3   OH233974   7.572   0.126   4.102
11344TIP3    H133975   7.653   0.169   4.128
11344TIP3    H233976   7.519   0.195   4.063
11345TIP3   OH233977   5.934   4.600   5.068
11345TIP3    H133978   5.892   4.659   5.006
11345TIP3    H233979   5.864   4.540   5.095
11346TIP3   OH233980   0.137   0.175   1.601
11346TIP3    H133981   0.112   0.225   1.678
11346TIP3    H233982   0.114   0.085   1.622
11347TIP3   OH233983   5.516   5.040   0.184
11347TIP3    H133984   5.589   4.985   0.157
11347TIP3    H233985   5.535   5.061   0.276
11348TIP3   OH233986   3.652   2.543   5.843
11348TIP3    H133987   3.727   2.602   5.834
11348TIP3    H233988   3.653   2.516   5.934
11349TIP3   OH233989   3.353   3.701   0.511
11349TIP3    H133990   3.383   3.638   0.445
11349TIP3    H233991   3.291   3.758   0.465
11350TIP3   OH233992   1.122   4.878   5.379
11350TIP3    H133993   1.113   4.922   5.464
11350TIP3    H233994   1.211   4.900   5.350
11351TIP3   OH233995   3.706   4.300   1.400
11351TIP3    H133996   3.708   4.224   1.341
11351TIP3    H233997   3.798   4.313   1.425
11352TIP3   OH233998   4.660   6.605   4.919
11352TIP3    H133999   4.737   6.659   4.901
11352TIP3    H234000   4.646   6.556   4.838
11353TIP3   OH234001   1.997   6.213   6.596
11353TIP3    H134002   1.950   6.197   6.677
11353TIP3    H234003   1.932   6.249   6.537
11354TIP3   OH234004   3.082   2.070   3.587
11354TIP3    H134005   2.996   2.110   3.569
11354TIP3    H234006   3.085   2.061   3.682
11355TIP3   OH234007   7.512   4.689   6.333
11355TIP3    H134008   7.587   4.658   6.384
11355TIP3    H234009   7.488   4.772   6.375
11356TIP3   OH234010   3.972   6.573   0.387
11356TIP3    H134011   3.912   6.580   0.461
11356TIP3    H234012   3.944   6.641   0.326
11357TIP3   OH234013   1.544   0.506   6.715
11357TIP3    H134014   1.628   0.483   6.675
11357TIP3    H234015   1.528   0.595   6.685
11358TIP3   OH234016   4.210   1.036   6.405
11358TIP3    H134017   4.296   1.035   6.446
11358TIP3    H234018   4.149   1.022   6.478
11359TIP3   OH234019   3.663   0.640   0.942
11359TIP3    H134020   3.613   0.721   0.942
11359TIP3    H234021   3.744   0.661   0.988
11360TIP3   OH234022   7.253   4.638   4.957
11360TIP3    H134023   7.328   4.607   4.906
11360TIP3    H234024   7.256   4.586   5.038
11361TIP3   OH234025   4.969   5.331   5.881
11361TIP3    H134026   4.925   5.367   5.804
11361TIP3    H234027   4.902   5.276   5.923
11362TIP3   OH234028   5.660   4.937   3.479
11362TIP3    H134029   5.706   4.858   3.508
11362TIP3    H234030   5.571   4.926   3.512
11363TIP3   OH234031   3.556   3.764   4.317
11363TIP3    H134032   3.606   3.715   4.383
11363TIP3    H234033   3.472   3.781   4.358
11364TIP3   OH234034   4.610   0.255   2.383
11364TIP3    H134035   4.577   0.167   2.399
11364TIP3    H234036   4.608   0.298   2.468
11365TIP3   OH234037   2.823   0.088   5.847
11365TIP3    H134038   2.870   0.098   5.764
11365TIP3    H234039   2.731   0.092   5.823
11366TIP3   OH234040   2.456   1.713   1.588
11366TIP3    H134041   2.524   1.738   1.652
11366TIP3    H234042   2.494   1.638   1.542
11367TIP3   OH234043   8.084   7.723   3.648
11367TIP3    H134044   8.041   7.687   3.571
11367TIP3    H234045   8.145   7.788   3.614
11368TIP3   OH234046   1.134   6.539   6.350
11368TIP3    H134047   1.042   6.565   6.345
11368TIP3    H234048   1.134   6.459   6.402
11369TIP3   OH234049   2.937   0.977   6.555
11369TIP3    H134050   3.000   1.048   6.542
11369TIP3    H234051   2.885   1.005   6.631
11370TIP3   OH234052   4.002   1.119   1.604
11370TIP3    H134053   3.981   1.177   1.677
11370TIP3    H234054   3.931   1.055   1.602
11371TIP3   OH234055   7.752   5.902   5.175
11371TIP3    H134056   7.803   5.878   5.252
11371TIP3    H234057   7.765   5.997   5.167
11372TIP3   OH234058   7.796   7.376   1.572
11372TIP3    H134059   7.798   7.299   1.629
11372TIP3    H234060   7.885   7.383   1.537
11373TIP3   OH234061   7.037   4.357   4.363
11373TIP3    H134062   7.073   4.289   4.305
11373TIP3    H234063   6.943   4.357   4.344
11374TIP3   OH234064   5.668   0.721   5.703
11374TIP3    H134065   5.613   0.648   5.672
11374TIP3    H234066   5.725   0.742   5.630
11375TIP3   OH234067   1.008   6.180   5.433
11375TIP3    H134068   0.925   6.139   5.456
11375TIP3    H234069   1.046   6.206   5.517
11376TIP3   OH234070   1.026   0.646   5.506
11376TIP3    H134071   0.957   0.706   5.479
11376TIP3    H234072   0.992   0.604   5.584
11377TIP3   OH234073   5.976   6.013   1.765
11377TIP3    H134074   6.008   5.926   1.741
11377TIP3    H234075   6.046   6.050   1.819
11378TIP3   OH234076   1.674   2.810   1.971
11378TIP3    H134077   1.582   2.836   1.976
11378TIP3    H234078   1.677   2.744   1.903
11379TIP3   OH234079   0.326   2.940   0.985
11379TIP3    H134080   0.413   2.944   0.944
11379TIP3    H234081   0.330   2.863   1.042
11380TIP3   OH234082   4.824   7.098   3.904
11380TIP3    H134083   4.853   7.007   3.909
11380TIP3    H234084   4.841   7.124   3.814
11381TIP3   OH234085   4.127   2.998   0.694
11381TIP3    H134086   4.159   2.952   0.617
11381TIP3    H234087   4.114   2.929   0.759
11382TIP3   OH234088   1.772   0.914   5.566
11382TIP3    H134089   1.700   0.876   5.516
11382TIP3    H234090   1.769   1.008   5.546
11383TIP3   OH234091   8.145   0.964   5.601
11383TIP3    H134092   8.201   1.010   5.664
11383TIP3    H234093   8.056   0.975   5.636
11384TIP3   OH234094   0.613   0.184   0.513
11384TIP3    H134095   0.590   0.174   0.421
11384TIP3    H234096   0.640   0.275   0.521
11385TIP3   OH234097   1.447   2.906   3.674
11385TIP3    H134098   1.415   2.887   3.586
11385TIP3    H234099   1.511   2.976   3.662
11386TIP3   OH234100   5.923   4.814   2.892
11386TIP3    H134101   5.924   4.891   2.836
11386TIP3    H234102   5.886   4.745   2.837
11387TIP3   OH234103   7.889   1.911   4.197
11387TIP3    H134104   7.984   1.917   4.189
11387TIP3    H234105   7.865   1.983   4.256
11388TIP3   OH234106   4.160   6.649   3.938
11388TIP3    H134107   4.223   6.721   3.942
11388TIP3    H234108   4.091   6.680   3.880
11389TIP3   OH234109   4.718   0.744   0.072
11389TIP3    H134110   4.653   0.736   0.002
11389TIP3    H234111   4.718   0.659   0.115
11390TIP3   OH234112   5.219   0.170   4.302
11390TIP3    H134113   5.126   0.194   4.301
11390TIP3    H234114   5.229   0.120   4.383
11391TIP3   OH234115   5.693   6.172   6.083
11391TIP3    H134116   5.657   6.234   6.148
11391TIP3    H234117   5.766   6.130   6.128
11392TIP3   OH234118   2.903   5.104   6.695
11392TIP3    H134119   2.854   5.138   6.770
11392TIP3    H234120   2.836   5.070   6.636
11393TIP3   OH234121   8.124   0.651   0.689
11393TIP3    H134122   8.208   0.624   0.651
11393TIP3    H234123   8.062   0.584   0.661
11394TIP3   OH234124   6.160   0.462   4.319
11394TIP3    H134125   6.250   0.492   4.332
11394TIP3    H234126   6.154   0.450   4.224
11395TIP3   OH234127   7.204   3.841   1.322
11395TIP3    H134128   7.138   3.892   1.368
11395TIP3    H234129   7.265   3.812   1.390
11396TIP3   OH234130   5.062   4.298   5.111
11396TIP3    H134131   5.120   4.286   5.186
11396TIP3    H234132   5.011   4.376   5.132
11397TIP3   OH234133   3.567   1.490   4.923
11397TIP3    H134134   3.601   1.449   5.003
11397TIP3    H234135   3.629   1.462   4.855
11398TIP3   OH234136   2.453   7.041   0.672
11398TIP3    H134137   2.478   6.987   0.746
11398TIP3    H234138   2.536   7.069   0.633
11399TIP3   OH234139   1.228   5.977   0.682
11399TIP3    H134140   1.272   5.912   0.738
11399TIP3    H234141   1.250   6.061   0.721
11400TIP3   OH234142   3.049   1.994   4.511
11400TIP3    H134143   3.028   1.950   4.429
11400TIP3    H234144   3.004   1.944   4.578
11401TIP3   OH234145   5.234   4.158   0.179
11401TIP3    H134146   5.269   4.195   0.260
11401TIP3    H234147   5.301   4.178   0.113
11402TIP3   OH234148   6.514   7.555   3.473
11402TIP3    H134149   6.600   7.521   3.498
11402TIP3    H234150   6.507   7.534   3.379
11403TIP3   OH234151   6.082   0.381   6.652
11403TIP3    H134152   6.150   0.403   6.589
11403TIP3    H234153   6.125   0.386   6.737
11404TIP3   OH234154   1.053   0.863   2.312
11404TIP3    H134155   1.068   0.801   2.241
11404TIP3    H234156   1.112   0.936   2.292
11405TIP3   OH234157   0.273   2.342   4.293
11405TIP3    H134158   0.314   2.333   4.379
11405TIP3    H234159   0.328   2.405   4.247
11406TIP3   OH234160   4.339   0.265   3.544
11406TIP3    H134161   4.328   0.177   3.506
11406TIP3    H234162   4.285   0.264   3.623
11407TIP3   OH234163   0.962   1.173   5.204
11407TIP3    H134164   0.911   1.205   5.278
11407TIP3    H234165   1.003   1.251   5.167
11408TIP3   OH234166   4.157   7.727   0.330
11408TIP3    H134167   4.113   7.729   0.244
11408TIP3    H234168   4.174   7.819   0.349
11409TIP3   OH234169   0.007   2.416   5.946
11409TIP3    H134170  -0.032   2.503   5.936
11409TIP3    H234171   0.072   2.427   6.015
11410TIP3   OH234172   2.065   6.442   2.054
11410TIP3    H134173   2.134   6.496   2.093
11410TIP3    H234174   2.029   6.392   2.128
11411TIP3   OH234175   8.105   6.378   1.080
11411TIP3    H134176   8.116   6.300   1.134
11411TIP3    H234177   8.017   6.410   1.101
11412TIP3   OH234178   7.473   1.534   5.871
11412TIP3    H134179   7.443   1.581   5.793
11412TIP3    H234180   7.566   1.553   5.875
11413TIP3   OH234181   6.931   2.484   0.425
11413TIP3    H134182   6.887   2.533   0.494
11413TIP3    H234183   6.876   2.407   0.411
11414TIP3   OH234184   0.719   7.129   1.549
11414TIP3    H134185   0.808   7.150   1.521
11414TIP3    H234186   0.673   7.107   1.468
11415TIP3   OH234187   2.500   5.020   5.935
11415TIP3    H134188   2.577   5.029   5.880
11415TIP3    H234189   2.514   5.082   6.006
11416TIP3   OH234190   1.984   0.513   0.591
11416TIP3    H134191   1.908   0.490   0.643
11416TIP3    H234192   2.050   0.540   0.655
11417TIP3   OH234193   3.283   2.137   1.885
11417TIP3    H134194   3.302   2.160   1.976
11417TIP3    H234195   3.334   2.199   1.833
11418TIP3   OH234196   6.876   2.423   5.339
11418TIP3    H134197   6.788   2.385   5.340
11418TIP3    H234198   6.865   2.512   5.373
11419TIP3   OH234199   5.715   6.671   0.243
11419TIP3    H134200   5.684   6.760   0.262
11419TIP3    H234201   5.651   6.635   0.183
11420TIP3   OH234202   4.998   3.361   2.440
11420TIP3    H134203   5.050   3.358   2.521
11420TIP3    H234204   4.943   3.438   2.450
11421TIP3   OH234205   2.156   4.241   6.471
11421TIP3    H134206   2.062   4.258   6.484
11421TIP3    H234207   2.172   4.266   6.380
11422TIP3   OH234208   4.554   3.279   0.858
11422TIP3    H134209   4.521   3.212   0.797
11422TIP3    H234210   4.649   3.267   0.858
11423TIP3   OH234211   4.306   1.140   3.917
11423TIP3    H134212   4.370   1.210   3.920
11423TIP3    H234213   4.335   1.077   3.983
11424TIP3   OH234214   0.939   2.922   0.967
11424TIP3    H134215   0.848   2.945   0.987
11424TIP3    H234216   0.989   3.000   0.991
11425TIP3   OH234217   2.776   4.527   5.843
11425TIP3    H134218   2.700   4.478   5.812
11425TIP3    H234219   2.747   4.618   5.845
11426TIP3   OH234220   5.219   5.468   6.442
11426TIP3    H134221   5.251   5.480   6.531
11426TIP3    H234222   5.237   5.552   6.399
11427TIP3   OH234223   5.805   1.393   2.176
11427TIP3    H134224   5.790   1.345   2.258
11427TIP3    H234225   5.723   1.383   2.127
11428TIP3   OH234226   5.178   5.903   1.682
11428TIP3    H134227   5.182   5.944   1.596
11428TIP3    H234228   5.206   5.813   1.668
11429TIP3   OH234229   5.501   7.661   0.420
11429TIP3    H134230   5.489   7.608   0.499
11429TIP3    H234231   5.595   7.675   0.414
11430TIP3   OH234232   0.180   4.524   4.283
11430TIP3    H134233   0.205   4.493   4.370
11430TIP3    H234234   0.176   4.444   4.230
11431TIP3   OH234235   0.895   3.366   6.765
11431TIP3    H134236   0.866   3.436   6.706
11431TIP3    H234237   0.829   3.298   6.755
11432TIP3   OH234238   1.158   5.122   2.610
11432TIP3    H134239   1.199   5.041   2.641
11432TIP3    H234240   1.066   5.113   2.635
11433TIP3   OH234241   2.189   0.020   1.284
11433TIP3    H134242   2.228  -0.064   1.309
11433TIP3    H234243   2.263   0.075   1.259
11434TIP3   OH234244   5.281   5.397   1.819
11434TIP3    H134245   5.337   5.403   1.896
11434TIP3    H234246   5.300   5.311   1.782
11435TIP3   OH234247   7.013   7.189   0.137
11435TIP3    H134248   6.974   7.128   0.074
11435TIP3    H234249   7.003   7.275   0.096
11436TIP3   OH234250   1.565   6.086   0.041
11436TIP3    H134251   1.530   6.043   0.119
11436TIP3    H234252   1.653   6.048   0.030
11437TIP3   OH234253   0.443   1.921   4.360
11437TIP3    H134254   0.429   1.942   4.452
11437TIP3    H234255   0.354   1.919   4.323
11438TIP3   OH234256   5.611   3.737   1.348
11438TIP3    H134257   5.702   3.715   1.368
11438TIP3    H234258   5.601   3.827   1.378
11439TIP3   OH234259   1.726   0.390   0.999
11439TIP3    H134260   1.795   0.325   1.011
11439TIP3    H234261   1.738   0.451   1.072
11440TIP3   OH234262   7.952   6.806   1.086
11440TIP3    H134263   8.003   6.726   1.097
11440TIP3    H234264   7.998   6.855   1.018
11441TIP3   OH234265   1.360   0.399   3.872
11441TIP3    H134266   1.297   0.449   3.924
11441TIP3    H234267   1.367   0.448   3.790
11442TIP3   OH234268   3.284   1.669   0.363
11442TIP3    H134269   3.314   1.594   0.414
11442TIP3    H234270   3.327   1.660   0.278
11443TIP3   OH234271   4.621   0.456   5.283
11443TIP3    H134272   4.535   0.414   5.275
11443TIP3    H234273   4.611   0.539   5.235
11444TIP3   OH234274   2.469   3.783   3.185
11444TIP3    H134275   2.532   3.773   3.113
11444TIP3    H234276   2.394   3.730   3.158
11445TIP3   OH234277   5.226   2.113   3.782
11445TIP3    H134278   5.291   2.156   3.837
11445TIP3    H234279   5.186   2.047   3.839
11446TIP3   OH234280   4.336   2.170   5.948
11446TIP3    H134281   4.321   2.075   5.953
11446TIP3    H234282   4.331   2.190   5.854
11447TIP3   OH234283   2.934   1.715   1.272
11447TIP3    H134284   2.899   1.651   1.211
11447TIP3    H234285   3.010   1.753   1.227
11448TIP3   OH234286   8.279   4.963   4.051
11448TIP3    H134287   8.341   4.899   4.086
11448TIP3    H234288   8.230   4.915   3.984
11449TIP3   OH234289   7.389   1.992   3.152
11449TIP3    H134290   7.304   2.011   3.192
11449TIP3    H234291   7.431   2.078   3.143
11450TIP3   OH234292   1.246   7.065   6.091
11450TIP3    H134293   1.199   7.060   6.008
11450TIP3    H234294   1.232   6.980   6.132
11451TIP3   OH234295   7.305   0.520   4.776
11451TIP3    H134296   7.382   0.530   4.720
11451TIP3    H234297   7.289   0.608   4.811
11452TIP3   OH234298   0.684   3.979   2.906
11452TIP3    H134299   0.774   3.988   2.937
11452TIP3    H234300   0.688   3.910   2.840
11453TIP3   OH234301   5.533   6.670   1.849
11453TIP3    H134302   5.601   6.603   1.851
11453TIP3    H234303   5.468   6.640   1.913
11454TIP3   OH234304   3.344   6.353   6.188
11454TIP3    H134305   3.323   6.265   6.222
11454TIP3    H234306   3.269   6.377   6.135
11455TIP3   OH234307   3.132   6.201   0.030
11455TIP3    H134308   3.094   6.113   0.024
11455TIP3    H234309   3.207   6.191   0.089
11456TIP3   OH234310   3.208   1.107   2.582
11456TIP3    H134311   3.234   1.033   2.528
11456TIP3    H234312   3.181   1.175   2.520
11457TIP3   OH234313   1.373   5.461   0.473
11457TIP3    H134314   1.341   5.527   0.534
11457TIP3    H234315   1.423   5.510   0.408
11458TIP3   OH234316   0.435   4.790   1.146
11458TIP3    H134317   0.395   4.867   1.185
11458TIP3    H234318   0.455   4.734   1.221
11459TIP3   OH234319   7.771   2.515   2.164
11459TIP3    H134320   7.728   2.468   2.093
11459TIP3    H234321   7.717   2.594   2.176
11460TIP3   OH234322   0.994   7.303   0.393
11460TIP3    H134323   1.030   7.272   0.309
11460TIP3    H234324   0.933   7.234   0.420
11461TIP3   OH234325   4.170   0.151   1.772
11461TIP3    H134326   4.191   0.060   1.793
11461TIP3    H234327   4.175   0.197   1.855
11462TIP3   OH234328   3.560   0.522   6.616
11462TIP3    H134329   3.583   0.432   6.597
11462TIP3    H234330   3.539   0.560   6.531
11463TIP3   OH234331   0.322   2.020   3.342
11463TIP3    H134332   0.316   2.115   3.337
11463TIP3    H234333   0.414   2.001   3.323
11464TIP3   OH234334   0.701   7.157   3.742
11464TIP3    H134335   0.746   7.187   3.663
11464TIP3    H234336   0.735   7.212   3.812
11465TIP3   OH234337   7.673   7.177   6.749
11465TIP3    H134338   7.739   7.155   6.683
11465TIP3    H234339   7.642   7.093   6.782
11466TIP3   OH234340   2.513   4.926   4.179
11466TIP3    H134341   2.477   4.843   4.148
11466TIP3    H234342   2.460   4.993   4.136
11467TIP3   OH234343   5.821   4.456   2.233
11467TIP3    H134344   5.875   4.507   2.172
11467TIP3    H234345   5.842   4.492   2.319
11468TIP3   OH234346   1.209   3.012   4.828
11468TIP3    H134347   1.297   3.023   4.794
11468TIP3    H234348   1.165   3.095   4.811
11469TIP3   OH234349   2.233   3.592   5.593
11469TIP3    H134350   2.189   3.517   5.552
11469TIP3    H234351   2.270   3.557   5.674
11470TIP3   OH234352   4.328   3.901   3.192
11470TIP3    H134353   4.399   3.966   3.189
11470TIP3    H234354   4.329   3.860   3.106
11471TIP3   OH234355   4.056   5.056   6.008
11471TIP3    H134356   4.029   5.142   5.977
11471TIP3    H234357   4.109   5.021   5.936
11472TIP3   OH234358   2.812   0.439   0.811
11472TIP3    H134359   2.785   0.371   0.749
11472TIP3    H234360   2.783   0.406   0.896
11473TIP3   OH234361   7.487   6.079   6.439
11473TIP3    H134362   7.479   6.051   6.348
11473TIP3    H234363   7.541   6.011   6.480
11474TIP3   OH234364   4.885   7.169   3.643
11474TIP3    H134365   4.817   7.167   3.576
11474TIP3    H234366   4.940   7.243   3.619
11475TIP3   OH234367   8.166   5.649   0.107
11475TIP3    H134368   8.102   5.613   0.045
11475TIP3    H234369   8.234   5.582   0.113
11476TIP3   OH234370   3.726   0.923   5.665
11476TIP3    H134371   3.765   0.918   5.753
11476TIP3    H234372   3.797   0.894   5.607
11477TIP3   OH234373   3.230   7.363   3.066
11477TIP3    H134374   3.151   7.405   3.031
11477TIP3    H234375   3.196   7.295   3.124
11478TIP3   OH234376   3.241   2.749   2.303
11478TIP3    H134377   3.250   2.805   2.381
11478TIP3    H234378   3.147   2.736   2.294
11479TIP3   OH234379   5.170   3.258   5.237
11479TIP3    H134380   5.114   3.182   5.252
11479TIP3    H234381   5.116   3.317   5.185
11480TIP3   OH234382   2.022   4.621   4.316
11480TIP3    H134383   1.969   4.545   4.341
11480TIP3    H234384   1.968   4.670   4.254
11481TIP3   OH234385   1.994   1.461   1.545
11481TIP3    H134386   2.073   1.515   1.544
11481TIP3    H234387   2.026   1.374   1.568
11482TIP3   OH234388   7.462   6.773   4.450
11482TIP3    H134389   7.453   6.678   4.454
11482TIP3    H234390   7.557   6.788   4.448
11483TIP3   OH234391   5.834   2.608   4.004
11483TIP3    H134392   5.770   2.538   4.019
11483TIP3    H234393   5.861   2.636   4.092
11484TIP3   OH234394   0.462   3.827   3.873
11484TIP3    H134395   0.399   3.764   3.908
11484TIP3    H234396   0.413   3.876   3.807
11485TIP3   OH234397   0.709   0.210   3.682
11485TIP3    H134398   0.774   0.189   3.615
11485TIP3    H234399   0.631   0.236   3.631
11486TIP3   OH234400   3.995   7.750   1.980
11486TIP3    H134401   4.073   7.757   1.926
11486TIP3    H234402   4.026   7.711   2.062
11487TIP3   OH234403   4.095   3.530   3.145
11487TIP3    H134404   4.069   3.445   3.181
11487TIP3    H234405   4.124   3.511   3.056
11488TIP3   OH234406   4.357   0.700   6.175
11488TIP3    H134407   4.340   0.729   6.264
11488TIP3    H234408   4.449   0.723   6.160
11489TIP3   OH234409   7.054   1.792   1.598
11489TIP3    H134410   7.114   1.837   1.539
11489TIP3    H234411   7.002   1.861   1.638
11490TIP3   OH234412   2.194   6.492   3.107
11490TIP3    H134413   2.237   6.409   3.084
11490TIP3    H234414   2.188   6.539   3.024
11491TIP3   OH234415   1.245   3.606   0.029
11491TIP3    H134416   1.304   3.650  -0.031
11491TIP3    H234417   1.178   3.671   0.051
11492TIP3   OH234418   7.215   3.623   3.493
11492TIP3    H134419   7.272   3.692   3.460
11492TIP3    H234420   7.129   3.643   3.455
11493TIP3   OH234421   7.409   5.354   2.053
11493TIP3    H134422   7.393   5.449   2.051
11493TIP3    H234423   7.502   5.344   2.035
11494TIP3   OH234424   1.537   1.110   2.365
11494TIP3    H134425   1.483   1.189   2.364
11494TIP3    H234426   1.627   1.141   2.375
11495TIP3   OH234427   3.406   2.105   4.222
11495TIP3    H134428   3.326   2.157   4.211
11495TIP3    H234429   3.412   2.089   4.316
11496TIP3   OH234430   3.083   6.282   0.449
11496TIP3    H134431   3.082   6.201   0.500
11496TIP3    H234432   3.143   6.264   0.377
11497TIP3   OH234433   5.730   2.035   2.742
11497TIP3    H134434   5.710   2.041   2.835
11497TIP3    H234435   5.651   1.996   2.703
11498TIP3   OH234436   0.728   7.814   1.026
11498TIP3    H134437   0.640   7.851   1.023
11498TIP3    H234438   0.734   7.772   1.112
11499TIP3   OH234439   7.321   1.670   3.522
11499TIP3    H134440   7.416   1.679   3.518
11499TIP3    H234441   7.297   1.708   3.607
11500TIP3   OH234442   7.752   7.045   4.122
11500TIP3    H134443   7.815   7.027   4.051
11500TIP3    H234444   7.790   7.119   4.169
11501TIP3   OH234445   4.363   6.590   3.197
11501TIP3    H134446   4.331   6.502   3.217
11501TIP3    H234447   4.387   6.586   3.105
11502TIP3   OH234448   1.074   4.839   6.251
11502TIP3    H134449   1.064   4.787   6.331
11502TIP3    H234450   0.987   4.877   6.236
11503TIP3   OH234451   0.862   3.864   3.207
11503TIP3    H134452   0.845   3.797   3.273
11503TIP3    H234453   0.777   3.906   3.193
11504TIP3   OH234454   7.877   4.501   1.051
11504TIP3    H134455   7.790   4.506   1.013
11504TIP3    H234456   7.869   4.436   1.121
11505TIP3   OH234457   6.564   5.327   4.309
11505TIP3    H134458   6.561   5.356   4.217
11505TIP3    H234459   6.648   5.359   4.341
11506TIP3   OH234460   3.310   4.572   3.092
11506TIP3    H134461   3.398   4.562   3.056
11506TIP3    H234462   3.315   4.528   3.177
11507TIP3   OH234463   5.157   6.652   6.548
11507TIP3    H134464   5.171   6.580   6.609
11507TIP3    H234465   5.062   6.656   6.537
11508TIP3   OH234466   6.809   6.977   3.387
11508TIP3    H134467   6.771   6.925   3.458
11508TIP3    H234468   6.820   7.064   3.425
11509TIP3   OH234469   1.760   5.805   2.376
11509TIP3    H134470   1.802   5.793   2.291
11509TIP3    H234471   1.667   5.797   2.358
11510TIP3   OH234472   7.601   5.093   1.103
11510TIP3    H134473   7.518   5.046   1.106
11510TIP3    H234474   7.607   5.136   1.188
11511TIP3   OH234475   3.944   3.905   6.041
11511TIP3    H134476   3.921   3.837   6.105
11511TIP3    H234477   3.952   3.985   6.093
11512TIP3   OH234478   1.755   4.180   1.148
11512TIP3    H134479   1.781   4.270   1.133
11512TIP3    H234480   1.813   4.128   1.092
11513TIP3   OH234481   7.528   7.034   4.772
11513TIP3    H134482   7.496   7.032   4.682
11513TIP3    H234483   7.605   7.092   4.768
11514TIP3   OH234484   0.390   0.995   1.909
11514TIP3    H134485   0.345   1.073   1.943
11514TIP3    H234486   0.343   0.922   1.949
11515TIP3   OH234487   1.854   6.697   2.331
11515TIP3    H134488   1.785   6.718   2.394
11515TIP3    H234489   1.888   6.782   2.304
11516TIP3   OH234490   3.197   4.553   4.422
11516TIP3    H134491   3.172   4.596   4.504
11516TIP3    H234492   3.137   4.478   4.416
11517TIP3   OH234493   2.198   6.462   2.553
11517TIP3    H134494   2.149   6.455   2.471
11517TIP3    H234495   2.286   6.490   2.526
11518TIP3   OH234496   2.387   0.062   1.548
11518TIP3    H134497   2.321   0.006   1.589
11518TIP3    H234498   2.336   0.132   1.507
11519TIP3   OH234499   3.922   3.861   0.765
11519TIP3    H134500   3.997   3.835   0.712
11519TIP3    H234501   3.956   3.865   0.855
11520TIP3   OH234502   1.911   7.722   5.503
11520TIP3    H134503   1.872   7.649   5.551
11520TIP3    H234504   1.984   7.751   5.559
11521TIP3   OH234505   1.685   5.984   5.103
11521TIP3    H134506   1.780   5.977   5.116
11521TIP3    H234507   1.657   6.054   5.162
11522TIP3   OH234508   5.219   4.390   4.753
11522TIP3    H134509   5.232   4.313   4.809
11522TIP3    H234510   5.139   4.430   4.786
11523TIP3   OH234511   8.206   4.294   4.171
11523TIP3    H134512   8.199   4.271   4.263
11523TIP3    H234513   8.192   4.389   4.168
11524TIP3   OH234514   3.397   7.176   1.316
11524TIP3    H134515   3.481   7.201   1.353
11524TIP3    H234516   3.362   7.110   1.376
11525TIP3   OH234517   0.943   6.646   6.110
11525TIP3    H134518   1.031   6.681   6.117
11525TIP3    H234519   0.935   6.616   6.019
11526TIP3   OH234520   0.253   7.776   0.270
11526TIP3    H134521   0.254   7.692   0.225
11526TIP3    H234522   0.220   7.755   0.358
11527TIP3   OH234523   2.993   0.762   1.236
11527TIP3    H134524   3.009   0.810   1.317
11527TIP3    H234525   3.079   0.727   1.212
11528TIP3   OH234526   0.177   4.919   6.682
11528TIP3    H134527   0.248   4.964   6.636
11528TIP3    H234528   0.199   4.826   6.674
11529TIP3   OH234529   0.114   1.744   3.886
11529TIP3    H134530   0.152   1.680   3.827
11529TIP3    H234531   0.091   1.818   3.829
11530TIP3   OH234532   3.458   7.334   2.455
11530TIP3    H134533   3.363   7.344   2.455
11530TIP3    H234534   3.474   7.252   2.502
11531TIP3   OH234535   5.565   7.221   4.116
11531TIP3    H134536   5.614   7.231   4.197
11531TIP3    H234537   5.562   7.126   4.101
11532TIP3   OH234538   3.043   5.465   0.015
11532TIP3    H134539   2.948   5.476   0.021
11532TIP3    H234540   3.062   5.391   0.072
11533TIP3   OH234541   1.045   5.360   0.202
11533TIP3    H134542   1.069   5.286   0.258
11533TIP3    H234543   1.055   5.326   0.113
11534TIP3   OH234544   0.733   4.236   1.521
11534TIP3    H134545   0.747   4.179   1.446
11534TIP3    H234546   0.687   4.312   1.486
11535TIP3   OH234547   2.730   2.881   0.258
11535TIP3    H134548   2.656   2.942   0.261
11535TIP3    H234549   2.784   2.913   0.186
11536TIP3   OH234550   0.001   7.710   6.210
11536TIP3    H134551   0.003   7.784   6.270
11536TIP3    H234552   0.011   7.633   6.266
11537TIP3   OH234553   8.261   6.364   4.911
11537TIP3    H134554   8.301   6.450   4.922
11537TIP3    H234555   8.250   6.354   4.816
11538TIP3   OH234556   2.329   1.255   2.126
11538TIP3    H134557   2.375   1.263   2.042
11538TIP3    H234558   2.393   1.285   2.191
11539TIP3   OH234559   5.342   0.612   3.376
11539TIP3    H134560   5.326   0.574   3.290
11539TIP3    H234561   5.423   0.572   3.406
11540TIP3   OH234562   7.046   1.134   3.762
11540TIP3    H134563   7.131   1.122   3.805
11540TIP3    H234564   7.068   1.168   3.676
11541TIP3   OH234565   5.436   5.914   4.507
11541TIP3    H134566   5.385   5.975   4.559
11541TIP3    H234567   5.524   5.953   4.504
11542TIP3   OH234568   2.040   0.354   1.328
11542TIP3    H134569   2.059   0.390   1.415
11542TIP3    H234570   1.978   0.283   1.345
11543TIP3   OH234571   6.127   6.120   4.029
11543TIP3    H134572   6.167   6.206   4.015
11543TIP3    H234573   6.066   6.110   3.956
11544TIP3   OH234574   1.830   5.264   3.840
11544TIP3    H134575   1.773   5.193   3.869
11544TIP3    H234576   1.886   5.283   3.915
11545TIP3   OH234577   5.030   1.420   1.247
11545TIP3    H134578   5.058   1.329   1.239
11545TIP3    H234579   5.095   1.460   1.305
11546TIP3   OH234580   7.998   0.619   1.399
11546TIP3    H134581   7.914   0.584   1.368
11546TIP3    H234582   8.018   0.691   1.338
11547TIP3   OH234583   4.163   7.227   5.102
11547TIP3    H134584   4.097   7.177   5.053
11547TIP3    H234585   4.126   7.234   5.190
11548TIP3   OH234586   2.717   7.081   2.632
11548TIP3    H134587   2.748   7.141   2.564
11548TIP3    H234588   2.733   7.127   2.714
11549TIP3   OH234589   7.910   7.035   1.293
11549TIP3    H134590   7.934   6.991   1.375
11549TIP3    H234591   7.947   6.979   1.225
11550TIP3   OH234592   7.893   7.038   5.799
11550TIP3    H134593   7.842   7.113   5.830
11550TIP3    H234594   7.983   7.057   5.825
11551TIP3   OH234595   6.896   5.568   6.583
11551TIP3    H134596   6.811   5.575   6.628
11551TIP3    H234597   6.887   5.625   6.506
11552TIP3   OH234598   6.735   5.344   2.189
11552TIP3    H134599   6.788   5.412   2.148
11552TIP3    H234600   6.721   5.279   2.120
11553TIP3   OH234601   7.764   1.100   0.257
11553TIP3    H134602   7.715   1.025   0.226
11553TIP3    H234603   7.758   1.164   0.186
11554TIP3   OH234604   5.321   0.376   5.977
11554TIP3    H134605   5.341   0.396   6.068
11554TIP3    H234606   5.393   0.321   5.947
11555TIP3   OH234607   7.405   3.866   4.759
11555TIP3    H134608   7.362   3.835   4.679
11555TIP3    H234609   7.497   3.845   4.746
11556TIP3   OH234610   7.771   0.133   1.671
11556TIP3    H134611   7.710   0.067   1.704
11556TIP3    H234612   7.758   0.133   1.576
11557TIP3   OH234613   7.412   2.456   4.801
11557TIP3    H134614   7.500   2.433   4.830
11557TIP3    H234615   7.409   2.425   4.710
11558TIP3   OH234616   2.790   1.607   4.982
11558TIP3    H134617   2.722   1.670   5.006
11558TIP3    H234618   2.789   1.542   5.052
11559TIP3   OH234619   7.458   1.907   2.611
11559TIP3    H134620   7.486   1.952   2.691
11559TIP3    H234621   7.438   1.977   2.550
11560TIP3   OH234622   4.112   5.190   1.148
11560TIP3    H134623   4.031   5.241   1.141
11560TIP3    H234624   4.170   5.227   1.081
11561TIP3   OH234625   3.134   7.268   3.716
11561TIP3    H134626   3.077   7.223   3.655
11561TIP3    H234627   3.188   7.199   3.754
11562TIP3   OH234628   6.504   5.572   2.617
11562TIP3    H134629   6.521   5.525   2.698
11562TIP3    H234630   6.561   5.531   2.553
11563TIP3   OH234631   0.655   2.732   4.067
11563TIP3    H134632   0.585   2.668   4.083
11563TIP3    H234633   0.659   2.739   3.971
11564TIP3   OH234634   3.987   6.528   5.074
11564TIP3    H134635   4.039   6.539   5.154
11564TIP3    H234636   4.012   6.602   5.018
11565TIP3   OH234637   0.880   3.847   0.592
11565TIP3    H134638   0.922   3.767   0.559
11565TIP3    H234639   0.853   3.894   0.513
11566TIP3   OH234640   2.625   6.446   5.585
11566TIP3    H134641   2.644   6.522   5.531
11566TIP3    H234642   2.616   6.374   5.522
11567TIP3   OH234643   2.791   6.992   5.383
11567TIP3    H134644   2.796   6.903   5.348
11567TIP3    H234645   2.720   7.033   5.333
11568TIP3   OH234646   2.970   1.523   4.368
11568TIP3    H134647   2.909   1.591   4.339
11568TIP3    H234648   3.057   1.561   4.357
11569TIP3   OH234649   5.026   6.245   2.115
11569TIP3    H134650   4.992   6.237   2.026
11569TIP3    H234651   4.950   6.267   2.168
11570TIP3   OH234652   6.787   2.863   5.168
11570TIP3    H134653   6.863   2.898   5.123
11570TIP3    H234654   6.738   2.817   5.100
11571TIP3   OH234655   2.493   3.007   3.361
11571TIP3    H134656   2.473   2.925   3.316
11571TIP3    H234657   2.407   3.048   3.376
11572TIP3   OH234658   0.698   3.507   1.380
11572TIP3    H134659   0.643   3.490   1.303
11572TIP3    H234660   0.719   3.601   1.373
11573TIP3   OH234661   3.156   5.492   3.354
11573TIP3    H134662   3.199   5.413   3.388
11573TIP3    H234663   3.228   5.548   3.325
11574TIP3   OH234664   4.258   4.344   6.750
11574TIP3    H134665   4.180   4.399   6.749
11574TIP3    H234666   4.326   4.398   6.711
11575TIP3   OH234667   0.263   6.374   6.641
11575TIP3    H134668   0.179   6.337   6.668
11575TIP3    H234669   0.239   6.449   6.586
11576TIP3   OH234670   1.148   1.481   0.870
11576TIP3    H134671   1.124   1.463   0.779
11576TIP3    H234672   1.159   1.576   0.873
11577TIP3   OH234673   0.708   0.884   1.094
11577TIP3    H134674   0.729   0.920   1.008
11577TIP3    H234675   0.758   0.802   1.099
11578TIP3   OH234676   8.061   7.406   6.457
11578TIP3    H134677   8.050   7.501   6.462
11578TIP3    H234678   8.101   7.391   6.371
11579TIP3   OH234679   5.764   0.864   4.696
11579TIP3    H134680   5.788   0.912   4.617
11579TIP3    H234681   5.741   0.777   4.664
11580TIP3   OH234682   1.932   3.852   3.290
11580TIP3    H134683   1.857   3.885   3.241
11580TIP3    H234684   1.932   3.758   3.275
11581TIP3   OH234685   0.243   3.635   3.278
11581TIP3    H134686   0.221   3.725   3.253
11581TIP3    H234687   0.160   3.598   3.308
11582TIP3   OH234688   3.414   1.545   6.009
11582TIP3    H134689   3.320   1.557   6.020
11582TIP3    H234690   3.443   1.622   5.962
11583TIP3   OH234691   2.522   3.795   5.452
11583TIP3    H134692   2.579   3.734   5.405
11583TIP3    H234693   2.553   3.792   5.542
11584TIP3   OH234694   7.970   2.627   2.345
11584TIP3    H134695   7.988   2.716   2.318
11584TIP3    H234696   7.899   2.598   2.287
11585TIP3   OH234697   8.075   4.326   6.513
11585TIP3    H134698   8.102   4.306   6.603
11585TIP3    H234699   8.157   4.338   6.465
11586TIP3   OH234700   6.178   4.228   5.706
11586TIP3    H134701   6.210   4.139   5.689
11586TIP3    H234702   6.150   4.260   5.620
11587TIP3   OH234703   5.337   2.938   2.977
11587TIP3    H134704   5.339   3.020   2.928
11587TIP3    H234705   5.310   2.963   3.065
11588TIP3   OH234706   5.069   5.518   3.909
11588TIP3    H134707   5.152   5.566   3.911
11588TIP3    H234708   5.046   5.505   4.001
11589TIP3   OH234709   2.582   3.400   2.272
11589TIP3    H134710   2.524   3.455   2.220
11589TIP3    H234711   2.526   3.364   2.340
11590TIP3   OH234712   7.571   7.335   2.403
11590TIP3    H134713   7.603   7.247   2.423
11590TIP3    H234714   7.476   7.327   2.405
11591TIP3   OH234715   0.777   6.173   0.156
11591TIP3    H134716   0.842   6.240   0.175
11591TIP3    H234717   0.731   6.205   0.078
11592TIP3   OH234718   5.948   5.728   3.390
11592TIP3    H134719   5.886   5.801   3.389
11592TIP3    H234720   5.908   5.662   3.333
11593TIP3   OH234721   6.029   4.177   6.700
11593TIP3    H134722   6.039   4.087   6.731
11593TIP3    H234723   6.111   4.196   6.655
11594TIP3   OH234724   8.201   6.313   3.803
11594TIP3    H134725   8.197   6.221   3.775
11594TIP3    H234726   8.215   6.309   3.897
11595TIP3   OH234727   7.733   7.722   2.837
11595TIP3    H134728   7.770   7.799   2.793
11595TIP3    H234729   7.659   7.756   2.887
11596TIP3   OH234730   0.762   6.275   6.378
11596TIP3    H134731   0.753   6.180   6.371
11596TIP3    H234732   0.716   6.297   6.460
11597TIP3   OH234733   5.508   7.307   6.609
11597TIP3    H134734   5.535   7.224   6.568
11597TIP3    H234735   5.441   7.281   6.672
11598TIP3   OH234736   0.060   1.384   1.107
11598TIP3    H134737   0.052   1.292   1.133
11598TIP3    H234738  -0.005   1.430   1.162
11599TIP3   OH234739   4.501   6.801   5.062
11599TIP3    H134740   4.547   6.746   5.000
11599TIP3    H234741   4.539   6.780   5.147
11600TIP3   OH234742   5.250   3.805   0.822
11600TIP3    H134743   5.206   3.740   0.768
11600TIP3    H234744   5.267   3.760   0.905
11601TIP3   OH234745   6.530   4.908   3.995
11601TIP3    H134746   6.617   4.897   4.034
11601TIP3    H234747   6.527   5.000   3.967
11602TIP3   OH234748   4.588   0.532   4.815
11602TIP3    H134749   4.538   0.456   4.784
11602TIP3    H234750   4.648   0.551   4.743
11603TIP3   OH234751   1.317   0.423   4.873
11603TIP3    H134752   1.353   0.360   4.936
11603TIP3    H234753   1.371   0.412   4.795
11604TIP3   OH234754   3.265   1.237   1.614
11604TIP3    H134755   3.209   1.291   1.558
11604TIP3    H234756   3.348   1.234   1.567
11605TIP3   OH234757   4.928   0.358   4.232
11605TIP3    H134758   4.944   0.315   4.316
11605TIP3    H234759   4.871   0.298   4.185
11606TIP3   OH234760   8.157   5.011   6.470
11606TIP3    H134761   8.213   4.958   6.414
11606TIP3    H234762   8.134   4.954   6.543
11607TIP3   OH234763   3.428   0.827   3.252
11607TIP3    H134764   3.340   0.803   3.225
11607TIP3    H234765   3.485   0.775   3.196
11608TIP3   OH234766   3.331   5.648   1.516
11608TIP3    H134767   3.355   5.740   1.528
11608TIP3    H234768   3.378   5.620   1.437
11609TIP3   OH234769   4.035   3.205   6.161
11609TIP3    H134770   4.039   3.109   6.160
11609TIP3    H234771   3.972   3.226   6.091
11610TIP3   OH234772   2.970   1.169   5.325
11610TIP3    H134773   3.016   1.094   5.288
11610TIP3    H234774   3.035   1.240   5.323
11611TIP3   OH234775   2.644   1.225   6.308
11611TIP3    H134776   2.659   1.297   6.369
11611TIP3    H234777   2.675   1.258   6.223
11612TIP3   OH234778   2.654   0.860   5.921
11612TIP3    H134779   2.671   0.769   5.896
11612TIP3    H234780   2.629   0.903   5.839
11613TIP3   OH234781   1.892   7.437   5.529
11613TIP3    H134782   1.924   7.451   5.618
11613TIP3    H234783   1.800   7.414   5.540
11614TIP3   OH234784   5.282   4.154   5.786
11614TIP3    H134785   5.265   4.067   5.822
11614TIP3    H234786   5.328   4.200   5.856
11615TIP3   OH234787   5.141   6.602   1.499
11615TIP3    H134788   5.207   6.541   1.530
11615TIP3    H234789   5.068   6.547   1.470
11616TIP3   OH234790   2.136   5.884   3.524
11616TIP3    H134791   2.095   5.809   3.567
11616TIP3    H234792   2.230   5.869   3.534
11617TIP3   OH234793   1.086   2.600   5.329
11617TIP3    H134794   1.145   2.547   5.384
11617TIP3    H234795   1.134   2.682   5.316
11618TIP3   OH234796   5.388   5.002   0.946
11618TIP3    H134797   5.473   5.041   0.923
11618TIP3    H234798   5.396   4.910   0.918
11619TIP3   OH234799   0.696   1.330   6.607
11619TIP3    H134800   0.641   1.401   6.639
11619TIP3    H234801   0.786   1.359   6.625
11620TIP3   OH234802   8.185   6.619   3.856
11620TIP3    H134803   8.187   6.596   3.949
11620TIP3    H234804   8.172   6.714   3.855
11621TIP3   OH234805   2.584   4.261   1.575
11621TIP3    H134806   2.576   4.225   1.487
11621TIP3    H234807   2.672   4.299   1.578
11622TIP3   OH234808   0.089   4.991   3.330
11622TIP3    H134809   0.146   5.068   3.323
11622TIP3    H234810   0.012   5.023   3.377
11623TIP3   OH234811   7.376   1.730   0.063
11623TIP3    H134812   7.402   1.725   0.155
11623TIP3    H234813   7.402   1.645   0.026
11624TIP3   OH234814   0.145   2.576   0.843
11624TIP3    H134815   0.097   2.531   0.912
11624TIP3    H234816   0.090   2.651   0.820
11625TIP3   OH234817   2.569   0.495   6.176
11625TIP3    H134818   2.653   0.541   6.177
11625TIP3    H234819   2.590   0.407   6.207
11626TIP3   OH234820   2.002   4.639   5.256
11626TIP3    H134821   2.030   4.684   5.177
11626TIP3    H234822   2.023   4.547   5.239
11627TIP3   OH234823   7.717   2.390   0.168
11627TIP3    H134824   7.702   2.296   0.166
11627TIP3    H234825   7.657   2.423   0.235
11628TIP3   OH234826   0.161   0.172   6.010
11628TIP3    H134827   0.192   0.193   6.097
11628TIP3    H234828   0.232   0.122   5.970
11629TIP3   OH234829   7.519   4.376   4.371
11629TIP3    H134830   7.556   4.447   4.318
11629TIP3    H234831   7.456   4.333   4.313
11630TIP3   OH234832   4.529   1.842   1.604
11630TIP3    H134833   4.518   1.813   1.514
11630TIP3    H234834   4.618   1.818   1.626
11631TIP3   OH234835   7.541   4.620   1.932
11631TIP3    H134836   7.604   4.662   1.991
11631TIP3    H234837   7.575   4.637   1.844
11632TIP3   OH234838   2.845   0.614   0.424
11632TIP3    H134839   2.913   0.590   0.360
11632TIP3    H234840   2.856   0.551   0.495
11633TIP3   OH234841   0.364   5.635   2.293
11633TIP3    H134842   0.404   5.722   2.285
11633TIP3    H234843   0.333   5.614   2.205
11634TIP3   OH234844   7.202   0.005   2.883
11634TIP3    H134845   7.210   0.033   2.792
11634TIP3    H234846   7.284   0.032   2.923
11635TIP3   OH234847   2.423   5.242   5.260
11635TIP3    H134848   2.375   5.251   5.343
11635TIP3    H234849   2.406   5.324   5.213
11636TIP3   OH234850   2.786   2.645   3.677
11636TIP3    H134851   2.778   2.709   3.606
11636TIP3    H234852   2.737   2.683   3.749
11637TIP3   OH234853   1.872   6.327   1.146
11637TIP3    H134854   1.822   6.356   1.222
11637TIP3    H234855   1.819   6.355   1.071
11638TIP3   OH234856   4.963   0.452   2.657
11638TIP3    H134857   5.022   0.391   2.614
11638TIP3    H234858   4.972   0.433   2.750
11639TIP3   OH234859   7.878   5.535   3.772
11639TIP3    H134860   7.884   5.595   3.697
11639TIP3    H234861   7.816   5.468   3.744
11640TIP3   OH234862   5.485   0.101   3.261
11640TIP3    H134863   5.492   0.057   3.346
11640TIP3    H234864   5.418   0.051   3.214
11641TIP3   OH234865   6.695   1.298   1.415
11641TIP3    H134866   6.664   1.389   1.417
11641TIP3    H234867   6.658   1.262   1.335
11642TIP3   OH234868   3.665   3.826   4.806
11642TIP3    H134869   3.586   3.776   4.827
11642TIP3    H234870   3.676   3.885   4.880
11643TIP3   OH234871   0.628   6.444   1.122
11643TIP3    H134872   0.689   6.493   1.068
11643TIP3    H234873   0.543   6.457   1.081
11644TIP3   OH234874   2.051   6.930   0.100
11644TIP3    H134875   2.044   6.835   0.112
11644TIP3    H234876   2.116   6.941   0.031
11645TIP3   OH234877   0.830   2.300   2.933
11645TIP3    H134878   0.798   2.217   2.896
11645TIP3    H234879   0.872   2.344   2.860
11646TIP3   OH234880   2.599   6.134   3.632
11646TIP3    H134881   2.642   6.150   3.716
11646TIP3    H234882   2.585   6.039   3.629
11647TIP3   OH234883   7.172   4.502   3.074
11647TIP3    H134884   7.094   4.557   3.065
11647TIP3    H234885   7.170   4.471   3.165
11648TIP3   OH234886   2.817   2.645   0.391
11648TIP3    H134887   2.800   2.726   0.343
11648TIP3    H234888   2.850   2.674   0.476
11649TIP3   OH234889   7.580   2.963   5.076
11649TIP3    H134890   7.597   2.892   5.015
11649TIP3    H234891   7.486   2.980   5.067
11650TIP3   OH234892   5.159   5.545   1.394
11650TIP3    H134893   5.126   5.513   1.310
11650TIP3    H234894   5.254   5.538   1.387
11651TIP3   OH234895   8.230   2.986   4.374
11651TIP3    H134896   8.199   2.924   4.440
11651TIP3    H234897   8.298   2.937   4.326
11652TIP3   OH234898   0.233   5.156   4.281
11652TIP3    H134899   0.143   5.127   4.299
11652TIP3    H234900   0.225   5.214   4.205
11653TIP3   OH234901   2.664   5.786   3.811
11653TIP3    H134902   2.686   5.808   3.720
11653TIP3    H234903   2.576   5.822   3.824
11654TIP3   OH234904   5.163   7.799   4.191
11654TIP3    H134905   5.222   7.724   4.180
11654TIP3    H234906   5.103   7.792   4.117
11655TIP3   OH234907   7.340   7.519   2.091
11655TIP3    H134908   7.294   7.568   2.159
11655TIP3    H234909   7.370   7.585   2.029
11656TIP3   OH234910   7.733   3.336   3.033
11656TIP3    H134911   7.719   3.403   2.967
11656TIP3    H234912   7.645   3.307   3.057
11657TIP3   OH234913   1.969   7.197   4.027
11657TIP3    H134914   1.962   7.289   4.051
11657TIP3    H234915   1.883   7.160   4.051
11658TIP3   OH234916   5.331   6.058   2.528
11658TIP3    H134917   5.325   6.094   2.440
11658TIP3    H234918   5.241   6.050   2.558
11659TIP3   OH234919   2.559   4.669   0.231
11659TIP3    H134920   2.533   4.729   0.162
11659TIP3    H234921   2.593   4.726   0.301
11660TIP3   OH234922   3.846   2.105   5.468
11660TIP3    H134923   3.806   2.041   5.410
11660TIP3    H234924   3.821   2.190   5.432
11661TIP3   OH234925   0.061   0.546   2.532
11661TIP3    H134926  -0.009   0.584   2.585
11661TIP3    H234927   0.052   0.452   2.544
11662TIP3   OH234928   5.312   5.455   0.652
11662TIP3    H134929   5.253   5.488   0.585
11662TIP3    H234930   5.310   5.360   0.641
11663TIP3   OH234931   1.936   0.238   6.346
11663TIP3    H134932   1.860   0.185   6.370
11663TIP3    H234933   1.907   0.329   6.356
11664TIP3   OH234934   6.230   4.213   6.506
11664TIP3    H134935   6.289   4.177   6.440
11664TIP3    H234936   6.144   4.180   6.482
11665TIP3   OH234937   4.768   7.255   0.689
11665TIP3    H134938   4.703   7.228   0.624
11665TIP3    H234939   4.835   7.302   0.639
11666TIP3   OH234940   3.370   5.589   2.418
11666TIP3    H134941   3.343   5.639   2.495
11666TIP3    H234942   3.396   5.504   2.453
11667TIP3   OH234943   6.086   1.677   6.239
11667TIP3    H134944   6.125   1.627   6.167
11667TIP3    H234945   6.062   1.761   6.201
11668TIP3   OH234946   2.523   0.456   0.059
11668TIP3    H134947   2.601   0.402   0.048
11668TIP3    H234948   2.455   0.411   0.008
11669TIP3   OH234949   0.211   4.417   2.993
11669TIP3    H134950   0.193   4.481   3.062
11669TIP3    H234951   0.130   4.412   2.943
11670TIP3   OH234952   0.386   6.844   1.152
11670TIP3    H134953   0.321   6.853   1.083
11670TIP3    H234954   0.345   6.785   1.216
11671TIP3   OH234955   4.145   7.732   5.767
11671TIP3    H134956   4.188   7.816   5.753
11671TIP3    H234957   4.073   7.731   5.703
11672TIP3   OH234958   0.672   5.730   1.846
11672TIP3    H134959   0.597   5.777   1.882
11672TIP3    H234960   0.714   5.793   1.787
11673TIP3   OH234961   1.950   2.671   0.351
11673TIP3    H134962   1.945   2.577   0.337
11673TIP3    H234963   2.037   2.696   0.321
11674TIP3   OH234964   5.096   3.164   2.709
11674TIP3    H134965   5.108   3.246   2.758
11674TIP3    H234966   5.021   3.122   2.751
11675TIP3   OH234967   2.159   0.539   1.526
11675TIP3    H134968   2.145   0.630   1.551
11675TIP3    H234969   2.249   0.536   1.494
11676TIP3   OH234970   2.781   2.144   2.366
11676TIP3    H134971   2.794   2.127   2.273
11676TIP3    H234972   2.826   2.073   2.410
11677TIP3   OH234973   5.845   3.041   4.833
11677TIP3    H134974   5.867   2.984   4.907
11677TIP3    H234975   5.925   3.045   4.781
11678TIP3   OH234976   6.798   1.639   6.365
11678TIP3    H134977   6.889   1.619   6.343
11678TIP3    H234978   6.761   1.672   6.283
11679TIP3   OH234979   7.588   3.781   3.745
11679TIP3    H134980   7.539   3.730   3.810
11679TIP3    H234981   7.663   3.726   3.723
11680TIP3   OH234982   4.264   7.007   5.358
11680TIP3    H134983   4.241   6.919   5.388
11680TIP3    H234984   4.229   7.012   5.269
11681TIP3   OH234985   5.416   1.749   5.659
11681TIP3    H134986   5.424   1.755   5.564
11681TIP3    H234987   5.381   1.662   5.676
11682TIP3   OH234988   7.087   1.760   5.678
11682TIP3    H134989   7.013   1.820   5.664
11682TIP3    H234990   7.049   1.673   5.667
11683TIP3   OH234991   4.037   5.922   3.364
11683TIP3    H134992   3.970   5.984   3.391
11683TIP3    H234993   4.117   5.953   3.405
11684TIP3   OH234994   2.968   6.281   3.796
11684TIP3    H134995   2.885   6.235   3.810
11684TIP3    H234996   2.943   6.370   3.772
11685TIP3   OH234997   2.048   7.811   0.403
11685TIP3    H134998   2.140   7.831   0.419
11685TIP3    H234999   2.046   7.769   0.317
11686TIP3   OH235000   3.994   3.911   3.292
11686TIP3    H135001   3.970   3.846   3.359
11686TIP3    H235002   4.003   3.860   3.211
11687TIP3   OH235003   6.547   1.400   2.746
11687TIP3    H135004   6.615   1.370   2.806
11687TIP3    H235005   6.584   1.478   2.704
11688TIP3   OH235006   7.821   5.055   2.956
11688TIP3    H135007   7.796   5.093   3.040
11688TIP3    H235008   7.765   5.099   2.892
11689TIP3   OH235009   0.301   2.158   5.531
11689TIP3    H135010   0.343   2.215   5.595
11689TIP3    H235011   0.219   2.131   5.572
11690TIP3   OH235012   2.621   6.176   4.925
11690TIP3    H135013   2.668   6.232   4.863
11690TIP3    H235014   2.691   6.128   4.971
11691TIP3   OH235015   3.184   0.800   0.861
11691TIP3    H135016   3.127   0.759   0.796
11691TIP3    H235017   3.151   0.890   0.868
11692TIP3   OH235018   2.050   5.979   5.553
11692TIP3    H135019   2.015   5.977   5.642
11692TIP3    H235020   1.997   5.915   5.505
11693TIP3   OH235021   7.238   3.158   1.053
11693TIP3    H135022   7.331   3.150   1.033
11693TIP3    H235023   7.212   3.242   1.014
11694TIP3   OH235024   3.053   6.415   1.120
11694TIP3    H135025   3.106   6.340   1.094
11694TIP3    H235026   3.008   6.441   1.039
11695TIP3   OH235027   0.194   1.543   4.931
11695TIP3    H135028   0.102   1.519   4.921
11695TIP3    H235029   0.193   1.619   4.990
11696TIP3   OH235030   2.121   1.152   5.982
11696TIP3    H135031   2.193   1.184   5.927
11696TIP3    H235032   2.123   1.057   5.971
11697TIP3   OH235033   7.024   4.340   6.696
11697TIP3    H135034   6.952   4.294   6.738
11697TIP3    H235035   7.099   4.281   6.705
11698TIP3   OH235036   2.747   2.969   1.741
11698TIP3    H135037   2.783   2.929   1.820
11698TIP3    H235038   2.753   3.063   1.756
11699TIP3   OH235039   1.895   7.835   0.866
11699TIP3    H135040   1.913   7.830   0.959
11699TIP3    H235041   1.864   7.747   0.843
11700TIP3   OH235042   0.156   5.961   6.071
11700TIP3    H135043   0.131   5.871   6.089
11700TIP3    H235044   0.216   5.984   6.142
11701TIP3   OH235045   7.511   7.689   3.157
11701TIP3    H135046   7.466   7.627   3.215
11701TIP3    H235047   7.600   7.654   3.150
11702TIP3   OH235048   4.694   6.976   1.904
11702TIP3    H135049   4.761   6.924   1.858
11702TIP3    H235050   4.612   6.952   1.861
11703TIP3   OH235051   7.038   5.994   3.953
11703TIP3    H135052   7.119   5.985   3.904
11703TIP3    H235053   6.973   6.020   3.888
11704TIP3   OH235054   2.352   7.823   0.466
11704TIP3    H135055   2.374   7.758   0.533
11704TIP3    H235056   2.388   7.787   0.385
11705TIP3   OH235057   5.111   6.588   4.759
11705TIP3    H135058   5.049   6.516   4.747
11705TIP3    H235059   5.173   6.578   4.686
11706TIP3   OH235060   5.203   3.032   6.450
11706TIP3    H135061   5.248   3.000   6.372
11706TIP3    H235062   5.245   3.116   6.469
11707TIP3   OH235063   4.303   3.552   0.290
11707TIP3    H135064   4.209   3.561   0.270
11707TIP3    H235065   4.321   3.624   0.350
11708TIP3   OH235066   7.670   2.757   3.285
11708TIP3    H135067   7.583   2.768   3.247
11708TIP3    H235068   7.720   2.710   3.218
11709TIP3   OH235069   1.899   1.517   4.842
11709TIP3    H135070   1.831   1.557   4.896
11709TIP3    H235071   1.852   1.483   4.766
11710TIP3   OH235072   5.520   4.364   5.563
11710TIP3    H135073   5.427   4.354   5.582
11710TIP3    H235074   5.523   4.377   5.468
11711TIP3   OH235075   2.850   0.765   4.431
11711TIP3    H135076   2.775   0.815   4.398
11711TIP3    H235077   2.893   0.731   4.353
11712TIP3   OH235078   7.113   5.703   3.363
11712TIP3    H135079   7.153   5.621   3.393
11712TIP3    H235080   7.030   5.675   3.324
11713TIP3   OH235081   1.252   5.978   3.416
11713TIP3    H135082   1.230   5.886   3.424
11713TIP3    H235083   1.207   6.007   3.336
11714TIP3   OH235084   5.756   1.992   4.593
11714TIP3    H135085   5.792   2.002   4.682
11714TIP3    H235086   5.751   2.082   4.559
11715TIP3   OH235087   6.127   0.926   2.754
11715TIP3    H135088   6.098   1.017   2.744
11715TIP3    H235089   6.103   0.884   2.672
11716TIP3   OH235090   0.599   3.323   6.307
11716TIP3    H135091   0.636   3.345   6.393
11716TIP3    H235092   0.543   3.397   6.285
11717TIP3   OH235093   6.173   0.384   0.185
11717TIP3    H135094   6.082   0.412   0.196
11717TIP3    H235095   6.217   0.459   0.146
11718TIP3   OH235096   4.010   3.861   6.344
11718TIP3    H135097   3.984   3.804   6.417
11718TIP3    H235098   4.073   3.922   6.383
11719TIP3   OH235099   3.272   3.873   2.210
11719TIP3    H135100   3.327   3.822   2.151
11719TIP3    H235101   3.257   3.955   2.164
11720TIP3   OH235102   4.238   5.641   6.569
11720TIP3    H135103   4.167   5.576   6.569
11720TIP3    H235104   4.301   5.607   6.506
11721TIP3   OH235105   2.697   5.326   5.240
11721TIP3    H135106   2.649   5.379   5.305
11721TIP3    H235107   2.632   5.264   5.207
11722TIP3   OH235108   3.294   2.271   0.364
11722TIP3    H135109   3.221   2.298   0.309
11722TIP3    H235110   3.365   2.331   0.342
11723TIP3   OH235111   4.395   3.765   5.658
11723TIP3    H135112   4.339   3.722   5.724
11723TIP3    H235113   4.481   3.724   5.670
11724TIP3   OH235114   3.522   2.175   5.536
11724TIP3    H135115   3.580   2.238   5.494
11724TIP3    H235116   3.462   2.147   5.467
11725TIP3   OH235117   0.277   4.738   0.502
11725TIP3    H135118   0.320   4.689   0.572
11725TIP3    H235119   0.309   4.827   0.513
11726TIP3   OH235120   7.875   5.907   6.166
11726TIP3    H135121   7.914   5.843   6.108
11726TIP3    H235122   7.908   5.991   6.135
11727TIP3   OH235123   5.208   0.575   5.417
11727TIP3    H135124   5.165   0.492   5.438
11727TIP3    H235125   5.186   0.633   5.491
11728TIP3   OH235126   1.824   0.313   3.910
11728TIP3    H135127   1.772   0.258   3.968
11728TIP3    H235128   1.912   0.313   3.949
11729TIP3   OH235129   0.148   6.035   5.345
11729TIP3    H135130   0.240   6.059   5.355
11729TIP3    H235131   0.101   6.118   5.348
11730TIP3   OH235132   1.942   5.625   6.073
11730TIP3    H135133   1.897   5.702   6.106
11730TIP3    H235134   1.912   5.617   5.982
11731TIP3   OH235135   0.535   5.252   3.328
11731TIP3    H135136   0.619   5.271   3.285
11731TIP3    H235137   0.529   5.320   3.396
11732TIP3   OH235138   6.956   1.961   1.904
11732TIP3    H135139   7.027   2.022   1.922
11732TIP3    H235140   6.989   1.876   1.934
11733TIP3   OH235141   5.294   4.021   1.534
11733TIP3    H135142   5.273   4.107   1.570
11733TIP3    H235143   5.232   4.010   1.461
11734TIP3   OH235144   1.062   3.021   5.516
11734TIP3    H135145   1.008   3.036   5.438
11734TIP3    H235146   1.018   3.069   5.586
11735TIP3   OH235147   2.665   5.165   3.072
11735TIP3    H135148   2.625   5.085   3.107
11735TIP3    H235149   2.705   5.138   2.990
11736TIP3   OH235150   3.472   2.646   6.134
11736TIP3    H135151   3.560   2.618   6.107
11736TIP3    H235152   3.413   2.587   6.086
11737TIP3   OH235153   8.067   4.212   0.121
11737TIP3    H135154   8.109   4.271   0.058
11737TIP3    H235155   8.055   4.264   0.200
11738TIP3   OH235156   5.524   5.538   2.693
11738TIP3    H135157   5.535   5.473   2.762
11738TIP3    H235158   5.465   5.496   2.630
11739TIP3   OH235159   1.801   2.489   2.698
11739TIP3    H135160   1.857   2.465   2.624
11739TIP3    H235161   1.738   2.417   2.705
11740TIP3   OH235162   2.210   5.293   3.293
11740TIP3    H135163   2.225   5.300   3.387
11740TIP3    H235164   2.141   5.228   3.284
11741TIP3   OH235165   6.951   5.153   2.338
11741TIP3    H135166   6.916   5.135   2.251
11741TIP3    H235167   6.962   5.067   2.377
11742TIP3   OH235168   4.691   5.940   1.228
11742TIP3    H135169   4.668   6.022   1.185
11742TIP3    H235170   4.653   5.872   1.173
11743TIP3   OH235171   5.605   4.878   3.175
11743TIP3    H135172   5.600   4.955   3.119
11743TIP3    H235173   5.554   4.811   3.129
11744TIP3   OH235174   4.628   1.726   2.655
11744TIP3    H135175   4.584   1.648   2.622
11744TIP3    H235176   4.578   1.751   2.733
11745TIP3   OH235177   4.238   2.783   6.523
11745TIP3    H135178   4.303   2.771   6.453
11745TIP3    H235179   4.164   2.826   6.479
11746TIP3   OH235180   2.549   2.381   2.138
11746TIP3    H135181   2.556   2.302   2.084
11746TIP3    H235182   2.550   2.348   2.228
11747TIP3   OH235183   2.895   3.995   3.391
11747TIP3    H135184   2.961   3.975   3.457
11747TIP3    H235185   2.889   4.091   3.391
11748TIP3   OH235186   0.981   0.344   1.183
11748TIP3    H135187   1.030   0.294   1.249
11748TIP3    H235188   0.945   0.418   1.231
11749TIP3   OH235189   7.529   2.890   2.570
11749TIP3    H135190   7.527   2.970   2.623
11749TIP3    H235191   7.437   2.870   2.553
11750TIP3   OH235192   1.851   6.898   6.241
11750TIP3    H135193   1.943   6.918   6.222
11750TIP3    H235194   1.847   6.890   6.337
11751TIP3   OH235195   6.271   7.309   3.911
11751TIP3    H135196   6.234   7.360   3.839
11751TIP3    H235197   6.272   7.370   3.985
11752TIP3   OH235198   8.019   1.340   0.366
11752TIP3    H135199   8.025   1.260   0.314
11752TIP3    H235200   8.108   1.352   0.400
11753TIP3   OH235201   5.036   2.055   0.395
11753TIP3    H135202   5.076   1.987   0.341
11753TIP3    H235203   5.099   2.069   0.466
11754TIP3   OH235204   2.815   1.154   2.576
11754TIP3    H135205   2.766   1.111   2.646
11754TIP3    H235206   2.907   1.136   2.595
11755TIP3   OH235207   0.522   0.321   4.907
11755TIP3    H135208   0.447   0.374   4.882
11755TIP3    H235209   0.484   0.243   4.948
11756TIP3   OH235210   6.065   5.209   0.585
11756TIP3    H135211   6.085   5.118   0.607
11756TIP3    H235212   6.126   5.261   0.638
11757TIP3   OH235213   6.837   6.583   4.019
11757TIP3    H135214   6.748   6.611   3.995
11757TIP3    H235215   6.831   6.563   4.112
11758TIP3   OH235216   6.531   5.387   5.126
11758TIP3    H135217   6.455   5.349   5.082
11758TIP3    H235218   6.530   5.479   5.099
11759TIP3   OH235219   1.070   6.848   2.182
11759TIP3    H135220   1.095   6.940   2.174
11759TIP3    H235221   1.102   6.822   2.269
11760TIP3   OH235222   0.202   6.991   6.041
11760TIP3    H135223   0.153   6.991   5.959
11760TIP3    H235224   0.136   7.006   6.108
11761TIP3   OH235225   2.490   6.130   1.923
11761TIP3    H135226   2.542   6.052   1.941
11761TIP3    H235227   2.543   6.202   1.956
11762TIP3   OH235228   4.169   4.308   5.953
11762TIP3    H135229   4.217   4.274   6.028
11762TIP3    H235230   4.080   4.323   5.985
11763TIP3   OH235231   2.243   6.129   4.145
11763TIP3    H135232   2.231   6.036   4.128
11763TIP3    H235233   2.154   6.161   4.161
11764TIP3   OH235234   7.371   0.143   1.622
11764TIP3    H135235   7.343   0.070   1.567
11764TIP3    H235236   7.351   0.114   1.712
11765TIP3   OH235237   4.960   6.721   4.939
11765TIP3    H135238   5.042   6.681   4.913
11765TIP3    H235239   4.955   6.802   4.889
11766TIP3   OH235240   0.430   5.252   0.665
11766TIP3    H135241   0.485   5.231   0.590
11766TIP3    H235242   0.473   5.328   0.706
11767TIP3   OH235243   6.762   6.476   2.920
11767TIP3    H135244   6.696   6.436   2.863
11767TIP3    H235245   6.711   6.534   2.977
11768TIP3   OH235246   4.825   4.356   6.160
11768TIP3    H135247   4.762   4.364   6.088
11768TIP3    H235248   4.855   4.265   6.156
11769TIP3   OH235249   1.326   2.946   1.744
11769TIP3    H135250   1.255   2.959   1.807
11769TIP3    H235251   1.284   2.904   1.669
11770TIP3   OH235252   4.395   2.356   2.280
11770TIP3    H135253   4.414   2.308   2.199
11770TIP3    H235254   4.417   2.447   2.259
11771TIP3   OH235255   7.132   1.654   0.231
11771TIP3    H135256   7.058   1.594   0.222
11771TIP3    H235257   7.207   1.597   0.248
11772TIP3   OH235258   3.941   6.863   3.662
11772TIP3    H135259   3.869   6.839   3.604
11772TIP3    H235260   3.940   6.797   3.731
11773TIP3   OH235261   5.789   4.456   5.549
11773TIP3    H135262   5.827   4.410   5.474
11773TIP3    H235263   5.699   4.424   5.553
11774TIP3   OH235264   2.698   5.277   4.959
11774TIP3    H135265   2.614   5.323   4.961
11774TIP3    H235266   2.751   5.320   5.026
11775TIP3   OH235267   0.822   5.579   4.210
11775TIP3    H135268   0.769   5.653   4.241
11775TIP3    H235269   0.896   5.576   4.271
11776TIP3   OH235270   3.514   4.314   6.426
11776TIP3    H135271   3.483   4.301   6.336
11776TIP3    H235272   3.515   4.225   6.463
11777TIP3   OH235273   3.570   1.603   0.292
11777TIP3    H135274   3.638   1.643   0.237
11777TIP3    H235275   3.597   1.621   0.382
11778TIP3   OH235276   7.008   1.667   4.928
11778TIP3    H135277   6.961   1.717   4.861
11778TIP3    H235278   7.039   1.589   4.882
11779TIP3   OH235279   3.260   3.508   4.191
11779TIP3    H135280   3.243   3.415   4.172
11779TIP3    H235281   3.349   3.508   4.228
11780TIP3   OH235282   6.361   2.635   4.692
11780TIP3    H135283   6.431   2.649   4.629
11780TIP3    H235284   6.404   2.597   4.769
11781TIP3   OH235285   6.167   6.941   1.650
11781TIP3    H135286   6.075   6.963   1.665
11781TIP3    H235287   6.192   6.890   1.728
11782TIP3   OH235288   5.885   2.504   4.287
11782TIP3    H135289   5.889   2.599   4.277
11782TIP3    H235290   5.791   2.484   4.287
11783TIP3   OH235291   2.366   1.936   1.881
11783TIP3    H135292   2.422   1.858   1.882
11783TIP3    H235293   2.313   1.929   1.961
11784TIP3   OH235294   6.682   7.138   6.110
11784TIP3    H135295   6.725   7.126   6.026
11784TIP3    H235296   6.604   7.082   6.106
11785TIP3   OH235297   6.570   4.198   5.518
11785TIP3    H135298   6.551   4.190   5.611
11785TIP3    H235299   6.623   4.122   5.497
11786TIP3   OH235300   0.786   4.679   4.572
11786TIP3    H135301   0.722   4.637   4.515
11786TIP3    H235302   0.764   4.773   4.567
11787TIP3   OH235303   1.746   2.437   4.418
11787TIP3    H135304   1.780   2.473   4.500
11787TIP3    H235305   1.759   2.508   4.354
11788TIP3   OH235306   5.536   0.029   0.264
11788TIP3    H135307   5.572   0.050   0.178
11788TIP3    H235308   5.502  -0.060   0.255
11789TIP3   OH235309   5.725   0.290   2.529
11789TIP3    H135310   5.749   0.369   2.577
11789TIP3    H235311   5.808   0.244   2.515
11790TIP3   OH235312   1.119   6.269   2.398
11790TIP3    H135313   1.187   6.203   2.408
11790TIP3    H235314   1.037   6.222   2.413
11791TIP3   OH235315   3.229   4.910   0.826
11791TIP3    H135316   3.288   4.872   0.892
11791TIP3    H235317   3.251   5.003   0.825
11792TIP3   OH235318   4.649   0.239   1.512
11792TIP3    H135319   4.722   0.177   1.516
11792TIP3    H235320   4.591   0.202   1.445
11793TIP3   OH235321   7.808   5.714   5.387
11793TIP3    H135322   7.869   5.752   5.450
11793TIP3    H235323   7.761   5.647   5.437
11794TIP3   OH235324   1.709   0.933   0.382
11794TIP3    H135325   1.772   0.936   0.309
11794TIP3    H235326   1.751   0.877   0.447
11795TIP3   OH235327   3.638   3.205   6.197
11795TIP3    H135328   3.571   3.137   6.188
11795TIP3    H235329   3.665   3.224   6.108
11796TIP3   OH235330   6.622   2.306   0.950
11796TIP3    H135331   6.702   2.322   0.899
11796TIP3    H235332   6.624   2.374   1.018
11797TIP3   OH235333   4.647   3.660   5.678
11797TIP3    H135334   4.682   3.571   5.686
11797TIP3    H235335   4.670   3.686   5.589
11798TIP3   OH235336   3.232   3.193   4.195
11798TIP3    H135337   3.320   3.161   4.209
11798TIP3    H235338   3.190   3.127   4.140
11799TIP3   OH235339   0.808   3.676   2.357
11799TIP3    H135340   0.844   3.757   2.394
11799TIP3    H235341   0.860   3.661   2.277
11800TIP3   OH235342   4.246   0.650   5.519
11800TIP3    H135343   4.205   0.637   5.433
11800TIP3    H235344   4.263   0.561   5.551
11801TIP3   OH235345   6.268   0.886   6.063
11801TIP3    H135346   6.231   0.932   6.138
11801TIP3    H235347   6.199   0.891   5.996
11802TIP3   OH235348   2.658   3.699   0.458
11802TIP3    H135349   2.619   3.612   0.448
11802TIP3    H235350   2.724   3.688   0.526
11803TIP3   OH235351   4.113   6.127   2.130
11803TIP3    H135352   4.055   6.090   2.197
11803TIP3    H235353   4.053   6.159   2.062
11804TIP3   OH235354   8.223   0.390   6.086
11804TIP3    H135355   8.143   0.343   6.108
11804TIP3    H235356   8.290   0.321   6.081
11805TIP3   OH235357   7.157   0.618   4.056
11805TIP3    H135358   7.081   0.578   4.099
11805TIP3    H235359   7.159   0.707   4.091
11806TIP3   OH235360   7.573   4.464   1.108
11806TIP3    H135361   7.480   4.463   1.086
11806TIP3    H235362   7.595   4.372   1.125
11807TIP3   OH235363   3.422   5.574   2.091
11807TIP3    H135364   3.473   5.553   2.169
11807TIP3    H235365   3.353   5.632   2.123
11808TIP3   OH235366   1.502   5.781   0.017
11808TIP3    H135367   1.453   5.848   0.064
11808TIP3    H235368   1.583   5.824  -0.010
11809TIP3   OH235369   1.175   7.716   3.100
11809TIP3    H135370   1.204   7.765   3.023
11809TIP3    H235371   1.090   7.680   3.075
11810TIP3   OH235372   7.575   3.038   5.749
11810TIP3    H135373   7.507   3.063   5.686
11810TIP3    H235374   7.533   3.046   5.834
11811TIP3   OH235375   3.334   1.740   6.324
11811TIP3    H135376   3.405   1.687   6.361
11811TIP3    H235377   3.262   1.730   6.385
11812TIP3   OH235378   1.178   5.622   4.684
11812TIP3    H135379   1.151   5.578   4.765
11812TIP3    H235380   1.172   5.715   4.704
11813TIP3   OH235381   7.781   5.633   4.588
11813TIP3    H135382   7.763   5.559   4.645
11813TIP3    H235383   7.868   5.615   4.552
11814TIP3   OH235384   2.561   0.346   3.927
11814TIP3    H135385   2.587   0.438   3.934
11814TIP3    H235386   2.611   0.302   3.996
11815TIP3   OH235387   5.938   3.926   4.946
11815TIP3    H135388   6.025   3.949   4.913
11815TIP3    H235389   5.902   4.009   4.978
11816TIP3   OH235390   0.110   4.212   1.183
11816TIP3    H135391   0.173   4.278   1.211
11816TIP3    H235392   0.107   4.220   1.088
11817TIP3   OH235393   0.465   7.169   3.054
11817TIP3    H135394   0.545   7.117   3.063
11817TIP3    H235395   0.399   7.120   3.104
11818TIP3   OH235396   0.258   0.354   5.397
11818TIP3    H135397   0.275   0.380   5.488
11818TIP3    H235398   0.329   0.293   5.376
11819TIP3   OH235399   1.401   4.174   1.686
11819TIP3    H135400   1.385   4.080   1.695
11819TIP3    H235401   1.364   4.197   1.601
11820TIP3   OH235402   6.321   6.386   6.170
11820TIP3    H135403   6.384   6.313   6.168
11820TIP3    H235404   6.371   6.461   6.138
11821TIP3   OH235405   0.761   7.523   1.508
11821TIP3    H135406   0.679   7.538   1.556
11821TIP3    H235407   0.820   7.485   1.573
11822TIP3   OH235408   3.531   5.138   1.710
11822TIP3    H135409   3.520   5.212   1.770
11822TIP3    H235410   3.626   5.128   1.701
11823TIP3   OH235411   1.094   0.704   0.536
11823TIP3    H135412   1.177   0.746   0.514
11823TIP3    H235413   1.110   0.611   0.523
11824TIP3   OH235414   5.002   2.462   3.747
11824TIP3    H135415   4.939   2.397   3.714
11824TIP3    H235416   4.963   2.546   3.725
11825TIP3   OH235417   5.645   3.864   5.613
11825TIP3    H135418   5.569   3.923   5.608
11825TIP3    H235419   5.620   3.787   5.562
11826TIP3   OH235420   2.459   4.120   4.647
11826TIP3    H135421   2.380   4.120   4.593
11826TIP3    H235422   2.468   4.030   4.678
11827TIP3   OH235423   6.581   6.062   5.244
11827TIP3    H135424   6.545   6.123   5.309
11827TIP3    H235425   6.529   5.982   5.255
11828TIP3   OH235426   4.796   0.863   5.393
11828TIP3    H135427   4.721   0.908   5.432
11828TIP3    H235428   4.799   0.894   5.303
11829TIP3   OH235429   1.840   5.118   1.190
11829TIP3    H135430   1.840   5.085   1.100
11829TIP3    H235431   1.854   5.212   1.181
11830TIP3   OH235432   2.438   1.621   0.541
11830TIP3    H135433   2.349   1.655   0.528
11830TIP3    H235434   2.425   1.539   0.590
11831TIP3   OH235435   2.008   2.626   0.969
11831TIP3    H135436   1.990   2.532   0.962
11831TIP3    H235437   2.062   2.646   0.892
11832TIP3   OH235438   4.856   1.329   0.065
11832TIP3    H135439   4.778   1.368   0.024
11832TIP3    H235440   4.929   1.383   0.034
11833TIP3   OH235441   6.487   7.473   1.323
11833TIP3    H135442   6.503   7.547   1.264
11833TIP3    H235443   6.442   7.512   1.398
11834TIP3   OH235444   6.457   4.239   3.956
11834TIP3    H135445   6.438   4.306   4.022
11834TIP3    H235446   6.477   4.288   3.876
11835TIP3   OH235447   1.035   0.916   0.324
11835TIP3    H135448   1.120   0.920   0.280
11835TIP3    H235449   1.054   0.938   0.415
11836TIP3   OH235450   2.231   0.523   2.713
11836TIP3    H135451   2.252   0.616   2.700
11836TIP3    H235452   2.314   0.483   2.741
11837TIP3   OH235453   6.847   1.546   5.754
11837TIP3    H135454   6.857   1.570   5.662
11837TIP3    H235455   6.758   1.514   5.762
11838TIP3   OH235456   6.357   5.765   1.124
11838TIP3    H135457   6.315   5.844   1.091
11838TIP3    H235458   6.430   5.749   1.063
11839TIP3   OH235459   7.701   0.673   6.732
11839TIP3    H135460   7.795   0.673   6.749
11839TIP3    H235461   7.667   0.747   6.784
11840TIP3   OH235462   3.448   7.535   4.909
11840TIP3    H135463   3.482   7.470   4.847
11840TIP3    H235464   3.359   7.506   4.927
11841TIP3   OH235465   6.682   7.683   5.114
11841TIP3    H135466   6.649   7.718   5.032
11841TIP3    H235467   6.761   7.735   5.133
11842TIP3   OH235468   2.607   5.762   2.215
11842TIP3    H135469   2.632   5.854   2.221
11842TIP3    H235470   2.572   5.752   2.127
11843TIP3   OH235471   2.584   7.777   4.795
11843TIP3    H135472   2.630   7.745   4.873
11843TIP3    H235473   2.500   7.808   4.827
11844TIP3   OH235474   4.785   6.385   4.194
11844TIP3    H135475   4.832   6.302   4.196
11844TIP3    H235476   4.696   6.362   4.168
11845TIP3   OH235477   3.011   4.465   1.897
11845TIP3    H135478   2.928   4.481   1.852
11845TIP3    H235479   2.986   4.445   1.988
11846TIP3   OH235480   0.403   7.329   1.214
11846TIP3    H135481   0.330   7.272   1.189
11846TIP3    H235482   0.473   7.269   1.239
11847TIP3   OH235483   3.344   6.354   6.687
11847TIP3    H135484   3.428   6.367   6.731
11847TIP3    H235485   3.358   6.388   6.599
11848TIP3   OH235486   5.727   3.947   2.162
11848TIP3    H135487   5.651   3.907   2.205
11848TIP3    H235488   5.752   4.019   2.219
11849TIP3   OH235489   5.545   5.089   5.510
11849TIP3    H135490   5.562   5.007   5.556
11849TIP3    H235491   5.629   5.111   5.468
11850TIP3   OH235492   6.892   3.880   0.159
11850TIP3    H135493   6.901   3.944   0.089
11850TIP3    H235494   6.982   3.862   0.187
11851TIP3   OH235495   4.486   6.420   0.428
11851TIP3    H135496   4.425   6.349   0.409
11851TIP3    H235497   4.573   6.381   0.414
11852TIP3   OH235498   1.477   3.943   3.272
11852TIP3    H135499   1.381   3.940   3.270
11852TIP3    H235500   1.504   3.867   3.220
11853TIP3   OH235501   7.480   4.204   5.126
11853TIP3    H135502   7.473   4.212   5.031
11853TIP3    H235503   7.557   4.150   5.140
11854TIP3   OH235504   1.625   0.280   2.066
11854TIP3    H135505   1.590   0.222   2.134
11854TIP3    H235506   1.593   0.243   1.984
11855TIP3   OH235507   7.155   6.799   2.473
11855TIP3    H135508   7.120   6.804   2.563
11855TIP3    H235509   7.130   6.883   2.434
11856TIP3   OH235510   4.163   5.303   3.310
11856TIP3    H135511   4.171   5.251   3.230
11856TIP3    H235512   4.100   5.371   3.289
11857TIP3   OH235513   2.123   4.163   0.973
11857TIP3    H135514   2.069   4.133   0.900
11857TIP3    H235515   2.174   4.236   0.938
11858TIP3   OH235516   4.173   3.285   1.903
11858TIP3    H135517   4.231   3.305   1.976
11858TIP3    H235518   4.102   3.349   1.910
11859TIP3   OH235519   5.876   7.484   4.282
11859TIP3    H135520   5.807   7.501   4.347
11859TIP3    H235521   5.952   7.532   4.315
11860TIP3   OH235522   1.000   7.433   6.429
11860TIP3    H135523   0.997   7.345   6.466
11860TIP3    H235524   1.074   7.431   6.369
11861TIP3   OH235525   3.821   5.012   1.375
11861TIP3    H135526   3.796   4.924   1.347
11861TIP3    H235527   3.744   5.066   1.357
11862TIP3   OH235528   8.011   4.378   2.732
11862TIP3    H135529   7.937   4.438   2.732
11862TIP3    H235530   7.977   4.298   2.692
11863TIP3   OH235531   1.809   1.655   1.698
11863TIP3    H135532   1.889   1.605   1.680
11863TIP3    H235533   1.835   1.716   1.768
11864TIP3   OH235534   2.552   0.133   5.784
11864TIP3    H135535   2.558   0.137   5.689
11864TIP3    H235536   2.480   0.072   5.801
11865TIP3   OH235537   6.860   4.528   3.529
11865TIP3    H135538   6.770   4.509   3.502
11865TIP3    H235539   6.861   4.512   3.623
11866TIP3   OH235540   4.199   7.178   3.030
11866TIP3    H135541   4.158   7.150   3.111
11866TIP3    H235542   4.284   7.134   3.029
11867TIP3   OH235543   6.590   0.447   2.462
11867TIP3    H135544   6.583   0.477   2.553
11867TIP3    H235545   6.654   0.376   2.464
11868TIP3   OH235546   1.380   1.526   1.336
11868TIP3    H135547   1.415   1.471   1.266
11868TIP3    H235548   1.456   1.568   1.375
11869TIP3   OH235549   1.408   7.230   2.803
11869TIP3    H135550   1.413   7.264   2.892
11869TIP3    H235551   1.378   7.139   2.814
11870TIP3   OH235552   5.521   4.253   1.266
11870TIP3    H135553   5.523   4.198   1.188
11870TIP3    H235554   5.431   4.284   1.271
11871TIP3   OH235555   5.083   6.861   3.191
11871TIP3    H135556   5.136   6.878   3.268
11871TIP3    H235557   5.146   6.855   3.119
11872TIP3   OH235558   7.302   4.843   5.134
11872TIP3    H135559   7.285   4.785   5.061
11872TIP3    H235560   7.296   4.931   5.097
11873TIP3   OH235561   0.705   6.934   3.523
11873TIP3    H135562   0.654   7.004   3.562
11873TIP3    H235563   0.744   6.887   3.597
11874TIP3   OH235564   2.896   3.037   5.738
11874TIP3    H135565   2.915   3.121   5.780
11874TIP3    H235566   2.909   3.053   5.645
11875TIP3   OH235567   1.942   2.679   4.496
11875TIP3    H135568   1.923   2.646   4.583
11875TIP3    H235569   1.916   2.771   4.498
11876TIP3   OH235570   4.623   2.812   1.351
11876TIP3    H135571   4.581   2.810   1.265
11876TIP3    H235572   4.613   2.723   1.385
11877TIP3   OH235573   6.048   5.824   1.424
11877TIP3    H135574   5.989   5.872   1.482
11877TIP3    H235575   6.081   5.891   1.363
11878TIP3   OH235576   7.465   6.359   3.582
11878TIP3    H135577   7.389   6.400   3.625
11878TIP3    H235578   7.529   6.347   3.652
11879TIP3   OH235579   6.395   3.966   2.042
11879TIP3    H135580   6.382   3.938   2.132
11879TIP3    H235581   6.414   4.060   2.049
11880TIP3   OH235582   3.416   7.227   0.278
11880TIP3    H135583   3.353   7.295   0.304
11880TIP3    H235584   3.501   7.272   0.280
11881TIP3   OH235585   7.267   2.510   1.388
11881TIP3    H135586   7.311   2.487   1.470
11881TIP3    H235587   7.305   2.450   1.323
11882TIP3   OH235588   8.242   1.528   1.763
11882TIP3    H135589   8.296   1.484   1.829
11882TIP3    H235590   8.279   1.616   1.757
11883TIP3   OH235591   5.365   6.043   0.331
11883TIP3    H135592   5.283   6.038   0.380
11883TIP3    H235593   5.352   5.985   0.256
11884TIP3   OH235594   6.323   2.072   5.636
11884TIP3    H135595   6.373   2.035   5.563
11884TIP3    H235596   6.241   2.024   5.636
11885TIP3   OH235597   3.889   6.243   3.722
11885TIP3    H135598   3.962   6.185   3.698
11885TIP3    H235599   3.888   6.309   3.653
11886TIP3   OH235600   1.023   2.037   4.206
11886TIP3    H135601   1.071   1.968   4.161
11886TIP3    H235602   0.987   2.092   4.136
11887TIP3   OH235603   2.349   6.828   6.266
11887TIP3    H135604   2.378   6.742   6.234
11887TIP3    H235605   2.376   6.889   6.197
11888TIP3   OH235606   0.936   7.783   2.392
11888TIP3    H135607   0.975   7.718   2.450
11888TIP3    H235608   1.009   7.838   2.364
11889TIP3   OH235609   5.556   0.245   1.187
11889TIP3    H135610   5.637   0.215   1.147
11889TIP3    H235611   5.496   0.171   1.178
11890TIP3   OH235612   4.893   3.507   1.209
11890TIP3    H135613   4.953   3.522   1.136
11890TIP3    H235614   4.811   3.481   1.168
11891TIP3   OH235615   2.120   1.708   5.942
11891TIP3    H135616   2.027   1.683   5.936
11891TIP3    H235617   2.155   1.651   6.011
11892TIP3   OH235618   5.910   7.572   2.899
11892TIP3    H135619   5.992   7.620   2.885
11892TIP3    H235620   5.902   7.567   2.995
11893TIP3   OH235621   3.146   4.725   4.209
11893TIP3    H135622   3.207   4.654   4.230
11893TIP3    H235623   3.125   4.765   4.294
11894TIP3   OH235624   0.720   5.500   3.681
11894TIP3    H135625   0.761   5.587   3.684
11894TIP3    H235626   0.708   5.476   3.773
11895TIP3   OH235627   1.729   2.284   3.032
11895TIP3    H135628   1.720   2.234   3.114
11895TIP3    H235629   1.666   2.243   2.973
11896TIP3   OH235630   4.651   2.055   1.995
11896TIP3    H135631   4.722   2.055   2.058
11896TIP3    H235632   4.674   1.986   1.932
11897TIP3   OH235633   2.672   3.717   3.665
11897TIP3    H135634   2.701   3.709   3.574
11897TIP3    H235635   2.577   3.723   3.660
11898TIP3   OH235636   5.498   3.781   3.541
11898TIP3    H135637   5.559   3.728   3.591
11898TIP3    H235638   5.420   3.725   3.531
11899TIP3   OH235639   6.045   3.830   1.505
11899TIP3    H135640   6.119   3.791   1.458
11899TIP3    H235641   6.072   3.833   1.596
11900TIP3   OH235642   3.939   5.384   5.750
11900TIP3    H135643   3.848   5.412   5.756
11900TIP3    H235644   3.970   5.383   5.840
11901TIP3   OH235645   1.443   6.540   4.915
11901TIP3    H135646   1.399   6.458   4.936
11901TIP3    H235647   1.434   6.549   4.820
11902TIP3   OH235648   6.006   0.159   5.397
11902TIP3    H135649   5.973   0.091   5.454
11902TIP3    H235650   6.054   0.218   5.455
11903TIP3   OH235651   0.906   2.892   3.860
11903TIP3    H135652   0.860   2.864   3.781
11903TIP3    H235653   0.999   2.886   3.838
11904TIP3   OH235654   0.926   1.127   5.557
11904TIP3    H135655   0.914   1.145   5.650
11904TIP3    H235656   0.881   1.198   5.513
11905TIP3   OH235657   0.677   5.650   0.444
11905TIP3    H135658   0.757   5.683   0.403
11905TIP3    H235659   0.682   5.681   0.535
11906TIP3   OH235660   0.510   0.674   6.219
11906TIP3    H135661   0.477   0.763   6.207
11906TIP3    H235662   0.454   0.620   6.163
11907TIP3   OH235663   8.012   1.227   3.519
11907TIP3    H135664   8.009   1.187   3.606
11907TIP3    H235665   8.074   1.300   3.529
11908TIP3   OH235666   3.280   3.786   6.032
11908TIP3    H135667   3.214   3.855   6.042
11908TIP3    H235668   3.250   3.716   6.091
11909TIP3   OH235669   6.492   0.053   3.842
11909TIP3    H135670   6.418   0.004   3.806
11909TIP3    H235671   6.526   0.102   3.767
11910TIP3   OH235672   3.267   1.504   5.042
11910TIP3    H135673   3.277   1.595   5.068
11910TIP3    H235674   3.178   1.481   5.068
11911TIP3   OH235675   3.702   5.433   4.044
11911TIP3    H135676   3.637   5.492   4.083
11911TIP3    H235677   3.661   5.401   3.964
11912TIP3   OH235678   3.073   0.282   6.153
11912TIP3    H135679   3.117   0.344   6.212
11912TIP3    H235680   3.136   0.211   6.141
11913TIP3   OH235681   8.031   5.377   5.100
11913TIP3    H135682   8.037   5.464   5.140
11913TIP3    H235683   8.044   5.393   5.006
11914TIP3   OH235684   0.594   3.769   4.637
11914TIP3    H135685   0.503   3.743   4.654
11914TIP3    H235686   0.600   3.857   4.674
11915TIP3   OH235687   4.133   5.353   0.435
11915TIP3    H135688   4.109   5.264   0.461
11915TIP3    H235689   4.195   5.340   0.362
11916TIP3   OH235690   1.535   1.638   3.777
11916TIP3    H135691   1.560   1.646   3.869
11916TIP3    H235692   1.583   1.560   3.746
11917TIP3   OH235693   7.525   3.499   2.095
11917TIP3    H135694   7.474   3.514   2.016
11917TIP3    H235695   7.497   3.413   2.126
11918TIP3   OH235696   2.740   2.011   5.276
11918TIP3    H135697   2.660   2.048   5.313
11918TIP3    H235698   2.783   2.084   5.232
11919TIP3   OH235699   3.462   7.132   5.640
11919TIP3    H135700   3.488   7.115   5.730
11919TIP3    H235701   3.377   7.089   5.631
11920TIP3   OH235702   1.012   1.433   2.767
11920TIP3    H135703   1.058   1.364   2.719
11920TIP3    H235704   0.933   1.391   2.800
11921TIP3   OH235705   0.344   5.701   1.806
11921TIP3    H135706   0.329   5.663   1.892
11921TIP3    H235707   0.393   5.635   1.758
11922TIP3   OH235708   3.835   6.344   0.335
11922TIP3    H135709   3.909   6.385   0.381
11922TIP3    H235710   3.838   6.380   0.247
11923TIP3   OH235711   0.052   2.166   2.483
11923TIP3    H135712   0.022   2.239   2.537
11923TIP3    H235713   0.145   2.184   2.468
11924TIP3   OH235714   1.196   1.155   1.235
11924TIP3    H135715   1.109   1.117   1.223
11924TIP3    H235716   1.207   1.161   1.330
11925TIP3   OH235717   3.186   3.588   5.606
11925TIP3    H135718   3.235   3.627   5.533
11925TIP3    H235719   3.227   3.625   5.684
11926TIP3   OH235720   4.501   3.059   1.075
11926TIP3    H135721   4.434   3.123   1.052
11926TIP3    H235722   4.471   3.022   1.159
11927TIP3   OH235723   1.221   4.436   5.780
11927TIP3    H135724   1.130   4.406   5.789
11927TIP3    H235725   1.213   4.521   5.736
11928TIP3   OH235726   0.513   4.703   4.409
11928TIP3    H135727   0.561   4.622   4.392
11928TIP3    H235728   0.469   4.721   4.326
11929TIP3   OH235729   1.891   5.153   2.464
11929TIP3    H135730   1.904   5.247   2.478
11929TIP3    H235731   1.902   5.115   2.551
11930TIP3   OH235732   4.089   7.217   2.503
11930TIP3    H135733   4.115   7.154   2.436
11930TIP3    H235734   4.102   7.170   2.586
11931TIP3   OH235735   6.540   2.093   4.202
11931TIP3    H135736   6.483   2.063   4.132
11931TIP3    H235737   6.625   2.106   4.161
11932TIP3   OH235738   4.401   4.391   3.978
11932TIP3    H135739   4.352   4.378   3.897
11932TIP3    H235740   4.353   4.339   4.043
11933TIP3   OH235741   0.363   7.005   5.168
11933TIP3    H135742   0.304   6.953   5.114
11933TIP3    H235743   0.398   7.072   5.109
11934TIP3   OH235744   5.616   3.838   3.260
11934TIP3    H135745   5.674   3.914   3.251
11934TIP3    H235746   5.607   3.825   3.354
11935TIP3   OH235747   0.976   6.241   6.719
11935TIP3    H135748   0.986   6.148   6.742
11935TIP3    H235749   0.999   6.288   6.799
11936TIP3   OH235750   2.400   4.671   0.676
11936TIP3    H135751   2.387   4.743   0.614
11936TIP3    H235752   2.464   4.704   0.738
11937TIP3   OH235753   7.468   7.627   2.382
11937TIP3    H135754   7.412   7.657   2.455
11937TIP3    H235755   7.444   7.535   2.370
11938TIP3   OH235756   0.928   1.822   4.702
11938TIP3    H135757   0.884   1.855   4.780
11938TIP3    H235758   0.868   1.841   4.630
11939TIP3   OH235759   3.751   3.493   0.247
11939TIP3    H135760   3.797   3.538   0.319
11939TIP3    H235761   3.700   3.563   0.204
11940TIP3   OH235762   0.833   6.033   3.302
11940TIP3    H135763   0.919   6.034   3.259
11940TIP3    H235764   0.809   6.125   3.310
11941TIP3   OH235765   7.636   1.058   4.902
11941TIP3    H135766   7.711   1.115   4.883
11941TIP3    H235767   7.661   1.012   4.982
11942TIP3   OH235768   6.313   4.554   0.340
11942TIP3    H135769   6.244   4.543   0.274
11942TIP3    H235770   6.266   4.550   0.424
11943TIP3   OH235771   7.941   1.413   3.907
11943TIP3    H135772   7.953   1.368   3.990
11943TIP3    H235773   7.870   1.366   3.864
11944TIP3   OH235774   4.932   7.357   0.476
11944TIP3    H135775   4.978   7.432   0.438
11944TIP3    H235776   4.947   7.285   0.414
11945TIP3   OH235777   7.337   1.345   4.852
11945TIP3    H135778   7.359   1.253   4.868
11945TIP3    H235779   7.307   1.377   4.937
11946TIP3   OH235780   6.866   1.472   2.520
11946TIP3    H135781   6.861   1.485   2.615
11946TIP3    H235782   6.833   1.554   2.483
11947TIP3   OH235783   3.353   1.957   1.434
11947TIP3    H135784   3.310   1.875   1.460
11947TIP3    H235785   3.396   1.936   1.351
11948TIP3   OH235786   5.212   0.567   3.775
11948TIP3    H135787   5.164   0.574   3.693
11948TIP3    H235788   5.225   0.473   3.788
11949TIP3   OH235789   2.946   0.199   4.665
11949TIP3    H135790   2.874   0.201   4.601
11949TIP3    H235791   2.940   0.112   4.704
11950TIP3   OH235792   3.758   2.378   0.529
11950TIP3    H135793   3.750   2.352   0.437
11950TIP3    H235794   3.806   2.461   0.526
11951TIP3   OH235795   3.819   4.030   2.694
11951TIP3    H135796   3.870   4.028   2.613
11951TIP3    H235797   3.826   4.120   2.725
11952TIP3   OH235798   2.024   2.789   2.545
11952TIP3    H135799   2.041   2.878   2.576
11952TIP3    H235800   2.085   2.734   2.594
11953TIP3   OH235801   5.663   5.872   1.664
11953TIP3    H135802   5.667   5.878   1.759
11953TIP3    H235803   5.641   5.781   1.646
11954TIP3   OH235804   4.055   1.861   0.713
11954TIP3    H135805   4.011   1.806   0.778
11954TIP3    H235806   4.014   1.947   0.722
11955TIP3   OH235807   6.189   0.694   6.372
11955TIP3    H135808   6.263   0.642   6.341
11955TIP3    H235809   6.124   0.687   6.302
11956TIP3   OH235810   5.708   1.598   1.960
11956TIP3    H135811   5.716   1.532   2.029
11956TIP3    H235812   5.761   1.565   1.888
11957TIP3   OH235813   6.466   6.583   3.297
11957TIP3    H135814   6.422   6.643   3.357
11957TIP3    H235815   6.498   6.512   3.354
11958TIP3   OH235816   8.000   5.190   2.247
11958TIP3    H135817   7.946   5.201   2.325
11958TIP3    H235818   8.090   5.186   2.280
11959TIP3   OH235819   0.231   4.997   5.169
11959TIP3    H135820   0.211   5.090   5.177
11959TIP3    H235821   0.322   4.995   5.139
11960TIP3   OH235822   0.460   2.356   6.263
11960TIP3    H135823   0.451   2.290   6.332
11960TIP3    H235824   0.435   2.438   6.305
11961TIP3   OH235825   7.451   0.064   2.974
11961TIP3    H135826   7.517   0.019   2.922
11961TIP3    H235827   7.496   0.090   3.055
11962TIP3   OH235828   2.916   4.381   5.451
11962TIP3    H135829   2.959   4.366   5.535
11962TIP3    H235830   2.978   4.349   5.386
11963TIP3   OH235831   0.329   7.301   2.318
11963TIP3    H135832   0.295   7.377   2.272
11963TIP3    H235833   0.359   7.335   2.403
11964TIP3   OH235834   2.207   7.439   0.658
11964TIP3    H135835   2.287   7.486   0.679
11964TIP3    H235836   2.183   7.469   0.570
11965TIP3   OH235837   3.285   6.031   3.055
11965TIP3    H135838   3.317   6.002   2.969
11965TIP3    H235839   3.323   5.968   3.116
11966TIP3   OH235840   4.110   4.718   4.245
11966TIP3    H135841   4.069   4.694   4.162
11966TIP3    H235842   4.052   4.785   4.282
11967TIP3   OH235843   1.746   6.250   5.431
11967TIP3    H135844   1.656   6.219   5.419
11967TIP3    H235845   1.799   6.189   5.380
11968TIP3   OH235846   4.526   0.047   4.811
11968TIP3    H135847   4.616   0.065   4.841
11968TIP3    H235848   4.471   0.074   4.884
11969TIP3   OH235849   2.358   5.188   0.975
11969TIP3    H135850   2.360   5.100   0.937
11969TIP3    H235851   2.314   5.177   1.059
11970TIP3   OH235852   6.622   3.308   5.223
11970TIP3    H135853   6.711   3.321   5.257
11970TIP3    H235854   6.616   3.214   5.207
11971TIP3   OH235855   5.966   0.954   1.620
11971TIP3    H135856   5.949   0.977   1.711
11971TIP3    H235857   6.055   0.917   1.621
11972TIP3   OH235858   7.590   6.654   0.816
11972TIP3    H135859   7.599   6.709   0.893
11972TIP3    H235860   7.600   6.713   0.742
11973TIP3   OH235861   5.879   6.716   0.994
11973TIP3    H135862   5.848   6.644   0.938
11973TIP3    H235863   5.807   6.778   0.995
11974TIP3   OH235864   0.922   3.358   2.756
11974TIP3    H135865   0.876   3.424   2.807
11974TIP3    H235866   0.883   3.275   2.783
11975TIP3   OH235867   1.044   3.309   0.317
11975TIP3    H135868   0.985   3.300   0.392
11975TIP3    H235869   1.079   3.221   0.303
11976TIP3   OH235870   2.728   1.030   1.112
11976TIP3    H135871   2.812   1.009   1.072
11976TIP3    H235872   2.708   0.954   1.167
11977TIP3   OH235873   5.383   3.712   3.836
11977TIP3    H135874   5.464   3.748   3.873
11977TIP3    H235875   5.316   3.777   3.858
11978TIP3   OH235876   6.957   6.666   1.801
11978TIP3    H135877   7.026   6.676   1.867
11978TIP3    H235878   6.998   6.613   1.732
11979TIP3   OH235879   1.141   5.198   5.435
11979TIP3    H135880   1.145   5.289   5.404
11979TIP3    H235881   1.219   5.188   5.489
11980TIP3   OH235882   1.654   1.451   5.856
11980TIP3    H135883   1.621   1.431   5.944
11980TIP3    H235884   1.740   1.411   5.853
11981TIP3   OH235885   5.277   0.173   6.418
11981TIP3    H135886   5.266   0.158   6.512
11981TIP3    H235887   5.369   0.199   6.409
11982TIP3   OH235888   3.583   4.822   0.232
11982TIP3    H135889   3.659   4.837   0.176
11982TIP3    H235890   3.550   4.736   0.206
11983TIP3   OH235891   3.589   7.247   2.682
11983TIP3    H135892   3.624   7.169   2.725
11983TIP3    H235893   3.663   7.307   2.678
11984TIP3   OH235894   0.888   4.337   3.151
11984TIP3    H135895   0.803   4.313   3.115
11984TIP3    H235896   0.878   4.430   3.173
11985TIP3   OH235897   4.836   4.601   1.944
11985TIP3    H135898   4.795   4.569   1.863
11985TIP3    H235899   4.929   4.585   1.932
11986TIP3   OH235900   0.876   1.475   3.700
11986TIP3    H135901   0.840   1.494   3.614
11986TIP3    H235902   0.839   1.543   3.758
11987TIP3   OH235903   6.575   1.668   1.833
11987TIP3    H135904   6.488   1.709   1.840
11987TIP3    H235905   6.584   1.618   1.915
11988TIP3   OH235906   3.733   0.333   2.771
11988TIP3    H135907   3.828   0.347   2.770
11988TIP3    H235908   3.710   0.318   2.679
11989TIP3   OH235909   5.609   1.479   2.601
11989TIP3    H135910   5.646   1.423   2.670
11989TIP3    H235911   5.561   1.547   2.649
11990TIP3   OH235912   6.721   3.888   2.242
11990TIP3    H135913   6.800   3.869   2.292
11990TIP3    H235914   6.746   3.869   2.151
11991TIP3   OH235915   4.498   0.655   3.109
11991TIP3    H135916   4.507   0.719   3.179
11991TIP3    H235917   4.581   0.606   3.110
11992TIP3   OH235918   6.991   4.083   2.092
11992TIP3    H135919   6.915   4.130   2.125
11992TIP3    H235920   7.063   4.147   2.099
11993TIP3   OH235921   5.153   1.236   0.580
11993TIP3    H135922   5.231   1.184   0.560
11993TIP3    H235923   5.082   1.172   0.586
11994TIP3   OH235924   2.717   5.421   2.870
11994TIP3    H135925   2.676   5.376   2.944
11994TIP3    H235926   2.811   5.419   2.890
11995TIP3   OH235927   8.114   7.225   4.272
11995TIP3    H135928   8.031   7.201   4.231
11995TIP3    H235929   8.174   7.239   4.199
11996TIP3   OH235930   3.650   4.823   6.503
11996TIP3    H135931   3.605   4.888   6.556
11996TIP3    H235932   3.683   4.872   6.428
11997TIP3   OH235933   3.438   1.056   0.274
11997TIP3    H135934   3.473   0.981   0.225
11997TIP3    H235935   3.374   1.095   0.215
11998TIP3   OH235936   2.341   7.566   5.500
11998TIP3    H135937   2.266   7.610   5.460
11998TIP3    H235938   2.304   7.517   5.573
11999TIP3   OH235939   7.573   6.635   0.047
11999TIP3    H135940   7.502   6.662   0.105
11999TIP3    H235941   7.629   6.581   0.102
12000TIP3   OH235942   0.703   7.228   0.809
12000TIP3    H135943   0.626   7.283   0.825
12000TIP3    H235944   0.682   7.144   0.848
12001TIP3   OH235945   3.950   0.311   1.699
12001TIP3    H135946   4.029   0.259   1.710
12001TIP3    H235947   3.881   0.247   1.683
12002TIP3   OH235948   7.618   2.165   2.830
12002TIP3    H135949   7.675   2.132   2.899
12002TIP3    H235950   7.677   2.192   2.760
12003TIP3   OH235951   4.619   7.324   5.982
12003TIP3    H135952   4.572   7.400   6.018
12003TIP3    H235953   4.579   7.248   6.025
12004TIP3   OH235954   5.460   0.711   0.096
12004TIP3    H135955   5.513   0.773   0.145
12004TIP3    H235956   5.521   0.669   0.036
12005TIP3   OH235957   4.485   4.368   3.596
12005TIP3    H135958   4.427   4.346   3.669
12005TIP3    H235959   4.566   4.322   3.615
12006TIP3   OH235960   2.794   1.094   0.045
12006TIP3    H135961   2.843   1.075   0.126
12006TIP3    H235962   2.771   1.186   0.052
12007TIP3   OH235963   1.230   3.844   3.448
12007TIP3    H135964   1.191   3.879   3.528
12007TIP3    H235965   1.269   3.920   3.405
12008TIP3   OH235966   7.984   5.885   3.749
12008TIP3    H135967   7.958   5.857   3.837
12008TIP3    H235968   7.927   5.835   3.690
12009TIP3   OH235969   3.008   0.820   5.494
12009TIP3    H135970   2.945   0.821   5.566
12009TIP3    H235971   3.084   0.866   5.528
12010TIP3   OH235972   7.314   6.084   3.856
12010TIP3    H135973   7.297   6.179   3.851
12010TIP3    H235974   7.409   6.077   3.865
12011TIP3   OH235975   6.292   4.685   5.194
12011TIP3    H135976   6.272   4.624   5.123
12011TIP3    H235977   6.213   4.738   5.202
12012TIP3   OH235978   2.503   0.166   2.526
12012TIP3    H135979   2.477   0.257   2.539
12012TIP3    H235980   2.572   0.169   2.461
12013TIP3   OH235981   6.838   1.494   2.803
12013TIP3    H135982   6.838   1.415   2.855
12013TIP3    H235983   6.895   1.554   2.851
12014TIP3   OH235984   8.173   7.036   2.224
12014TIP3    H135985   8.241   7.061   2.287
12014TIP3    H235986   8.135   6.956   2.260
12015TIP3   OH235987   4.010   7.082   3.200
12015TIP3    H135988   3.945   7.123   3.143
12015TIP3    H235989   3.969   7.000   3.227
12016TIP3   OH235990   3.463   4.448   1.726
12016TIP3    H135991   3.387   4.453   1.668
12016TIP3    H235992   3.514   4.374   1.692
12017TIP3   OH235993   3.323   3.669   3.855
12017TIP3    H135994   3.385   3.699   3.922
12017TIP3    H235995   3.346   3.577   3.840
12018TIP3   OH235996   2.335   4.100   5.081
12018TIP3    H135997   2.411   4.063   5.126
12018TIP3    H235998   2.280   4.024   5.061
12019TIP3   OH235999   0.043   0.324   0.266
12019TIP3    H136000   0.043   0.416   0.243
12019TIP3    H236001   0.062   0.323   0.360
12020TIP3   OH236002   2.031   7.181   0.359
12020TIP3    H136003   2.032   7.274   0.339
12020TIP3    H236004   2.106   7.145   0.312
12021TIP3   OH236005   2.787   2.451   4.649
12021TIP3    H136006   2.859   2.499   4.689
12021TIP3    H236007   2.825   2.367   4.622
12022TIP3   OH236008   7.567   6.867   6.049
12022TIP3    H136009   7.496   6.898   6.106
12022TIP3    H236010   7.641   6.853   6.108
12023TIP3   OH236011   7.090   5.773   2.168
12023TIP3    H136012   7.126   5.860   2.148
12023TIP3    H236013   6.996   5.782   2.152
12024TIP3   OH236014   5.773   5.290   3.937
12024TIP3    H136015   5.793   5.382   3.926
12024TIP3    H236016   5.734   5.263   3.853
12025TIP3   OH236017   3.936   5.866   2.301
12025TIP3    H136018   3.857   5.905   2.264
12025TIP3    H236019   3.903   5.800   2.363
12026TIP3   OH236020   3.454   3.686   2.554
12026TIP3    H136021   3.392   3.662   2.485
12026TIP3    H236022   3.522   3.618   2.550
12027TIP3   OH236023   4.908   7.826   5.766
12027TIP3    H136024   4.919   7.855   5.857
12027TIP3    H236025   4.932   7.733   5.768
12028TIP3   OH236026   7.927   6.706   0.212
12028TIP3    H136027   7.930   6.763   0.136
12028TIP3    H236028   7.900   6.763   0.284
12029TIP3   OH236029   6.281   6.897   0.751
12029TIP3    H136030   6.341   6.924   0.821
12029TIP3    H236031   6.203   6.865   0.797
12030TIP3   OH236032   5.230   5.012   0.149
12030TIP3    H136033   5.168   5.044   0.216
12030TIP3    H236034   5.316   5.019   0.191
12031TIP3   OH236035   6.427   3.082   1.438
12031TIP3    H136036   6.457   3.084   1.529
12031TIP3    H236037   6.424   3.174   1.412
12032TIP3   OH236038   0.970   3.255   5.951
12032TIP3    H136039   1.028   3.270   6.025
12032TIP3    H236040   1.027   3.222   5.882
12033TIP3   OH236041   1.658   0.672   6.174
12033TIP3    H136042   1.683   0.606   6.110
12033TIP3    H236043   1.634   0.748   6.122
12034TIP3   OH236044   5.714   1.037   5.352
12034TIP3    H136045   5.726   0.989   5.270
12034TIP3    H236046   5.631   1.084   5.341
12035TIP3   OH236047   6.409   1.858   1.545
12035TIP3    H136048   6.450   1.789   1.597
12035TIP3    H236049   6.457   1.858   1.462
12036TIP3   OH236050   4.662   7.075   4.130
12036TIP3    H136051   4.742   7.104   4.086
12036TIP3    H236052   4.594   7.134   4.097
12037TIP3   OH236053   4.888   5.914   0.988
12037TIP3    H136054   4.815   5.853   0.998
12037TIP3    H236055   4.871   5.983   1.051
12038TIP3   OH236056   0.640   0.570   3.740
12038TIP3    H136057   0.691   0.508   3.689
12038TIP3    H236058   0.551   0.563   3.705
12039TIP3   OH236059   0.579   3.446   1.651
12039TIP3    H136060   0.546   3.358   1.631
12039TIP3    H236061   0.602   3.483   1.566
12040TIP3   OH236062   5.122   6.395   1.799
12040TIP3    H136063   5.052   6.361   1.744
12040TIP3    H236064   5.078   6.456   1.859
12041TIP3   OH236065   7.969   2.809   6.174
12041TIP3    H136066   7.998   2.869   6.104
12041TIP3    H236067   7.877   2.829   6.186
12042TIP3   OH236068   1.501   6.310   2.329
12042TIP3    H136069   1.485   6.218   2.350
12042TIP3    H236070   1.437   6.330   2.261
12043TIP3   OH236071   6.213   5.607   0.411
12043TIP3    H136072   6.183   5.555   0.486
12043TIP3    H236073   6.297   5.643   0.440
12044TIP3   OH236074   3.652   4.771   4.202
12044TIP3    H136075   3.709   4.838   4.241
12044TIP3    H236076   3.675   4.691   4.248
12045TIP3   OH236077   6.610   0.877   2.791
12045TIP3    H136078   6.520   0.870   2.823
12045TIP3    H236079   6.601   0.899   2.698
12046TIP3   OH236080   1.880   7.175   1.442
12046TIP3    H136081   1.894   7.265   1.415
12046TIP3    H236082   1.967   7.134   1.437
12047TIP3   OH236083   0.309   4.610   0.133
12047TIP3    H136084   0.394   4.571   0.153
12047TIP3    H236085   0.246   4.538   0.144
12048TIP3   OH236086   3.253   0.736   2.934
12048TIP3    H136087   3.260   0.830   2.923
12048TIP3    H236088   3.343   0.704   2.930
12049TIP3   OH236089   1.894   6.584   5.155
12049TIP3    H136090   1.838   6.621   5.088
12049TIP3    H236091   1.900   6.491   5.134
12050TIP3   OH236092   1.223   3.489   3.866
12050TIP3    H136093   1.141   3.529   3.836
12050TIP3    H236094   1.212   3.482   3.961
12051TIP3   OH236095   7.207   0.704   4.543
12051TIP3    H136096   7.236   0.633   4.485
12051TIP3    H236097   7.265   0.777   4.520
12052TIP3   OH236098   2.698   7.744   3.521
12052TIP3    H136099   2.708   7.822   3.577
12052TIP3    H236100   2.620   7.701   3.556
12053TIP3   OH236101   6.291   1.761   1.900
12053TIP3    H136102   6.293   1.715   1.984
12053TIP3    H236103   6.289   1.854   1.923
12054TIP3   OH236104   0.200   3.787   3.725
12054TIP3    H136105   0.123   3.734   3.704
12054TIP3    H236106   0.274   3.728   3.711
12055TIP3   OH236107   3.751   5.373   5.362
12055TIP3    H136108   3.761   5.391   5.269
12055TIP3    H236109   3.657   5.361   5.374
12056TIP3   OH236110   7.328   4.206   0.177
12056TIP3    H136111   7.338   4.121   0.219
12056TIP3    H236112   7.261   4.192   0.110
12057TIP3   OH236113   7.245   4.627   3.852
12057TIP3    H136114   7.169   4.667   3.894
12057TIP3    H236115   7.314   4.693   3.859
12058TIP3   OH236116   7.466   3.647   3.948
12058TIP3    H136117   7.372   3.660   3.960
12058TIP3    H236118   7.472   3.565   3.899
12059TIP3   OH236119   1.685   6.292   3.844
12059TIP3    H136120   1.659   6.236   3.771
12059TIP3    H236121   1.773   6.322   3.821
12060TIP3   OH236122   3.781   6.120   6.200
12060TIP3    H136123   3.731   6.065   6.261
12060TIP3    H236124   3.798   6.200   6.248
12061TIP3   OH236125   5.241   1.182   6.203
12061TIP3    H136126   5.318   1.233   6.227
12061TIP3    H236127   5.186   1.183   6.282
12062TIP3   OH236128   6.694   3.741   3.924
12062TIP3    H136129   6.648   3.811   3.878
12062TIP3    H236130   6.787   3.762   3.913
12063TIP3   OH236131   0.989   1.981   0.514
12063TIP3    H136132   1.020   2.052   0.457
12063TIP3    H236133   1.059   1.970   0.579
12064TIP3   OH236134   1.863   1.648   5.764
12064TIP3    H136135   1.821   1.734   5.772
12064TIP3    H236136   1.791   1.586   5.760
12065TIP3   OH236137   1.250   4.535   0.996
12065TIP3    H136138   1.243   4.598   1.068
12065TIP3    H236139   1.237   4.587   0.917
12066TIP3   OH236140   2.513   2.897   4.732
12066TIP3    H136141   2.422   2.928   4.728
12066TIP3    H236142   2.512   2.815   4.684
12067TIP3   OH236143   3.100   7.486   0.857
12067TIP3    H136144   3.182   7.535   0.853
12067TIP3    H236145   3.048   7.532   0.923
12068TIP3   OH236146   3.366   1.769   5.100
12068TIP3    H136147   3.328   1.849   5.134
12068TIP3    H236148   3.420   1.797   5.026
12069TIP3   OH236149   5.698   7.473   0.253
12069TIP3    H136150   5.640   7.468   0.177
12069TIP3    H236151   5.705   7.566   0.272
12070TIP3   OH236152   4.357   1.044   1.042
12070TIP3    H136153   4.354   1.050   1.137
12070TIP3    H236154   4.421   0.976   1.023
12071TIP3   OH236155   7.368   4.735   4.422
12071TIP3    H136156   7.285   4.689   4.417
12071TIP3    H236157   7.427   4.673   4.465
12072TIP3   OH236158   7.538   3.248   4.996
12072TIP3    H136159   7.582   3.164   5.010
12072TIP3    H236160   7.495   3.267   5.080
12073TIP3   OH236161   1.708   2.120   2.448
12073TIP3    H136162   1.746   2.033   2.459
12073TIP3    H236163   1.735   2.147   2.360
12074TIP3   OH236164   7.973   6.160   6.085
12074TIP3    H136165   8.002   6.183   5.997
12074TIP3    H236166   8.053   6.158   6.137
12075TIP3   OH236167   6.885   1.142   1.757
12075TIP3    H136168   6.907   1.224   1.801
12075TIP3    H236169   6.965   1.116   1.713
12076TIP3   OH236170   0.487   4.314   5.623
12076TIP3    H136171   0.458   4.390   5.572
12076TIP3    H236172   0.573   4.339   5.658
12077TIP3   OH236173   4.920   0.102   3.016
12077TIP3    H136174   4.832   0.069   2.997
12077TIP3    H236175   4.958   0.037   3.075
12078TIP3   OH236176   3.327   2.110   2.724
12078TIP3    H136177   3.243   2.155   2.735
12078TIP3    H236178   3.392   2.179   2.731
12079TIP3   OH236179   6.321   0.525   4.799
12079TIP3    H136180   6.228   0.529   4.822
12079TIP3    H236181   6.356   0.611   4.825
12080TIP3   OH236182   0.126   2.354   0.400
12080TIP3    H136183   0.041   2.330   0.437
12080TIP3    H236184   0.141   2.444   0.432
12081TIP3   OH236185   7.545   5.957   4.419
12081TIP3    H136186   7.463   5.925   4.381
12081TIP3    H236187   7.544   5.922   4.508
12082TIP3   OH236188   4.055   7.317   3.903
12082TIP3    H136189   4.059   7.226   3.874
12082TIP3    H236190   3.971   7.349   3.871
12083TIP3   OH236191   3.878   4.361   3.557
12083TIP3    H136192   3.933   4.293   3.519
12083TIP3    H236193   3.824   4.392   3.484
12084TIP3   OH236194   0.030   5.534   5.201
12084TIP3    H136195  -0.059   5.568   5.208
12084TIP3    H236196   0.073   5.593   5.138
12085TIP3   OH236197   6.632   2.895   6.518
12085TIP3    H136198   6.697   2.858   6.577
12085TIP3    H236199   6.683   2.945   6.454
12086TIP3   OH236200   7.503   1.560   4.253
12086TIP3    H136201   7.551   1.618   4.312
12086TIP3    H236202   7.502   1.607   4.169
12087TIP3   OH236203   2.357   4.737   2.919
12087TIP3    H136204   2.349   4.810   2.980
12087TIP3    H236205   2.287   4.677   2.944
12088TIP3   OH236206   7.188   3.781   3.918
12088TIP3    H136207   7.176   3.801   4.010
12088TIP3    H236208   7.252   3.845   3.887
12089TIP3   OH236209   1.361   7.713   3.732
12089TIP3    H136210   1.421   7.717   3.658
12089TIP3    H236211   1.275   7.733   3.695
12090TIP3   OH236212   6.934   7.216   6.197
12090TIP3    H136213   6.911   7.305   6.223
12090TIP3    H236214   6.851   7.171   6.189
12091TIP3   OH236215   5.601   3.128   3.053
12091TIP3    H136216   5.522   3.156   3.007
12091TIP3    H236217   5.573   3.118   3.144
12092TIP3   OH236218   0.335   2.115   5.985
12092TIP3    H136219   0.275   2.111   6.059
12092TIP3    H236220   0.390   2.037   5.994
12093TIP3   OH236221   2.347   2.980   6.470
12093TIP3    H136222   2.286   2.955   6.401
12093TIP3    H236223   2.344   2.908   6.532
12094TIP3   OH236224   6.850   5.260   4.061
12094TIP3    H136225   6.851   5.340   4.112
12094TIP3    H236226   6.757   5.241   4.047
12095TIP3   OH236227   1.455   3.247   1.663
12095TIP3    H136228   1.423   3.162   1.631
12095TIP3    H236229   1.411   3.311   1.606
12096TIP3   OH236230   5.495   0.177   2.417
12096TIP3    H136231   5.494   0.147   2.508
12096TIP3    H236232   5.581   0.220   2.407
12097TIP3   OH236233   2.063   5.042   3.251
12097TIP3    H136234   2.122   4.974   3.283
12097TIP3    H236235   1.989   5.039   3.311
12098TIP3   OH236236   3.145   0.086   6.549
12098TIP3    H136237   3.095   0.123   6.621
12098TIP3    H236238   3.090   0.102   6.472
12099TIP3   OH236239   0.623   7.649   2.880
12099TIP3    H136240   0.636   7.698   2.799
12099TIP3    H236241   0.637   7.557   2.856
12100TIP3   OH236242   6.974   3.553   2.754
12100TIP3    H136243   7.025   3.485   2.710
12100TIP3    H236244   7.021   3.570   2.836
12101TIP3   OH236245   5.140   6.450   0.719
12101TIP3    H136246   5.076   6.464   0.650
12101TIP3    H236247   5.211   6.400   0.677
12102TIP3   OH236248   7.373   2.703   0.974
12102TIP3    H136249   7.305   2.642   1.002
12102TIP3    H236250   7.392   2.756   1.051
12103TIP3   OH236251   3.390   5.259   1.103
12103TIP3    H136252   3.330   5.328   1.132
12103TIP3    H236253   3.476   5.288   1.132
12104TIP3   OH236254   4.588   3.869   1.258
12104TIP3    H136255   4.510   3.817   1.242
12104TIP3    H236256   4.576   3.905   1.346
12105TIP3   OH236257   2.447   1.124   1.258
12105TIP3    H136258   2.536   1.124   1.222
12105TIP3    H236259   2.395   1.174   1.196
12106TIP3   OH236260   8.200   6.267   1.802
12106TIP3    H136261   8.131   6.206   1.829
12106TIP3    H236262   8.251   6.219   1.737
12107TIP3   OH236263   1.022   2.463   0.787
12107TIP3    H136264   0.937   2.420   0.793
12107TIP3    H236265   1.003   2.555   0.806
12108TIP3   OH236266   7.773   4.786   0.058
12108TIP3    H136267   7.722   4.859   0.094
12108TIP3    H236268   7.721   4.708   0.075
12109TIP3   OH236269   4.329   3.653   5.933
12109TIP3    H136270   4.320   3.591   6.005
12109TIP3    H236271   4.370   3.731   5.973
12110TIP3   OH236272   2.500   0.184   3.387
12110TIP3    H136273   2.486   0.279   3.398
12110TIP3    H236274   2.499   0.149   3.476
12111TIP3   OH236275   2.176   0.314   5.660
12111TIP3    H136276   2.198   0.348   5.573
12111TIP3    H236277   2.136   0.229   5.643
12112TIP3   OH236278   5.008   0.271   5.009
12112TIP3    H136279   5.075   0.231   5.065
12112TIP3    H236280   4.981   0.349   5.057
12113TIP3   OH236281   0.678   3.362   3.821
12113TIP3    H136282   0.748   3.364   3.886
12113TIP3    H236283   0.623   3.288   3.847
12114TIP3   OH236284   3.974   6.129   1.383
12114TIP3    H136285   3.998   6.092   1.298
12114TIP3    H236286   4.005   6.220   1.379
12115TIP3   OH236287   4.203   3.675   1.615
12115TIP3    H136288   4.208   3.592   1.662
12115TIP3    H236289   4.222   3.741   1.682
12116TIP3   OH236290   6.237   1.024   5.382
12116TIP3    H136291   6.169   1.084   5.352
12116TIP3    H236292   6.316   1.054   5.338
12117TIP3   OH236293   5.232   2.509   2.477
12117TIP3    H136294   5.249   2.559   2.556
12117TIP3    H236295   5.319   2.486   2.444
12118TIP3   OH236296   5.424   2.779   1.195
12118TIP3    H136297   5.486   2.842   1.232
12118TIP3    H236298   5.349   2.833   1.167
12119TIP3   OH236299   3.121   4.099   6.642
12119TIP3    H136300   3.061   4.082   6.714
12119TIP3    H236301   3.137   4.194   6.645
12120TIP3   OH236302   1.802   3.101   6.411
12120TIP3    H136303   1.869   3.169   6.401
12120TIP3    H236304   1.826   3.056   6.492
12121TIP3   OH236305   3.965   4.409   3.814
12121TIP3    H136306   3.935   4.327   3.854
12121TIP3    H236307   3.921   4.412   3.729
12122TIP3   OH236308   7.193   5.595   6.661
12122TIP3    H136309   7.110   5.596   6.613
12122TIP3    H236310   7.232   5.681   6.642
12123TIP3   OH236311   0.090   6.034   6.535
12123TIP3    H136312   0.138   5.998   6.609
12123TIP3    H236313   0.046   6.111   6.570
12124TIP3   OH236314   7.288   4.855   1.986
12124TIP3    H136315   7.367   4.853   2.040
12124TIP3    H236316   7.321   4.870   1.897
12125TIP3   OH236317   5.458   7.693   1.470
12125TIP3    H136318   5.400   7.763   1.499
12125TIP3    H236319   5.429   7.616   1.520
12126TIP3   OH236320   7.150   1.325   2.776
12126TIP3    H136321   7.169   1.326   2.870
12126TIP3    H236322   7.060   1.293   2.769
12127TIP3   OH236323   1.355   7.348   0.147
12127TIP3    H136324   1.338   7.364   0.055
12127TIP3    H236325   1.350   7.253   0.157
12128TIP3   OH236326   4.579   1.748   0.771
12128TIP3    H136327   4.567   1.734   0.865
12128TIP3    H236328   4.624   1.668   0.741
12129TIP3   OH236329   8.311   1.272   0.720
12129TIP3    H136330   8.225   1.313   0.735
12129TIP3    H236331   8.298   1.180   0.741
12130TIP3   OH236332   2.628   5.667   0.583
12130TIP3    H136333   2.658   5.641   0.670
12130TIP3    H236334   2.599   5.585   0.542
12131TIP3   OH236335   0.187   5.273   5.195
12131TIP3    H136336   0.137   5.353   5.178
12131TIP3    H236337   0.277   5.295   5.168
12132TIP3   OH236338   6.248   5.287   1.140
12132TIP3    H136339   6.239   5.347   1.215
12132TIP3    H236340   6.328   5.317   1.096
12133TIP3   OH236341   7.577   0.986   1.651
12133TIP3    H136342   7.589   0.940   1.734
12133TIP3    H236343   7.549   0.919   1.589
12134TIP3   OH236344   2.369   6.423   5.670
12134TIP3    H136345   2.463   6.433   5.656
12134TIP3    H236346   2.345   6.495   5.729
12135TIP3   OH236347   7.574   4.529   5.023
12135TIP3    H136348   7.633   4.604   5.025
12135TIP3    H236349   7.629   4.455   4.995
12136TIP3   OH236350   1.086   6.025   1.584
12136TIP3    H136351   1.089   6.016   1.679
12136TIP3    H236352   1.157   6.085   1.563
12137TIP3   OH236353   4.250   5.991   1.204
12137TIP3    H136354   4.169   5.996   1.153
12137TIP3    H236355   4.308   5.935   1.152
12138TIP3   OH236356   4.114   4.851   5.424
12138TIP3    H136357   4.025   4.882   5.439
12138TIP3    H236358   4.167   4.931   5.426
12139TIP3   OH236359   1.585   7.338   1.683
12139TIP3    H136360   1.490   7.332   1.690
12139TIP3    H236361   1.602   7.422   1.640
12140TIP3   OH236362   0.872   6.090   5.946
12140TIP3    H136363   0.855   6.179   5.976
12140TIP3    H236364   0.876   6.037   6.026
12141TIP3   OH236365   2.098   7.454   0.327
12141TIP3    H136366   2.011   7.464   0.368
12141TIP3    H236367   2.123   7.543   0.303
12142TIP3   OH236368   1.296   6.235   3.230
12142TIP3    H136369   1.254   6.295   3.291
12142TIP3    H236370   1.252   6.251   3.146
12143TIP3   OH236371   7.972   2.400   4.399
12143TIP3    H136372   7.920   2.430   4.325
12143TIP3    H236373   7.936   2.447   4.475
12144TIP3   OH236374   3.323   2.556   4.984
12144TIP3    H136375   3.247   2.597   5.025
12144TIP3    H236376   3.301   2.463   4.981
12145TIP3   OH236377   5.012   2.603   1.905
12145TIP3    H136378   5.024   2.514   1.936
12145TIP3    H236379   4.940   2.638   1.958
12146TIP3   OH236380   0.633   4.673   2.226
12146TIP3    H136381   0.655   4.666   2.319
12146TIP3    H236382   0.575   4.599   2.210
12147TIP3   OH236383   4.327   2.580   6.691
12147TIP3    H136384   4.289   2.603   6.606
12147TIP3    H236385   4.412   2.543   6.669
12148TIP3   OH236386   2.760   7.600   3.083
12148TIP3    H136387   2.691   7.542   3.115
12148TIP3    H236388   2.729   7.631   2.999
12149TIP3   OH236389   5.978   2.860   0.858
12149TIP3    H136390   6.073   2.860   0.868
12149TIP3    H236391   5.955   2.769   0.841
12150TIP3   OH236392   7.004   6.343   1.006
12150TIP3    H136393   6.944   6.307   1.071
12150TIP3    H236394   7.003   6.438   1.023
12151TIP3   OH236395   7.164   4.895   1.578
12151TIP3    H136396   7.092   4.883   1.640
12151TIP3    H236397   7.121   4.907   1.493
12152TIP3   OH236398   1.340   4.246   1.417
12152TIP3    H136399   1.256   4.205   1.396
12152TIP3    H236400   1.387   4.249   1.334
12153TIP3   OH236401   7.423   5.022   5.656
12153TIP3    H136402   7.349   5.010   5.597
12153TIP3    H236403   7.496   4.980   5.611
12154TIP3   OH236404   3.836   0.631   4.288
12154TIP3    H136405   3.792   0.692   4.229
12154TIP3    H236406   3.863   0.685   4.363
12155TIP3   OH236407   4.700   5.816   1.866
12155TIP3    H136408   4.680   5.811   1.773
12155TIP3    H236409   4.789   5.852   1.870
12156TIP3   OH236410   4.369   3.734   2.386
12156TIP3    H136411   4.369   3.805   2.322
12156TIP3    H236412   4.276   3.715   2.400
12157TIP3   OH236413   7.966   5.799   5.581
12157TIP3    H136414   7.907   5.847   5.639
12157TIP3    H236415   8.044   5.855   5.575
12158TIP3   OH236416   2.808   4.472   4.416
12158TIP3    H136417   2.821   4.506   4.327
12158TIP3    H236418   2.816   4.549   4.472
12159TIP3   OH236419   6.368   5.001   6.067
12159TIP3    H136420   6.375   5.094   6.089
12159TIP3    H236421   6.454   4.965   6.088
12160TIP3   OH236422   5.208   7.532   4.260
12160TIP3    H136423   5.219   7.513   4.353
12160TIP3    H236424   5.293   7.510   4.221
12161TIP3   OH236425   5.394   1.410   6.274
12161TIP3    H136426   5.445   1.469   6.330
12161TIP3    H236427   5.345   1.469   6.217
12162TIP3   OH236428   8.238   0.996   2.829
12162TIP3    H136429   8.268   1.015   2.918
12162TIP3    H236430   8.288   1.055   2.773
12163TIP3   OH236431   7.520   3.069   2.816
12163TIP3    H136432   7.534   3.066   2.910
12163TIP3    H236433   7.443   3.014   2.802
12164TIP3   OH236434   7.772   6.382   2.565
12164TIP3    H136435   7.867   6.379   2.562
12164TIP3    H236436   7.744   6.336   2.486
12165TIP3   OH236437   5.093   3.308   3.445
12165TIP3    H136438   5.179   3.346   3.428
12165TIP3    H236439   5.048   3.373   3.499
12166TIP3   OH236440   6.186   1.379   1.294
12166TIP3    H136441   6.115   1.418   1.345
12166TIP3    H236442   6.202   1.442   1.223
12167TIP3   OH236443   2.950   7.235   3.473
12167TIP3    H136444   2.949   7.146   3.437
12167TIP3    H236445   2.864   7.271   3.452
12168TIP3   OH236446   7.398   0.950   0.123
12168TIP3    H136447   7.424   0.985   0.038
12168TIP3    H236448   7.383   1.027   0.177
12169TIP3   OH236449   3.378   7.376   2.829
12169TIP3    H136450   3.343   7.353   2.914
12169TIP3    H236451   3.461   7.328   2.822
12170TIP3   OH236452   2.800   3.696   3.137
12170TIP3    H136453   2.761   3.741   3.063
12170TIP3    H236454   2.884   3.739   3.150
12171TIP3   OH236455   2.280   3.011   5.098
12171TIP3    H136456   2.354   2.953   5.114
12171TIP3    H236457   2.307   3.065   5.024
12172TIP3   OH236458   7.284   2.663   2.386
12172TIP3    H136459   7.296   2.732   2.451
12172TIP3    H236460   7.228   2.598   2.429
12173TIP3   OH236461   7.606   4.037   2.671
12173TIP3    H136462   7.564   4.106   2.722
12173TIP3    H236463   7.538   3.970   2.660
12174TIP3   OH236464   2.631   4.155   6.568
12174TIP3    H136465   2.563   4.120   6.511
12174TIP3    H236466   2.628   4.100   6.646
12175TIP3   OH236467   5.261   6.368   6.446
12175TIP3    H136468   5.247   6.407   6.360
12175TIP3    H236469   5.186   6.397   6.498
12176TIP3   OH236470   2.102   5.157   4.903
12176TIP3    H136471   2.017   5.161   4.946
12176TIP3    H236472   2.144   5.079   4.938
12177TIP3   OH236473   2.475   4.435   6.401
12177TIP3    H136474   2.462   4.416   6.494
12177TIP3    H236475   2.466   4.530   6.395
12178TIP3   OH236476   4.760   3.288   2.622
12178TIP3    H136477   4.852   3.261   2.620
12178TIP3    H236478   4.712   3.208   2.641
12179TIP3   OH236479   5.056   1.988   1.594
12179TIP3    H136480   5.067   1.955   1.683
12179TIP3    H236481   5.108   1.929   1.540
12180TIP3   OH236482   4.358   5.514   1.271
12180TIP3    H136483   4.400   5.590   1.312
12180TIP3    H236484   4.264   5.532   1.278
12181TIP3   OH236485   6.005   6.334   1.638
12181TIP3    H136486   6.026   6.283   1.716
12181TIP3    H236487   6.080   6.321   1.580
12182TIP3   OH236488   4.902   3.691   0.110
12182TIP3    H136489   4.862   3.630   0.172
12182TIP3    H236490   4.985   3.715   0.149
12183TIP3   OH236491   5.753   3.547   5.042
12183TIP3    H136492   5.837   3.546   4.996
12183TIP3    H236493   5.716   3.633   5.023
12184TIP3   OH236494   6.767   0.178   2.212
12184TIP3    H136495   6.695   0.160   2.271
12184TIP3    H236496   6.840   0.125   2.244
12185TIP3   OH236497   2.204   0.889   6.017
12185TIP3    H136498   2.155   0.834   5.957
12185TIP3    H236499   2.290   0.849   6.022
12186TIP3   OH236500   4.904   1.391   1.556
12186TIP3    H136501   4.891   1.352   1.470
12186TIP3    H236502   4.816   1.395   1.594
12187TIP3   OH236503   2.635   3.378   1.567
12187TIP3    H136504   2.620   3.326   1.489
12187TIP3    H236505   2.684   3.455   1.536
12188TIP3   OH236506   2.808   7.185   5.577
12188TIP3    H136507   2.903   7.176   5.570
12188TIP3    H236508   2.773   7.135   5.504
12189TIP3   OH236509   8.001   0.502   1.972
12189TIP3    H136510   7.954   0.429   2.013
12189TIP3    H236511   8.090   0.469   1.959
12190TIP3   OH236512   3.242   5.881   2.224
12190TIP3    H136513   3.226   5.787   2.233
12190TIP3    H236514   3.230   5.898   2.130
12191TIP3   OH236515   4.931   4.545   5.112
12191TIP3    H136516   5.008   4.565   5.164
12191TIP3    H236517   4.863   4.605   5.145
12192TIP3   OH236518   0.332   6.380   5.959
12192TIP3    H136519   0.364   6.376   6.049
12192TIP3    H236520   0.342   6.471   5.934
12193TIP3   OH236521   4.033   6.255   5.326
12193TIP3    H136522   3.953   6.265   5.275
12193TIP3    H236523   4.010   6.287   5.413
12194TIP3   OH236524   1.109   4.773   2.959
12194TIP3    H136525   1.017   4.751   2.973
12194TIP3    H236526   1.147   4.775   3.047
12195TIP3   OH236527   6.881   2.406   2.079
12195TIP3    H136528   6.801   2.367   2.114
12195TIP3    H236529   6.931   2.432   2.156
12196TIP3   OH236530   6.615   3.226   2.524
12196TIP3    H136531   6.533   3.239   2.571
12196TIP3    H236532   6.671   3.177   2.585
12197TIP3   OH236533   3.958   3.971   0.103
12197TIP3    H136534   4.007   3.898   0.067
12197TIP3    H236535   3.915   4.010   0.027
12198TIP3   OH236536   7.248   3.947   6.066
12198TIP3    H136537   7.230   3.887   6.139
12198TIP3    H236538   7.298   4.018   6.105
12199TIP3   OH236539   5.896   2.853   5.080
12199TIP3    H136540   5.933   2.940   5.098
12199TIP3    H236541   5.972   2.799   5.059
12200TIP3   OH236542   4.285   7.721   1.019
12200TIP3    H136543   4.282   7.729   1.114
12200TIP3    H236544   4.285   7.627   1.002
12201TIP3   OH236545   0.378   3.976   3.646
12201TIP3    H136546   0.311   3.914   3.675
12201TIP3    H236547   0.330   4.043   3.597
12202TIP3   OH236548   0.378   7.611   2.611
12202TIP3    H136549   0.396   7.539   2.672
12202TIP3    H236550   0.454   7.614   2.553
12203TIP3   OH236551   7.315   3.299   2.830
12203TIP3    H136552   7.386   3.276   2.891
12203TIP3    H236553   7.355   3.361   2.770
12204TIP3   OH236554   6.370   3.422   2.241
12204TIP3    H136555   6.286   3.465   2.225
12204TIP3    H236556   6.436   3.487   2.216
12205TIP3   OH236557   0.897   5.780   2.827
12205TIP3    H136558   0.902   5.829   2.745
12205TIP3    H236559   0.804   5.782   2.850
12206TIP3   OH236560   7.886   3.062   4.876
12206TIP3    H136561   7.947   2.989   4.868
12206TIP3    H236562   7.937   3.132   4.918
12207TIP3   OH236563   3.722   0.897   6.593
12207TIP3    H136564   3.674   0.841   6.655
12207TIP3    H236565   3.672   0.891   6.512
12208TIP3   OH236566   6.394   4.933   1.624
12208TIP3    H136567   6.382   4.841   1.601
12208TIP3    H236568   6.457   4.932   1.696
12209TIP3   OH236569   3.157   4.928   5.599
12209TIP3    H136570   3.101   4.850   5.593
12209TIP3    H236571   3.200   4.919   5.684
12210TIP3   OH236572   1.775   1.419   0.003
12210TIP3    H136573   1.869   1.410  -0.009
12210TIP3    H236574   1.748   1.339   0.047
12211TIP3   OH236575   8.165   4.274   5.080
12211TIP3    H136576   8.186   4.295   4.989
12211TIP3    H236577   8.114   4.193   5.074
12212TIP3   OH236578   2.337   1.450   2.961
12212TIP3    H136579   2.271   1.476   2.896
12212TIP3    H236580   2.381   1.375   2.921
12213TIP3   OH236581   1.474   1.409   1.786
12213TIP3    H136582   1.411   1.479   1.770
12213TIP3    H236583   1.468   1.353   1.709
12214TIP3   OH236584   4.940   6.411   2.750
12214TIP3    H136585   4.874   6.424   2.682
12214TIP3    H236586   4.935   6.491   2.803
12215TIP3   OH236587   4.402   7.244   4.541
12215TIP3    H136588   4.392   7.276   4.631
12215TIP3    H236589   4.492   7.214   4.536
12216TIP3   OH236590   7.310   5.737   1.077
12216TIP3    H136591   7.263   5.765   0.999
12216TIP3    H236592   7.281   5.796   1.146
12217TIP3   OH236593   2.597   6.007   3.262
12217TIP3    H136594   2.665   5.940   3.253
12217TIP3    H236595   2.602   6.057   3.181
12218TIP3   OH236596   8.041   2.101   5.765
12218TIP3    H136597   7.995   2.056   5.694
12218TIP3    H236598   8.027   2.194   5.748
12219TIP3   OH236599   0.525   5.653   4.360
12219TIP3    H136600   0.486   5.566   4.366
12219TIP3    H236601   0.476   5.696   4.289
12220TIP3   OH236602   6.786   7.633   1.284
12220TIP3    H136603   6.843   7.563   1.252
12220TIP3    H236604   6.775   7.613   1.377
12221TIP3   OH236605   5.562   0.520   1.251
12221TIP3    H136606   5.591   0.430   1.262
12221TIP3    H236607   5.476   0.523   1.292
12222TIP3   OH236608   5.405   4.609   5.071
12222TIP3    H136609   5.493   4.643   5.060
12222TIP3    H236610   5.372   4.599   4.982
12223TIP3   OH236611   0.646   5.241   5.010
12223TIP3    H136612   0.611   5.155   4.988
12223TIP3    H236613   0.716   5.255   4.947
12224TIP3   OH236614   2.939   0.232   4.144
12224TIP3    H136615   2.944   0.137   4.152
12224TIP3    H236616   2.992   0.253   4.067
12225TIP3   OH236617   3.695   6.542   6.617
12225TIP3    H136618   3.732   6.497   6.694
12225TIP3    H236619   3.618   6.587   6.651
12226TIP3   OH236620   1.075   6.323   1.983
12226TIP3    H136621   1.027   6.293   1.906
12226TIP3    H236622   1.166   6.305   1.964
12227TIP3   OH236623   7.650   2.129   6.591
12227TIP3    H136624   7.743   2.105   6.590
12227TIP3    H236625   7.640   2.183   6.670
12228TIP3   OH236626   5.255   0.305   1.559
12228TIP3    H136627   5.187   0.240   1.539
12228TIP3    H236628   5.222   0.350   1.638
12229TIP3   OH236629   4.424   5.453   3.474
12229TIP3    H136630   4.342   5.474   3.431
12229TIP3    H236631   4.424   5.357   3.480
12230TIP3   OH236632   0.042   6.723   2.385
12230TIP3    H136633  -0.030   6.765   2.433
12230TIP3    H236634   0.087   6.671   2.452
12231TIP3   OH236635   1.963   3.639   3.831
12231TIP3    H136636   1.980   3.687   3.912
12231TIP3    H236637   1.910   3.698   3.778
12232TIP3   OH236638   5.535   0.199   1.467
12232TIP3    H136639   5.466   0.249   1.513
12232TIP3    H236640   5.508   0.200   1.376
12233TIP3   OH236641   0.324   2.384   2.746
12233TIP3    H136642   0.249   2.443   2.739
12233TIP3    H236643   0.336   2.350   2.658
12234TIP3   OH236644   2.663   2.955   4.102
12234TIP3    H136645   2.737   3.009   4.130
12234TIP3    H236646   2.620   2.929   4.183
12235TIP3   OH236647   5.758   5.334   6.400
12235TIP3    H136648   5.696   5.357   6.331
12235TIP3    H236649   5.703   5.321   6.478
12236TIP3   OH236650   5.946   5.300   1.130
12236TIP3    H136651   5.985   5.319   1.215
12236TIP3    H236652   5.856   5.331   1.137
12237TIP3   OH236653   7.612   3.785   1.332
12237TIP3    H136654   7.635   3.832   1.252
12237TIP3    H236655   7.692   3.738   1.356
12238TIP3   OH236656   6.468   1.948   5.428
12238TIP3    H136657   6.502   1.920   5.344
12238TIP3    H236658   6.533   2.011   5.460
12239TIP3   OH236659   4.120   6.121   0.426
12239TIP3    H136660   4.034   6.157   0.404
12239TIP3    H236661   4.102   6.055   0.493
12240TIP3   OH236662   4.291   2.683   5.019
12240TIP3    H136663   4.273   2.749   5.086
12240TIP3    H236664   4.380   2.702   4.990
12241TIP3   OH236665   6.970   3.147   4.947
12241TIP3    H136666   6.971   3.157   4.852
12241TIP3    H236667   6.964   3.053   4.962
12242TIP3   OH236668   3.612   5.936   6.358
12242TIP3    H136669   3.667   5.858   6.346
12242TIP3    H236670   3.523   5.905   6.345
12243TIP3   OH236671   3.903   7.144   6.362
12243TIP3    H136672   3.855   7.083   6.306
12243TIP3    H236673   3.839   7.172   6.427
12244TIP3   OH236674   7.145   4.387   3.325
12244TIP3    H136675   7.193   4.304   3.319
12244TIP3    H236676   7.067   4.367   3.376
12245TIP3   OH236677   2.492   4.650   5.954
12245TIP3    H136678   2.492   4.745   5.946
12245TIP3    H236679   2.431   4.631   6.025
12246TIP3   OH236680   5.574   2.366   2.669
12246TIP3    H136681   5.549   2.446   2.621
12246TIP3    H236682   5.579   2.299   2.601
12247TIP3   OH236683   1.992   5.088   5.751
12247TIP3    H136684   1.985   5.181   5.771
12247TIP3    H236685   1.909   5.066   5.708
12248TIP3   OH236686   4.323   6.002   0.140
12248TIP3    H136687   4.274   6.046   0.210
12248TIP3    H236688   4.304   5.909   0.152
12249TIP3   OH236689   8.251   1.272   5.948
12249TIP3    H136690   8.288   1.355   5.916
12249TIP3    H236691   8.267   1.210   5.877
12250TIP3   OH236692   5.622   3.954   5.308
12250TIP3    H136693   5.600   4.033   5.258
12250TIP3    H236694   5.695   3.980   5.363
12251TIP3   OH236695   2.421   3.689   3.552
12251TIP3    H136696   2.487   3.682   3.483
12251TIP3    H236697   2.350   3.741   3.513
12252TIP3   OH236698   5.110   0.112   6.202
12252TIP3    H136699   5.105   0.019   6.224
12252TIP3    H236700   5.159   0.151   6.275
12253TIP3   OH236701   0.882   2.159   1.522
12253TIP3    H136702   0.891   2.107   1.442
12253TIP3    H236703   0.967   2.149   1.567
12254TIP3   OH236704   3.502   5.527   6.317
12254TIP3    H136705   3.445   5.504   6.391
12254TIP3    H236706   3.457   5.599   6.274
12255TIP3   OH236707   3.768   2.229   5.844
12255TIP3    H136708   3.676   2.248   5.825
12255TIP3    H236709   3.766   2.188   5.931
12256TIP3   OH236710   4.641   4.002   0.355
12256TIP3    H136711   4.647   4.079   0.411
12256TIP3    H236712   4.668   4.033   0.268
12257TIP3   OH236713   0.591   7.624   0.228
12257TIP3    H136714   0.512   7.649   0.179
12257TIP3    H236715   0.660   7.619   0.161
12258TIP3   OH236716   7.989   4.997   4.988
12258TIP3    H136717   8.011   4.903   4.984
12258TIP3    H236718   8.003   5.021   5.080
12259TIP3   OH236719   3.492   5.881   1.700
12259TIP3    H136720   3.524   5.957   1.651
12259TIP3    H236721   3.519   5.899   1.791
12260TIP3   OH236722   7.850   3.694   1.374
12260TIP3    H136723   7.901   3.699   1.454
12260TIP3    H236724   7.812   3.606   1.375
12261TIP3   OH236725   5.631   1.938   5.808
12261TIP3    H136726   5.671   1.956   5.723
12261TIP3    H236727   5.542   1.909   5.787
12262TIP3   OH236728   1.766   1.219   3.092
12262TIP3    H136729   1.794   1.309   3.078
12262TIP3    H236730   1.848   1.169   3.094
12263TIP3   OH236731   4.958   7.644   2.179
12263TIP3    H136732   4.956   7.572   2.116
12263TIP3    H236733   5.032   7.698   2.151
12264TIP3   OH236734   3.072   5.954   6.343
12264TIP3    H136735   3.081   5.870   6.387
12264TIP3    H236736   2.978   5.973   6.346
12265TIP3   OH236737   8.196   6.827   1.945
12265TIP3    H136738   8.226   6.853   2.032
12265TIP3    H236739   8.213   6.733   1.941
12266TIP3   OH236740   1.849   0.597   5.769
12266TIP3    H136741   1.807   0.683   5.775
12266TIP3    H236742   1.857   0.582   5.675
12267TIP3   OH236743   0.752   0.217   3.334
12267TIP3    H136744   0.713   0.303   3.352
12267TIP3    H236745   0.845   0.236   3.318
12268TIP3   OH236746   0.872   3.309   0.539
12268TIP3    H136747   0.817   3.366   0.592
12268TIP3    H236748   0.810   3.255   0.490
12269TIP3   OH236749   8.277   4.533   5.318
12269TIP3    H136750   8.190   4.569   5.302
12269TIP3    H236751   8.261   4.441   5.340
12270TIP3   OH236752   1.153   0.663   4.905
12270TIP3    H136753   1.224   0.599   4.898
12270TIP3    H236754   1.087   0.620   4.960
12271TIP3   OH236755   3.288   6.477   0.701
12271TIP3    H136756   3.297   6.466   0.607
12271TIP3    H236757   3.294   6.572   0.715
12272TIP3   OH236758   2.443   1.462   1.430
12272TIP3    H136759   2.365   1.453   1.485
12272TIP3    H236760   2.472   1.372   1.416
12273TIP3   OH236761   7.588   5.615   3.465
12273TIP3    H136762   7.651   5.581   3.401
12273TIP3    H236763   7.520   5.656   3.413
12274TIP3   OH236764   4.437   5.760   1.457
12274TIP3    H136765   4.477   5.809   1.384
12274TIP3    H236766   4.343   5.768   1.443
12275TIP3   OH236767   7.960   3.146   6.224
12275TIP3    H136768   7.985   3.095   6.147
12275TIP3    H236769   8.034   3.138   6.283
12276TIP3   OH236770   3.087   3.866   0.439
12276TIP3    H136771   3.046   3.792   0.484
12276TIP3    H236772   3.038   3.874   0.357
12277TIP3   OH236773   4.385   0.875   5.565
12277TIP3    H136774   4.340   0.791   5.562
12277TIP3    H236775   4.322   0.937   5.528
12278TIP3   OH236776   4.895   6.226   6.561
12278TIP3    H136777   4.864   6.139   6.536
12278TIP3    H236778   4.816   6.275   6.581
12279TIP3   OH236779   4.255   1.779   2.221
12279TIP3    H136780   4.260   1.863   2.175
12279TIP3    H236781   4.161   1.763   2.231
12280TIP3   OH236782   1.404   5.323   3.155
12280TIP3    H136783   1.461   5.366   3.219
12280TIP3    H236784   1.442   5.346   3.070
12281TIP3   OH236785   3.615   2.875   0.381
12281TIP3    H136786   3.690   2.933   0.372
12281TIP3    H236787   3.632   2.803   0.321
12282TIP3   OH236788   6.429   4.656   3.251
12282TIP3    H136789   6.438   4.641   3.157
12282TIP3    H236790   6.361   4.595   3.279
12283TIP3   OH236791   6.090   7.065   1.121
12283TIP3    H136792   6.015   7.006   1.114
12283TIP3    H236793   6.090   7.094   1.213
12284TIP3   OH236794   3.281   0.936   5.460
12284TIP3    H136795   3.304   0.880   5.386
12284TIP3    H236796   3.345   0.913   5.527
12285TIP3   OH236797   1.065   7.438   2.411
12285TIP3    H136798   1.143   7.472   2.366
12285TIP3    H236799   1.016   7.393   2.342
12286TIP3   OH236800   1.525   1.094   6.014
12286TIP3    H136801   1.587   1.127   5.949
12286TIP3    H236802   1.577   1.036   6.069
12287TIP3   OH236803   3.015   5.560   1.955
12287TIP3    H136804   3.054   5.578   1.869
12287TIP3    H236805   3.069   5.610   2.017
12288TIP3   OH236806   7.566   0.056   2.191
12288TIP3    H136807   7.604  -0.031   2.205
12288TIP3    H236808   7.594   0.081   2.103
12289TIP3   OH236809   1.950   1.782   1.903
12289TIP3    H136810   1.931   1.874   1.882
12289TIP3    H236811   1.974   1.783   1.996
12290TIP3   OH236812   8.085   6.875   3.798
12290TIP3    H136813   8.036   6.957   3.789
12290TIP3    H236814   8.105   6.849   3.708
12291TIP3   OH236815   6.425   4.820   2.281
12291TIP3    H136816   6.451   4.846   2.192
12291TIP3    H236817   6.491   4.756   2.308
12292TIP3   OH236818   7.546   6.782   5.288
12292TIP3    H136819   7.476   6.743   5.237
12292TIP3    H236820   7.624   6.773   5.233
12293TIP3   OH236821   0.483   6.495   0.595
12293TIP3    H136822   0.396   6.473   0.629
12293TIP3    H236823   0.487   6.590   0.599
12294TIP3   OH236824   6.043   0.926   3.245
12294TIP3    H136825   6.035   1.016   3.275
12294TIP3    H236826   5.984   0.876   3.302
12295TIP3   OH236827   5.598   5.393   6.642
12295TIP3    H136828   5.532   5.338   6.685
12295TIP3    H236829   5.610   5.467   6.702
12296TIP3   OH236830   2.793   2.454   1.769
12296TIP3    H136831   2.887   2.442   1.777
12296TIP3    H236832   2.783   2.538   1.723
12297TIP3   OH236833   7.604   2.273   1.443
12297TIP3    H136834   7.539   2.213   1.480
12297TIP3    H236835   7.572   2.293   1.355
12298TIP3   OH236836   8.171   4.351   1.216
12298TIP3    H136837   8.197   4.400   1.294
12298TIP3    H236838   8.245   4.293   1.198
12299TIP3   OH236839   8.000   2.592   0.365
12299TIP3    H136840   7.931   2.650   0.332
12299TIP3    H236841   8.065   2.589   0.295
12300TIP3   OH236842   0.044   0.436   2.852
12300TIP3    H136843  -0.016   0.504   2.822
12300TIP3    H236844   0.121   0.444   2.796
12301TIP3   OH236845   0.511   4.586   3.196
12301TIP3    H136846   0.594   4.587   3.243
12301TIP3    H236847   0.509   4.502   3.151
12302TIP3   OH236848   8.046   3.002   5.995
12302TIP3    H136849   7.984   3.030   5.928
12302TIP3    H236850   8.113   2.954   5.947
12303TIP3   OH236851   5.452   4.543   2.328
12303TIP3    H136852   5.447   4.488   2.250
12303TIP3    H236853   5.363   4.542   2.363
12304TIP3   OH236854   7.930   7.644   1.121
12304TIP3    H136855   7.878   7.617   1.196
12304TIP3    H236856   8.018   7.612   1.139
12305TIP3   OH236857   6.941   1.750   3.842
12305TIP3    H136858   6.947   1.654   3.836
12305TIP3    H236859   6.849   1.767   3.858
12306TIP3   OH236860   3.476   1.260   1.069
12306TIP3    H136861   3.510   1.249   0.980
12306TIP3    H236862   3.409   1.328   1.061
12307TIP3   OH236863   6.488   7.493   4.840
12307TIP3    H136864   6.430   7.514   4.914
12307TIP3    H236865   6.496   7.397   4.842
12308TIP3   OH236866   0.859   3.167   5.632
12308TIP3    H136867   0.816   3.211   5.559
12308TIP3    H236868   0.790   3.112   5.670
12309TIP3   OH236869   1.272   0.506   2.060
12309TIP3    H136870   1.292   0.440   2.126
12309TIP3    H236871   1.180   0.529   2.075
12310TIP3   OH236872   5.867   3.077   2.002
12310TIP3    H136873   5.952   3.072   2.046
12310TIP3    H236874   5.809   3.023   2.055
12311TIP3   OH236875   3.145   3.001   6.102
12311TIP3    H136876   3.107   2.926   6.147
12311TIP3    H236877   3.170   2.968   6.016
12312TIP3   OH236878   0.031   7.425   0.428
12312TIP3    H136879   0.015   7.435   0.335
12312TIP3    H236880   0.096   7.493   0.449
12313TIP3   OH236881   4.621   3.636   2.379
12313TIP3    H136882   4.652   3.720   2.412
12313TIP3    H236883   4.525   3.641   2.388
12314TIP3   OH236884   2.168   3.380   4.715
12314TIP3    H136885   2.257   3.365   4.683
12314TIP3    H236886   2.113   3.379   4.637
12315TIP3   OH236887   0.049   3.511   6.656
12315TIP3    H136888   0.054   3.491   6.749
12315TIP3    H236889   0.138   3.495   6.623
12316TIP3   OH236890   1.723   0.573   4.505
12316TIP3    H136891   1.661   0.639   4.537
12316TIP3    H236892   1.800   0.585   4.561
12317TIP3   OH236893   4.296   6.331   3.240
12317TIP3    H136894   4.331   6.275   3.171
12317TIP3    H236895   4.202   6.315   3.238
12318TIP3   OH236896   0.897   4.447   0.635
12318TIP3    H136897   0.835   4.488   0.695
12318TIP3    H236898   0.928   4.518   0.579
12319TIP3   OH236899   8.150   4.607   2.925
12319TIP3    H136900   8.124   4.539   2.987
12319TIP3    H236901   8.070   4.657   2.910
12320TIP3   OH236902   7.708   7.245   5.906
12320TIP3    H136903   7.669   7.318   5.858
12320TIP3    H236904   7.636   7.212   5.960
12321TIP3   OH236905   7.528   6.922   3.226
12321TIP3    H136906   7.609   6.962   3.194
12321TIP3    H236907   7.521   6.951   3.317
12322TIP3   OH236908   0.719   2.322   1.214
12322TIP3    H136909   0.673   2.238   1.221
12322TIP3    H236910   0.812   2.298   1.214
12323TIP3   OH236911   3.080   2.178   0.739
12323TIP3    H136912   3.056   2.127   0.662
12323TIP3    H236913   3.003   2.231   0.758
12324TIP3   OH236914   2.644   0.739   1.082
12324TIP3    H136915   2.698   0.675   1.036
12324TIP3    H236916   2.594   0.782   1.013
12325TIP3   OH236917   1.111   2.942   6.525
12325TIP3    H136918   1.167   2.919   6.451
12325TIP3    H236919   1.053   3.010   6.492
12326TIP3   OH236920   5.916   5.370   5.504
12326TIP3    H136921   5.850   5.436   5.526
12326TIP3    H236922   5.871   5.310   5.444
12327TIP3   OH236923   2.396   3.447   0.438
12327TIP3    H136924   2.356   3.534   0.428
12327TIP3    H236925   2.371   3.420   0.526
12328TIP3   OH236926   3.790   0.596   6.738
12328TIP3    H136927   3.723   0.558   6.681
12328TIP3    H236928   3.782   0.549   6.820
12329TIP3   OH236929   6.876   2.644   1.624
12329TIP3    H136930   6.834   2.723   1.589
12329TIP3    H236931   6.899   2.593   1.547
12330TIP3   OH236932   3.393   7.183   3.683
12330TIP3    H136933   3.481   7.154   3.658
12330TIP3    H236934   3.399   7.278   3.687
12331TIP3   OH236935   7.287   1.154   1.898
12331TIP3    H136936   7.260   1.180   1.986
12331TIP3    H236937   7.364   1.099   1.912
12332TIP3   OH236938   3.853   2.064   5.061
12332TIP3    H136939   3.783   2.125   5.037
12332TIP3    H236940   3.906   2.111   5.124
12333TIP3   OH236941   6.801   6.508   0.666
12333TIP3    H136942   6.736   6.507   0.736
12333TIP3    H236943   6.855   6.585   0.685
12334TIP3   OH236944   8.170   2.470   2.466
12334TIP3    H136945   8.117   2.518   2.403
12334TIP3    H236946   8.159   2.517   2.549
12335TIP3   OH236947   2.775   6.777   3.903
12335TIP3    H136948   2.752   6.863   3.868
12335TIP3    H236949   2.866   6.786   3.932
12336TIP3   OH236950   5.711   0.275   0.631
12336TIP3    H136951   5.700   0.344   0.696
12336TIP3    H236952   5.707   0.194   0.681
12337TIP3   OH236953   7.814   5.847   0.787
12337TIP3    H136954   7.842   5.935   0.762
12337TIP3    H236955   7.829   5.795   0.709
12338TIP3   OH236956   2.469   3.686   4.467
12338TIP3    H136957   2.482   3.690   4.562
12338TIP3    H236958   2.543   3.633   4.435
12339TIP3   OH236959   2.924   3.083   4.125
12339TIP3    H136960   2.977   3.017   4.169
12339TIP3    H236961   2.897   3.143   4.196
12340TIP3   OH236962   4.339   7.270   5.819
12340TIP3    H136963   4.435   7.277   5.826
12340TIP3    H236964   4.311   7.355   5.785
12341TIP3   OH236965   4.632   0.248   3.996
12341TIP3    H136966   4.631   0.190   3.920
12341TIP3    H236967   4.681   0.200   4.062
12342TIP3   OH236968   2.310   0.224   1.822
12342TIP3    H136969   2.275   0.144   1.861
12342TIP3    H236970   2.401   0.227   1.851
12343TIP3   OH236971   0.340   3.343   1.073
12343TIP3    H136972   0.421   3.295   1.083
12343TIP3    H236973   0.283   3.285   1.023
12344TIP3   OH236974   0.698   4.191   6.078
12344TIP3    H136975   0.726   4.239   6.155
12344TIP3    H236976   0.773   4.138   6.053
12345TIP3   OH236977   1.413   4.727   2.604
12345TIP3    H136978   1.367   4.762   2.681
12345TIP3    H236979   1.495   4.693   2.639
12346TIP3   OH236980   5.831   3.045   3.443
12346TIP3    H136981   5.847   3.076   3.353
12346TIP3    H236982   5.859   2.954   3.442
12347TIP3   OH236983   1.769   0.215   5.748
12347TIP3    H136984   1.709   0.146   5.719
12347TIP3    H236985   1.711   0.288   5.771
12348TIP3   OH236986   6.670   3.801   0.320
12348TIP3    H136987   6.741   3.840   0.269
12348TIP3    H236988   6.591   3.821   0.271
12349TIP3   OH236989   4.848   1.165   3.452
12349TIP3    H136990   4.852   1.258   3.430
12349TIP3    H236991   4.763   1.136   3.416
12350TIP3   OH236992   0.688   6.239   1.969
12350TIP3    H136993   0.631   6.197   2.034
12350TIP3    H236994   0.645   6.323   1.951
12351TIP3   OH236995   2.186   2.496   3.223
12351TIP3    H136996   2.112   2.507   3.163
12351TIP3    H236997   2.258   2.465   3.167
12352TIP3   OH236998   6.693   4.487   0.664
12352TIP3    H136999   6.650   4.564   0.628
12352TIP3    H237000   6.771   4.475   0.609
12353TIP3   OH237001   5.602   5.166   0.850
12353TIP3    H137002   5.575   5.135   0.764
12353TIP3    H237003   5.684   5.213   0.833
12354TIP3   OH237004   6.651   1.751   3.849
12354TIP3    H137005   6.676   1.674   3.798
12354TIP3    H237006   6.556   1.744   3.859
12355TIP3   OH237007   7.333   0.485   4.391
12355TIP3    H137008   7.406   0.462   4.448
12355TIP3    H237009   7.293   0.402   4.367
12356TIP3   OH237010   2.292   3.832   1.057
12356TIP3    H137011   2.281   3.786   1.140
12356TIP3    H237012   2.250   3.917   1.071
12357TIP3   OH237013   2.799   6.431   0.718
12357TIP3    H137014   2.850   6.352   0.733
12357TIP3    H237015   2.734   6.432   0.788
12358TIP3   OH237016   3.954   3.042   4.472
12358TIP3    H137017   3.996   3.128   4.476
12358TIP3    H237018   4.027   2.982   4.456
12359TIP3   OH237019   1.500   6.858   4.811
12359TIP3    H137020   1.414   6.822   4.832
12359TIP3    H237021   1.558   6.821   4.877
12360TIP3   OH237022   0.145   2.798   0.107
12360TIP3    H137023   0.159   2.790   0.013
12360TIP3    H237024   0.144   2.893   0.123
12361TIP3   OH237025   2.553   1.272   0.529
12361TIP3    H137026   2.471   1.240   0.492
12361TIP3    H237027   2.573   1.210   0.600
12362TIP3   OH237028   6.680   3.814   2.559
12362TIP3    H137029   6.667   3.728   2.598
12362TIP3    H237030   6.617   3.817   2.487
12363TIP3   OH237031   4.486   6.327   4.070
12363TIP3    H137032   4.394   6.344   4.049
12363TIP3    H237033   4.500   6.235   4.045
12364TIP3   OH237034   2.968   3.902   1.225
12364TIP3    H137035   3.055   3.887   1.261
12364TIP3    H237036   2.984   3.935   1.137
12365TIP3   OH237037   3.743   3.647   5.778
12365TIP3    H137038   3.824   3.684   5.742
12365TIP3    H237039   3.725   3.701   5.855
12366TIP3   OH237040   5.905   0.422   0.179
12366TIP3    H137041   5.932   0.482   0.110
12366TIP3    H237042   5.876   0.480   0.250
12367TIP3   OH237043   5.858   4.608   4.298
12367TIP3    H137044   5.924   4.618   4.366
12367TIP3    H237045   5.907   4.604   4.216
12368TIP3   OH237046   4.867   4.239   2.930
12368TIP3    H137047   4.921   4.162   2.913
12368TIP3    H237048   4.878   4.293   2.852
12369TIP3   OH237049   8.013   5.886   5.274
12369TIP3    H137050   8.050   5.952   5.215
12369TIP3    H237051   8.035   5.917   5.361
12370TIP3   OH237052   3.688   4.474   0.062
12370TIP3    H137053   3.761   4.518   0.107
12370TIP3    H237054   3.725   4.391   0.033
12371TIP3   OH237055   0.310   2.619   1.871
12371TIP3    H137056   0.371   2.564   1.822
12371TIP3    H237057   0.287   2.688   1.809
12372TIP3   OH237058   3.727   6.549   3.596
12372TIP3    H137059   3.684   6.528   3.513
12372TIP3    H237060   3.657   6.584   3.651
12373TIP3   OH237061   4.522   1.407   0.562
12373TIP3    H137062   4.557   1.319   0.547
12373TIP3    H237063   4.598   1.459   0.590
12374TIP3   OH237064   5.612   6.606   2.606
12374TIP3    H137065   5.562   6.682   2.576
12374TIP3    H237066   5.548   6.553   2.653
12375TIP3   OH237067   4.942   2.059   3.817
12375TIP3    H137068   4.932   2.108   3.899
12375TIP3    H237069   4.948   1.967   3.845
12376TIP3   OH237070   1.928   1.607   0.308
12376TIP3    H137071   1.925   1.600   0.404
12376TIP3    H237072   1.847   1.566   0.279
12377TIP3   OH237073   4.770   4.333   0.782
12377TIP3    H137074   4.787   4.426   0.773
12377TIP3    H237075   4.674   4.327   0.788
12378TIP3   OH237076   0.031   2.225   1.400
12378TIP3    H137077   0.122   2.238   1.426
12378TIP3    H237078  -0.011   2.309   1.417
12379TIP3   OH237079   3.083   1.399   4.035
12379TIP3    H137080   3.127   1.452   3.968
12379TIP3    H237081   3.110   1.309   4.017
12380TIP3   OH237082   0.678   3.131   2.566
12380TIP3    H137083   0.768   3.163   2.561
12380TIP3    H237084   0.645   3.164   2.650
12381TIP3   OH237085   7.470   6.507   4.701
12381TIP3    H137086   7.481   6.547   4.614
12381TIP3    H237087   7.531   6.434   4.702
12382TIP3   OH237088   4.494   5.493   3.966
12382TIP3    H137089   4.445   5.518   3.887
12382TIP3    H237090   4.460   5.407   3.989
12383TIP3   OH237091   7.786   0.790   2.629
12383TIP3    H137092   7.844   0.823   2.560
12383TIP3    H237093   7.771   0.866   2.685
12384TIP3   OH237094   8.152   0.161   0.640
12384TIP3    H137095   8.085   0.121   0.584
12384TIP3    H237096   8.190   0.088   0.688
12385TIP3   OH237097   3.149   5.237   4.849
12385TIP3    H137098   3.085   5.197   4.789
12385TIP3    H237099   3.206   5.164   4.874
12386TIP3   OH237100   3.983   1.417   2.809
12386TIP3    H137101   3.903   1.453   2.772
12386TIP3    H237102   3.990   1.329   2.773
12387TIP3   OH237103   3.697   7.513   5.790
12387TIP3    H137104   3.608   7.496   5.760
12387TIP3    H237105   3.752   7.453   5.740
12388TIP3   OH237106   6.991   6.296   0.742
12388TIP3    H137107   6.990   6.328   0.832
12388TIP3    H237108   6.937   6.359   0.694
12389TIP3   OH237109   0.984   5.395   6.682
12389TIP3    H137110   1.072   5.356   6.683
12389TIP3    H237111   0.998   5.482   6.644
12390TIP3   OH237112   0.171   4.359   3.779
12390TIP3    H137113   0.185   4.366   3.684
12390TIP3    H237114   0.212   4.276   3.803
12391TIP3   OH237115   4.020   3.765   3.056
12391TIP3    H137116   4.033   3.796   2.966
12391TIP3    H237117   4.068   3.682   3.059
12392TIP3   OH237118   4.859   2.620   6.214
12392TIP3    H137119   4.821   2.670   6.142
12392TIP3    H237120   4.905   2.686   6.267
12393TIP3   OH237121   3.273   6.991   1.538
12393TIP3    H137122   3.206   7.050   1.505
12393TIP3    H237123   3.282   7.014   1.630
12394TIP3   OH237124   1.240   4.048   3.053
12394TIP3    H137125   1.302   3.976   3.045
12394TIP3    H237126   1.291   4.126   3.034
12395TIP3   OH237127   6.977   0.053   4.412
12395TIP3    H137128   6.957   0.108   4.337
12395TIP3    H237129   6.914  -0.019   4.406
12396TIP3   OH237130   0.595   0.675   4.720
12396TIP3    H137131   0.671   0.620   4.739
12396TIP3    H237132   0.628   0.739   4.656
12397TIP3   OH237133   1.471   1.478   3.464
12397TIP3    H137134   1.415   1.434   3.401
12397TIP3    H237135   1.469   1.421   3.541
12398TIP3   OH237136   2.187   0.255   6.461
12398TIP3    H137137   2.103   0.257   6.416
12398TIP3    H237138   2.251   0.277   6.392
12399TIP3   OH237139   0.542   6.375   3.342
12399TIP3    H137140   0.626   6.329   3.350
12399TIP3    H237141   0.553   6.456   3.391
12400TIP3   OH237142   4.196   1.979   5.262
12400TIP3    H137143   4.163   1.959   5.349
12400TIP3    H237144   4.283   1.940   5.259
12401TIP3   OH237145   1.796   7.751   1.669
12401TIP3    H137146   1.849   7.719   1.742
12401TIP3    H237147   1.781   7.843   1.689
12402TIP3   OH237148   8.140   1.775   0.385
12402TIP3    H137149   8.200   1.845   0.358
12402TIP3    H237150   8.183   1.733   0.459
12403TIP3   OH237151   4.093   6.403   5.897
12403TIP3    H137152   4.129   6.325   5.855
12403TIP3    H237153   3.999   6.396   5.884
12404TIP3   OH237154   3.591   3.557   3.911
12404TIP3    H137155   3.611   3.474   3.955
12404TIP3    H237156   3.605   3.624   3.977
12405TIP3   OH237157   2.964   4.450   2.181
12405TIP3    H137158   3.027   4.435   2.252
12405TIP3    H237159   2.883   4.474   2.226
12406TIP3   OH237160   2.496   2.028   6.548
12406TIP3    H137161   2.443   2.100   6.514
12406TIP3    H237162   2.586   2.056   6.533
12407TIP3   OH237163   3.079   0.629   4.532
12407TIP3    H137164   3.000   0.680   4.552
12407TIP3    H237165   3.052   0.570   4.461
12408TIP3   OH237166   0.770   7.774   1.337
12408TIP3    H137167   0.694   7.731   1.375
12408TIP3    H237168   0.841   7.755   1.399
12409TIP3   OH237169   6.927   4.255   1.313
12409TIP3    H137170   7.014   4.220   1.329
12409TIP3    H237171   6.906   4.228   1.223
12410TIP3   OH237172   1.536   0.049   1.864
12410TIP3    H137173   1.555  -0.035   1.822
12410TIP3    H237174   1.599   0.110   1.825
12411TIP3   OH237175   5.843   1.054   0.332
12411TIP3    H137176   5.918   1.101   0.294
12411TIP3    H237177   5.778   1.122   0.347
12412TIP3   OH237178   0.583   6.721   2.116
12412TIP3    H137179   0.676   6.699   2.118
12412TIP3    H237180   0.571   6.771   2.035
12413TIP3   OH237181   1.201   1.858   4.047
12413TIP3    H137182   1.190   1.842   3.954
12413TIP3    H237183   1.211   1.771   4.085
12414TIP3   OH237184   0.574   7.330   2.170
12414TIP3    H137185   0.630   7.283   2.109
12414TIP3    H237186   0.505   7.268   2.192
12415TIP3   OH237187   0.180   5.038   3.646
12415TIP3    H137188   0.146   4.956   3.609
12415TIP3    H237189   0.263   5.012   3.686
12416TIP3   OH237190   6.213   5.793   3.434
12416TIP3    H137191   6.225   5.704   3.467
12416TIP3    H237192   6.126   5.793   3.395
12417TIP3   OH237193   4.865   3.454   0.305
12417TIP3    H137194   4.925   3.464   0.379
12417TIP3    H237195   4.867   3.361   0.285
12418TIP3   OH237196   5.422   6.391   4.237
12418TIP3    H137197   5.470   6.332   4.295
12418TIP3    H237198   5.464   6.476   4.250
12419TIP3   OH237199   3.582   3.824   6.063
12419TIP3    H137200   3.489   3.826   6.043
12419TIP3    H237201   3.611   3.914   6.054
12420TIP3   OH237202   7.367   3.893   2.735
12420TIP3    H137203   7.276   3.920   2.747
12420TIP3    H237204   7.413   3.930   2.810
12421TIP3   OH237205   6.451   5.894   4.271
12421TIP3    H137206   6.456   5.820   4.331
12421TIP3    H237207   6.438   5.853   4.185
12422TIP3   OH237208   4.661   6.731   5.261
12422TIP3    H137209   4.656   6.635   5.261
12422TIP3    H237210   4.649   6.756   5.352
12423TIP3   OH237211   3.701   6.491   1.195
12423TIP3    H137212   3.739   6.519   1.112
12423TIP3    H237213   3.624   6.545   1.207
12424TIP3   OH237214   2.724   6.505   3.451
12424TIP3    H137215   2.725   6.545   3.538
12424TIP3    H237216   2.671   6.426   3.463
12425TIP3   OH237217   1.624   2.909   0.223
12425TIP3    H137218   1.536   2.902   0.185
12425TIP3    H237219   1.641   3.004   0.225
12426TIP3   OH237220   4.252   2.658   3.093
12426TIP3    H137221   4.269   2.598   3.165
12426TIP3    H237222   4.164   2.636   3.062
12427TIP3   OH237223   3.766   1.969   2.329
12427TIP3    H137224   3.758   2.045   2.271
12427TIP3    H237225   3.688   1.917   2.311
12428TIP3   OH237226   7.248   6.367   0.164
12428TIP3    H137227   7.252   6.424   0.087
12428TIP3    H237228   7.334   6.377   0.205
12429TIP3   OH237229   4.140   7.439   5.446
12429TIP3    H137230   4.091   7.368   5.404
12429TIP3    H237231   4.150   7.505   5.378
12430TIP3   OH237232   1.743   4.020   4.528
12430TIP3    H137233   1.672   4.053   4.583
12430TIP3    H237234   1.750   4.083   4.456
12431TIP3   OH237235   6.725   1.341   4.029
12431TIP3    H137236   6.699   1.391   3.952
12431TIP3    H237237   6.648   1.341   4.086
12432TIP3   OH237238   4.905   6.242   1.657
12432TIP3    H137239   4.815   6.270   1.676
12432TIP3    H237240   4.906   6.149   1.681
12433TIP3   OH237241   6.775   1.722   3.581
12433TIP3    H137242   6.717   1.650   3.606
12433TIP3    H237243   6.856   1.679   3.555
12434TIP3   OH237244   1.273   0.095   6.458
12434TIP3    H137245   1.304   0.166   6.513
12434TIP3    H237246   1.331   0.095   6.382
12435TIP3   OH237247   6.110   5.902   5.290
12435TIP3    H137248   6.078   5.866   5.208
12435TIP3    H237249   6.074   5.845   5.358
12436TIP3   OH237250   0.328   3.552   6.195
12436TIP3    H137251   0.272   3.629   6.197
12436TIP3    H237252   0.392   3.568   6.264
12437TIP3   OH237253   5.192   4.986   1.656
12437TIP3    H137254   5.278   5.028   1.657
12437TIP3    H237255   5.134   5.049   1.699
12438TIP3   OH237256   5.282   2.048   5.598
12438TIP3    H137257   5.261   2.110   5.529
12438TIP3    H237258   5.230   1.970   5.577
12439TIP3   OH237259   6.119   6.042   4.302
12439TIP3    H137260   6.207   6.064   4.334
12439TIP3    H237261   6.118   6.076   4.212
12440TIP3   OH237262   5.649   0.771   5.215
12440TIP3    H137263   5.589   0.735   5.280
12440TIP3    H237264   5.736   0.742   5.244
12441TIP3   OH237265   0.867   0.736   3.886
12441TIP3    H137266   0.782   0.696   3.868
12441TIP3    H237267   0.925   0.661   3.902
12442TIP3   OH237268   7.388   2.290   2.836
12442TIP3    H137269   7.365   2.285   2.743
12442TIP3    H237270   7.478   2.258   2.840
12443TIP3   OH237271   6.660   6.710   6.283
12443TIP3    H137272   6.742   6.760   6.285
12443TIP3    H237273   6.594   6.770   6.319
12444TIP3   OH237274   3.404   5.360   1.453
12444TIP3    H137275   3.419   5.418   1.378
12444TIP3    H237276   3.370   5.418   1.522
12445TIP3   OH237277   1.542   3.495   1.280
12445TIP3    H137278   1.455   3.535   1.283
12445TIP3    H237279   1.600   3.560   1.319
12446TIP3   OH237280   3.709   2.466   2.046
12446TIP3    H137281   3.645   2.524   2.085
12446TIP3    H237282   3.748   2.419   2.120
12447TIP3   OH237283   0.294   1.051   1.161
12447TIP3    H137284   0.280   0.961   1.133
12447TIP3    H237285   0.329   1.095   1.083
12448TIP3   OH237286   7.782   5.436   2.138
12448TIP3    H137287   7.752   5.356   2.095
12448TIP3    H237288   7.839   5.478   2.073
12449TIP3   OH237289   7.842   3.312   6.511
12449TIP3    H137290   7.937   3.295   6.514
12449TIP3    H237291   7.832   3.383   6.448
12450TIP3   OH237292   4.984   4.309   5.520
12450TIP3    H137293   4.925   4.285   5.449
12450TIP3    H237294   4.992   4.404   5.515
12451TIP3   OH237295   3.413   3.013   0.488
12451TIP3    H137296   3.397   3.034   0.396
12451TIP3    H237297   3.498   2.969   0.488
12452TIP3   OH237298   1.860   1.418   4.240
12452TIP3    H137299   1.825   1.362   4.309
12452TIP3    H237300   1.797   1.490   4.233
12453TIP3   OH237301   2.864   7.391   6.343
12453TIP3    H137302   2.790   7.451   6.355
12453TIP3    H237303   2.932   7.445   6.303
12454TIP3   OH237304   7.532   6.972   1.662
12454TIP3    H137305   7.543   7.064   1.641
12454TIP3    H237306   7.606   6.951   1.720
12455TIP3   OH237307   3.109   2.540   6.007
12455TIP3    H137308   3.061   2.468   6.048
12455TIP3    H237309   3.197   2.506   5.995
12456TIP3   OH237310   5.906   4.692   1.275
12456TIP3    H137311   5.897   4.682   1.369
12456TIP3    H237312   5.892   4.604   1.240
12457TIP3   OH237313   3.817   3.423   5.646
12457TIP3    H137314   3.780   3.507   5.674
12457TIP3    H237315   3.910   3.429   5.669
12458TIP3   OH237316   5.835   6.055   4.906
12458TIP3    H137317   5.754   6.027   4.949
12458TIP3    H237318   5.883   5.974   4.891
12459TIP3   OH237319   3.577   0.668   3.074
12459TIP3    H137320   3.631   0.697   3.000
12459TIP3    H237321   3.641   0.638   3.139
12460TIP3   OH237322   6.752   5.693   5.564
12460TIP3    H137323   6.810   5.627   5.602
12460TIP3    H237324   6.681   5.702   5.628
12461TIP3   OH237325   2.105   2.019   3.881
12461TIP3    H137326   2.067   1.946   3.832
12461TIP3    H237327   2.077   2.004   3.971
12462TIP3   OH237328   3.831   1.933   2.911
12462TIP3    H137329   3.787   2.016   2.928
12462TIP3    H237330   3.881   1.948   2.831
12463TIP3   OH237331   1.086   5.610   0.557
12463TIP3    H137332   1.101   5.582   0.467
12463TIP3    H237333   1.171   5.640   0.587
12464TIP3   OH237334   6.643   0.509   2.734
12464TIP3    H137335   6.671   0.589   2.778
12464TIP3    H237336   6.719   0.451   2.739
12465TIP3   OH237337   5.286   2.089   2.507
12465TIP3    H137338   5.331   2.101   2.424
12465TIP3    H237339   5.220   2.159   2.509
12466TIP3   OH237340   6.947   6.924   2.978
12466TIP3    H137341   6.917   7.004   3.022
12466TIP3    H237342   6.967   6.863   3.049
12467TIP3   OH237343   0.330   6.641   3.927
12467TIP3    H137344   0.363   6.709   3.867
12467TIP3    H237345   0.257   6.601   3.879
12468TIP3   OH237346   1.584   5.476   1.762
12468TIP3    H137347   1.580   5.570   1.783
12468TIP3    H237348   1.673   5.464   1.729
12469TIP3   OH237349   1.638   6.815   2.479
12469TIP3    H137350   1.646   6.910   2.478
12469TIP3    H237351   1.587   6.795   2.400
12470TIP3   OH237352   6.262   2.249   4.311
12470TIP3    H137353   6.334   2.186   4.306
12470TIP3    H237354   6.262   2.291   4.225
12471TIP3   OH237355   2.195   1.397   6.446
12471TIP3    H137356   2.147   1.321   6.479
12471TIP3    H237357   2.245   1.364   6.372
12472TIP3   OH237358   4.582   4.742   5.999
12472TIP3    H137359   4.495   4.770   5.969
12472TIP3    H237360   4.594   4.656   5.960
12473TIP3   OH237361   8.288   2.712   5.183
12473TIP3    H137362   8.209   2.760   5.160
12473TIP3    H237363   8.328   2.763   5.253
12474TIP3   OH237364   5.507   4.898   3.795
12474TIP3    H137365   5.445   4.968   3.772
12474TIP3    H237366   5.475   4.821   3.748
12475TIP3   OH237367   5.920   4.238   3.322
12475TIP3    H137368   5.944   4.202   3.408
12475TIP3    H237369   5.848   4.297   3.340
12476TIP3   OH237370   4.645   0.482   1.802
12476TIP3    H137371   4.688   0.420   1.862
12476TIP3    H237372   4.707   0.491   1.730
12477TIP3   OH237373   3.198   0.133   5.497
12477TIP3    H137374   3.263   0.196   5.528
12477TIP3    H237375   3.195   0.146   5.403
12478TIP3   OH237376   0.026   7.388   4.357
12478TIP3    H137377   0.073   7.308   4.333
12478TIP3    H237378  -0.066   7.364   4.354
12479TIP3   OH237379   3.009   5.875   0.840
12479TIP3    H137380   2.939   5.865   0.904
12479TIP3    H237381   3.089   5.873   0.892
12480TIP3   OH237382   1.574   1.553   2.759
12480TIP3    H137383   1.604   1.611   2.829
12480TIP3    H237384   1.485   1.530   2.784
12481TIP3   OH237385   5.788   6.347   4.310
12481TIP3    H137386   5.766   6.272   4.255
12481TIP3    H237387   5.830   6.409   4.251
12482TIP3   OH237388   6.882   0.662   3.481
12482TIP3    H137389   6.895   0.752   3.451
12482TIP3    H237390   6.918   0.660   3.569
12483TIP3   OH237391   4.483   3.191   5.372
12483TIP3    H137392   4.573   3.207   5.344
12483TIP3    H237393   4.428   3.234   5.307
12484TIP3   OH237394   1.406   2.902   2.833
12484TIP3    H137395   1.399   2.864   2.921
12484TIP3    H237396   1.460   2.980   2.845
12485TIP3   OH237397   0.297   4.206   1.864
12485TIP3    H137398   0.383   4.203   1.906
12485TIP3    H237399   0.272   4.299   1.865
12486TIP3   OH237400   3.776   0.765   4.987
12486TIP3    H137401   3.833   0.812   5.047
12486TIP3    H237402   3.687   0.787   5.015
12487TIP3   OH237403   6.684   6.292   5.963
12487TIP3    H137404   6.679   6.326   6.052
12487TIP3    H237405   6.707   6.199   5.973
12488TIP3   OH237406   1.065   5.970   5.813
12488TIP3    H137407   1.016   6.019   5.879
12488TIP3    H237408   1.135   6.029   5.786
12489TIP3   OH237409   6.116   3.789   4.404
12489TIP3    H137410   6.031   3.789   4.448
12489TIP3    H237411   6.095   3.801   4.312
12490TIP3   OH237412   6.589   7.300   5.121
12490TIP3    H137413   6.651   7.373   5.128
12490TIP3    H237414   6.503   7.339   5.139
12491TIP3   OH237415   7.050   5.710   0.321
12491TIP3    H137416   7.060   5.684   0.412
12491TIP3    H237417   7.125   5.669   0.277
12492TIP3   OH237418   2.261   3.061   2.373
12492TIP3    H137419   2.190   2.996   2.372
12492TIP3    H237420   2.299   3.056   2.285
12493TIP3   OH237421   8.022   1.313   0.917
12493TIP3    H137422   8.021   1.239   0.856
12493TIP3    H237423   7.937   1.311   0.960
12494TIP3   OH237424   1.371   2.347   2.140
12494TIP3    H137425   1.341   2.435   2.164
12494TIP3    H237426   1.384   2.350   2.045
12495TIP3   OH237427   4.251   0.616   0.783
12495TIP3    H137428   4.228   0.603   0.691
12495TIP3    H237429   4.180   0.575   0.832
12496TIP3   OH237430   2.146   5.035   3.738
12496TIP3    H137431   2.185   5.089   3.670
12496TIP3    H237432   2.053   5.028   3.714
12497TIP3   OH237433   1.241   3.942   0.233
12497TIP3    H137434   1.169   3.879   0.230
12497TIP3    H237435   1.304   3.905   0.294
12498TIP3   OH237436   2.551   0.818   0.820
12498TIP3    H137437   2.645   0.807   0.807
12498TIP3    H237438   2.513   0.802   0.734
12499TIP3   OH237439   2.604   0.118   4.992
12499TIP3    H137440   2.559   0.176   4.930
12499TIP3    H237441   2.669   0.072   4.940
12500TIP3   OH237442   2.833   3.045   0.994
12500TIP3    H137443   2.856   3.131   0.960
12500TIP3    H237444   2.849   3.051   1.088
12501TIP3   OH237445   1.165   5.083   4.776
12501TIP3    H137446   1.100   5.014   4.783
12501TIP3    H237447   1.128   5.145   4.714
12502TIP3   OH237448   1.322   2.349   0.559
12502TIP3    H137449   1.271   2.271   0.537
12502TIP3    H237450   1.260   2.422   0.554
12503TIP3   OH237451   7.228   0.821   1.208
12503TIP3    H137452   7.306   0.806   1.155
12503TIP3    H237453   7.220   0.743   1.262
12504TIP3   OH237454   7.835   6.427   4.195
12504TIP3    H137455   7.813   6.369   4.123
12504TIP3    H237456   7.898   6.489   4.157
12505TIP3   OH237457   7.814   5.865   4.422
12505TIP3    H137458   7.814   5.820   4.507
12505TIP3    H237459   7.724   5.896   4.411
12506TIP3   OH237460   4.739   1.687   0.304
12506TIP3    H137461   4.645   1.692   0.289
12506TIP3    H237462   4.769   1.778   0.304
12507TIP3   OH237463   5.601   5.625   6.354
12507TIP3    H137464   5.576   5.550   6.300
12507TIP3    H237465   5.543   5.619   6.431
12508TIP3   OH237466   3.966   0.680   5.756
12508TIP3    H137467   3.965   0.746   5.687
12508TIP3    H237468   4.013   0.721   5.829
12509TIP3   OH237469   5.440   3.470   5.027
12509TIP3    H137470   5.422   3.376   5.025
12509TIP3    H237471   5.520   3.481   4.975
12510TIP3   OH237472   2.001   0.619   1.249
12510TIP3    H137473   2.040   0.536   1.221
12510TIP3    H237474   1.965   0.600   1.336
12511TIP3   OH237475   5.636   7.100   2.785
12511TIP3    H137476   5.642   7.013   2.822
12511TIP3    H237477   5.549   7.131   2.810
12512TIP3   OH237478   0.713   1.951   5.848
12512TIP3    H137479   0.731   2.035   5.807
12512TIP3    H237480   0.795   1.901   5.838
12513TIP3   OH237481   3.394   7.259   5.278
12513TIP3    H137482   3.442   7.254   5.360
12513TIP3    H237483   3.447   7.317   5.223
12514TIP3   OH237484   3.346   4.050   2.804
12514TIP3    H137485   3.381   4.139   2.812
12514TIP3    H237486   3.305   4.049   2.717
12515TIP3   OH237487   7.997   5.610   6.158
12515TIP3    H137488   7.942   5.606   6.236
12515TIP3    H237489   7.985   5.525   6.115
12516TIP3   OH237490   2.359   6.699   5.399
12516TIP3    H137491   2.309   6.757   5.457
12516TIP3    H237492   2.307   6.619   5.395
12517TIP3   OH237493   6.136   7.233   4.238
12517TIP3    H137494   6.109   7.255   4.327
12517TIP3    H237495   6.179   7.312   4.206
12518TIP3   OH237496   1.382   7.351   1.445
12518TIP3    H137497   1.449   7.288   1.418
12518TIP3    H237498   1.340   7.310   1.521
12519TIP3   OH237499   8.145   2.999   1.500
12519TIP3    H137500   8.188   2.957   1.575
12519TIP3    H237501   8.057   3.019   1.532
12520TIP3   OH237502   7.764   5.502   0.807
12520TIP3    H137503   7.728   5.432   0.861
12520TIP3    H237504   7.699   5.572   0.814
12521TIP3   OH237505   1.912   3.045   6.167
12521TIP3    H137506   1.861   3.064   6.246
12521TIP3    H237507   1.908   3.126   6.116
12522TIP3   OH237508   3.282   4.375   5.547
12522TIP3    H137509   3.366   4.330   5.550
12522TIP3    H237510   3.251   4.373   5.637
12523TIP3   OH237511   7.146   2.921   6.391
12523TIP3    H137512   7.191   2.862   6.329
12523TIP3    H237513   7.195   3.003   6.385
12524TIP3   OH237514   3.256   3.125   1.229
12524TIP3    H137515   3.320   3.055   1.242
12524TIP3    H237516   3.173   3.086   1.258
12525TIP3   OH237517   1.115   1.603   3.417
12525TIP3    H137518   1.132   1.517   3.456
12525TIP3    H237519   1.182   1.660   3.455
12526TIP3   OH237520   6.003   7.521   0.848
12526TIP3    H137521   5.948   7.457   0.805
12526TIP3    H237522   6.072   7.470   0.890
12527TIP3   OH237523   7.347   1.581   0.552
12527TIP3    H137524   7.326   1.514   0.487
12527TIP3    H237525   7.443   1.584   0.553
12528TIP3   OH237526   1.507   7.601   4.738
12528TIP3    H137527   1.548   7.598   4.824
12528TIP3    H237528   1.536   7.685   4.701
12529TIP3   OH237529   5.833   3.508   1.638
12529TIP3    H137530   5.821   3.415   1.618
12529TIP3    H237531   5.865   3.509   1.728
12530TIP3   OH237532   2.266   7.576   6.466
12530TIP3    H137533   2.253   7.620   6.550
12530TIP3    H237534   2.333   7.510   6.484
12531TIP3   OH237535   1.439   5.285   0.898
12531TIP3    H137536   1.467   5.227   0.826
12531TIP3    H237537   1.345   5.296   0.883
12532TIP3   OH237538   3.958   6.320   0.985
12532TIP3    H137539   3.976   6.400   0.935
12532TIP3    H237540   3.864   6.305   0.972
12533TIP3   OH237541   8.221   6.090   2.583
12533TIP3    H137542   8.225   6.000   2.615
12533TIP3    H237543   8.296   6.133   2.624
12534TIP3   OH237544   5.590   3.585   5.519
12534TIP3    H137545   5.662   3.542   5.472
12534TIP3    H237546   5.523   3.598   5.452
12535TIP3   OH237547   6.702   5.679   2.269
12535TIP3    H137548   6.635   5.616   2.241
12535TIP3    H237549   6.732   5.646   2.354
12536TIP3   OH237550   2.311   3.050   3.680
12536TIP3    H137551   2.353   3.133   3.658
12536TIP3    H237552   2.307   3.049   3.775
12537TIP3   OH237553   0.236   5.308   4.062
12537TIP3    H137554   0.326   5.279   4.044
12537TIP3    H237555   0.219   5.375   3.996
12538TIP3   OH237556   4.958   6.915   5.805
12538TIP3    H137557   4.869   6.919   5.771
12538TIP3    H237558   4.958   6.839   5.862
12539TIP3   OH237559   1.139   5.176   3.444
12539TIP3    H137560   1.084   5.113   3.397
12539TIP3    H237561   1.149   5.138   3.531
12540TIP3   OH237562   0.649   3.723   5.983
12540TIP3    H137563   0.619   3.703   5.894
12540TIP3    H237564   0.571   3.758   6.026
12541TIP3   OH237565   4.605   3.327   5.962
12541TIP3    H137566   4.537   3.361   6.020
12541TIP3    H237567   4.603   3.384   5.885
12542TIP3   OH237568   3.831   4.422   1.713
12542TIP3    H137569   3.913   4.445   1.671
12542TIP3    H237570   3.764   4.469   1.663
12543TIP3   OH237571   4.390   3.372   2.547
12543TIP3    H137572   4.459   3.312   2.519
12543TIP3    H237573   4.366   3.420   2.468
12544TIP3   OH237574   2.390   2.688   1.203
12544TIP3    H137575   2.427   2.606   1.236
12544TIP3    H237576   2.303   2.693   1.244
12545TIP3   OH237577   0.511   1.397   3.391
12545TIP3    H137578   0.540   1.338   3.321
12545TIP3    H237579   0.582   1.396   3.454
12546TIP3   OH237580   8.256   2.609   0.216
12546TIP3    H137581   8.263   2.525   0.170
12546TIP3    H237582   8.330   2.659   0.183
12547TIP3   OH237583   2.096   5.546   3.935
12547TIP3    H137584   2.078   5.614   3.871
12547TIP3    H237585   2.025   5.553   3.999
12548TIP3   OH237586   5.565   5.589   3.997
12548TIP3    H137587   5.653   5.573   3.962
12548TIP3    H237588   5.575   5.667   4.052
12549TIP3   OH237589   6.267   2.057   6.298
12549TIP3    H137590   6.192   2.043   6.355
12549TIP3    H237591   6.322   1.980   6.311
12550TIP3   OH237592   6.728   4.976   5.315
12550TIP3    H137593   6.769   4.987   5.229
12550TIP3    H237594   6.676   4.895   5.306
12551TIP3   OH237595   7.136   5.940   5.349
12551TIP3    H137596   7.045   5.913   5.337
12551TIP3    H237597   7.149   5.940   5.444
12552TIP3   OH237598   0.851   5.488   5.055
12552TIP3    H137599   0.801   5.556   5.010
12552TIP3    H237600   0.841   5.410   5.001
12553TIP3   OH237601   4.155   3.871   0.586
12553TIP3    H137602   4.209   3.792   0.596
12553TIP3    H237603   4.180   3.928   0.658
12554TIP3   OH237604   0.000   5.198   1.925
12554TIP3    H137605  -0.009   5.149   2.007
12554TIP3    H237606   0.055   5.141   1.870
12555TIP3   OH237607   5.952   6.984   4.203
12555TIP3    H137608   5.991   6.969   4.289
12555TIP3    H237609   5.982   7.071   4.177
12556TIP3   OH237610   7.805   6.146   1.226
12556TIP3    H137611   7.860   6.152   1.304
12556TIP3    H237612   7.779   6.236   1.209
12557TIP3   OH237613   1.677   3.926   5.386
12557TIP3    H137614   1.754   3.911   5.331
12557TIP3    H237615   1.700   3.886   5.470
12558TIP3   OH237616   3.731   2.903   3.625
12558TIP3    H137617   3.749   2.892   3.719
12558TIP3    H237618   3.640   2.877   3.616
12559TIP3   OH237619   6.689   2.305   6.633
12559TIP3    H137620   6.667   2.396   6.653
12559TIP3    H237621   6.610   2.269   6.593
12560TIP3   OH237622   0.542   1.079   4.525
12560TIP3    H137623   0.600   1.108   4.455
12560TIP3    H237624   0.571   1.128   4.602
12561TIP3   OH237625   4.432   3.792   0.047
12561TIP3    H137626   4.517   3.767   0.013
12561TIP3    H237627   4.446   3.806   0.141
12562TIP3   OH237628   3.985   3.355   6.409
12562TIP3    H137629   3.892   3.346   6.431
12562TIP3    H237630   3.998   3.295   6.336
12563TIP3   OH237631   5.107   5.625   2.537
12563TIP3    H137632   5.197   5.608   2.510
12563TIP3    H237633   5.115   5.680   2.616
12564TIP3   OH237634   5.642   4.546   3.561
12564TIP3    H137635   5.586   4.602   3.614
12564TIP3    H237636   5.605   4.550   3.473
12565TIP3   OH237637   4.765   6.212   1.984
12565TIP3    H137638   4.787   6.129   1.942
12565TIP3    H237639   4.670   6.219   1.973
12566TIP3   OH237640   7.119   5.354   5.790
12566TIP3    H137641   7.077   5.279   5.747
12566TIP3    H237642   7.176   5.314   5.856
12567TIP3   OH237643   5.652   4.700   6.033
12567TIP3    H137644   5.694   4.786   6.027
12567TIP3    H237645   5.713   4.641   5.988
12568TIP3   OH237646   0.516   6.101   0.855
12568TIP3    H137647   0.435   6.108   0.805
12568TIP3    H237648   0.517   6.010   0.886
12569TIP3   OH237649   5.116   0.924   6.564
12569TIP3    H137650   5.091   0.905   6.654
12569TIP3    H237651   5.183   0.992   6.572
12570TIP3   OH237652   6.402   2.908   3.479
12570TIP3    H137653   6.493   2.877   3.484
12570TIP3    H237654   6.408   2.993   3.435
12571TIP3   OH237655   7.888   6.959   2.763
12571TIP3    H137656   7.927   6.952   2.850
12571TIP3    H237657   7.894   7.053   2.742
12572TIP3   OH237658   2.972   2.101   0.507
12572TIP3    H137659   2.964   2.169   0.440
12572TIP3    H237660   2.985   2.020   0.457
12573TIP3   OH237661   5.845   6.724   5.875
12573TIP3    H137662   5.821   6.651   5.932
12573TIP3    H237663   5.854   6.798   5.933
12574TIP3   OH237664   0.601   2.028   3.286
12574TIP3    H137665   0.661   1.975   3.338
12574TIP3    H237666   0.608   1.991   3.198
12575TIP3   OH237667   3.265   4.918   1.370
12575TIP3    H137668   3.310   4.943   1.290
12575TIP3    H237669   3.295   4.829   1.387
12576TIP3   OH237670   8.107   5.838   4.588
12576TIP3    H137671   8.054   5.762   4.611
12576TIP3    H237672   8.116   5.886   4.671
12577TIP3   OH237673   5.498   4.253   0.822
12577TIP3    H137674   5.480   4.176   0.768
12577TIP3    H237675   5.524   4.321   0.759
12578TIP3   OH237676   5.650   0.340   2.037
12578TIP3    H137677   5.700   0.271   1.994
12578TIP3    H237678   5.581   0.362   1.974
12579TIP3   OH237679   5.054   7.746   1.177
12579TIP3    H137680   5.036   7.684   1.247
12579TIP3    H237681   5.116   7.701   1.120
12580TIP3   OH237682   7.520   4.122   6.331
12580TIP3    H137683   7.478   4.036   6.339
12580TIP3    H237684   7.471   4.166   6.262
12581TIP3   OH237685   1.921   2.014   1.692
12581TIP3    H137686   1.945   1.941   1.635
12581TIP3    H237687   2.005   2.045   1.727
12582TIP3   OH237688   3.174   2.910   6.641
12582TIP3    H137689   3.127   2.842   6.593
12582TIP3    H237690   3.225   2.955   6.574
12583TIP3   OH237691   4.281   6.877   4.056
12583TIP3    H137692   4.376   6.871   4.046
12583TIP3    H237693   4.267   6.921   4.140
12584TIP3   OH237694   4.107   5.504   0.000
12584TIP3    H137695   4.089   5.594  -0.028
12584TIP3    H237696   4.053   5.493   0.079
12585TIP3   OH237697   4.240   7.702   2.644
12585TIP3    H137698   4.265   7.620   2.686
12585TIP3    H237699   4.146   7.690   2.625
12586TIP3   OH237700   2.031   3.733   0.861
12586TIP3    H137701   2.072   3.658   0.817
12586TIP3    H237702   2.021   3.705   0.952
12587TIP3   OH237703   4.580   6.829   4.045
12587TIP3    H137704   4.640   6.761   4.074
12587TIP3    H237705   4.636   6.905   4.030
12588TIP3   OH237706   4.351   7.524   1.861
12588TIP3    H137707   4.314   7.452   1.912
12588TIP3    H237708   4.286   7.594   1.865
12589TIP3   OH237709   6.596   2.631   4.536
12589TIP3    H137710   6.675   2.584   4.510
12589TIP3    H237711   6.569   2.678   4.458
12590TIP3   OH237712   5.898   4.875   0.995
12590TIP3    H137713   5.954   4.800   0.973
12590TIP3    H237714   5.867   4.856   1.084
12591TIP3   OH237715   5.816   5.839   0.654
12591TIP3    H137716   5.909   5.858   0.640
12591TIP3    H237717   5.771   5.899   0.595
12592TIP3   OH237718   4.698   5.075   2.175
12592TIP3    H137719   4.782   5.119   2.160
12592TIP3    H237720   4.656   5.128   2.244
12593TIP3   OH237721   4.549   1.199   6.138
12593TIP3    H137722   4.510   1.177   6.054
12593TIP3    H237723   4.500   1.275   6.168
12594TIP3   OH237724   5.449   6.645   1.370
12594TIP3    H137725   5.431   6.551   1.381
12594TIP3    H237726   5.529   6.648   1.318
12595TIP3   OH237727   7.569   6.692   5.837
12595TIP3    H137728   7.579   6.775   5.883
12595TIP3    H237729   7.549   6.717   5.746
12596TIP3   OH237730   4.859   3.366   4.504
12596TIP3    H137731   4.849   3.295   4.441
12596TIP3    H237732   4.943   3.406   4.482
12597TIP3   OH237733   7.797   1.455   5.058
12597TIP3    H137734   7.871   1.501   5.097
12597TIP3    H237735   7.728   1.521   5.053
12598TIP3   OH237736   3.178   7.022   4.222
12598TIP3    H137737   3.087   7.011   4.248
12598TIP3    H237738   3.215   7.083   4.286
12599TIP3   OH237739   6.154   3.935   5.167
12599TIP3    H137740   6.235   3.964   5.125
12599TIP3    H237741   6.118   3.869   5.107
12600TIP3   OH237742   3.683   6.699   0.209
12600TIP3    H137743   3.698   6.780   0.257
12600TIP3    H237744   3.755   6.694   0.146
12601TIP3   OH237745   6.313   5.874   0.725
12601TIP3    H137746   6.312   5.926   0.805
12601TIP3    H237747   6.224   5.880   0.691
12602TIP3   OH237748   3.255   6.982   1.114
12602TIP3    H137749   3.226   7.047   1.049
12602TIP3    H237750   3.324   7.027   1.163
12603TIP3   OH237751   0.805   2.854   6.684
12603TIP3    H137752   0.794   2.895   6.598
12603TIP3    H237753   0.865   2.781   6.669
12604TIP3   OH237754   3.746   1.214   6.598
12604TIP3    H137755   3.780   1.179   6.515
12604TIP3    H237756   3.794   1.166   6.665
12605TIP3   OH237757   7.376   3.040   4.736
12605TIP3    H137758   7.398   3.015   4.826
12605TIP3    H237759   7.397   3.133   4.731
12606TIP3   OH237760   6.971   0.685   4.666
12606TIP3    H137761   7.048   0.708   4.614
12606TIP3    H237762   7.004   0.623   4.731
12607TIP3   OH237763   2.707   5.682   6.562
12607TIP3    H137764   2.729   5.639   6.645
12607TIP3    H237765   2.619   5.717   6.575
12608TIP3   OH237766   2.944   1.395   2.648
12608TIP3    H137767   3.024   1.368   2.603
12608TIP3    H237768   2.874   1.348   2.603
12609TIP3   OH237769   3.450   4.857   5.244
12609TIP3    H137770   3.449   4.784   5.307
12609TIP3    H237771   3.367   4.848   5.196
12610TIP3   OH237772   0.050   2.625   3.830
12610TIP3    H137773  -0.002   2.676   3.769
12610TIP3    H237774   0.011   2.538   3.828
12611TIP3   OH237775   7.240   1.626   3.245
12611TIP3    H137776   7.307   1.680   3.204
12611TIP3    H237777   7.264   1.625   3.338
12612TIP3   OH237778   1.580   5.020   1.930
12612TIP3    H137779   1.574   4.973   2.013
12612TIP3    H237780   1.528   5.100   1.944
12613TIP3   OH237781   7.614   7.562   4.466
12613TIP3    H137782   7.690   7.525   4.512
12613TIP3    H237783   7.600   7.647   4.508
12614TIP3   OH237784   3.437   4.640   5.418
12614TIP3    H137785   3.408   4.675   5.503
12614TIP3    H237786   3.496   4.568   5.441
12615TIP3   OH237787   7.838   3.248   1.991
12615TIP3    H137788   7.813   3.156   1.982
12615TIP3    H237789   7.933   3.248   1.993
12616TIP3   OH237790   6.184   2.934   0.602
12616TIP3    H137791   6.253   2.983   0.647
12616TIP3    H237792   6.171   2.856   0.656
12617TIP3   OH237793   1.884   1.300   2.754
12617TIP3    H137794   1.949   1.245   2.798
12617TIP3    H237795   1.856   1.247   2.678
12618TIP3   OH237796   4.970   4.131   5.751
12618TIP3    H137797   4.954   4.187   5.674
12618TIP3    H237798   5.065   4.123   5.755
12619TIP3   OH237799   2.407   1.564   3.411
12619TIP3    H137800   2.342   1.510   3.455
12619TIP3    H237801   2.373   1.653   3.417
12620TIP3   OH237802   5.491   2.359   2.050
12620TIP3    H137803   5.456   2.306   1.979
12620TIP3    H237804   5.583   2.336   2.055
12621TIP3   OH237805   4.808   6.676   4.166
12621TIP3    H137806   4.789   6.590   4.204
12621TIP3    H237807   4.791   6.738   4.238
12622TIP3   OH237808   2.411   2.485   1.472
12622TIP3    H137809   2.371   2.444   1.396
12622TIP3    H237810   2.383   2.576   1.468
12623TIP3   OH237811   2.561   4.139   4.197
12623TIP3    H137812   2.527   4.054   4.222
12623TIP3    H237813   2.588   4.179   4.280
12624TIP3   OH237814   0.610   1.249   6.172
12624TIP3    H137815   0.605   1.232   6.077
12624TIP3    H237816   0.603   1.162   6.211
12625TIP3   OH237817   7.857   2.314   1.260
12625TIP3    H137818   7.943   2.344   1.289
12625TIP3    H237819   7.812   2.291   1.340
12626TIP3   OH237820   1.630   3.049   6.072
12626TIP3    H137821   1.659   3.140   6.073
12626TIP3    H237822   1.571   3.042   6.148
12627TIP3   OH237823   5.759   2.410   1.240
12627TIP3    H137824   5.729   2.486   1.190
12627TIP3    H237825   5.848   2.394   1.209
12628TIP3   OH237826   0.242   6.196   5.620
12628TIP3    H137827   0.198   6.119   5.655
12628TIP3    H237828   0.306   6.161   5.557
12629TIP3   OH237829   7.469   4.950   3.077
12629TIP3    H137830   7.438   4.992   2.997
12629TIP3    H237831   7.390   4.937   3.130
12630TIP3   OH237832   3.940   3.450   5.949
12630TIP3    H137833   3.942   3.502   6.030
12630TIP3    H237834   3.963   3.513   5.880
12631TIP3   OH237835   3.324   3.293   4.654
12631TIP3    H137836   3.322   3.199   4.670
12631TIP3    H237837   3.278   3.331   4.729
12632TIP3   OH237838   3.077   2.039   2.051
12632TIP3    H137839   3.130   1.992   2.115
12632TIP3    H237840   3.134   2.046   1.974
12633TIP3   OH237841   0.271   2.434   0.163
12633TIP3    H137842   0.221   2.448   0.083
12633TIP3    H237843   0.206   2.406   0.228
12634TIP3   OH237844   1.745   7.126   0.834
12634TIP3    H137845   1.750   7.052   0.774
12634TIP3    H237846   1.827   7.174   0.818
12635TIP3   OH237847   4.005   7.538   4.936
12635TIP3    H137848   3.934   7.566   4.878
12635TIP3    H237849   4.069   7.497   4.878
12636TIP3   OH237850   3.223   0.530   2.671
12636TIP3    H137851   3.285   0.524   2.745
12636TIP3    H237852   3.191   0.620   2.674
12637TIP3   OH237853   7.135   1.094   1.687
12637TIP3    H137854   7.196   1.111   1.759
12637TIP3    H237855   7.135   0.998   1.679
12638TIP3   OH237856   1.060   2.861   3.464
12638TIP3    H137857   0.989   2.835   3.406
12638TIP3    H237858   1.044   2.953   3.482
12639TIP3   OH237859   6.546   2.739   0.473
12639TIP3    H137860   6.526   2.832   0.485
12639TIP3    H237861   6.593   2.736   0.389
12640TIP3   OH237862   4.353   1.027   2.643
12640TIP3    H137863   4.415   1.046   2.572
12640TIP3    H237864   4.286   1.095   2.636
12641TIP3   OH237865   7.144   6.283   6.566
12641TIP3    H137866   7.160   6.342   6.491
12641TIP3    H237867   7.129   6.342   6.640
12642TIP3   OH237868   2.969   7.296   0.674
12642TIP3    H137869   3.027   7.366   0.705
12642TIP3    H237870   3.022   7.247   0.611
12643TIP3   OH237871   7.095   3.269   5.774
12643TIP3    H137872   7.088   3.234   5.685
12643TIP3    H237873   7.117   3.193   5.828
12644TIP3   OH237874   4.434   2.956   6.148
12644TIP3    H137875   4.528   2.943   6.150
12644TIP3    H237876   4.398   2.867   6.141
12645TIP3   OH237877   4.173   3.737   0.871
12645TIP3    H137878   4.252   3.686   0.885
12645TIP3    H237879   4.149   3.768   0.959
12646TIP3   OH237880   6.815   6.802   2.539
12646TIP3    H137881   6.860   6.839   2.615
12646TIP3    H237882   6.728   6.844   2.541
12647TIP3   OH237883   7.017   5.548   2.366
12647TIP3    H137884   6.972   5.501   2.296
12647TIP3    H237885   7.081   5.603   2.321
12648TIP3   OH237886   5.840   2.061   4.866
12648TIP3    H137887   5.859   2.154   4.858
12648TIP3    H237888   5.900   2.029   4.933
12649TIP3   OH237889   4.408   0.355   4.689
12649TIP3    H137890   4.322   0.316   4.705
12649TIP3    H237891   4.390   0.435   4.640
12650TIP3   OH237892   4.836   6.001   2.257
12650TIP3    H137893   4.761   5.980   2.202
12650TIP3    H237894   4.821   5.952   2.337
12651TIP3   OH237895   1.727   6.409   2.432
12651TIP3    H137896   1.638   6.388   2.402
12651TIP3    H237897   1.763   6.326   2.461
12652TIP3   OH237898   7.887   6.161   1.665
12652TIP3    H137899   7.935   6.113   1.732
12652TIP3    H237900   7.830   6.221   1.714
12653TIP3   OH237901   4.225   3.398   6.074
12653TIP3    H137902   4.169   3.373   6.148
12653TIP3    H237903   4.164   3.410   6.001
12654TIP3   OH237904   3.961   1.200   5.941
12654TIP3    H137905   4.022   1.190   6.015
12654TIP3    H237906   3.879   1.164   5.974
12655TIP3   OH237907   6.187   5.066   3.110
12655TIP3    H137908   6.209   4.974   3.098
12655TIP3    H237909   6.230   5.111   3.037
12656TIP3   OH237910   3.228   7.456   1.768
12656TIP3    H137911   3.315   7.493   1.781
12656TIP3    H237912   3.169   7.523   1.804
12657TIP3   OH237913   0.665   4.415   1.767
12657TIP3    H137914   0.738   4.467   1.802
12657TIP3    H237915   0.706   4.359   1.700
12658TIP3   OH237916   5.183   3.808   2.538
12658TIP3    H137917   5.197   3.894   2.580
12658TIP3    H237918   5.268   3.764   2.545
12659TIP3   OH237919   6.206   0.149   4.655
12659TIP3    H137920   6.222   0.058   4.680
12659TIP3    H237921   6.269   0.166   4.585
12660TIP3   OH237922   4.783   1.733   5.796
12660TIP3    H137923   4.816   1.823   5.795
12660TIP3    H237924   4.714   1.732   5.730
12661TIP3   OH237925   3.377   2.509   2.587
12661TIP3    H137926   3.378   2.576   2.656
12661TIP3    H237927   3.470   2.493   2.568
12662TIP3   OH237928   5.150   3.955   4.537
12662TIP3    H137929   5.213   3.961   4.609
12662TIP3    H237930   5.182   3.882   4.484
12663TIP3   OH237931   5.156   2.732   4.731
12663TIP3    H137932   5.089   2.687   4.781
12663TIP3    H237933   5.219   2.763   4.797
12664TIP3   OH237934   5.016   0.213   2.458
12664TIP3    H137935   5.094   0.244   2.503
12664TIP3    H237936   4.972   0.157   2.522
12665TIP3   OH237937   0.538   7.715   3.486
12665TIP3    H137938   0.463   7.687   3.432
12665TIP3    H237939   0.612   7.713   3.426
12666TIP3   OH237940   1.962   7.653   5.882
12666TIP3    H137941   2.057   7.639   5.889
12666TIP3    H237942   1.927   7.624   5.966
12667TIP3   OH237943   6.872   1.514   0.181
12667TIP3    H137944   6.840   1.474   0.101
12667TIP3    H237945   6.801   1.572   0.210
12668TIP3   OH237946   7.034   7.535   3.632
12668TIP3    H137947   7.099   7.475   3.595
12668TIP3    H237948   7.059   7.544   3.724
12669TIP3   OH237949   5.252   1.811   5.882
12669TIP3    H137950   5.294   1.810   5.796
12669TIP3    H237951   5.192   1.736   5.880
12670TIP3   OH237952   5.052   1.569   2.787
12670TIP3    H137953   5.064   1.664   2.779
12670TIP3    H237954   4.996   1.558   2.865
12671TIP3   OH237955   2.817   2.326   4.218
12671TIP3    H137956   2.857   2.267   4.154
12671TIP3    H237957   2.726   2.297   4.222
12672TIP3   OH237958   8.013   7.397   1.809
12672TIP3    H137959   8.091   7.449   1.826
12672TIP3    H237960   7.997   7.349   1.890
12673TIP3   OH237961   3.427   3.786   0.760
12673TIP3    H137962   3.359   3.752   0.818
12673TIP3    H237963   3.394   3.771   0.672
12674TIP3   OH237964   2.154   5.493   6.646
12674TIP3    H137965   2.076   5.449   6.680
12674TIP3    H237966   2.128   5.522   6.558
12675TIP3   OH237967   1.245   2.817   5.546
12675TIP3    H137968   1.231   2.770   5.629
12675TIP3    H237969   1.184   2.891   5.550
12676TIP3   OH237970   4.676   5.054   5.587
12676TIP3    H137971   4.622   5.108   5.644
12676TIP3    H237972   4.757   5.041   5.635
12677TIP3   OH237973   7.583   6.517   2.900
12677TIP3    H137974   7.524   6.443   2.884
12677TIP3    H237975   7.524   6.588   2.928
12678TIP3   OH237976   7.447   5.495   4.396
12678TIP3    H137977   7.359   5.522   4.422
12678TIP3    H237978   7.438   5.470   4.304
12679TIP3   OH237979   5.891   1.166   5.475
12679TIP3    H137980   5.965   1.194   5.421
12679TIP3    H237981   5.827   1.132   5.413
12680TIP3   OH237982   7.465   4.802   3.835
12680TIP3    H137983   7.541   4.802   3.777
12680TIP3    H237984   7.456   4.892   3.864
12681TIP3   OH237985   7.607   0.090   1.919
12681TIP3    H137986   7.611   0.001   1.884
12681TIP3    H237987   7.514   0.104   1.936
12682TIP3   OH237988   2.924   6.676   2.266
12682TIP3    H137989   2.909   6.583   2.287
12682TIP3    H237990   3.017   6.690   2.283
12683TIP3   OH237991   3.879   6.630   1.429
12683TIP3    H137992   3.856   6.715   1.392
12683TIP3    H237993   3.818   6.569   1.388
12684TIP3   OH237994   7.198   4.092   1.657
12684TIP3    H137995   7.265   4.037   1.699
12684TIP3    H237996   7.206   4.176   1.701
12685TIP3   OH237997   5.656   5.083   3.002
12685TIP3    H137998   5.670   5.098   2.909
12685TIP3    H237999   5.739   5.047   3.033
12686TIP3   OH238000   6.166   2.976   5.513
12686TIP3    H138001   6.129   2.943   5.595
12686TIP3    H238002   6.193   3.066   5.532
12687TIP3   OH238003   1.808   1.236   2.292
12687TIP3    H138004   1.774   1.296   2.358
12687TIP3    H238005   1.885   1.197   2.332
12688TIP3   OH238006   4.471   6.102   3.913
12688TIP3    H138007   4.457   6.011   3.886
12688TIP3    H238008   4.439   6.154   3.839
12689TIP3   OH238009   0.207   4.658   6.096
12689TIP3    H138010   0.161   4.718   6.037
12689TIP3    H238011   0.221   4.579   6.043
12690TIP3   OH238012   6.740   7.081   5.037
12690TIP3    H138013   6.832   7.097   5.058
12690TIP3    H238014   6.697   7.166   5.050
12691TIP3   OH238015   1.879   4.303   0.200
12691TIP3    H138016   1.970   4.284   0.177
12691TIP3    H238017   1.828   4.275   0.123
12692TIP3   OH238018   3.732   4.756   0.813
12692TIP3    H138019   3.767   4.839   0.846
12692TIP3    H238020   3.775   4.744   0.729
12693TIP3   OH238021   3.151   4.751   4.744
12693TIP3    H138022   3.246   4.764   4.748
12693TIP3    H238023   3.138   4.660   4.772
12694TIP3   OH238024   3.237   5.806   1.936
12694TIP3    H138025   3.283   5.722   1.948
12694TIP3    H238026   3.278   5.845   1.859
12695TIP3   OH238027   2.746   1.774   6.229
12695TIP3    H138028   2.770   1.683   6.244
12695TIP3    H238029   2.683   1.772   6.157
12696TIP3   OH238030   6.383   1.937   6.584
12696TIP3    H138031   6.300   1.894   6.565
12696TIP3    H238032   6.449   1.870   6.568
12697TIP3   OH238033   1.487   0.228   1.566
12697TIP3    H138034   1.510   0.282   1.491
12697TIP3    H238035   1.541   0.262   1.637
12698TIP3   OH238036   3.011   0.902   3.382
12698TIP3    H138037   2.998   0.985   3.336
12698TIP3    H238038   2.924   0.880   3.416
12699TIP3   OH238039   4.749   4.781   1.369
12699TIP3    H138040   4.821   4.784   1.432
12699TIP3    H238041   4.785   4.816   1.288
12700TIP3   OH238042   7.133   2.094   3.232
12700TIP3    H138043   7.189   2.117   3.306
12700TIP3    H238044   7.056   2.052   3.271
12701TIP3   OH238045   7.988   1.478   4.530
12701TIP3    H138046   8.056   1.511   4.588
12701TIP3    H238047   7.907   1.485   4.581
12702TIP3   OH238048   4.135   1.892   6.161
12702TIP3    H138049   4.178   1.966   6.204
12702TIP3    H238050   4.042   1.902   6.181
12703TIP3   OH238051   5.422   7.730   2.704
12703TIP3    H138052   5.433   7.766   2.616
12703TIP3    H238053   5.508   7.695   2.727
12704TIP3   OH238054   5.774   5.094   0.465
12704TIP3    H138055   5.842   5.045   0.511
12704TIP3    H238056   5.822   5.144   0.398
12705TIP3   OH238057   1.936   0.332   2.036
12705TIP3    H138058   2.013   0.389   2.028
12705TIP3    H238059   1.973   0.245   2.051
12706TIP3   OH238060   6.754   1.000   4.921
12706TIP3    H138061   6.778   0.962   5.005
12706TIP3    H238062   6.742   0.925   4.863
12707TIP3   OH238063   2.283   1.051   3.186
12707TIP3    H138064   2.304   0.958   3.173
12707TIP3    H238065   2.364   1.097   3.165
12708TIP3   OH238066   1.241   4.673   1.257
12708TIP3    H138067   1.211   4.618   1.330
12708TIP3    H238068   1.215   4.762   1.282
12709TIP3   OH238069   6.427   7.716   2.716
12709TIP3    H138070   6.488   7.771   2.666
12709TIP3    H238071   6.442   7.627   2.683
12710TIP3   OH238072   6.723   4.979   1.664
12710TIP3    H138073   6.677   4.920   1.723
12710TIP3    H238074   6.791   5.019   1.718
12711TIP3   OH238075   7.151   4.143   5.465
12711TIP3    H138076   7.113   4.225   5.432
12711TIP3    H238077   7.242   4.146   5.436
12712TIP3   OH238078   2.605   1.506   3.663
12712TIP3    H138079   2.615   1.559   3.742
12712TIP3    H238080   2.657   1.553   3.597
12713TIP3   OH238081   7.694   3.604   1.641
12713TIP3    H138082   7.660   3.581   1.554
12713TIP3    H238083   7.623   3.654   1.681
12714TIP3   OH238084   3.346   4.431   3.338
12714TIP3    H138085   3.424   4.378   3.324
12714TIP3    H238086   3.376   4.503   3.394
12715TIP3   OH238087   5.478   6.366   5.741
12715TIP3    H138088   5.398   6.328   5.706
12715TIP3    H238089   5.464   6.461   5.736
12716TIP3   OH238090   5.510   6.020   5.943
12716TIP3    H138091   5.556   6.078   6.004
12716TIP3    H238092   5.568   6.014   5.867
12717TIP3   OH238093   3.341   1.851   5.477
12717TIP3    H138094   3.373   1.920   5.535
12717TIP3    H238095   3.333   1.893   5.392
12718TIP3   OH238096   3.793   0.172   4.490
12718TIP3    H138097   3.699   0.152   4.491
12718TIP3    H238098   3.799   0.260   4.527
12719TIP3   OH238099   8.042   6.569   5.637
12719TIP3    H138100   7.977   6.512   5.598
12719TIP3    H238101   7.997   6.653   5.648
12720TIP3   OH238102   3.127   4.338   5.256
12720TIP3    H138103   3.202   4.341   5.315
12720TIP3    H238104   3.133   4.420   5.207
12721TIP3   OH238105   0.525   3.830   5.319
12721TIP3    H138106   0.496   3.867   5.402
12721TIP3    H238107   0.444   3.817   5.269
12722TIP3   OH238108   1.696   5.259   3.540
12722TIP3    H138109   1.692   5.264   3.636
12722TIP3    H238110   1.607   5.276   3.512
12723TIP3   OH238111   2.380   6.605   1.149
12723TIP3    H138112   2.345   6.680   1.198
12723TIP3    H238113   2.470   6.630   1.128
12724TIP3   OH238114   7.113   3.189   5.520
12724TIP3    H138115   7.193   3.137   5.522
12724TIP3    H238116   7.054   3.141   5.463
12725TIP3   OH238117   1.625   5.434   3.240
12725TIP3    H138118   1.672   5.434   3.324
12725TIP3    H238119   1.688   5.469   3.177
12726TIP3   OH238120   7.102   2.478   2.517
12726TIP3    H138121   7.033   2.427   2.475
12726TIP3    H238122   7.063   2.505   2.601
12727TIP3   OH238123   3.481   2.616   3.107
12727TIP3    H138124   3.518   2.539   3.149
12727TIP3    H238125   3.554   2.677   3.100
12728TIP3   OH238126   7.531   7.259   3.539
12728TIP3    H138127   7.603   7.315   3.567
12728TIP3    H238128   7.466   7.267   3.608
12729TIP3   OH238129   3.062   5.045   3.838
12729TIP3    H138130   2.980   5.048   3.887
12729TIP3    H238131   3.103   4.963   3.865
12730TIP3   OH238132   2.896   4.571   4.176
12730TIP3    H138133   2.920   4.662   4.189
12730TIP3    H238134   2.975   4.530   4.142
12731TIP3   OH238135   3.931   3.368   2.848
12731TIP3    H138136   3.889   3.424   2.783
12731TIP3    H238137   4.000   3.322   2.800
12732TIP3   OH238138   6.878   2.585   6.289
12732TIP3    H138139   6.954   2.562   6.235
12732TIP3    H238140   6.859   2.676   6.265
12733TIP3   OH238141   1.433   5.683   2.068
12733TIP3    H138142   1.391   5.672   2.153
12733TIP3    H238143   1.416   5.774   2.045
12734TIP3   OH238144   0.600   6.037   0.346
12734TIP3    H138145   0.659   6.084   0.287
12734TIP3    H238146   0.652   6.024   0.425
12735TIP3   OH238147   4.685   7.030   3.146
12735TIP3    H138148   4.633   6.985   3.214
12735TIP3    H238149   4.727   6.959   3.097
12736TIP3   OH238150   5.179   0.720   5.896
12736TIP3    H138151   5.271   0.746   5.908
12736TIP3    H238152   5.134   0.758   5.971
12737TIP3   OH238153   0.572   3.342   4.931
12737TIP3    H138154   0.558   3.426   4.887
12737TIP3    H238155   0.487   3.298   4.926
12738TIP3   OH238156   1.331   5.776   3.716
12738TIP3    H138157   1.343   5.735   3.801
12738TIP3    H238158   1.276   5.715   3.667
12739TIP3   OH238159   2.160   6.560   5.092
12739TIP3    H138160   2.146   6.503   5.017
12739TIP3    H238161   2.075   6.561   5.137
12740TIP3   OH238162   5.456   6.555   0.239
12740TIP3    H138163   5.453   6.464   0.267
12740TIP3    H238164   5.371   6.571   0.199
12741TIP3   OH238165   2.863   0.199   1.923
12741TIP3    H138166   2.880   0.107   1.943
12741TIP3    H238167   2.945   0.232   1.888
12742TIP3   OH238168   3.076   7.155   1.443
12742TIP3    H138169   3.106   7.246   1.448
12742TIP3    H238170   2.983   7.159   1.469
12743TIP3   OH238171   0.698   0.037   5.124
12743TIP3    H138172   0.715   0.125   5.158
12743TIP3    H238173   0.614   0.012   5.163
12744TIP3   OH238174   7.861   7.674   0.664
12744TIP3    H138175   7.932   7.610   0.671
12744TIP3    H238176   7.883   7.742   0.727
12745TIP3   OH238177   7.958   1.522   6.057
12745TIP3    H138178   7.865   1.505   6.051
12745TIP3    H238179   7.981   1.499   6.147
12746TIP3   OH238180   7.387   6.974   5.420
12746TIP3    H138181   7.479   6.947   5.412
12746TIP3    H238182   7.337   6.893   5.410
12747TIP3   OH238183   4.571   3.235   0.192
12747TIP3    H138184   4.658   3.222   0.157
12747TIP3    H238185   4.512   3.226   0.117
12748TIP3   OH238186   6.246   2.098   1.833
12748TIP3    H138187   6.322   2.054   1.870
12748TIP3    H238188   6.186   2.027   1.809
12749TIP3   OH238189   6.512   5.134   3.339
12749TIP3    H138190   6.417   5.140   3.344
12749TIP3    H238191   6.530   5.096   3.253
12750TIP3   OH238192   4.918   0.629   6.676
12750TIP3    H138193   4.874   0.550   6.706
12750TIP3    H238194   4.851   0.677   6.627
12751TIP3   OH238195   0.072   2.416   1.717
12751TIP3    H138196   0.039   2.331   1.747
12751TIP3    H238197   0.150   2.432   1.771
12752TIP3   OH238198   0.340   3.641   4.046
12752TIP3    H138199   0.386   3.583   4.106
12752TIP3    H238200   0.248   3.620   4.057
12753TIP3   OH238201   3.953   5.207   2.032
12753TIP3    H138202   3.913   5.291   2.053
12753TIP3    H238203   3.923   5.148   2.102
12754TIP3   OH238204   7.524   4.189   6.645
12754TIP3    H138205   7.538   4.155   6.556
12754TIP3    H238206   7.483   4.275   6.631
12755TIP3   OH238207   0.409   0.928   6.466
12755TIP3    H138208   0.466   0.993   6.506
12755TIP3    H238209   0.321   0.956   6.489
12756TIP3   OH238210   1.684   4.159   1.409
12756TIP3    H138211   1.591   4.177   1.422
12756TIP3    H238212   1.697   4.166   1.314
12757TIP3   OH238213   1.430   7.189   0.857
12757TIP3    H138214   1.355   7.245   0.878
12757TIP3    H238215   1.439   7.196   0.762
12758TIP3   OH238216   4.047   3.294   4.477
12758TIP3    H138217   4.069   3.386   4.461
12758TIP3    H238218   4.114   3.263   4.538
12759TIP3   OH238219   2.393   2.883   0.371
12759TIP3    H138220   2.435   2.960   0.331
12759TIP3    H238221   2.343   2.919   0.445
12760TIP3   OH238222   2.134   2.978   0.885
12760TIP3    H138223   2.097   2.948   0.802
12760TIP3    H238224   2.223   2.943   0.885
12761TIP3   OH238225   2.676   4.740   4.378
12761TIP3    H138226   2.615   4.770   4.311
12761TIP3    H238227   2.625   4.737   4.459
12762TIP3   OH238228   1.082   4.062   1.489
12762TIP3    H138229   1.029   4.100   1.419
12762TIP3    H238230   1.053   3.971   1.495
12763TIP3   OH238231   6.909   5.097   4.644
12763TIP3    H138232   6.834   5.104   4.702
12763TIP3    H238233   6.961   5.175   4.663
12764TIP3   OH238234   6.977   6.501   2.303
12764TIP3    H138235   6.892   6.545   2.304
12764TIP3    H238236   6.987   6.468   2.393
12765TIP3   OH238237   7.679   2.904   0.998
12765TIP3    H138238   7.720   2.868   1.077
12765TIP3    H238239   7.691   2.836   0.932
12766TIP3   OH238240   6.997   6.726   3.867
12766TIP3    H138241   6.939   6.677   3.925
12766TIP3    H238242   7.077   6.739   3.919
12767TIP3   OH238243   0.716   0.803   4.527
12767TIP3    H138244   0.660   0.796   4.450
12767TIP3    H238245   0.708   0.895   4.554
12768TIP3   OH238246   4.057   5.853   6.162
12768TIP3    H138247   4.007   5.884   6.086
12768TIP3    H238248   4.078   5.933   6.211
12769TIP3   OH238249   3.187   6.459   5.323
12769TIP3    H138250   3.261   6.490   5.374
12769TIP3    H238251   3.133   6.411   5.386
12770TIP3   OH238252   0.587   3.579   5.465
12770TIP3    H138253   0.547   3.522   5.399
12770TIP3    H238254   0.587   3.666   5.424
12771TIP3   OH238255   6.626   5.960   0.458
12771TIP3    H138256   6.600   6.041   0.501
12771TIP3    H238257   6.715   5.977   0.426
12772TIP3   OH238258   0.136   3.245   0.909
12772TIP3    H138259   0.150   3.177   0.843
12772TIP3    H238260   0.041   3.246   0.921
12773TIP3   OH238261   7.131   2.097   5.751
12773TIP3    H138262   7.088   2.046   5.681
12773TIP3    H238263   7.059   2.139   5.798
12774TIP3   OH238264   2.004   3.074   2.676
12774TIP3    H138265   1.931   3.081   2.615
12774TIP3    H238266   2.057   3.152   2.660
12775TIP3   OH238267   3.890   5.401   4.719
12775TIP3    H138268   3.866   5.316   4.682
12775TIP3    H238269   3.819   5.460   4.694
12776TIP3   OH238270   5.137   4.295   2.880
12776TIP3    H138271   5.163   4.220   2.826
12776TIP3    H238272   5.052   4.322   2.846
12777TIP3   OH238273   6.748   4.222   2.157
12777TIP3    H138274   6.744   4.210   2.062
12777TIP3    H238275   6.658   4.240   2.183
12778TIP3   OH238276   3.173   3.291   5.543
12778TIP3    H138277   3.254   3.248   5.572
12778TIP3    H238278   3.194   3.384   5.542
12779TIP3   OH238279   7.601   3.222   0.604
12779TIP3    H138280   7.572   3.131   0.611
12779TIP3    H238281   7.694   3.216   0.580
12780TIP3   OH238282   4.271   0.024   2.509
12780TIP3    H138283   4.221   0.103   2.530
12780TIP3    H238284   4.262   0.015   2.414
12781TIP3   OH238285   4.474   1.490   5.800
12781TIP3    H138286   4.472   1.520   5.709
12781TIP3    H238287   4.564   1.509   5.828
12782TIP3   OH238288   1.396   5.335   4.111
12782TIP3    H138289   1.335   5.266   4.086
12782TIP3    H238290   1.412   5.384   4.030
12783TIP3   OH238291   1.674   5.720   6.022
12783TIP3    H138292   1.612   5.731   6.094
12783TIP3    H238293   1.621   5.730   5.943
12784TIP3   OH238294   0.856   7.782   5.927
12784TIP3    H138295   0.919   7.771   5.856
12784TIP3    H238296   0.821   7.871   5.914
12785TIP3   OH238297   1.570   4.480   1.008
12785TIP3    H138298   1.618   4.533   0.944
12785TIP3    H238299   1.608   4.504   1.093
12786TIP3   OH238300   1.898   6.520   2.796
12786TIP3    H138301   1.903   6.536   2.702
12786TIP3    H238302   1.856   6.435   2.804
12787TIP3   OH238303   2.488   4.329   6.151
12787TIP3    H138304   2.501   4.363   6.240
12787TIP3    H238305   2.409   4.276   6.157
12788TIP3   OH238306   1.061   3.570   0.876
12788TIP3    H138307   1.080   3.641   0.937
12788TIP3    H238308   1.110   3.495   0.910
12789TIP3   OH238309   4.051   2.123   3.797
12789TIP3    H138310   3.995   2.062   3.749
12789TIP3    H238311   4.011   2.129   3.884
12790TIP3   OH238312   5.445   5.642   4.461
12790TIP3    H138313   5.451   5.719   4.518
12790TIP3    H238314   5.373   5.662   4.401
12791TIP3   OH238315   7.601   4.033   4.093
12791TIP3    H138316   7.688   4.071   4.084
12791TIP3    H238317   7.616   3.949   4.136
12792TIP3   OH238318   2.793   4.119   1.897
12792TIP3    H138319   2.792   4.137   1.991
12792TIP3    H238320   2.886   4.115   1.874
12793TIP3   OH238321   2.664   5.631   0.265
12793TIP3    H138322   2.606   5.695   0.308
12793TIP3    H238323   2.752   5.657   0.292
12794TIP3   OH238324   1.613   6.127   0.367
12794TIP3    H138325   1.700   6.104   0.402
12794TIP3    H238326   1.623   6.219   0.340
12795TIP3   OH238327   7.719   6.743   2.369
12795TIP3    H138328   7.643   6.759   2.314
12795TIP3    H238329   7.692   6.771   2.457
12796TIP3   OH238330   5.862   2.593   1.611
12796TIP3    H138331   5.885   2.630   1.695
12796TIP3    H238332   5.776   2.553   1.625
12797TIP3   OH238333   3.927   7.255   6.094
12797TIP3    H138334   3.909   7.213   6.178
12797TIP3    H238335   4.018   7.284   6.100
12798TIP3   OH238336   4.204   1.866   4.637
12798TIP3    H138337   4.256   1.941   4.664
12798TIP3    H238338   4.266   1.808   4.592
12799TIP3   OH238339   2.094   5.161   0.685
12799TIP3    H138340   2.119   5.071   0.705
12799TIP3    H238341   2.094   5.165   0.589
12800TIP3   OH238342   5.843   7.432   4.903
12800TIP3    H138343   5.927   7.406   4.942
12800TIP3    H238344   5.808   7.350   4.869
12801TIP3   OH238345   0.705   4.603   6.136
12801TIP3    H138346   0.664   4.554   6.065
12801TIP3    H238347   0.633   4.653   6.174
12802TIP3   OH238348   1.174   6.113   3.652
12802TIP3    H138349   1.198   6.071   3.569
12802TIP3    H238350   1.240   6.180   3.665
12803TIP3   OH238351   1.818   4.187   5.519
12803TIP3    H138352   1.869   4.107   5.536
12803TIP3    H238353   1.875   4.258   5.547
12804TIP3   OH238354   5.606   6.148   3.061
12804TIP3    H138355   5.632   6.107   2.979
12804TIP3    H238356   5.548   6.085   3.103
12805TIP3   OH238357   0.604   4.900   6.468
12805TIP3    H138358   0.611   4.907   6.373
12805TIP3    H238359   0.652   4.821   6.491
12806TIP3   OH238360   3.800   3.709   4.073
12806TIP3    H138361   3.854   3.705   3.994
12806TIP3    H238362   3.833   3.638   4.128
12807TIP3   OH238363   5.526   6.637   4.202
12807TIP3    H138364   5.619   6.618   4.186
12807TIP3    H238365   5.494   6.668   4.117
12808TIP3   OH238366   7.894   7.009   6.680
12808TIP3    H138367   7.860   6.975   6.763
12808TIP3    H238368   7.971   7.059   6.705
12809TIP3   OH238369   0.930   6.385   0.262
12809TIP3    H138370   0.888   6.443   0.324
12809TIP3    H238371   0.996   6.338   0.313
12810TIP3   OH238372   2.129   3.379   5.445
12810TIP3    H138373   2.202   3.339   5.397
12810TIP3    H238374   2.080   3.427   5.378
12811TIP3   OH238375   1.643   0.217   0.566
12811TIP3    H138376   1.652   0.143   0.626
12811TIP3    H238377   1.557   0.204   0.525
12812TIP3   OH238378   0.067   0.606   5.684
12812TIP3    H138379  -0.011   0.629   5.734
12812TIP3    H238380   0.112   0.540   5.737
12813TIP3   OH238381   0.103   3.573   5.342
12813TIP3    H138382   0.063   3.500   5.390
12813TIP3    H238383   0.075   3.651   5.389
12814TIP3   OH238384   7.560   3.848   3.485
12814TIP3    H138385   7.543   3.820   3.575
12814TIP3    H238386   7.625   3.918   3.494
12815TIP3   OH238387   1.673   1.067   0.645
12815TIP3    H138388   1.750   1.022   0.611
12815TIP3    H238389   1.599   1.012   0.618
12816TIP3   OH238390   0.173   1.805   4.365
12816TIP3    H138391   0.183   1.711   4.376
12816TIP3    H238392   0.133   1.835   4.446
12817TIP3   OH238393   5.999   4.617   4.752
12817TIP3    H138394   6.032   4.638   4.840
12817TIP3    H238395   5.957   4.697   4.722
12818TIP3   OH238396   6.320   0.754   2.548
12818TIP3    H138397   6.270   0.821   2.501
12818TIP3    H238398   6.388   0.803   2.594
12819TIP3   OH238399   2.287   7.716   4.611
12819TIP3    H138400   2.347   7.769   4.665
12819TIP3    H238401   2.312   7.626   4.630
12820TIP3   OH238402   6.022   7.458   5.134
12820TIP3    H138403   6.017   7.448   5.230
12820TIP3    H238404   6.052   7.548   5.122
12821TIP3   OH238405   5.500   0.802   4.043
12821TIP3    H138406   5.477   0.755   3.963
12821TIP3    H238407   5.429   0.781   4.104
12822TIP3   OH238408   0.007   2.324   4.441
12822TIP3    H138409   0.091   2.333   4.395
12822TIP3    H238410  -0.034   2.410   4.432
12823TIP3   OH238411   0.843   3.539   4.274
12823TIP3    H138412   0.872   3.602   4.340
12823TIP3    H238413   0.788   3.591   4.215
12824TIP3   OH238414   6.193   5.465   3.106
12824TIP3    H138415   6.136   5.390   3.126
12824TIP3    H238416   6.173   5.487   3.015
12825TIP3   OH238417   0.480   0.778   4.349
12825TIP3    H138418   0.426   0.813   4.420
12825TIP3    H238419   0.417   0.745   4.286
12826TIP3   OH238420   0.395   6.314   1.647
12826TIP3    H138421   0.392   6.226   1.609
12826TIP3    H238422   0.441   6.302   1.730
12827TIP3   OH238423   1.213   2.729   4.772
12827TIP3    H138424   1.183   2.670   4.841
12827TIP3    H238425   1.179   2.815   4.798
12828TIP3   OH238426   4.547   2.133   4.884
12828TIP3    H138427   4.491   2.155   4.958
12828TIP3    H238428   4.635   2.159   4.912
12829TIP3   OH238429   4.701   2.578   5.778
12829TIP3    H138430   4.721   2.516   5.848
12829TIP3    H238431   4.752   2.656   5.801
12830TIP3   OH238432   2.873   7.052   6.090
12830TIP3    H138433   2.814   7.090   6.026
12830TIP3    H238434   2.956   7.040   6.043
12831TIP3   OH238435   5.766   1.855   0.299
12831TIP3    H138436   5.678   1.865   0.262
12831TIP3    H238437   5.751   1.856   0.394
12832TIP3   OH238438   5.216   7.677   3.580
12832TIP3    H138439   5.283   7.609   3.575
12832TIP3    H238440   5.190   7.678   3.673
12833TIP3   OH238441   7.487   0.435   5.816
12833TIP3    H138442   7.395   0.427   5.791
12833TIP3    H238443   7.531   0.365   5.767
12834TIP3   OH238444   8.151   6.921   5.031
12834TIP3    H138445   8.087   6.870   4.982
12834TIP3    H238446   8.108   6.938   5.115
12835TIP3   OH238447   6.996   2.748   3.823
12835TIP3    H138448   7.071   2.774   3.877
12835TIP3    H238449   7.020   2.776   3.734
12836TIP3   OH238450   3.096   4.512   0.748
12836TIP3    H138451   3.087   4.593   0.698
12836TIP3    H238452   3.068   4.535   0.837
12837TIP3   OH238453   7.046   4.928   2.150
12837TIP3    H138454   7.141   4.919   2.154
12837TIP3    H238455   7.015   4.841   2.125
12838TIP3   OH238456   1.591   2.657   5.703
12838TIP3    H138457   1.578   2.564   5.720
12838TIP3    H238458   1.566   2.701   5.784
12839TIP3   OH238459   3.302   1.773   2.122
12839TIP3    H138460   3.215   1.750   2.090
12839TIP3    H238461   3.287   1.817   2.205
12840TIP3   OH238462   8.113   4.576   2.539
12840TIP3    H138463   8.088   4.526   2.617
12840TIP3    H238464   8.206   4.556   2.527
12841TIP3   OH238465   6.039   2.389   1.137
12841TIP3    H138466   6.088   2.406   1.217
12841TIP3    H238467   6.106   2.389   1.068
12842TIP3   OH238468   1.182   3.591   4.342
12842TIP3    H138469   1.127   3.645   4.399
12842TIP3    H238470   1.181   3.637   4.258
12843TIP3   OH238471   1.289   7.188   3.107
12843TIP3    H138472   1.297   7.098   3.139
12843TIP3    H238473   1.223   7.183   3.038
12844TIP3   OH238474   3.133   0.353   2.468
12844TIP3    H138475   3.164   0.406   2.541
12844TIP3    H238476   3.110   0.269   2.507
12845TIP3   OH238477   1.643   5.283   5.220
12845TIP3    H138478   1.560   5.329   5.209
12845TIP3    H238479   1.670   5.259   5.132
12846TIP3   OH238480   6.196   6.008   1.964
12846TIP3    H138481   6.273   6.004   2.020
12846TIP3    H238482   6.123   5.981   2.019
12847TIP3   OH238483   1.589   4.557   1.289
12847TIP3    H138484   1.494   4.572   1.287
12847TIP3    H238485   1.625   4.637   1.327
12848TIP3   OH238486   6.622   5.041   5.582
12848TIP3    H138487   6.629   5.077   5.494
12848TIP3    H238488   6.634   4.947   5.571
12849TIP3   OH238489   4.772   3.715   3.619
12849TIP3    H138490   4.745   3.708   3.710
12849TIP3    H238491   4.692   3.698   3.569
12850TIP3   OH238492   1.996   5.210   1.993
12850TIP3    H138493   1.976   5.157   1.915
12850TIP3    H238494   1.958   5.161   2.066
12851TIP3   OH238495   7.722   2.497   5.250
12851TIP3    H138496   7.763   2.425   5.204
12851TIP3    H238497   7.638   2.510   5.205
12852TIP3   OH238498   0.098   1.381   1.943
12852TIP3    H138499   0.115   1.289   1.923
12852TIP3    H238500   0.173   1.428   1.907
12853TIP3   OH238501   1.443   7.596   6.435
12853TIP3    H138502   1.391   7.567   6.360
12853TIP3    H238503   1.474   7.515   6.475
12854TIP3   OH238504   5.817   0.895   2.861
12854TIP3    H138505   5.798   0.801   2.862
12854TIP3    H238506   5.872   0.909   2.938
12855TIP3   OH238507   7.842   1.642   3.776
12855TIP3    H138508   7.889   1.562   3.798
12855TIP3    H238509   7.814   1.677   3.861
12856TIP3   OH238510   6.913   2.002   5.617
12856TIP3    H138511   6.882   2.090   5.637
12856TIP3    H238512   6.869   1.946   5.681
12857TIP3   OH238513   5.621   6.871   5.761
12857TIP3    H138514   5.659   6.911   5.684
12857TIP3    H238515   5.693   6.866   5.824
12858TIP3   OH238516   5.120   1.368   5.289
12858TIP3    H138517   5.134   1.427   5.215
12858TIP3    H238518   5.165   1.287   5.265
12859TIP3   OH238519   5.791   4.763   4.900
12859TIP3    H138520   5.735   4.717   4.838
12859TIP3    H238521   5.745   4.846   4.916
12860TIP3   OH238522   7.814   6.220   2.067
12860TIP3    H138523   7.805   6.269   1.985
12860TIP3    H238524   7.761   6.141   2.054
12861TIP3   OH238525   5.555   7.595   3.845
12861TIP3    H138526   5.546   7.671   3.903
12861TIP3    H238527   5.637   7.555   3.872
12862TIP3   OH238528   5.117   0.656   2.382
12862TIP3    H138529   5.040   0.599   2.383
12862TIP3    H238530   5.192   0.596   2.377
12863TIP3   OH238531   2.662   2.521   0.784
12863TIP3    H138532   2.589   2.525   0.722
12863TIP3    H238533   2.627   2.562   0.864
12864TIP3   OH238534   6.990   4.801   0.250
12864TIP3    H138535   6.933   4.757   0.314
12864TIP3    H238536   6.970   4.894   0.260
12865TIP3   OH238537   0.475   1.536   1.309
12865TIP3    H138538   0.495   1.536   1.403
12865TIP3    H238539   0.392   1.489   1.302
12866TIP3   OH238540   5.967   2.876   3.214
12866TIP3    H138541   5.906   2.824   3.162
12866TIP3    H238542   5.987   2.820   3.289
12867TIP3   OH238543   1.169   4.165   1.068
12867TIP3    H138544   1.161   4.207   0.983
12867TIP3    H238545   1.162   4.072   1.050
12868TIP3   OH238546   2.487   4.112   2.532
12868TIP3    H138547   2.536   4.164   2.468
12868TIP3    H238548   2.418   4.071   2.480
12869TIP3   OH238549   0.783   2.780   2.024
12869TIP3    H138550   0.780   2.869   1.988
12869TIP3    H238551   0.706   2.774   2.081
12870TIP3   OH238552   4.387   2.802   4.493
12870TIP3    H138553   4.475   2.790   4.458
12870TIP3    H238554   4.374   2.728   4.552
12871TIP3   OH238555   1.411   1.385   2.451
12871TIP3    H138556   1.389   1.348   2.537
12871TIP3    H238557   1.376   1.474   2.454
12872TIP3   OH238558   1.861   6.854   3.224
12872TIP3    H138559   1.827   6.765   3.218
12872TIP3    H238560   1.832   6.896   3.142
12873TIP3   OH238561   4.057   2.326   0.993
12873TIP3    H138562   3.986   2.363   0.941
12873TIP3    H238563   4.096   2.259   0.937
12874TIP3   OH238564   2.266   7.131   6.417
12874TIP3    H138565   2.261   7.182   6.497
12874TIP3    H238566   2.352   7.088   6.422
12875TIP3   OH238567   7.159   7.578   2.284
12875TIP3    H138568   7.088   7.591   2.220
12875TIP3    H238569   7.138   7.639   2.355
12876TIP3   OH238570   1.353   0.889   5.024
12876TIP3    H138571   1.358   0.796   5.003
12876TIP3    H238572   1.327   0.892   5.116
12877TIP3   OH238573   1.446   0.594   3.327
12877TIP3    H138574   1.394   0.674   3.337
12877TIP3    H238575   1.520   0.621   3.273
12878TIP3   OH238576   7.076   2.968   0.456
12878TIP3    H138577   7.098   2.875   0.450
12878TIP3    H238578   6.981   2.971   0.444
12879TIP3   OH238579   2.612   1.737   3.071
12879TIP3    H138580   2.626   1.666   3.134
12879TIP3    H238581   2.699   1.777   3.062
12880TIP3   OH238582   6.977   2.767   3.023
12880TIP3    H138583   6.999   2.679   2.990
12880TIP3    H238584   6.988   2.760   3.118
12881TIP3   OH238585   5.215   2.880   1.606
12881TIP3    H138586   5.197   2.967   1.641
12881TIP3    H238587   5.173   2.820   1.668
12882TIP3   OH238588   2.340   3.651   6.518
12882TIP3    H138589   2.416   3.654   6.460
12882TIP3    H238590   2.374   3.617   6.601
12883TIP3   OH238591   7.943   2.171   4.966
12883TIP3    H138592   8.000   2.175   4.889
12883TIP3    H238593   7.991   2.219   5.034
12884TIP3   OH238594   3.820   0.510   5.080
12884TIP3    H138595   3.849   0.444   5.017
12884TIP3    H238596   3.808   0.590   5.029
12885TIP3   OH238597   1.332   3.914   4.517
12885TIP3    H138598   1.379   3.838   4.483
12885TIP3    H238599   1.274   3.878   4.584
12886TIP3   OH238600   3.899   2.123   3.191
12886TIP3    H138601   3.852   2.040   3.198
12886TIP3    H238602   3.866   2.176   3.264
12887TIP3   OH238603   2.833   1.549   1.100
12887TIP3    H138604   2.835   1.567   1.006
12887TIP3    H238605   2.740   1.537   1.120
12888TIP3   OH238606   0.398   2.941   3.732
12888TIP3    H138607   0.399   2.927   3.827
12888TIP3    H238608   0.477   2.992   3.715
12889TIP3   OH238609   7.391   0.784   0.750
12889TIP3    H138610   7.410   0.853   0.813
12889TIP3    H238611   7.471   0.775   0.699
12890TIP3   OH238612   5.478   0.735   4.426
12890TIP3    H138613   5.465   0.830   4.416
12890TIP3    H238614   5.452   0.699   4.342
12891TIP3   OH238615   2.194   2.725   6.152
12891TIP3    H138616   2.112   2.737   6.105
12891TIP3    H238617   2.205   2.805   6.202
12892TIP3   OH238618   4.840   1.310   5.324
12892TIP3    H138619   4.935   1.321   5.319
12892TIP3    H238620   4.805   1.388   5.279
12893TIP3   OH238621   6.935   1.932   3.336
12893TIP3    H138622   6.850   1.960   3.369
12893TIP3    H238623   6.980   1.896   3.412
12894TIP3   OH238624   6.812   3.716   5.167
12894TIP3    H138625   6.736   3.743   5.115
12894TIP3    H238626   6.887   3.747   5.117
12895TIP3   OH238627   6.519   4.003   0.667
12895TIP3    H138628   6.519   4.094   0.697
12895TIP3    H238629   6.461   3.957   0.728
12896TIP3   OH238630   2.969   3.972   5.485
12896TIP3    H138631   2.905   4.040   5.504
12896TIP3    H238632   3.030   3.976   5.559
12897TIP3   OH238633   5.885   2.361   1.806
12897TIP3    H138634   5.909   2.425   1.738
12897TIP3    H238635   5.880   2.278   1.759
12898TIP3   OH238636   2.918   7.697   6.081
12898TIP3    H138637   2.953   7.627   6.135
12898TIP3    H238638   2.825   7.677   6.074
12899TIP3   OH238639   0.732   5.839   4.458
12899TIP3    H138640   0.756   5.867   4.369
12899TIP3    H238641   0.651   5.789   4.446
12900TIP3   OH238642   6.404   2.732   3.038
12900TIP3    H138643   6.354   2.793   3.092
12900TIP3    H238644   6.494   2.743   3.066
12901TIP3   OH238645   4.109   7.292   1.481
12901TIP3    H138646   4.113   7.213   1.426
12901TIP3    H238647   4.056   7.266   1.556
12902TIP3   OH238648   5.553   2.515   0.279
12902TIP3    H138649   5.543   2.597   0.329
12902TIP3    H238650   5.634   2.476   0.312
12903TIP3   OH238651   4.123   6.080   3.692
12903TIP3    H138652   4.120   6.021   3.617
12903TIP3    H238653   4.119   6.023   3.768
12904TIP3   OH238654   4.559   4.833   5.475
12904TIP3    H138655   4.470   4.819   5.506
12904TIP3    H238656   4.592   4.905   5.529
12905TIP3   OH238657   0.786   1.472   1.171
12905TIP3    H138658   0.713   1.411   1.188
12905TIP3    H238659   0.821   1.443   1.086
12906TIP3   OH238660   3.116   1.210   1.148
12906TIP3    H138661   3.036   1.254   1.120
12906TIP3    H238662   3.187   1.262   1.110
12907TIP3   OH238663   6.502   4.466   3.730
12907TIP3    H138664   6.548   4.542   3.766
12907TIP3    H238665   6.544   4.451   3.645
12908TIP3   OH238666   2.999   6.248   6.391
12908TIP3    H138667   3.057   6.235   6.466
12908TIP3    H238668   3.057   6.279   6.321
12909TIP3   OH238669   8.267   6.652   4.127
12909TIP3    H138670   8.252   6.563   4.158
12909TIP3    H238671   8.354   6.675   4.158
12910TIP3   OH238672   2.648   5.342   1.651
12910TIP3    H138673   2.627   5.378   1.737
12910TIP3    H238674   2.564   5.307   1.619
12911TIP3   OH238675   0.090   1.371   5.567
12911TIP3    H138676   0.123   1.326   5.645
12911TIP3    H238677   0.164   1.422   5.536
12912TIP3   OH238678   7.048   6.268   2.179
12912TIP3    H138679   7.035   6.281   2.085
12912TIP3    H238680   7.063   6.356   2.213
12913TIP3   OH238681   2.150   2.374   1.034
12913TIP3    H138682   2.204   2.323   0.973
12913TIP3    H238683   2.076   2.317   1.055
12914TIP3   OH238684   0.895   0.632   4.606
12914TIP3    H138685   0.834   0.690   4.560
12914TIP3    H238686   0.842   0.557   4.633
12915TIP3   OH238687   0.355   4.642   2.556
12915TIP3    H138688   0.379   4.734   2.568
12915TIP3    H238689   0.379   4.600   2.638
12916TIP3   OH238690   8.108   6.199   2.907
12916TIP3    H138691   8.021   6.176   2.873
12916TIP3    H238692   8.116   6.293   2.891
12917TIP3   OH238693   8.033   4.893   0.105
12917TIP3    H138694   7.954   4.841   0.090
12917TIP3    H238695   8.104   4.829   0.104
12918TIP3   OH238696   6.264   3.621   0.928
12918TIP3    H138697   6.270   3.561   0.854
12918TIP3    H238698   6.313   3.698   0.901
12919TIP3   OH238699   4.556   2.875   3.781
12919TIP3    H138700   4.593   2.891   3.694
12919TIP3    H238701   4.620   2.911   3.842
12920TIP3   OH238702   7.247   7.013   3.678
12920TIP3    H138703   7.255   6.918   3.665
12920TIP3    H238704   7.319   7.035   3.737
12921TIP3   OH238705   5.303   6.856   1.133
12921TIP3    H138706   5.284   6.817   1.218
12921TIP3    H238707   5.255   6.802   1.070
12922TIP3   OH238708   0.810   6.933   1.826
12922TIP3    H138709   0.883   6.984   1.861
12922TIP3    H238710   0.845   6.845   1.817
12923TIP3   OH238711   5.576   5.013   6.150
12923TIP3    H138712   5.593   5.062   6.069
12923TIP3    H238713   5.584   5.079   6.220
12924TIP3   OH238714   6.919   6.349   3.867
12924TIP3    H138715   6.857   6.421   3.876
12924TIP3    H238716   6.906   6.296   3.946
12925TIP3   OH238717   4.445   0.011   3.796
12925TIP3    H138718   4.523   0.066   3.798
12925TIP3    H238719   4.394   0.046   3.722
12926TIP3   OH238720   6.240   3.162   1.113
12926TIP3    H138721   6.235   3.136   1.021
12926TIP3    H238722   6.327   3.201   1.123
12927TIP3   OH238723   6.752   0.805   6.371
12927TIP3    H138724   6.725   0.833   6.458
12927TIP3    H238725   6.740   0.882   6.316
12928TIP3   OH238726   7.498   4.053   2.941
12928TIP3    H138727   7.536   4.138   2.922
12928TIP3    H238728   7.464   4.061   3.030
12929TIP3   OH238729   1.158   5.933   6.631
12929TIP3    H138730   1.140   5.907   6.722
12929TIP3    H238731   1.222   6.003   6.639
12930TIP3   OH238732   3.302   0.664   6.109
12930TIP3    H138733   3.290   0.618   6.026
12930TIP3    H238734   3.256   0.610   6.173
12931TIP3   OH238735   5.264   6.134   1.247
12931TIP3    H138736   5.237   6.107   1.160
12931TIP3    H238737   5.300   6.054   1.287
12932TIP3   OH238738   6.480   1.400   3.052
12932TIP3    H138739   6.490   1.471   2.989
12932TIP3    H238740   6.385   1.386   3.058
12933TIP3   OH238741   1.574   6.402   0.294
12933TIP3    H138742   1.530   6.406   0.209
12933TIP3    H238743   1.667   6.401   0.272
12934TIP3   OH238744   7.105   1.899   3.551
12934TIP3    H138745   7.182   1.945   3.516
12934TIP3    H238746   7.091   1.939   3.637
12935TIP3   OH238747   2.194   0.394   1.051
12935TIP3    H138748   2.165   0.324   1.110
12935TIP3    H238749   2.117   0.417   1.001
12936TIP3   OH238750   2.823   4.042   5.794
12936TIP3    H138751   2.868   4.126   5.802
12936TIP3    H238752   2.767   4.038   5.872
12937TIP3   OH238753   0.627   3.331   4.339
12937TIP3    H138754   0.585   3.245   4.340
12937TIP3    H238755   0.719   3.312   4.318
12938TIP3   OH238756   6.369   0.842   2.896
12938TIP3    H138757   6.289   0.861   2.847
12938TIP3    H238758   6.341   0.845   2.988
12939TIP3   OH238759   1.738   0.458   0.727
12939TIP3    H138760   1.691   0.390   0.680
12939TIP3    H238761   1.699   0.460   0.814
12940TIP3   OH238762   8.132   5.033   3.456
12940TIP3    H138763   8.138   5.076   3.541
12940TIP3    H238764   8.047   4.989   3.457
12941TIP3   OH238765   1.791   4.049   0.375
12941TIP3    H138766   1.866   4.078   0.321
12941TIP3    H238767   1.767   3.964   0.339
12942TIP3   OH238768   1.481   5.201   0.632
12942TIP3    H138769   1.453   5.292   0.631
12942TIP3    H238770   1.535   5.192   0.553
12943TIP3   OH238771   1.334   7.688   3.332
12943TIP3    H138772   1.273   7.672   3.260
12943TIP3    H238773   1.398   7.617   3.326
12944TIP3   OH238774   7.446   0.713   5.872
12944TIP3    H138775   7.477   0.625   5.851
12944TIP3    H238776   7.505   0.771   5.824
12945TIP3   OH238777   1.935   1.560   2.625
12945TIP3    H138778   1.957   1.579   2.534
12945TIP3    H238779   1.881   1.481   2.620
12946TIP3   OH238780   4.165   7.563   1.642
12946TIP3    H138781   4.087   7.507   1.648
12946TIP3    H238782   4.219   7.523   1.575
12947TIP3   OH238783   1.170   1.880   3.128
12947TIP3    H138784   1.127   1.806   3.171
12947TIP3    H238785   1.263   1.860   3.136
12948TIP3   OH238786   2.531   1.966   4.273
12948TIP3    H138787   2.536   2.061   4.264
12948TIP3    H238788   2.541   1.932   4.184
12949TIP3   OH238789   5.270   0.450   5.012
12949TIP3    H138790   5.233   0.366   5.039
12949TIP3    H238791   5.364   0.442   5.032
12950TIP3   OH238792   4.781   1.597   6.167
12950TIP3    H138793   4.744   1.533   6.106
12950TIP3    H238794   4.743   1.680   6.141
12951TIP3   OH238795   2.425   0.592   2.268
12951TIP3    H138796   2.424   0.569   2.175
12951TIP3    H238797   2.343   0.557   2.303
12952TIP3   OH238798   5.730   5.911   3.385
12952TIP3    H138799   5.656   5.909   3.324
12952TIP3    H238800   5.702   5.973   3.454
12953TIP3   OH238801   6.604   4.005   3.916
12953TIP3    H138802   6.544   4.077   3.932
12953TIP3    H238803   6.666   4.039   3.851
12954TIP3   OH238804   6.604   1.062   1.718
12954TIP3    H138805   6.610   1.010   1.638
12954TIP3    H238806   6.685   1.112   1.720
12955TIP3   OH238807   4.963   4.947   3.390
12955TIP3    H138808   4.948   4.998   3.469
12955TIP3    H238809   4.880   4.902   3.374
12956TIP3   OH238810   6.593   0.379   5.085
12956TIP3    H138811   6.529   0.331   5.032
12956TIP3    H238812   6.658   0.410   5.022
12957TIP3   OH238813   1.401   1.389   0.459
12957TIP3    H138814   1.429   1.305   0.422
12957TIP3    H238815   1.344   1.364   0.532
12958TIP3   OH238816   3.411   4.699   6.390
12958TIP3    H138817   3.422   4.710   6.295
12958TIP3    H238818   3.481   4.750   6.429
12959TIP3   OH238819   0.902   6.564   0.065
12959TIP3    H138820   0.902   6.525  -0.022
12959TIP3    H238821   0.919   6.490   0.124
12960TIP3   OH238822   0.028   4.450   1.477
12960TIP3    H138823   0.108   4.408   1.509
12960TIP3    H238824   0.016   4.527   1.533
12961TIP3   OH238825   7.648   7.129   1.352
12961TIP3    H138826   7.743   7.117   1.354
12961TIP3    H238827   7.628   7.181   1.430
12962TIP3   OH238828   4.345   7.671   6.342
12962TIP3    H138829   4.390   7.661   6.426
12962TIP3    H238830   4.416   7.670   6.277
12963TIP3   OH238831   3.909   0.481   0.118
12963TIP3    H138832   3.954   0.420   0.060
12963TIP3    H238833   3.827   0.500   0.073
12964TIP3   OH238834   3.107   3.416   1.879
12964TIP3    H138835   3.151   3.487   1.832
12964TIP3    H238836   3.045   3.460   1.937
12965TIP3   OH238837   4.565   7.060   4.950
12965TIP3    H138838   4.540   6.996   5.017
12965TIP3    H238839   4.642   7.022   4.908
12966TIP3   OH238840   7.292   7.555   0.179
12966TIP3    H138841   7.196   7.553   0.188
12966TIP3    H238842   7.307   7.549   0.085
12967TIP3   OH238843   0.233   1.801   3.199
12967TIP3    H138844   0.263   1.876   3.251
12967TIP3    H238845   0.224   1.835   3.110
12968TIP3   OH238846   3.301   5.255   3.426
12968TIP3    H138847   3.376   5.209   3.462
12968TIP3    H238848   3.225   5.214   3.467
12969TIP3   OH238849   0.318   0.681   6.580
12969TIP3    H138850   0.397   0.627   6.574
12969TIP3    H238851   0.349   0.770   6.565
12970TIP3   OH238852   8.231   7.559   0.098
12970TIP3    H138853   8.204   7.643   0.133
12970TIP3    H238854   8.280   7.580   0.018
12971TIP3   OH238855   2.571   7.157   6.444
12971TIP3    H138856   2.582   7.204   6.362
12971TIP3    H238857   2.620   7.076   6.433
12972TIP3   OH238858   2.966   0.483   3.927
12972TIP3    H138859   2.903   0.553   3.913
12972TIP3    H238860   2.932   0.410   3.875
12973TIP3   OH238861   3.406   3.808   0.061
12973TIP3    H138862   3.323   3.768   0.084
12973TIP3    H238863   3.389   3.902   0.064
12974TIP3   OH238864   4.565   5.136   1.503
12974TIP3    H138865   4.656   5.125   1.532
12974TIP3    H238866   4.519   5.168   1.580
12975TIP3   OH238867   4.419   1.613   4.886
12975TIP3    H138868   4.426   1.615   4.981
12975TIP3    H238869   4.455   1.697   4.857
12976TIP3   OH238870   4.792   2.512   1.660
12976TIP3    H138871   4.713   2.548   1.621
12976TIP3    H238872   4.820   2.578   1.724
12977TIP3   OH238873   1.198   4.290   5.006
12977TIP3    H138874   1.268   4.339   4.963
12977TIP3    H238875   1.176   4.342   5.083
12978TIP3   OH238876   5.666   2.231   0.249
12978TIP3    H138877   5.733   2.163   0.240
12978TIP3    H238878   5.701   2.290   0.315
12979TIP3   OH238879   3.982   4.201   1.429
12979TIP3    H138880   4.047   4.241   1.372
12979TIP3    H238881   4.028   4.127   1.469
12980TIP3   OH238882   5.725   1.309   6.562
12980TIP3    H138883   5.734   1.361   6.482
12980TIP3    H238884   5.669   1.362   6.619
12981TIP3   OH238885   1.501   0.527   0.498
12981TIP3    H138886   1.593   0.516   0.475
12981TIP3    H238887   1.477   0.446   0.544
12982TIP3   OH238888   1.471   2.361   5.985
12982TIP3    H138889   1.498   2.438   6.036
12982TIP3    H238890   1.471   2.290   6.049
12983TIP3   OH238891   5.921   4.065   1.323
12983TIP3    H138892   5.864   4.004   1.369
12983TIP3    H238893   5.987   4.090   1.387
12984TIP3   OH238894   4.044   5.005   3.933
12984TIP3    H138895   4.097   5.016   3.854
12984TIP3    H238896   4.090   5.057   4.000
12985TIP3   OH238897   6.609   2.979   6.215
12985TIP3    H138898   6.522   2.991   6.176
12985TIP3    H238899   6.645   3.068   6.219
12986TIP3   OH238900   5.245   7.052   1.584
12986TIP3    H138901   5.232   6.987   1.653
12986TIP3    H238902   5.233   7.004   1.502
12987TIP3   OH238903   5.471   7.780   1.019
12987TIP3    H138904   5.437   7.865   1.047
12987TIP3    H238905   5.559   7.776   1.057
12988TIP3   OH238906   3.759   5.437   2.025
12988TIP3    H138907   3.735   5.502   2.090
12988TIP3    H238908   3.804   5.487   1.957
12989TIP3   OH238909   1.254   4.976   6.640
12989TIP3    H138910   1.335   5.025   6.655
12989TIP3    H238911   1.283   4.885   6.630
12990TIP3   OH238912   5.013   3.591   5.290
12990TIP3    H138913   4.934   3.593   5.236
12990TIP3    H238914   4.990   3.532   5.362
12991TIP3   OH238915   5.841   5.758   1.210
12991TIP3    H138916   5.933   5.760   1.237
12991TIP3    H238917   5.817   5.850   1.198
12992TIP3   OH238918   4.628   5.648   6.358
12992TIP3    H138919   4.607   5.717   6.421
12992TIP3    H238920   4.654   5.573   6.411
12993TIP3   OH238921   7.165   4.072   2.394
12993TIP3    H138922   7.222   4.007   2.354
12993TIP3    H238923   7.076   4.042   2.372
12994TIP3   OH238924   5.346   0.876   2.289
12994TIP3    H138925   5.283   0.804   2.289
12994TIP3    H238926   5.404   0.857   2.363
12995TIP3   OH238927   8.115   6.790   3.535
12995TIP3    H138928   8.170   6.719   3.502
12995TIP3    H238929   8.033   6.783   3.486
12996TIP3   OH238930   8.109   2.203   1.084
12996TIP3    H138931   8.092   2.159   1.167
12996TIP3    H238932   8.194   2.245   1.096
12997TIP3   OH238933   4.746   2.654   2.070
12997TIP3    H138934   4.670   2.597   2.059
12997TIP3    H238935   4.772   2.642   2.162
12998TIP3   OH238936   5.086   7.513   6.259
12998TIP3    H138937   5.021   7.575   6.230
12998TIP3    H238938   5.036   7.440   6.295
12999TIP3   OH238939   0.541   3.535   1.163
12999TIP3    H138940   0.460   3.492   1.136
12999TIP3    H238941   0.520   3.628   1.163
13000TIP3   OH238942   4.199   3.723   1.362
13000TIP3    H138943   4.200   3.722   1.458
13000TIP3    H238944   4.168   3.636   1.338
13001TIP3   OH238945   7.621   5.562   0.418
13001TIP3    H138946   7.602   5.651   0.448
13001TIP3    H238947   7.576   5.505   0.481
13002TIP3   OH238948   3.728   6.232   4.661
13002TIP3    H138949   3.758   6.146   4.690
13002TIP3    H238950   3.643   6.216   4.620
13003TIP3   OH238951   7.811   6.632   1.836
13003TIP3    H138952   7.837   6.650   1.926
13003TIP3    H238953   7.825   6.714   1.789
13004TIP3   OH238954   4.177   0.287   5.298
13004TIP3    H138955   4.217   0.268   5.383
13004TIP3    H238956   4.249   0.317   5.243
13005TIP3   OH238957   8.276   7.544   4.771
13005TIP3    H138958   8.286   7.481   4.842
13005TIP3    H238959   8.303   7.496   4.693
13006TIP3   OH238960   7.582   3.973   5.576
13006TIP3    H138961   7.596   3.883   5.607
13006TIP3    H238962   7.501   4.000   5.619
13007TIP3   OH238963   6.259   0.933   5.042
13007TIP3    H138964   6.288   0.979   5.121
13007TIP3    H238965   6.306   0.976   4.970
13008TIP3   OH238966   1.134   2.844   2.200
13008TIP3    H138967   1.177   2.876   2.280
13008TIP3    H238968   1.067   2.783   2.232
13009TIP3   OH238969   6.078   4.705   6.288
13009TIP3    H138970   6.072   4.732   6.196
13009TIP3    H238971   6.169   4.678   6.299
13010TIP3   OH238972   1.534   2.472   0.862
13010TIP3    H138973   1.616   2.517   0.843
13010TIP3    H238974   1.468   2.542   0.859
13011TIP3   OH238975   6.414   2.413   0.819
13011TIP3    H138976   6.444   2.499   0.789
13011TIP3    H238977   6.494   2.361   0.827
13012TIP3   OH238978   3.319   2.384   1.271
13012TIP3    H138979   3.339   2.472   1.240
13012TIP3    H238980   3.224   2.377   1.265
13013TIP3   OH238981   3.340   4.141   2.294
13013TIP3    H138982   3.330   4.179   2.206
13013TIP3    H238983   3.434   4.145   2.311
13014TIP3   OH238984   2.341   2.368   0.300
13014TIP3    H138985   2.357   2.462   0.293
13014TIP3    H238986   2.382   2.331   0.222
13015TIP3   OH238987   3.833   2.988   0.688
13015TIP3    H138988   3.862   3.032   0.608
13015TIP3    H238989   3.816   2.898   0.660
13016TIP3   OH238990   7.182   2.126   2.943
13016TIP3    H138991   7.257   2.186   2.942
13016TIP3    H238992   7.158   2.118   3.035
13017TIP3   OH238993   0.383   2.875   4.283
13017TIP3    H138994   0.295   2.845   4.309
13017TIP3    H238995   0.432   2.875   4.365
13018TIP3   OH238996   3.704   6.922   5.893
13018TIP3    H138997   3.641   6.912   5.964
13018TIP3    H238998   3.770   6.855   5.910
13019TIP3   OH238999   6.310   7.591   0.878
13019TIP3    H139000   6.281   7.565   0.791
13019TIP3    H239001   6.382   7.531   0.898
13020TIP3   OH239002   6.434   0.277   4.847
13020TIP3    H139003   6.359   0.220   4.831
13020TIP3    H239004   6.396   0.364   4.861
13021TIP3   OH239005   0.359   2.574   6.411
13021TIP3    H139006   0.381   2.649   6.356
13021TIP3    H239007   0.336   2.612   6.496
13022TIP3   OH239008   2.054   6.338   1.794
13022TIP3    H139009   2.041   6.358   1.887
13022TIP3    H239010   2.071   6.244   1.791
13023TIP3   OH239011   5.765   7.712   0.415
13023TIP3    H139012   5.842   7.701   0.472
13023TIP3    H239013   5.768   7.803   0.387
13024TIP3   OH239014   7.621   1.474   2.667
13024TIP3    H139015   7.640   1.543   2.731
13024TIP3    H239016   7.613   1.520   2.583
13025TIP3   OH239017   3.027   6.298   2.870
13025TIP3    H139018   2.963   6.299   2.799
13025TIP3    H239019   3.111   6.292   2.825
13026TIP3   OH239020   4.372   1.523   1.193
13026TIP3    H139021   4.394   1.452   1.253
13026TIP3    H239022   4.279   1.538   1.206
13027TIP3   OH239023   7.327   4.961   6.591
13027TIP3    H139024   7.274   5.032   6.627
13027TIP3    H239025   7.310   4.963   6.497
13028TIP3   OH239026   4.483   6.256   1.948
13028TIP3    H139027   4.428   6.273   1.872
13028TIP3    H239028   4.430   6.283   2.023
13029TIP3   OH239029   3.566   4.808   3.425
13029TIP3    H139030   3.553   4.726   3.474
13029TIP3    H239031   3.489   4.815   3.369
13030TIP3   OH239032   3.888   3.735   4.689
13030TIP3    H139033   3.952   3.782   4.743
13030TIP3    H239034   3.807   3.785   4.699
13031TIP3   OH239035   1.269   3.267   3.116
13031TIP3    H139036   1.287   3.360   3.128
13031TIP3    H239037   1.343   3.234   3.065
13032TIP3   OH239038   4.438   4.658   6.318
13032TIP3    H139039   4.510   4.601   6.343
13032TIP3    H239040   4.435   4.653   6.222
13033TIP3   OH239041   6.707   4.330   4.872
13033TIP3    H139042   6.771   4.393   4.906
13033TIP3    H239043   6.731   4.247   4.914
13034TIP3   OH239044   8.184   4.936   1.366
13034TIP3    H139045   8.161   4.880   1.291
13034TIP3    H239046   8.278   4.952   1.356
13035TIP3   OH239047   3.978   3.076   2.232
13035TIP3    H139048   3.907   3.139   2.249
13035TIP3    H239049   4.004   3.094   2.142
13036TIP3   OH239050   1.451   6.608   4.193
13036TIP3    H139051   1.441   6.697   4.159
13036TIP3    H239052   1.405   6.553   4.129
13037TIP3   OH239053   3.685   0.164   5.546
13037TIP3    H139054   3.595   0.195   5.561
13037TIP3    H239055   3.735   0.244   5.529
13038TIP3   OH239056   6.051   4.378   1.325
13038TIP3    H139057   5.960   4.354   1.309
13038TIP3    H239058   6.081   4.317   1.393
13039TIP3   OH239059   4.947   0.277   0.298
13039TIP3    H139060   4.945   0.316   0.386
13039TIP3    H239061   4.879   0.210   0.300
13040TIP3   OH239062   1.957   2.268   4.315
13040TIP3    H139063   1.886   2.275   4.378
13040TIP3    H239064   1.960   2.353   4.272
13041TIP3   OH239065   4.320   0.038   4.627
13041TIP3    H139066   4.402   0.048   4.675
13041TIP3    H239067   4.268   0.114   4.653
13042TIP3   OH239068   1.251   0.401   5.783
13042TIP3    H139069   1.270   0.308   5.792
13042TIP3    H239070   1.229   0.413   5.691
13043TIP3   OH239071   0.880   5.277   4.853
13043TIP3    H139072   0.897   5.343   4.786
13043TIP3    H239073   0.897   5.194   4.808
13044TIP3   OH239074   7.296   1.850   4.657
13044TIP3    H139075   7.288   1.846   4.752
13044TIP3    H239076   7.257   1.768   4.625
13045TIP3   OH239077   1.368   2.044   4.620
13045TIP3    H139078   1.322   1.996   4.552
13045TIP3    H239079   1.372   1.983   4.694
13046TIP3   OH239080   2.387   3.859   6.752
13046TIP3    H139081   2.312   3.918   6.749
13046TIP3    H239082   2.377   3.804   6.674
13047TIP3   OH239083   1.268   2.798   2.610
13047TIP3    H139084   1.312   2.841   2.684
13047TIP3    H239085   1.331   2.802   2.539
13048TIP3   OH239086   5.431   2.464   5.284
13048TIP3    H139087   5.511   2.442   5.236
13048TIP3    H239088   5.430   2.404   5.358
13049TIP3   OH239089   2.915   3.630   5.519
13049TIP3    H139090   2.912   3.571   5.443
13049TIP3    H239091   3.007   3.628   5.546
13050TIP3   OH239092   6.520   4.359   0.195
13050TIP3    H139093   6.473   4.427   0.243
13050TIP3    H239094   6.517   4.283   0.253
13051TIP3   OH239095   5.004   7.079   4.622
13051TIP3    H139096   5.081   7.095   4.677
13051TIP3    H239097   5.023   7.124   4.540
13052TIP3   OH239098   5.777   2.893   6.540
13052TIP3    H139099   5.763   2.973   6.490
13052TIP3    H239100   5.873   2.886   6.548
13053TIP3   OH239101   4.140   0.598   2.889
13053TIP3    H139102   4.177   0.676   2.930
13053TIP3    H239103   4.187   0.525   2.930
13054TIP3   OH239104   2.603   1.442   4.830
13054TIP3    H139105   2.669   1.373   4.828
13054TIP3    H239106   2.649   1.519   4.797
13055TIP3   OH239107   8.025   1.177   3.786
13055TIP3    H139108   8.120   1.177   3.782
13055TIP3    H239109   8.002   1.263   3.820
13056TIP3   OH239110   6.653   5.252   5.338
13056TIP3    H139111   6.657   5.160   5.310
13056TIP3    H239112   6.604   5.296   5.268
13057TIP3   OH239113   1.720   6.106   2.407
13057TIP3    H139114   1.630   6.084   2.429
13057TIP3    H239115   1.771   6.029   2.433
13058TIP3   OH239116   0.258   5.346   6.034
13058TIP3    H139117   0.238   5.373   5.945
13058TIP3    H239118   0.192   5.391   6.088
13059TIP3   OH239119   2.053   2.572   1.495
13059TIP3    H139120   1.976   2.628   1.489
13059TIP3    H239121   2.127   2.633   1.494
13060TIP3   OH239122   4.431   4.384   1.918
13060TIP3    H139123   4.420   4.468   1.961
13060TIP3    H239124   4.506   4.396   1.860
13061TIP3   OH239125   5.590   4.534   6.757
13061TIP3    H139126   5.601   4.483   6.676
13061TIP3    H239127   5.503   4.508   6.789
13062TIP3   OH239128   3.022   2.582   0.037
13062TIP3    H139129   2.941   2.621   0.004
13062TIP3    H239130   3.063   2.542  -0.040
13063TIP3   OH239131   4.772   3.033   0.091
13063TIP3    H139132   4.818   2.950   0.076
13063TIP3    H239133   4.685   3.018   0.054
13064TIP3   OH239134   4.663   4.530   2.338
13064TIP3    H139135   4.754   4.498   2.339
13064TIP3    H239136   4.655   4.575   2.254
13065TIP3   OH239137   6.530   3.194   1.152
13065TIP3    H139138   6.626   3.193   1.144
13065TIP3    H239139   6.513   3.234   1.237
13066TIP3   OH239140   7.877   5.161   4.769
13066TIP3    H139141   7.933   5.144   4.845
13066TIP3    H239142   7.792   5.182   4.806
13067TIP3   OH239143   6.254   3.676   6.760
13067TIP3    H139144   6.306   3.641   6.688
13067TIP3    H239145   6.200   3.744   6.719
13068TIP3   OH239146   0.483   0.418   5.918
13068TIP3    H139147   0.560   0.408   5.974
13068TIP3    H239148   0.417   0.455   5.976
13069TIP3   OH239149   1.530   4.658   5.484
13069TIP3    H139150   1.574   4.574   5.500
13069TIP3    H239151   1.591   4.707   5.429
13070TIP3   OH239152   6.663   5.796   6.587
13070TIP3    H139153   6.608   5.754   6.521
13070TIP3    H239154   6.719   5.855   6.536
13071TIP3   OH239155   3.135   5.395   1.261
13071TIP3    H139156   3.070   5.370   1.195
13071TIP3    H239157   3.149   5.316   1.312
13072TIP3   OH239158   2.435   0.576   1.498
13072TIP3    H139159   2.474   0.492   1.520
13072TIP3    H239160   2.455   0.632   1.573
13073TIP3   OH239161   3.120   2.028   3.304
13073TIP3    H139162   3.187   1.959   3.301
13073TIP3    H239163   3.112   2.050   3.397
13074TIP3   OH239164   4.167   5.262   4.991
13074TIP3    H139165   4.088   5.213   4.967
13074TIP3    H239166   4.140   5.354   4.984
13075TIP3   OH239167   7.132   4.761   3.504
13075TIP3    H139168   7.058   4.781   3.447
13075TIP3    H239169   7.141   4.839   3.560
13076TIP3   OH239170   7.897   6.535   2.361
13076TIP3    H139171   7.899   6.513   2.455
13076TIP3    H239172   7.841   6.613   2.356
13077TIP3   OH239173   6.236   5.051   5.109
13077TIP3    H139174   6.272   5.053   5.198
13077TIP3    H239175   6.165   4.987   5.113
13078TIP3   OH239176   1.831   6.072   1.245
13078TIP3    H139177   1.826   6.147   1.187
13078TIP3    H239178   1.818   6.108   1.333
13079TIP3   OH239179   6.950   0.242   4.169
13079TIP3    H139180   6.913   0.223   4.082
13079TIP3    H239181   6.873   0.260   4.223
13080TIP3   OH239182   1.776   3.960   0.638
13080TIP3    H139183   1.781   4.044   0.593
13080TIP3    H239184   1.740   3.900   0.573
13081TIP3   OH239185   0.548   4.867   2.065
13081TIP3    H139186   0.587   4.852   1.979
13081TIP3    H239187   0.547   4.780   2.106
13082TIP3   OH239188   6.593   0.312   1.653
13082TIP3    H139189   6.500   0.288   1.655
13082TIP3    H239190   6.625   0.290   1.741
13083TIP3   OH239191   4.609   3.753   1.878
13083TIP3    H139192   4.593   3.847   1.885
13083TIP3    H239193   4.574   3.729   1.792
13084TIP3   OH239194   6.826   0.764   0.541
13084TIP3    H139195   6.806   0.684   0.590
13084TIP3    H239196   6.780   0.753   0.458
13085TIP3   OH239197   3.053   3.610   0.581
13085TIP3    H139198   3.147   3.594   0.583
13085TIP3    H239199   3.015   3.533   0.538
13086TIP3   OH239200   2.830   3.824   4.639
13086TIP3    H139201   2.738   3.806   4.618
13086TIP3    H239202   2.860   3.882   4.569
13087TIP3   OH239203   6.666   2.052   5.872
13087TIP3    H139204   6.707   1.969   5.847
13087TIP3    H239205   6.594   2.027   5.930
13088TIP3   OH239206   0.041   7.469   1.622
13088TIP3    H139207   0.033   7.385   1.668
13088TIP3    H239208   0.005   7.533   1.683
13089TIP3   OH239209   5.492   1.379   5.103
13089TIP3    H139210   5.431   1.438   5.059
13089TIP3    H239211   5.579   1.408   5.075
13090TIP3   OH239212   8.247   4.320   3.073
13090TIP3    H139213   8.207   4.380   3.136
13090TIP3    H239214   8.172   4.276   3.031
13091TIP3   OH239215   4.376   2.088   3.369
13091TIP3    H139216   4.314   2.016   3.360
13091TIP3    H239217   4.461   2.048   3.352
13092TIP3   OH239218   4.879   7.816   4.357
13092TIP3    H139219   4.856   7.861   4.276
13092TIP3    H239220   4.887   7.724   4.331
13093TIP3   OH239221   4.937   6.515   1.295
13093TIP3    H139222   4.983   6.447   1.344
13093TIP3    H239223   4.963   6.502   1.204
13094TIP3   OH239224   7.002   0.296   2.030
13094TIP3    H139225   6.968   0.276   2.117
13094TIP3    H239226   7.057   0.221   2.008
13095TIP3   OH239227   7.285   1.868   5.195
13095TIP3    H139228   7.371   1.896   5.227
13095TIP3    H239229   7.234   1.852   5.275
13096TIP3   OH239230   2.819   5.229   3.446
13096TIP3    H139231   2.842   5.140   3.419
13096TIP3    H239232   2.845   5.233   3.538
13097TIP3   OH239233   6.703   7.749   2.890
13097TIP3    H139234   6.774   7.781   2.946
13097TIP3    H239235   6.648   7.698   2.950
13098TIP3   OH239236   7.341   5.166   1.420
13098TIP3    H139237   7.346   5.168   1.516
13098TIP3    H239238   7.248   5.171   1.400
13099TIP3   OH239239   4.729   0.251   0.753
13099TIP3    H139240   4.700   0.318   0.815
13099TIP3    H239241   4.714   0.168   0.800
13100TIP3   OH239242   1.008   3.757   4.447
13100TIP3    H139243   0.970   3.837   4.411
13100TIP3    H239244   0.948   3.732   4.518
13101TIP3   OH239245   3.434   0.543   4.294
13101TIP3    H139246   3.384   0.467   4.323
13101TIP3    H239247   3.459   0.522   4.204
13102TIP3   OH239248   4.190   1.572   2.463
13102TIP3    H139249   4.142   1.626   2.400
13102TIP3    H239250   4.135   1.495   2.475
13103TIP3   OH239251   6.602   2.291   1.458
13103TIP3    H139252   6.560   2.374   1.439
13103TIP3    H239253   6.539   2.244   1.512
13104TIP3   OH239254   1.051   4.792   2.294
13104TIP3    H139255   1.143   4.767   2.305
13104TIP3    H239256   1.050   4.887   2.303
13105TIP3   OH239257   7.869   3.791   6.750
13105TIP3    H139258   7.931   3.722   6.726
13105TIP3    H239259   7.900   3.868   6.703
13106TIP3   OH239260   3.649   1.944   5.330
13106TIP3    H139261   3.664   1.885   5.257
13106TIP3    H239262   3.569   1.992   5.308
13107TIP3   OH239263   1.067   5.739   3.063
13107TIP3    H139264   1.011   5.673   3.104
13107TIP3    H239265   1.050   5.731   2.969
13108TIP3   OH239266   1.448   6.701   5.544
13108TIP3    H139267   1.412   6.788   5.557
13108TIP3    H239268   1.444   6.660   5.630
13109TIP3   OH239269   4.797   1.233   4.324
13109TIP3    H139270   4.781   1.288   4.248
13109TIP3    H239271   4.889   1.207   4.317
13110TIP3   OH239272   0.354   1.473   1.894
13110TIP3    H139273   0.374   1.505   1.806
13110TIP3    H239274   0.413   1.398   1.906
13111TIP3   OH239275   5.806   6.871   1.895
13111TIP3    H139276   5.846   6.958   1.901
13111TIP3    H239277   5.820   6.833   1.982
13112TIP3   OH239278   0.666   5.995   4.690
13112TIP3    H139279   0.704   5.927   4.634
13112TIP3    H239280   0.599   5.949   4.740
13113TIP3   OH239281   0.800   1.555   1.757
13113TIP3    H139282   0.742   1.480   1.744
13113TIP3    H239283   0.820   1.555   1.851
13114TIP3   OH239284   2.390   2.527   6.121
13114TIP3    H139285   2.480   2.559   6.133
13114TIP3    H239286   2.336   2.588   6.170
13115TIP3   OH239287   6.256   6.645   0.432
13115TIP3    H139288   6.168   6.635   0.394
13115TIP3    H239289   6.258   6.582   0.504
13116TIP3   OH239290   1.821   1.555   3.192
13116TIP3    H139291   1.802   1.530   3.102
13116TIP3    H239292   1.846   1.647   3.187
13117TIP3   OH239293   5.683   1.532   1.519
13117TIP3    H139294   5.757   1.522   1.579
13117TIP3    H239295   5.672   1.446   1.480
13118TIP3   OH239296   4.298   5.720   4.669
13118TIP3    H139297   4.219   5.668   4.680
13118TIP3    H239298   4.314   5.758   4.755
13119TIP3   OH239299   6.817   4.686   4.806
13119TIP3    H139300   6.880   4.614   4.812
13119TIP3    H239301   6.740   4.647   4.764
13120TIP3   OH239302   7.796   1.981   2.221
13120TIP3    H139303   7.758   1.948   2.140
13120TIP3    H239304   7.749   2.063   2.237
13121TIP3   OH239305   3.127   2.059   5.637
13121TIP3    H139306   3.122   1.990   5.703
13121TIP3    H239307   3.184   2.126   5.676
13122TIP3   OH239308   3.034   2.861   1.422
13122TIP3    H139309   3.077   2.781   1.392
13122TIP3    H239310   2.962   2.831   1.477
13123TIP3   OH239311   6.528   4.176   5.784
13123TIP3    H139312   6.532   4.099   5.841
13123TIP3    H239313   6.503   4.247   5.842
13124TIP3   OH239314   6.308   5.802   0.065
13124TIP3    H139315   6.386   5.837   0.107
13124TIP3    H239316   6.303   5.711   0.096
13125TIP3   OH239317   4.599   5.809   4.672
13125TIP3    H139318   4.667   5.801   4.605
13125TIP3    H239319   4.610   5.732   4.727
13126TIP3   OH239320   5.764   2.738   3.421
13126TIP3    H139321   5.780   2.657   3.373
13126TIP3    H239322   5.673   2.730   3.452
13127TIP3   OH239323   1.396   5.053   3.497
13127TIP3    H139324   1.470   5.002   3.462
13127TIP3    H239325   1.367   5.107   3.424
13128TIP3   OH239326   0.482   3.836   6.571
13128TIP3    H139327   0.464   3.807   6.661
13128TIP3    H239328   0.541   3.910   6.581
13129TIP3   OH239329   1.215   5.546   3.618
13129TIP3    H139330   1.143   5.545   3.555
13129TIP3    H239331   1.186   5.488   3.689
13130TIP3   OH239332   6.711   3.423   1.078
13130TIP3    H139333   6.777   3.374   1.029
13130TIP3    H239334   6.723   3.396   1.169
13131TIP3   OH239335   2.932   7.317   3.917
13131TIP3    H139336   3.007   7.316   3.858
13131TIP3    H239337   2.880   7.392   3.887
13132TIP3   OH239338   3.871   5.012   5.140
13132TIP3    H139339   3.813   4.988   5.213
13132TIP3    H239340   3.924   4.934   5.125
13133TIP3   OH239341   1.741   2.282   6.001
13133TIP3    H139342   1.817   2.341   5.999
13133TIP3    H239343   1.666   2.339   5.988
13134TIP3   OH239344   8.070   0.429   1.573
13134TIP3    H139345   8.044   0.516   1.543
13134TIP3    H239346   8.069   0.375   1.494
13135TIP3   OH239347   7.990   4.175   2.302
13135TIP3    H139348   7.969   4.165   2.394
13135TIP3    H239349   7.952   4.098   2.260
13136TIP3   OH239350   3.893   4.571   4.832
13136TIP3    H139351   3.839   4.616   4.898
13136TIP3    H239352   3.961   4.634   4.810
13137TIP3   OH239353   0.020   5.990   3.455
13137TIP3    H139354   0.084   5.918   3.458
13137TIP3    H239355   0.068   6.063   3.415
13138TIP3   OH239356   3.964   5.563   2.273
13138TIP3    H139357   3.939   5.636   2.216
13138TIP3    H239358   4.014   5.605   2.344
13139TIP3   OH239359   1.401   0.601   4.362
13139TIP3    H139360   1.425   0.630   4.274
13139TIP3    H239361   1.305   0.600   4.362
13140TIP3   OH239362   4.669   5.959   4.971
13140TIP3    H139363   4.650   5.967   4.878
13140TIP3    H239364   4.605   5.895   5.004
13141TIP3   OH239365   1.652   5.057   3.161
13141TIP3    H139366   1.666   5.001   3.084
13141TIP3    H239367   1.667   5.146   3.128
13142TIP3   OH239368   1.086   5.259   1.115
13142TIP3    H139369   1.139   5.261   1.195
13142TIP3    H239370   1.115   5.181   1.069
13143TIP3   OH239371   5.122   5.182   2.538
13143TIP3    H139372   5.120   5.087   2.540
13143TIP3    H239373   5.060   5.209   2.606
13144TIP3   OH239374   7.592   5.165   5.365
13144TIP3    H139375   7.679   5.205   5.357
13144TIP3    H239376   7.610   5.074   5.388
13145TIP3   OH239377   1.390   5.339   5.120
13145TIP3    H139378   1.427   5.292   5.045
13145TIP3    H239379   1.324   5.280   5.155
13146TIP3   OH239380   5.594   0.149   6.162
13146TIP3    H139381   5.595   0.164   6.257
13146TIP3    H239382   5.630   0.061   6.151
13147TIP3   OH239383   7.613   0.326   3.159
13147TIP3    H139384   7.627   0.320   3.065
13147TIP3    H239385   7.628   0.237   3.191
13148TIP3   OH239386   3.872   5.528   1.771
13148TIP3    H139387   3.892   5.478   1.692
13148TIP3    H239388   3.782   5.558   1.758
13149TIP3   OH239389   5.783   0.079   4.574
13149TIP3    H139390   5.763   0.095   4.666
13149TIP3    H239391   5.710   0.118   4.526
13150TIP3   OH239392   1.487   4.120   0.957
13150TIP3    H139393   1.531   4.177   1.020
13150TIP3    H239394   1.558   4.081   0.906
13151TIP3   OH239395   2.385   1.186   4.012
13151TIP3    H139396   2.454   1.250   4.030
13151TIP3    H239397   2.338   1.222   3.937
13152TIP3   OH239398   0.258   5.337   2.821
13152TIP3    H139399   0.313   5.301   2.751
13152TIP3    H239400   0.253   5.266   2.885
13153TIP3   OH239401   3.435   2.750   1.802
13153TIP3    H139402   3.442   2.741   1.897
13153TIP3    H239403   3.341   2.746   1.784
13154TIP3   OH239404   5.829   7.639   2.565
13154TIP3    H139405   5.912   7.679   2.592
13154TIP3    H239406   5.774   7.643   2.644
13155TIP3   OH239407   3.335   1.316   2.699
13155TIP3    H139408   3.430   1.311   2.696
13155TIP3    H239409   3.305   1.228   2.679
13156TIP3   OH239410   7.840   1.177   5.226
13156TIP3    H139411   7.810   1.105   5.170
13156TIP3    H239412   7.795   1.254   5.192
13157TIP3   OH239413   1.288   4.742   0.320
13157TIP3    H139414   1.371   4.718   0.279
13157TIP3    H239415   1.312   4.809   0.384
13158TIP3   OH239416   3.801   7.688   5.980
13158TIP3    H139417   3.768   7.624   5.917
13158TIP3    H239418   3.776   7.773   5.943
13159TIP3   OH239419   3.589   6.177   0.302
13159TIP3    H139420   3.680   6.205   0.292
13159TIP3    H239421   3.590   6.119   0.378
13160TIP3   OH239422   4.147   0.959   0.713
13160TIP3    H139423   4.193   1.042   0.718
13160TIP3    H239424   4.123   0.938   0.803
13161TIP3   OH239425   2.740   5.491   0.022
13161TIP3    H139426   2.707   5.557   0.082
13161TIP3    H239427   2.709   5.408   0.059
13162TIP3   OH239428   3.069   6.772   4.104
13162TIP3    H139429   3.152   6.812   4.132
13162TIP3    H239430   3.002   6.828   4.142
13163TIP3   OH239431   7.153   5.398   2.560
13163TIP3    H139432   7.099   5.441   2.494
13163TIP3    H239433   7.239   5.389   2.518
13164TIP3   OH239434   4.564   4.509   0.136
13164TIP3    H139435   4.539   4.598   0.161
13164TIP3    H239436   4.501   4.453   0.180
13165TIP3   OH239437   5.666   1.322   3.276
13165TIP3    H139438   5.570   1.314   3.277
13165TIP3    H239439   5.682   1.411   3.245
13166TIP3   OH239440   3.309   0.673   6.470
13166TIP3    H139441   3.243   0.740   6.450
13166TIP3    H239442   3.382   0.694   6.412
13167TIP3   OH239443   2.906   1.601   5.997
13167TIP3    H139444   2.928   1.694   6.006
13167TIP3    H239445   2.903   1.587   5.903
13168TIP3   OH239446   3.435   6.375   4.656
13168TIP3    H139447   3.437   6.318   4.579
13168TIP3    H239448   3.343   6.379   4.682
13169TIP3   OH239449   1.377   7.524   6.166
13169TIP3    H139450   1.390   7.460   6.095
13169TIP3    H239451   1.426   7.601   6.138
13170TIP3   OH239452   5.317   6.194   1.563
13170TIP3    H139453   5.352   6.155   1.642
13170TIP3    H239454   5.350   6.139   1.492
13171TIP3   OH239455   0.062   5.563   2.526
13171TIP3    H139456   0.007   5.639   2.546
13171TIP3    H239457   0.134   5.568   2.589
13172TIP3   OH239458   1.392   6.087   4.097
13172TIP3    H139459   1.393   5.991   4.102
13172TIP3    H239460   1.410   6.107   4.006
13173TIP3   OH239461   7.457   5.421   0.598
13173TIP3    H139462   7.374   5.458   0.626
13173TIP3    H239463   7.485   5.365   0.670
13174TIP3   OH239464   5.157   2.825   4.491
13174TIP3    H139465   5.138   2.803   4.582
13174TIP3    H239466   5.195   2.913   4.495
13175TIP3   OH239467   4.508   5.388   2.033
13175TIP3    H139468   4.495   5.482   2.040
13175TIP3    H239469   4.424   5.350   2.060
13176TIP3   OH239470   6.775   7.391   5.820
13176TIP3    H139471   6.870   7.394   5.832
13176TIP3    H239472   6.760   7.439   5.738
13177TIP3   OH239473   7.808   1.578   1.782
13177TIP3    H139474   7.863   1.655   1.794
13177TIP3    H239475   7.871   1.506   1.774
13178TIP3   OH239476   4.572   4.483   1.694
13178TIP3    H139477   4.571   4.393   1.661
13178TIP3    H239478   4.665   4.505   1.703
13179TIP3   OH239479   0.056   6.337   5.883
13179TIP3    H139480   0.023   6.413   5.931
13179TIP3    H239481   0.149   6.333   5.905
13180TIP3   OH239482   5.106   4.330   3.893
13180TIP3    H139483   5.200   4.346   3.896
13180TIP3    H239484   5.067   4.410   3.928
13181TIP3   OH239485   1.667   0.357   4.716
13181TIP3    H139486   1.726   0.410   4.770
13181TIP3    H239487   1.591   0.413   4.701
13182TIP3   OH239488   6.285   6.310   2.601
13182TIP3    H139489   6.356   6.251   2.626
13182TIP3    H239490   6.234   6.260   2.537
13183TIP3   OH239491   3.992   1.471   3.107
13183TIP3    H139492   3.910   1.519   3.116
13183TIP3    H239493   4.009   1.471   3.012
13184TIP3   OH239494   3.882   3.106   6.574
13184TIP3    H139495   3.817   3.155   6.523
13184TIP3    H239496   3.831   3.043   6.624
13185TIP3   OH239497   1.230   1.108   5.288
13185TIP3    H139498   1.137   1.109   5.267
13185TIP3    H239499   1.254   1.015   5.287
13186TIP3   OH239500   7.789   5.248   0.148
13186TIP3    H139501   7.807   5.321   0.207
13186TIP3    H239502   7.700   5.263   0.118
13187TIP3   OH239503   2.656   1.666   4.683
13187TIP3    H139504   2.685   1.707   4.601
13187TIP3    H239505   2.565   1.642   4.667
13188TIP3   OH239506   2.345   0.717   4.463
13188TIP3    H139507   2.311   0.714   4.373
13188TIP3    H239508   2.418   0.778   4.459
13189TIP3   OH239509   2.993   7.546   3.615
13189TIP3    H139510   2.952   7.576   3.696
13189TIP3    H239511   3.028   7.460   3.636
13190TIP3   OH239512   1.694   4.674   3.559
13190TIP3    H139513   1.692   4.709   3.648
13190TIP3    H239514   1.617   4.616   3.554
13191TIP3   OH239515   7.393   5.831   1.957
13191TIP3    H139516   7.389   5.753   1.902
13191TIP3    H239517   7.330   5.891   1.918
13192TIP3   OH239518   1.963   5.858   4.576
13192TIP3    H139519   1.885   5.853   4.521
13192TIP3    H239520   2.001   5.771   4.574
13193TIP3   OH239521   4.850   3.061   3.599
13193TIP3    H139522   4.797   3.140   3.597
13193TIP3    H239523   4.793   2.993   3.563
13194TIP3   OH239524   7.849   5.199   3.341
13194TIP3    H139525   7.796   5.222   3.265
13194TIP3    H239526   7.839   5.104   3.349
13195TIP3   OH239527   7.732   1.514   0.837
13195TIP3    H139528   7.803   1.459   0.803
13195TIP3    H239529   7.662   1.506   0.772
13196TIP3   OH239530   7.037   5.751   3.013
13196TIP3    H139531   7.053   5.719   3.102
13196TIP3    H239532   7.120   5.789   2.986
13197TIP3   OH239533   1.537   7.618   2.763
13197TIP3    H139534   1.544   7.580   2.851
13197TIP3    H239535   1.522   7.712   2.779
13198TIP3   OH239536   0.220   0.019   4.373
13198TIP3    H139537   0.178   0.054   4.295
13198TIP3    H239538   0.148  -0.017   4.425
13199TIP3   OH239539   0.541   2.706   1.621
13199TIP3    H139540   0.477   2.762   1.666
13199TIP3    H239541   0.576   2.650   1.690
13200TIP3   OH239542   7.398   4.332   0.443
13200TIP3    H139543   7.366   4.421   0.458
13200TIP3    H239544   7.370   4.311   0.354
13201TIP3   OH239545   2.518   7.222   5.598
13201TIP3    H139546   2.429   7.250   5.618
13201TIP3    H239547   2.573   7.274   5.655
13202TIP3   OH239548   6.657   5.026   0.046
13202TIP3    H139549   6.662   4.932   0.063
13202TIP3    H239550   6.739   5.047   0.002
13203TIP3   OH239551   6.217   3.316   4.645
13203TIP3    H139552   6.127   3.286   4.655
13203TIP3    H239553   6.211   3.394   4.591
13204TIP3   OH239554   1.360   3.321   4.727
13204TIP3    H139555   1.411   3.322   4.646
13204TIP3    H239556   1.371   3.408   4.763
13205TIP3   OH239557   1.254   4.222   3.359
13205TIP3    H139558   1.162   4.195   3.358
13205TIP3    H239559   1.295   4.166   3.424
13206TIP3   OH239560   1.887   4.690   3.360
13206TIP3    H139561   1.820   4.697   3.428
13206TIP3    H239562   1.838   4.669   3.281
13207TIP3   OH239563   4.689   3.288   3.653
13207TIP3    H139564   4.611   3.233   3.643
13207TIP3    H239565   4.683   3.323   3.741
13208TIP3   OH239566   3.925   1.825   4.169
13208TIP3    H139567   3.841   1.865   4.148
13208TIP3    H239568   3.957   1.874   4.244
13209TIP3   OH239569   7.206   6.029   6.385
13209TIP3    H139570   7.301   6.043   6.382
13209TIP3    H239571   7.172   6.104   6.433
13210TIP3   OH239572   1.255   2.335   5.760
13210TIP3    H139573   1.239   2.372   5.847
13210TIP3    H239574   1.269   2.242   5.775
13211TIP3   OH239575   0.493   6.294   1.326
13211TIP3    H139576   0.533   6.342   1.254
13211TIP3    H239577   0.401   6.285   1.301
13212TIP3   OH239578   8.209   7.037   1.518
13212TIP3    H139579   8.199   6.951   1.477
13212TIP3    H239580   8.254   7.020   1.601
13213TIP3   OH239581   3.938   2.697   2.222
13213TIP3    H139582   3.866   2.732   2.169
13213TIP3    H239583   3.976   2.774   2.265
13214TIP3   OH239584   3.793   5.965   0.916
13214TIP3    H139585   3.751   5.930   0.994
13214TIP3    H239586   3.752   6.051   0.904
13215TIP3   OH239587   7.522   6.056   6.140
13215TIP3    H139588   7.580   6.132   6.128
13215TIP3    H239589   7.576   5.992   6.187
13216TIP3   OH239590   2.929   3.708   5.043
13216TIP3    H139591   2.938   3.768   4.969
13216TIP3    H239592   2.982   3.747   5.113
13217TIP3   OH239593   1.311   7.426   2.641
13217TIP3    H139594   1.367   7.436   2.564
13217TIP3    H239595   1.359   7.368   2.699
13218TIP3   OH239596   6.726   3.257   3.701
13218TIP3    H139597   6.764   3.171   3.720
13218TIP3    H239598   6.786   3.319   3.742
13219TIP3   OH239599   5.554   3.019   0.327
13219TIP3    H139600   5.623   3.025   0.260
13219TIP3    H239601   5.474   3.044   0.280
13220TIP3   OH239602   3.605   0.523   0.709
13220TIP3    H139603   3.670   0.454   0.708
13220TIP3    H239604   3.636   0.584   0.776
13221TIP3   OH239605   1.470   2.878   1.058
13221TIP3    H139606   1.400   2.934   1.024
13221TIP3    H239607   1.551   2.919   1.027
13222TIP3   OH239608   5.054   5.998   2.570
13222TIP3    H139609   5.039   6.092   2.559
13222TIP3    H239610   4.971   5.958   2.546
13223TIP3   OH239611   0.639   0.453   4.404
13223TIP3    H139612   0.552   0.458   4.366
13223TIP3    H239613   0.699   0.474   4.332
13224TIP3   OH239614   1.137   6.818   5.589
13224TIP3    H139615   1.191   6.897   5.593
13224TIP3    H239616   1.062   6.837   5.645
13225TIP3   OH239617   4.032   2.845   0.900
13225TIP3    H139618   4.021   2.751   0.886
13225TIP3    H239619   4.104   2.851   0.964
13226TIP3   OH239620   4.485   6.454   4.685
13226TIP3    H139621   4.503   6.529   4.628
13226TIP3    H239622   4.398   6.472   4.721
13227TIP3   OH239623   0.657   5.553   2.586
13227TIP3    H139624   0.645   5.646   2.567
13227TIP3    H239625   0.644   5.546   2.680
13228TIP3   OH239626   6.745   4.226   6.667
13228TIP3    H139627   6.675   4.223   6.602
13228TIP3    H239628   6.814   4.170   6.631
13229TIP3   OH239629   7.924   4.845   6.367
13229TIP3    H139630   7.968   4.763   6.391
13229TIP3    H239631   7.990   4.893   6.317
13230TIP3   OH239632   5.172   5.857   3.237
13230TIP3    H139633   5.139   5.771   3.211
13230TIP3    H239634   5.193   5.901   3.154
13231TIP3   OH239635   2.307   1.023   4.738
13231TIP3    H139636   2.310   1.086   4.810
13231TIP3    H239637   2.398   0.994   4.727
13232TIP3   OH239638   7.757   7.537   6.588
13232TIP3    H139639   7.730   7.628   6.589
13232TIP3    H239640   7.758   7.510   6.680
13233TIP3   OH239641   7.335   7.267   0.182
13233TIP3    H139642   7.327   7.363   0.183
13233TIP3    H239643   7.296   7.239   0.265
13234TIP3   OH239644   1.652   5.635   5.671
13234TIP3    H139645   1.661   5.633   5.576
13234TIP3    H239646   1.737   5.605   5.704
13235TIP3   OH239647   7.000   0.103   6.258
13235TIP3    H139648   6.925   0.145   6.301
13235TIP3    H239649   7.014   0.022   6.307
13236TIP3   OH239650   4.717   7.268   1.896
13236TIP3    H139651   4.712   7.172   1.904
13236TIP3    H239652   4.808   7.289   1.916
13237TIP3   OH239653   3.133   5.069   6.292
13237TIP3    H139654   3.149   4.982   6.331
13237TIP3    H239655   3.220   5.105   6.280
13238TIP3   OH239656   6.420   6.090   3.839
13238TIP3    H139657   6.506   6.112   3.876
13238TIP3    H239658   6.359   6.102   3.911
13239TIP3   OH239659   5.052   0.893   4.812
13239TIP3    H139660   5.109   0.859   4.743
13239TIP3    H239661   4.964   0.893   4.773
13240TIP3   OH239662   0.911   6.480   3.171
13240TIP3    H139663   0.898   6.573   3.152
13240TIP3    H239664   0.844   6.436   3.119
13241TIP3   OH239665   1.646   7.557   1.527
13241TIP3    H139666   1.691   7.621   1.583
13241TIP3    H239667   1.652   7.594   1.439
13242TIP3   OH239668   6.554   2.422   0.445
13242TIP3    H139669   6.463   2.392   0.441
13242TIP3    H239670   6.547   2.515   0.467
13243TIP3   OH239671   1.028   0.033   3.568
13243TIP3    H139672   1.047   0.013   3.477
13243TIP3    H239673   0.940  -0.002   3.582
13244TIP3   OH239674   0.592   7.665   3.161
13244TIP3    H139675   0.550   7.751   3.174
13244TIP3    H239676   0.601   7.658   3.066
13245TIP3   OH239677   1.695   6.657   3.593
13245TIP3    H139678   1.630   6.654   3.523
13245TIP3    H239679   1.742   6.739   3.579
13246TIP3   OH239680   2.420   0.095   2.929
13246TIP3    H139681   2.366   0.116   2.853
13246TIP3    H239682   2.499   0.054   2.891
13247TIP3   OH239683   2.187   4.899   0.689
13247TIP3    H139684   2.141   4.816   0.685
13247TIP3    H239685   2.262   4.888   0.630
13248TIP3   OH239686   0.608   4.411   1.160
13248TIP3    H139687   0.639   4.337   1.108
13248TIP3    H239688   0.673   4.480   1.145
13249TIP3   OH239689   6.458   5.701   6.387
13249TIP3    H139690   6.374   5.662   6.411
13249TIP3    H239691   6.493   5.643   6.319
13250TIP3   OH239692   0.680   7.245   6.170
13250TIP3    H139693   0.704   7.247   6.077
13250TIP3    H239694   0.692   7.335   6.200
13251TIP3   OH239695   6.178   6.226   2.322
13251TIP3    H139696   6.177   6.321   2.329
13251TIP3    H239697   6.098   6.204   2.275
13252TIP3   OH239698   7.919   0.409   5.143
13252TIP3    H139699   7.863   0.335   5.119
13252TIP3    H239700   7.976   0.421   5.067
13253TIP3   OH239701   4.349   5.179   3.453
13253TIP3    H139702   4.343   5.086   3.431
13253TIP3    H239703   4.284   5.221   3.397
13254TIP3   OH239704   5.675   5.710   4.315
13254TIP3    H139705   5.583   5.688   4.331
13254TIP3    H239706   5.723   5.648   4.370
13255TIP3   OH239707   6.377   5.920   5.605
13255TIP3    H139708   6.285   5.896   5.608
13255TIP3    H239709   6.378   6.013   5.585
13256TIP3   OH239710   1.012   1.698   2.687
13256TIP3    H139711   1.005   1.603   2.679
13256TIP3    H239712   0.985   1.731   2.602
13257TIP3   OH239713   5.035   3.537   0.996
13257TIP3    H139714   5.114   3.488   1.020
13257TIP3    H239715   5.028   3.527   0.901
13258TIP3   OH239716   1.069   0.340   4.733
13258TIP3    H139717   1.098   0.383   4.814
13258TIP3    H239718   0.980   0.371   4.719
13259TIP3   OH239719   1.278   4.254   6.205
13259TIP3    H139720   1.251   4.171   6.166
13259TIP3    H239721   1.350   4.230   6.264
13260TIP3   OH239722   3.003   2.573   4.389
13260TIP3    H139723   3.084   2.576   4.339
13260TIP3    H239724   2.969   2.485   4.374
13261TIP3   OH239725   1.261   1.273   0.683
13261TIP3    H139726   1.190   1.226   0.727
13261TIP3    H239727   1.296   1.333   0.748
13262TIP3   OH239728   1.523   6.169   5.264
13262TIP3    H139729   1.534   6.251   5.214
13262TIP3    H239730   1.429   6.155   5.265
13263TIP3   OH239731   5.169   5.066   4.791
13263TIP3    H139732   5.210   5.039   4.873
13263TIP3    H239733   5.231   5.041   4.723
13264TIP3   OH239734   6.215   2.474   1.638
13264TIP3    H139735   6.278   2.449   1.706
13264TIP3    H239736   6.174   2.554   1.672
13265TIP3   OH239737   5.954   2.472   5.364
13265TIP3    H139738   6.018   2.542   5.361
13265TIP3    H239739   5.957   2.432   5.277
13266TIP3   OH239740   1.597   5.970   1.481
13266TIP3    H139741   1.592   5.954   1.575
13266TIP3    H239742   1.515   5.936   1.446
13267TIP3   OH239743   6.409   3.952   5.380
13267TIP3    H139744   6.495   3.974   5.345
13267TIP3    H239745   6.353   4.024   5.350
13268TIP3   OH239746   4.162   2.858   2.753
13268TIP3    H139747   4.249   2.856   2.712
13268TIP3    H239748   4.170   2.924   2.822
13269TIP3   OH239749   3.001   7.056   4.555
13269TIP3    H139750   2.956   7.115   4.616
13269TIP3    H239751   2.930   7.017   4.505
13270TIP3   OH239752   5.703   1.583   3.612
13270TIP3    H139753   5.616   1.624   3.617
13270TIP3    H239754   5.753   1.640   3.554
13271TIP3   OH239755   3.928   5.493   0.192
13271TIP3    H139756   3.928   5.485   0.288
13271TIP3    H239757   3.835   5.500   0.169
13272TIP3   OH239758   1.642   6.093   3.647
13272TIP3    H139759   1.725   6.045   3.646
13272TIP3    H239760   1.613   6.093   3.556
13273TIP3   OH239761   8.040   5.604   5.251
13273TIP3    H139762   8.032   5.699   5.264
13273TIP3    H239763   8.029   5.567   5.338
13274TIP3   OH239764   7.565   3.410   6.141
13274TIP3    H139765   7.637   3.460   6.102
13274TIP3    H239766   7.607   3.331   6.176
13275TIP3   OH239767   2.721   6.926   0.228
13275TIP3    H139768   2.626   6.939   0.233
13275TIP3    H239769   2.737   6.847   0.279
13276TIP3   OH239770   1.085   2.553   4.940
13276TIP3    H139771   1.010   2.548   4.880
13276TIP3    H239772   1.053   2.607   5.013
13277TIP3   OH239773   2.977   1.360   5.059
13277TIP3    H139774   3.038   1.293   5.029
13277TIP3    H239775   2.891   1.327   5.033
13278TIP3   OH239776   0.823   4.714   2.463
13278TIP3    H139777   0.857   4.727   2.551
13278TIP3    H239778   0.897   4.732   2.405
13279TIP3   OH239779   7.998   0.256   1.352
13279TIP3    H139780   8.004   0.327   1.288
13279TIP3    H239781   7.906   0.229   1.350
13280TIP3   OH239782   4.795   7.481   4.046
13280TIP3    H139783   4.754   7.496   3.961
13280TIP3    H239784   4.724   7.486   4.109
13281TIP3   OH239785   4.889   2.367   2.522
13281TIP3    H139786   4.953   2.416   2.472
13281TIP3    H239787   4.938   2.294   2.559
13282TIP3   OH239788   6.112   3.257   1.890
13282TIP3    H139789   6.084   3.203   1.964
13282TIP3    H239790   6.122   3.195   1.818
13283TIP3   OH239791   8.263   4.192   1.781
13283TIP3    H139792   8.172   4.217   1.769
13283TIP3    H239793   8.293   4.164   1.695
13284TIP3   OH239794   0.324   5.975   4.589
13284TIP3    H139795   0.359   6.060   4.561
13284TIP3    H239796   0.369   5.957   4.672
13285TIP3   OH239797   6.460   5.361   0.981
13285TIP3    H139798   6.490   5.276   0.947
13285TIP3    H239799   6.536   5.418   0.971
13286TIP3   OH239800   6.160   1.367   4.980
13286TIP3    H139801   6.255   1.362   4.967
13286TIP3    H239802   6.139   1.460   4.967
13287TIP3   OH239803   3.154   6.184   6.607
13287TIP3    H139804   3.229   6.226   6.650
13287TIP3    H239805   3.156   6.094   6.638
13288TIP3   OH239806   6.014   1.372   3.856
13288TIP3    H139807   5.958   1.416   3.920
13288TIP3    H239808   5.981   1.282   3.853
13289TIP3   OH239809   7.355   7.568   3.604
13289TIP3    H139810   7.434   7.596   3.650
13289TIP3    H239811   7.308   7.650   3.585
13290TIP3   OH239812   0.184   6.364   3.551
13290TIP3    H139813   0.173   6.331   3.462
13290TIP3    H239814   0.169   6.288   3.607
13291TIP3   OH239815   3.263   3.472   0.349
13291TIP3    H139816   3.200   3.542   0.334
13291TIP3    H239817   3.311   3.465   0.267
13292TIP3   OH239818   0.792   2.916   3.220
13292TIP3    H139819   0.718   2.928   3.160
13292TIP3    H239820   0.868   2.946   3.170
13293TIP3   OH239821   7.339   3.118   1.417
13293TIP3    H139822   7.275   3.097   1.350
13293TIP3    H239823   7.416   3.066   1.395
13294TIP3   OH239824   0.427   7.242   3.752
13294TIP3    H139825   0.420   7.308   3.821
13294TIP3    H239826   0.515   7.205   3.764
13295TIP3   OH239827   5.610   7.343   1.686
13295TIP3    H139828   5.624   7.301   1.601
13295TIP3    H239829   5.617   7.271   1.749
13296TIP3   OH239830   1.756   6.479   1.353
13296TIP3    H139831   1.801   6.493   1.436
13296TIP3    H239832   1.729   6.566   1.325
13297TIP3   OH239833   5.458   7.007   5.036
13297TIP3    H139834   5.521   6.952   5.083
13297TIP3    H239835   5.393   6.945   5.003
13298TIP3   OH239836   3.498   6.584   3.746
13298TIP3    H139837   3.545   6.579   3.829
13298TIP3    H239838   3.407   6.564   3.768
13299TIP3   OH239839   1.910   0.934   3.854
13299TIP3    H139840   1.909   0.989   3.933
13299TIP3    H239841   1.920   0.845   3.888
13300TIP3   OH239842   3.306   5.779   5.549
13300TIP3    H139843   3.267   5.734   5.624
13300TIP3    H239844   3.328   5.709   5.487
13301TIP3   OH239845   0.062   6.679   5.216
13301TIP3    H139846  -0.012   6.643   5.266
13301TIP3    H239847   0.054   6.774   5.227
13302TIP3   OH239848   1.718   5.022   5.671
13302TIP3    H139849   1.659   5.011   5.597
13302TIP3    H239850   1.665   5.064   5.739
13303TIP3   OH239851   7.124   3.560   3.761
13303TIP3    H139852   7.138   3.562   3.666
13303TIP3    H239853   7.165   3.640   3.793
13304TIP3   OH239854   6.412   4.659   1.602
13304TIP3    H139855   6.486   4.605   1.574
13304TIP3    H239856   6.341   4.596   1.615
13305TIP3   OH239857   3.531   2.353   2.271
13305TIP3    H139858   3.516   2.291   2.343
13305TIP3    H239859   3.620   2.333   2.240
13306TIP3   OH239860   1.255   4.226   2.130
13306TIP3    H139861   1.203   4.269   2.062
13306TIP3    H239862   1.287   4.297   2.185
13307TIP3   OH239863   0.718   2.418   2.489
13307TIP3    H139864   0.666   2.337   2.486
13307TIP3    H239865   0.658   2.486   2.458
13308TIP3   OH239866   4.642   1.523   1.036
13308TIP3    H139867   4.557   1.549   1.072
13308TIP3    H239868   4.691   1.491   1.112
13309TIP3   OH239869   6.840   0.171   3.901
13309TIP3    H139870   6.926   0.211   3.887
13309TIP3    H239871   6.779   0.232   3.860
13310TIP3   OH239872   3.783   3.283   2.283
13310TIP3    H139873   3.705   3.238   2.317
13310TIP3    H239874   3.759   3.376   2.285
13311TIP3   OH239875   6.151   6.714   5.470
13311TIP3    H139876   6.070   6.740   5.426
13311TIP3    H239877   6.142   6.620   5.484
13312TIP3   OH239878   6.876   1.820   4.325
13312TIP3    H139879   6.878   1.743   4.381
13312TIP3    H239880   6.801   1.806   4.266
13313TIP3   OH239881   6.991   5.454   4.228
13313TIP3    H139882   7.048   5.450   4.151
13313TIP3    H239883   6.928   5.523   4.208
13314TIP3   OH239884   0.895   7.752   0.466
13314TIP3    H139885   0.806   7.716   0.466
13314TIP3    H239886   0.942   7.700   0.402
13315TIP3   OH239887   5.096   7.239   5.670
13315TIP3    H139888   5.144   7.239   5.588
13315TIP3    H239889   5.040   7.317   5.665
13316TIP3   OH239890   0.728   0.197   1.394
13316TIP3    H139891   0.737   0.102   1.383
13316TIP3    H239892   0.649   0.220   1.346
13317TIP3   OH239893   5.351   4.013   2.122
13317TIP3    H139894   5.325   4.036   2.032
13317TIP3    H239895   5.319   3.923   2.133
13318TIP3   OH239896   0.068   2.265   3.189
13318TIP3    H139897   0.080   2.235   3.099
13318TIP3    H239898   0.157   2.270   3.224
13319TIP3   OH239899   6.964   5.273   1.009
13319TIP3    H139900   7.025   5.318   1.068
13319TIP3    H239901   7.005   5.187   0.994
13320TIP3   OH239902   6.170   4.961   2.330
13320TIP3    H139903   6.159   4.956   2.425
13320TIP3    H239904   6.240   4.898   2.310
13321TIP3   OH239905   4.613   5.945   2.109
13321TIP3    H139906   4.601   5.911   2.020
13321TIP3    H239907   4.534   5.995   2.127
13322TIP3   OH239908   4.343   6.327   2.881
13322TIP3    H139909   4.432   6.323   2.845
13322TIP3    H239910   4.340   6.411   2.927
13323TIP3   OH239911   5.969   0.979   2.116
13323TIP3    H139912   6.028   1.032   2.171
13323TIP3    H239913   6.006   0.987   2.028
13324TIP3   OH239914   5.874   0.217   3.916
13324TIP3    H139915   5.853   0.289   3.856
13324TIP3    H239916   5.962   0.238   3.948
13325TIP3   OH239917   2.699   6.889   4.990
13325TIP3    H139918   2.623   6.879   5.047
13325TIP3    H239919   2.665   6.932   4.911
13326TIP3   OH239920   3.307   2.263   2.143
13326TIP3    H139921   3.383   2.294   2.191
13326TIP3    H239922   3.234   2.269   2.205
13327TIP3   OH239923   3.387   4.508   6.590
13327TIP3    H139924   3.392   4.588   6.538
13327TIP3    H239925   3.428   4.441   6.536
13328TIP3   OH239926   8.043   1.149   0.183
13328TIP3    H139927   8.094   1.070   0.163
13328TIP3    H239928   7.953   1.126   0.159
13329TIP3   OH239929   0.917   5.645   5.893
13329TIP3    H139930   1.005   5.677   5.874
13329TIP3    H239931   0.918   5.625   5.986
13330TIP3   OH239932   7.837   7.289   4.217
13330TIP3    H139933   7.783   7.335   4.152
13330TIP3    H239934   7.813   7.328   4.300
13331TIP3   OH239935   2.486   5.398   2.168
13331TIP3    H139936   2.478   5.440   2.254
13331TIP3    H239937   2.398   5.404   2.131
13332TIP3   OH239938   5.999   6.942   4.745
13332TIP3    H139939   6.054   6.928   4.823
13332TIP3    H239940   6.038   7.019   4.703
13333TIP3   OH239941   3.507   6.562   4.339
13333TIP3    H139942   3.570   6.621   4.297
13333TIP3    H239943   3.534   6.560   4.431
13334TIP3   OH239944   2.935   3.708   2.797
13334TIP3    H139945   3.023   3.674   2.781
13334TIP3    H239946   2.935   3.795   2.756
13335TIP3   OH239947   2.134   3.499   0.773
13335TIP3    H139948   2.223   3.484   0.743
13335TIP3    H239949   2.084   3.515   0.692
13336TIP3   OH239950   1.351   0.664   6.286
13336TIP3    H139951   1.309   0.668   6.201
13336TIP3    H239952   1.440   0.693   6.270
13337TIP3   OH239953   6.948   4.242   3.104
13337TIP3    H139954   6.902   4.199   3.176
13337TIP3    H239955   6.911   4.330   3.100
13338TIP3   OH239956   5.666   3.270   1.006
13338TIP3    H139957   5.754   3.280   1.042
13338TIP3    H239958   5.610   3.316   1.068
13339TIP3   OH239959   5.516   4.346   4.223
13339TIP3    H139960   5.432   4.305   4.205
13339TIP3    H239961   5.578   4.298   4.169
13340TIP3   OH239962   4.585   6.730   0.970
13340TIP3    H139963   4.645   6.803   0.986
13340TIP3    H239964   4.515   6.743   1.034
13341TIP3   OH239965   1.214   0.702   1.211
13341TIP3    H139966   1.143   0.746   1.164
13341TIP3    H239967   1.277   0.771   1.230
13342TIP3   OH239968   5.648   6.100   3.580
13342TIP3    H139969   5.643   6.047   3.660
13342TIP3    H239970   5.569   6.154   3.582
13343TIP3   OH239971   7.522   0.306   0.923
13343TIP3    H139972   7.595   0.248   0.943
13343TIP3    H239973   7.444   0.256   0.946
13344TIP3   OH239974   5.174  -0.017   2.794
13344TIP3    H139975   5.134   0.051   2.739
13344TIP3    H239976   5.155   0.010   2.884
13345TIP3   OH239977   0.891   1.302   1.404
13345TIP3    H139978   0.941   1.383   1.412
13345TIP3    H239979   0.854   1.305   1.315
13346TIP3   OH239980   1.669   4.406   1.667
13346TIP3    H139981   1.628   4.381   1.750
13346TIP3    H239982   1.620   4.359   1.600
13347TIP3   OH239983   8.001   2.080   2.374
13347TIP3    H139984   7.935   2.025   2.331
13347TIP3    H239985   7.976   2.170   2.350
13348TIP3   OH239986   8.285   1.438   1.511
13348TIP3    H139987   8.266   1.477   1.597
13348TIP3    H239988   8.300   1.345   1.531
13349TIP3   OH239989   6.774   5.020   6.697
13349TIP3    H139990   6.774   4.928   6.671
13349TIP3    H239991   6.752   5.019   6.790
13350TIP3   OH239992   2.905   6.004   5.983
13350TIP3    H139993   2.961   5.992   5.906
13350TIP3    H239994   2.908   5.920   6.028
13351TIP3   OH239995   2.385   4.330   0.130
13351TIP3    H139996   2.450   4.354   0.196
13351TIP3    H239997   2.434   4.330   0.048
13352TIP3   OH239998   0.790   7.342   0.116
13352TIP3    H139999   0.764   7.418   0.064
13352TIP3    H240000   0.869   7.309   0.073
13353TIP3   OH240001   6.913   0.573   0.806
13353TIP3    H140002   7.004   0.587   0.834
13353TIP3    H240003   6.862   0.631   0.861
13354TIP3   OH240004   4.838   4.759   6.421
13354TIP3    H140005   4.883   4.831   6.464
13354TIP3    H240006   4.804   4.797   6.340
13355TIP3   OH240007   7.313   2.275   5.922
13355TIP3    H140008   7.228   2.237   5.942
13355TIP3    H240009   7.370   2.200   5.905
13356TIP3   OH240010   2.960   7.618   0.313
13356TIP3    H140011   2.900   7.682   0.350
13356TIP3    H240012   3.045   7.641   0.350
13357TIP3   OH240013   7.021   0.179   5.945
13357TIP3    H140014   7.022   0.111   6.012
13357TIP3    H240015   6.928   0.200   5.933
13358TIP3   OH240016   0.730   2.677   6.315
13358TIP3    H140017   0.805   2.730   6.288
13358TIP3    H240018   0.677   2.668   6.236
13359TIP3   OH240019   3.173   6.329   4.644
13359TIP3    H140020   3.100   6.327   4.706
13359TIP3    H240021   3.193   6.236   4.628
13360TIP3   OH240022   3.282   6.271   1.042
13360TIP3    H140023   3.317   6.349   0.998
13360TIP3    H240024   3.339   6.260   1.119
13361TIP3   OH240025   0.752   6.720   2.971
13361TIP3    H140026   0.690   6.677   3.029
13361TIP3    H240027   0.748   6.671   2.890
13362TIP3   OH240028   0.916   5.752   2.400
13362TIP3    H140029   0.920   5.658   2.417
13362TIP3    H240030   0.840   5.782   2.450
13363TIP3   OH240031   0.314   1.292   4.107
13363TIP3    H140032   0.343   1.363   4.164
13363TIP3    H240033   0.283   1.224   4.167
13364TIP3   OH240034   5.669   4.091   1.934
13364TIP3    H140035   5.676   4.026   2.004
13364TIP3    H240036   5.661   4.175   1.980
13365TIP3   OH240037   5.329   0.855   3.562
13365TIP3    H140038   5.347   0.772   3.517
13365TIP3    H240039   5.363   0.922   3.503
13366TIP3   OH240040   0.507   0.511   5.457
13366TIP3    H140041   0.571   0.448   5.426
13366TIP3    H240042   0.468   0.470   5.534
13367TIP3   OH240043   0.965   4.116   3.303
13367TIP3    H140044   0.959   4.039   3.246
13367TIP3    H240045   0.957   4.190   3.243
13368TIP3   OH240046   1.498   5.111   1.276
13368TIP3    H140047   1.506   5.205   1.261
13368TIP3    H240048   1.525   5.071   1.194
13369TIP3   OH240049   4.405   1.743   6.374
13369TIP3    H140050   4.470   1.809   6.352
13369TIP3    H240051   4.335   1.755   6.310
13370TIP3   OH240052   5.915   7.699   3.184
13370TIP3    H140053   5.982   7.766   3.168
13370TIP3    H240054   5.924   7.679   3.278
13371TIP3   OH240055   7.555   7.452   0.502
13371TIP3    H140056   7.631   7.395   0.505
13371TIP3    H240057   7.558   7.492   0.415
13372TIP3   OH240058   2.958   4.410   3.910
13372TIP3    H140059   2.913   4.329   3.934
13372TIP3    H240060   2.889   4.477   3.913
13373TIP3   OH240061   2.525   6.740   5.679
13373TIP3    H140062   2.450   6.776   5.631
13373TIP3    H240063   2.594   6.730   5.613
13374TIP3   OH240064   2.707   7.756   6.565
13374TIP3    H140065   2.789   7.781   6.607
13374TIP3    H240066   2.642   7.814   6.604
13375TIP3   OH240067   5.619   6.819   0.951
13375TIP3    H140068   5.570   6.884   1.002
13375TIP3    H240069   5.565   6.803   0.874
13376TIP3   OH240070   0.601   3.255   1.128
13376TIP3    H140071   0.623   3.348   1.117
13376TIP3    H240072   0.626   3.214   1.045
13377TIP3   OH240073   5.833   4.180   2.270
13377TIP3    H140074   5.840   4.170   2.365
13377TIP3    H240075   5.823   4.274   2.256
13378TIP3   OH240076   7.663   3.367   1.811
13378TIP3    H140077   7.692   3.457   1.801
13378TIP3    H240078   7.685   3.344   1.902
13379TIP3   OH240079   7.513   0.963   1.974
13379TIP3    H140080   7.567   0.903   1.922
13379TIP3    H240081   7.560   1.046   1.972
13380TIP3   OH240082   0.483   7.208   4.789
13380TIP3    H140083   0.576   7.225   4.772
13380TIP3    H240084   0.472   7.226   4.882
13381TIP3   OH240085   1.763   1.637   6.746
13381TIP3    H140086   1.718   1.672   6.823
13381TIP3    H240087   1.818   1.709   6.716
13382TIP3   OH240088   6.071   7.772   2.639
13382TIP3    H140089   6.144   7.801   2.695
13382TIP3    H240090   6.095   7.683   2.615
13383TIP3   OH240091   6.483   3.115   1.983
13383TIP3    H140092   6.390   3.091   1.987
13383TIP3    H240093   6.507   3.133   2.074
13384TIP3   OH240094   2.759   5.313   5.649
13384TIP3    H140095   2.695   5.343   5.584
13384TIP3    H240096   2.826   5.381   5.649
13385TIP3   OH240097   6.460   2.563   5.775
13385TIP3    H140098   6.437   2.631   5.711
13385TIP3    H240099   6.463   2.609   5.858
13386TIP3   OH240100   3.086   0.907   0.438
13386TIP3    H140101   3.146   0.961   0.489
13386TIP3    H240102   3.015   0.966   0.413
13387TIP3   OH240103   7.072   3.459   5.221
13387TIP3    H140104   7.168   3.450   5.219
13387TIP3    H240105   7.050   3.495   5.135
13388TIP3   OH240106   4.247   3.686   3.854
13388TIP3    H140107   4.266   3.680   3.947
13388TIP3    H240108   4.159   3.724   3.849
13389TIP3   OH240109   5.310   0.458   0.162
13389TIP3    H140110   5.368   0.533   0.146
13389TIP3    H240111   5.267   0.479   0.245
13390TIP3   OH240112   5.642   4.026   4.860
13390TIP3    H140113   5.690   4.011   4.779
13390TIP3    H240114   5.551   4.007   4.837
13391TIP3   OH240115   4.927   6.440   5.515
13391TIP3    H140116   4.920   6.536   5.518
13391TIP3    H240117   4.922   6.419   5.422
13392TIP3   OH240118   3.074   3.555   4.420
13392TIP3    H140119   3.055   3.593   4.334
13392TIP3    H240120   3.071   3.460   4.406
13393TIP3   OH240121   0.064   0.896   5.833
13393TIP3    H140122   0.016   0.814   5.822
13393TIP3    H240123   0.104   0.889   5.920
13394TIP3   OH240124   6.327   5.273   4.986
13394TIP3    H140125   6.280   5.206   5.035
13394TIP3    H240126   6.322   5.243   4.895
13395TIP3   OH240127   1.865   4.388   1.380
13395TIP3    H140128   1.805   4.327   1.423
13395TIP3    H240129   1.919   4.422   1.452
13396TIP3   OH240130   7.443   4.361  -0.016
13396TIP3    H140131   7.436   4.281   0.036
13396TIP3    H240132   7.384   4.423   0.028
13397TIP3   OH240133   7.864   5.424   0.370
13397TIP3    H140134   7.788   5.481   0.381
13397TIP3    H240135   7.938   5.478   0.396
13398TIP3   OH240136   1.100   0.394   0.178
13398TIP3    H140137   1.115   0.423   0.088
13398TIP3    H240138   1.166   0.440   0.230
13399TIP3   OH240139   0.618   1.658   0.593
13399TIP3    H140140   0.551   1.610   0.544
13399TIP3    H240141   0.569   1.721   0.646
13400TIP3   OH240142   0.310   4.088   5.735
13400TIP3    H140143   0.378   4.155   5.720
13400TIP3    H240144   0.298   4.087   5.830
13401TIP3   OH240145   0.369   3.156   0.320
13401TIP3    H140146   0.393   3.107   0.398
13401TIP3    H240147   0.440   3.139   0.258
13402TIP3   OH240148   3.388   4.646   2.383
13402TIP3    H140149   3.379   4.650   2.479
13402TIP3    H240150   3.440   4.723   2.361
13403TIP3   OH240151   1.175   4.803   1.642
13403TIP3    H140152   1.187   4.871   1.708
13403TIP3    H240153   1.246   4.817   1.580
13404TIP3   OH240154   2.256   0.137   2.692
13404TIP3    H140155   2.176   0.182   2.667
13404TIP3    H240156   2.307   0.130   2.611
13405TIP3   OH240157   7.786   7.561   1.856
13405TIP3    H140158   7.731   7.520   1.923
13405TIP3    H240159   7.854   7.496   1.839
13406TIP3   OH240160   0.422   5.081   0.062
13406TIP3    H140161   0.394   4.989   0.062
13406TIP3    H240162   0.384   5.118  -0.017
13407TIP3   OH240163   4.723   0.029   1.145
13407TIP3    H140164   4.653   0.046   1.208
13407TIP3    H240165   4.757  -0.057   1.169
13408TIP3   OH240166   3.870   6.843   3.189
13408TIP3    H140167   3.789   6.858   3.140
13408TIP3    H240168   3.915   6.773   3.140
13409TIP3   OH240169   6.814   5.537   1.287
13409TIP3    H140170   6.766   5.466   1.243
13409TIP3    H240171   6.827   5.603   1.219
13410TIP3   OH240172   3.096   2.168   5.384
13410TIP3    H140173   3.137   2.123   5.310
13410TIP3    H240174   3.108   2.108   5.458
13411TIP3   OH240175   0.727   7.835   5.097
13411TIP3    H140176   0.725   7.776   5.021
13411TIP3    H240177   0.738   7.777   5.172
13412TIP3   OH240178   3.291   4.314   0.226
13412TIP3    H140179   3.288   4.390   0.284
13412TIP3    H240180   3.313   4.351   0.140
13413TIP3   OH240181   1.575   0.989   5.191
13413TIP3    H140182   1.609   1.073   5.223
13413TIP3    H240183   1.500   1.013   5.137
13414TIP3   OH240184   7.314   3.833   3.368
13414TIP3    H140185   7.277   3.917   3.397
13414TIP3    H240186   7.408   3.842   3.381
13415TIP3   OH240187   3.092   7.272   2.192
13415TIP3    H140188   3.007   7.244   2.227
13415TIP3    H240189   3.088   7.246   2.099
13416TIP3   OH240190   0.865   1.150   5.815
13416TIP3    H140191   0.931   1.196   5.866
13416TIP3    H240192   0.867   1.060   5.847
13417TIP3   OH240193   7.452   2.557   5.769
13417TIP3    H140194   7.498   2.499   5.709
13417TIP3    H240195   7.513   2.572   5.840
13418TIP3   OH240196   3.283   3.194   2.598
13418TIP3    H140197   3.229   3.243   2.536
13418TIP3    H240198   3.372   3.201   2.565
13419TIP3   OH240199   7.697   0.931   3.292
13419TIP3    H140200   7.675   1.006   3.238
13419TIP3    H240201   7.640   0.939   3.368
13420TIP3   OH240202   6.048   4.148   2.591
13420TIP3    H140203   6.066   4.055   2.603
13420TIP3    H240204   5.952   4.155   2.595
13421TIP3   OH240205   2.450   1.588   4.319
13421TIP3    H140206   2.456   1.607   4.226
13421TIP3    H240207   2.357   1.603   4.341
13422TIP3   OH240208   7.467   5.928   4.679
13422TIP3    H140209   7.457   5.869   4.754
13422TIP3    H240210   7.538   5.987   4.704
13423TIP3   OH240211   6.461   0.207   6.615
13423TIP3    H140212   6.388   0.198   6.554
13423TIP3    H240213   6.535   0.235   6.562
13424TIP3   OH240214   1.816   5.066   3.391
13424TIP3    H140215   1.782   5.137   3.446
13424TIP3    H240216   1.751   5.056   3.321
13425TIP3   OH240217   7.577   5.030   6.597
13425TIP3    H140218   7.486   5.047   6.622
13425TIP3    H240219   7.629   5.070   6.667
13426TIP3   OH240220   3.638   3.099   3.912
13426TIP3    H140221   3.669   3.013   3.939
13426TIP3    H240222   3.564   3.081   3.854
13427TIP3   OH240223   2.125   5.505   0.452
13427TIP3    H140224   2.111   5.519   0.545
13427TIP3    H240225   2.179   5.426   0.447
13428TIP3   OH240226   3.474   3.273   3.071
13428TIP3    H140227   3.399   3.227   3.033
13428TIP3    H240228   3.520   3.310   2.995
13429TIP3   OH240229   0.517   6.190   4.061
13429TIP3    H140230   0.451   6.214   3.996
13429TIP3    H240231   0.473   6.130   4.120
13430TIP3   OH240232   7.458   0.175   5.702
13430TIP3    H140233   7.531   0.115   5.718
13430TIP3    H240234   7.384   0.136   5.748
13431TIP3   OH240235   3.451   6.804   5.578
13431TIP3    H140236   3.447   6.889   5.534
13431TIP3    H240237   3.528   6.761   5.539
13432TIP3   OH240238   0.293   3.016   1.527
13432TIP3    H140239   0.224   3.014   1.461
13432TIP3    H240240   0.372   2.990   1.479
13433TIP3   OH240241   7.682   4.410   6.135
13433TIP3    H140242   7.659   4.388   6.226
13433TIP3    H240243   7.735   4.490   6.142
13434TIP3   OH240244   7.594   1.050   3.532
13434TIP3    H140245   7.645   1.129   3.515
13434TIP3    H240246   7.503   1.080   3.533
13435TIP3   OH240247   0.187   1.539   6.116
13435TIP3    H140248   0.208   1.530   6.023
13435TIP3    H240249   0.270   1.527   6.161
13436TIP3   OH240250   0.422   2.998   5.439
13436TIP3    H140251   0.438   2.978   5.347
13436TIP3    H240252   0.426   2.913   5.483
13437TIP3   OH240253   4.306   7.593   1.362
13437TIP3    H140254   4.222   7.563   1.328
13437TIP3    H240255   4.371   7.536   1.320
13438TIP3   OH240256   5.601   5.506   5.967
13438TIP3    H140257   5.536   5.435   5.963
13438TIP3    H240258   5.652   5.486   6.045
13439TIP3   OH240259   1.937   3.168   3.091
13439TIP3    H140260   1.928   3.261   3.070
13439TIP3    H240261   1.884   3.123   3.025
13440TIP3   OH240262   0.132   0.013   3.203
13440TIP3    H140263   0.144   0.090   3.260
13440TIP3    H240264   0.207  -0.043   3.223
13441TIP3   OH240265   4.157   3.488   3.536
13441TIP3    H140266   4.240   3.452   3.566
13441TIP3    H240267   4.181   3.555   3.472
13442TIP3   OH240268   6.047   3.003   1.207
13442TIP3    H140269   6.010   3.059   1.275
13442TIP3    H240270   6.137   3.033   1.197
13443TIP3   OH240271   4.358   2.540   3.638
13443TIP3    H140272   4.319   2.627   3.652
13443TIP3    H240273   4.282   2.482   3.629
13444TIP3   OH240274   4.752   2.888   6.452
13444TIP3    H140275   4.666   2.863   6.487
13444TIP3    H240276   4.802   2.806   6.452
13445TIP3   OH240277   4.667   3.446   6.459
13445TIP3    H140278   4.663   3.454   6.364
13445TIP3    H240279   4.744   3.495   6.485
13446TIP3   OH240280   4.822   0.950   5.896
13446TIP3    H140281   4.869   0.889   5.839
13446TIP3    H240282   4.886   0.972   5.964
13447TIP3   OH240283   6.494   3.345   1.369
13447TIP3    H140284   6.566   3.369   1.427
13447TIP3    H240285   6.494   3.414   1.302
13448TIP3   OH240286   2.304   6.194   6.655
13448TIP3    H140287   2.304   6.234   6.568
13448TIP3    H240288   2.213   6.200   6.684
13449TIP3   OH240289   5.903   3.223   1.297
13449TIP3    H140290   5.925   3.258   1.383
13449TIP3    H240291   5.820   3.265   1.274
13450TIP3   OH240292   7.945   5.570   4.166
13450TIP3    H140293   7.891   5.495   4.141
13450TIP3    H240294   8.017   5.532   4.215
13451TIP3   OH240295   4.733   2.046   6.073
13451TIP3    H140296   4.758   2.069   6.162
13451TIP3    H240297   4.801   1.985   6.044
13452TIP3   OH240298   1.505   4.384   3.232
13452TIP3    H140299   1.573   4.318   3.247
13452TIP3    H240300   1.424   4.342   3.263
13453TIP3   OH240301   3.914   6.947   4.232
13453TIP3    H140302   3.860   6.945   4.311
13453TIP3    H240303   3.853   6.971   4.162
13454TIP3   OH240304   0.461   2.501   2.435
13454TIP3    H140305   0.434   2.492   2.343
13454TIP3    H240306   0.398   2.563   2.472
13455TIP3   OH240307   7.864   1.902   3.713
13455TIP3    H140308   7.938   1.906   3.773
13455TIP3    H240309   7.855   1.808   3.693
13456TIP3   OH240310   7.748   5.753   1.036
13456TIP3    H140311   7.789   5.794   0.959
13456TIP3    H240312   7.668   5.713   1.002
13457TIP3   OH240313   3.844   3.322   0.038
13457TIP3    H140314   3.935   3.350   0.025
13457TIP3    H240315   3.810   3.383   0.104
13458TIP3   OH240316   6.704   7.108   2.883
13458TIP3    H140317   6.776   7.123   2.822
13458TIP3    H240318   6.731   7.032   2.934
13459TIP3   OH240319   7.303   5.284   6.009
13459TIP3    H140320   7.266   5.196   6.012
13459TIP3    H240321   7.321   5.306   6.100
13460TIP3   OH240322   4.105   4.760   6.456
13460TIP3    H140323   4.050   4.721   6.388
13460TIP3    H240324   4.175   4.804   6.408
13461TIP3   OH240325   0.454   2.199   3.945
13461TIP3    H140326   0.385   2.204   4.010
13461TIP3    H240327   0.412   2.159   3.868
13462TIP3   OH240328   8.054   4.437   2.169
13462TIP3    H140329   7.974   4.404   2.128
13462TIP3    H240330   8.032   4.443   2.262
13463TIP3   OH240331   4.768   6.440   3.176
13463TIP3    H140332   4.852   6.450   3.129
13463TIP3    H240333   4.708   6.498   3.129
13464TIP3   OH240334   8.125   3.705   5.057
13464TIP3    H140335   8.164   3.770   5.115
13464TIP3    H240336   8.091   3.755   4.983
13465TIP3   OH240337   1.330   7.566   0.301
13465TIP3    H140338   1.352   7.490   0.247
13465TIP3    H240339   1.348   7.538   0.391
13466TIP3   OH240340   0.833   5.951   6.193
13466TIP3    H140341   0.747   5.912   6.212
13466TIP3    H240342   0.894   5.901   6.247
13467TIP3   OH240343   4.669   7.691   1.387
13467TIP3    H140344   4.702   7.780   1.377
13467TIP3    H240345   4.637   7.667   1.300
13468TIP3   OH240346   1.460   4.918   5.627
13468TIP3    H140347   1.490   4.878   5.546
13468TIP3    H240348   1.489   4.859   5.696
13469TIP3   OH240349   3.680   5.351   6.408
13469TIP3    H140350   3.719   5.315   6.329
13469TIP3    H240351   3.612   5.411   6.376
13470TIP3   OH240352   1.509   0.569   5.046
13470TIP3    H140353   1.460   0.505   5.096
13470TIP3    H240354   1.477   0.560   4.956
13471TIP3   OH240355   2.135   7.047   4.790
13471TIP3    H140356   2.084   7.119   4.829
13471TIP3    H240357   2.082   7.017   4.716
13472TIP3   OH240358   7.552   1.700   0.286
13472TIP3    H140359   7.494   1.713   0.361
13472TIP3    H240360   7.576   1.607   0.290
13473TIP3   OH240361   3.418   7.666   4.630
13473TIP3    H140362   3.426   7.597   4.564
13473TIP3    H240363   3.450   7.626   4.710
13474TIP3   OH240364   1.062   7.573   0.334
13474TIP3    H140365   1.029   7.485   0.356
13474TIP3    H240366   1.154   7.559   0.312
13475TIP3   OH240367   5.925   5.996   3.145
13475TIP3    H140368   5.841   6.025   3.180
13475TIP3    H240369   5.987   6.012   3.216
13476TIP3   OH240370   0.617   2.711   5.789
13476TIP3    H140371   0.561   2.759   5.728
13476TIP3    H240372   0.606   2.620   5.764
13477TIP3   OH240373   1.324   0.100   4.017
13477TIP3    H140374   1.414   0.131   4.020
13477TIP3    H240375   1.292   0.128   3.931
13478TIP3   OH240376   3.792   3.012   5.094
13478TIP3    H140377   3.761   3.103   5.091
13478TIP3    H240378   3.847   3.008   5.172
13479TIP3   OH240379   6.733   3.914   1.250
13479TIP3    H140380   6.735   3.897   1.156
13479TIP3    H240381   6.791   3.990   1.262
13480TIP3   OH240382   7.957   2.621   5.333
13480TIP3    H140383   7.890   2.578   5.280
13480TIP3    H240384   7.914   2.697   5.370
13481TIP3   OH240385   4.504   6.438   2.593
13481TIP3    H140386   4.466   6.353   2.570
13481TIP3    H240387   4.531   6.427   2.684
13482TIP3   OH240388   1.473   0.798   5.914
13482TIP3    H140389   1.549   0.780   5.859
13482TIP3    H240390   1.484   0.889   5.941
13483TIP3   OH240391   2.654   4.859   0.408
13483TIP3    H140392   2.692   4.826   0.489
13483TIP3    H240393   2.729   4.892   0.358
13484TIP3   OH240394   3.620   5.052   6.144
13484TIP3    H140395   3.681   5.001   6.198
13484TIP3    H240396   3.675   5.111   6.094
13485TIP3   OH240397   6.471   0.835   0.681
13485TIP3    H140398   6.479   0.819   0.587
13485TIP3    H240399   6.466   0.930   0.689
13486TIP3   OH240400   2.720   3.801   5.651
13486TIP3    H140401   2.748   3.871   5.710
13486TIP3    H240402   2.792   3.792   5.588
13487TIP3   OH240403   2.921   4.765   0.550
13487TIP3    H140404   2.920   4.706   0.475
13487TIP3    H240405   3.013   4.767   0.578
13488TIP3   OH240406   3.848   3.001   5.886
13488TIP3    H140407   3.803   3.084   5.902
13488TIP3    H240408   3.846   2.956   5.971
13489TIP3   OH240409   3.365   5.101   6.490
13489TIP3    H140410   3.341   5.131   6.403
13489TIP3    H240411   3.290   5.124   6.545
13490TIP3   OH240412   3.226   0.061   3.266
13490TIP3    H140413   3.301   0.118   3.251
13490TIP3    H240414   3.180   0.100   3.341
13491TIP3   OH240415   5.176   2.686   0.334
13491TIP3    H140416   5.187   2.760   0.274
13491TIP3    H240417   5.154   2.727   0.418
13492TIP3   OH240418   6.284   3.350   5.719
13492TIP3    H140419   6.293   3.256   5.738
13492TIP3    H240420   6.197   3.372   5.750
13493TIP3   OH240421   3.286   6.880   2.472
13493TIP3    H140422   3.364   6.932   2.491
13493TIP3    H240423   3.215   6.926   2.517
13494TIP3   OH240424   2.243   6.521   3.766
13494TIP3    H140425   2.332   6.509   3.800
13494TIP3    H240426   2.245   6.608   3.726
13495TIP3   OH240427   2.362   2.384   1.216
13495TIP3    H140428   2.297   2.406   1.148
13495TIP3    H240429   2.322   2.313   1.265
13496TIP3   OH240430   4.137   2.223   2.308
13496TIP3    H140431   4.219   2.213   2.357
13496TIP3    H240432   4.110   2.313   2.325
13497TIP3   OH240433   0.529   2.020   6.660
13497TIP3    H140434   0.490   1.935   6.681
13497TIP3    H240435   0.589   2.038   6.733
13498TIP3   OH240436   6.504   7.456   3.223
13498TIP3    H140437   6.420   7.438   3.182
13498TIP3    H240438   6.544   7.523   3.168
13499TIP3   OH240439   2.106   5.720   4.902
13499TIP3    H140440   2.170   5.773   4.950
13499TIP3    H240441   2.143   5.712   4.814
13500TIP3   OH240442   3.534   2.718   1.373
13500TIP3    H140443   3.536   2.661   1.449
13500TIP3    H240444   3.591   2.792   1.396
13501TIP3   OH240445   3.704   1.289   3.911
13501TIP3    H140446   3.796   1.269   3.929
13501TIP3    H240447   3.696   1.282   3.816
13502TIP3   OH240448   6.101   1.458   3.608
13502TIP3    H140449   6.088   1.438   3.701
13502TIP3    H240450   6.196   1.469   3.599
13503TIP3   OH240451   3.778   4.899   3.897
13503TIP3    H140452   3.851   4.959   3.913
13503TIP3    H240453   3.772   4.847   3.977
13504TIP3   OH240454   6.440   2.210   6.536
13504TIP3    H140455   6.355   2.250   6.556
13504TIP3    H240456   6.430   2.118   6.561
13505TIP3   OH240457   1.164   2.626   3.911
13505TIP3    H140458   1.134   2.536   3.903
13505TIP3    H240459   1.144   2.666   3.827
13506TIP3   OH240460   4.697   4.012   1.025
13506TIP3    H140461   4.774   3.957   1.014
13506TIP3    H240462   4.649   3.972   1.098
13507TIP3   OH240463   3.352   0.685   1.413
13507TIP3    H140464   3.384   0.598   1.391
13507TIP3    H240465   3.361   0.735   1.332
13508TIP3   OH240466   2.640   1.760   5.280
13508TIP3    H140467   2.586   1.751   5.202
13508TIP3    H240468   2.676   1.848   5.274
13509TIP3   OH240469   1.624   2.369   5.745
13509TIP3    H140470   1.650   2.308   5.676
13509TIP3    H240471   1.569   2.317   5.804
13510TIP3   OH240472   2.472   2.026   2.188
13510TIP3    H140473   2.505   1.937   2.185
13510TIP3    H240474   2.523   2.072   2.121
13511TIP3   OH240475   7.905   2.060   4.514
13511TIP3    H140476   7.993   2.095   4.527
13511TIP3    H240477   7.891   2.001   4.588
13512TIP3   OH240478   3.860   2.194   3.542
13512TIP3    H140479   3.823   2.253   3.476
13512TIP3    H240480   3.799   2.202   3.616
13513TIP3   OH240481   2.639   2.419   1.173
13513TIP3    H140482   2.546   2.405   1.188
13513TIP3    H240483   2.669   2.340   1.129
13514TIP3   OH240484   4.276   7.141   0.981
13514TIP3    H140485   4.185   7.154   0.953
13514TIP3    H240486   4.295   7.050   0.960
13515TIP3   OH240487   7.848   0.346   2.161
13515TIP3    H140488   7.817   0.293   2.234
13515TIP3    H240489   7.828   0.436   2.186
13516TIP3   OH240490   2.747   1.715   0.847
13516TIP3    H140491   2.768   1.808   0.833
13516TIP3    H240492   2.790   1.669   0.775
13517TIP3   OH240493   5.273   3.337   3.890
13517TIP3    H140494   5.221   3.404   3.844
13517TIP3    H240495   5.327   3.387   3.951
13518TIP3   OH240496   2.806   5.884   4.056
13518TIP3    H140497   2.792   5.840   4.140
13518TIP3    H240498   2.735   5.852   4.000
13519TIP3   OH240499   7.428   3.949   3.907
13519TIP3    H140500   7.488   3.970   3.979
13519TIP3    H240501   7.479   3.894   3.848
13520TIP3   OH240502   0.221   6.890   0.944
13520TIP3    H140503   0.207   6.845   0.861
13520TIP3    H240504   0.144   6.946   0.955
13521TIP3   OH240505   5.202   3.354   4.704
13521TIP3    H140506   5.130   3.384   4.759
13521TIP3    H240507   5.232   3.274   4.747
13522TIP3   OH240508   0.379   4.902   2.327
13522TIP3    H140509   0.469   4.930   2.310
13522TIP3    H240510   0.335   4.911   2.242
13523TIP3   OH240511   3.754   2.501   6.135
13523TIP3    H140512   3.684   2.462   6.187
13523TIP3    H240513   3.816   2.429   6.120
13524TIP3   OH240514   6.772   4.648   0.414
13524TIP3    H140515   6.824   4.674   0.490
13524TIP3    H240516   6.682   4.648   0.445
13525TIP3   OH240517   2.104   3.914   4.943
13525TIP3    H140518   2.119   3.900   5.036
13525TIP3    H240519   2.051   3.839   4.916
13526TIP3   OH240520   0.730   7.459   1.230
13526TIP3    H140521   0.725   7.453   1.326
13526TIP3    H240522   0.656   7.514   1.205
13527TIP3   OH240523   2.828   5.365   2.479
13527TIP3    H140524   2.787   5.420   2.547
13527TIP3    H240525   2.754   5.324   2.435
13528TIP3   OH240526   1.855   3.546   5.961
13528TIP3    H140527   1.887   3.630   5.930
13528TIP3    H240528   1.772   3.533   5.915
13529TIP3   OH240529   7.661   4.746   0.788
13529TIP3    H140530   7.704   4.826   0.758
13529TIP3    H240531   7.683   4.741   0.881
13530TIP3   OH240532   1.229   1.183   1.807
13530TIP3    H140533   1.296   1.142   1.861
13530TIP3    H240534   1.272   1.196   1.722
13531TIP3   OH240535   2.556   5.773   2.966
13531TIP3    H140536   2.604   5.792   3.046
13531TIP3    H240537   2.507   5.693   2.986
13532TIP3   OH240538   5.944   5.242   2.812
13532TIP3    H140539   5.983   5.289   2.886
13532TIP3    H240540   5.898   5.309   2.762
13533TIP3   OH240541   1.768   1.497   3.926
13533TIP3    H140542   1.689   1.476   3.977
13533TIP3    H240543   1.775   1.427   3.862
13534TIP3   OH240544   0.574   4.173   5.399
13534TIP3    H140545   0.507   4.158   5.333
13534TIP3    H240546   0.526   4.199   5.477
13535TIP3   OH240547   5.480   5.041   4.818
13535TIP3    H140548   5.424   4.973   4.781
13535TIP3    H240549   5.486   5.108   4.750
13536TIP3   OH240550   7.262   1.924   2.351
13536TIP3    H140551   7.203   1.987   2.391
13536TIP3    H240552   7.264   1.850   2.411
13537TIP3   OH240553   6.681   6.556   2.368
13537TIP3    H140554   6.593   6.531   2.341
13537TIP3    H240555   6.680   6.546   2.463
13538TIP3   OH240556   5.510   3.134   0.017
13538TIP3    H140557   5.466   3.203  -0.032
13538TIP3    H240558   5.599   3.165   0.028
13539TIP3   OH240559   6.646   7.280   2.121
13539TIP3    H140560   6.650   7.186   2.136
13539TIP3    H240561   6.660   7.289   2.027
13540TIP3   OH240562   2.719   2.184   6.476
13540TIP3    H140563   2.726   2.260   6.534
13540TIP3    H240564   2.718   2.222   6.388
13541TIP3   OH240565   3.616   0.274   2.236
13541TIP3    H140566   3.547   0.210   2.248
13541TIP3    H240567   3.616   0.292   2.141
13542TIP3   OH240568   2.230   3.317   2.682
13542TIP3    H140569   2.302   3.307   2.619
13542TIP3    H240570   2.152   3.329   2.628
13543TIP3   OH240571   7.236   5.236   2.301
13543TIP3    H140572   7.223   5.249   2.207
13543TIP3    H240573   7.148   5.221   2.336
13544TIP3   OH240574   2.526   1.835   0.933
13544TIP3    H140575   2.586   1.760   0.932
13544TIP3    H240576   2.447   1.803   0.891
13545TIP3   OH240577   3.949   1.786   4.733
13545TIP3    H140578   4.040   1.798   4.703
13545TIP3    H240579   3.954   1.797   4.828
13546TIP3   OH240580   2.830   2.345   0.488
13546TIP3    H140581   2.838   2.337   0.583
13546TIP3    H240582   2.864   2.432   0.468
13547TIP3   OH240583   4.090   1.247   1.315
13547TIP3    H140584   4.157   1.241   1.383
13547TIP3    H240585   4.041   1.165   1.322
13548TIP3   OH240586   4.974   1.987   0.742
13548TIP3    H140587   4.958   2.080   0.725
13548TIP3    H240588   5.045   1.986   0.806
13549TIP3   OH240589   1.858   0.068   4.143
13549TIP3    H140590   1.896  -0.003   4.195
13549TIP3    H240591   1.869   0.146   4.197
13550TIP3   OH240592   3.714   2.226   0.300
13550TIP3    H140593   3.636   2.172   0.313
13550TIP3    H240594   3.711   2.251   0.208
13551TIP3   OH240595   4.150   3.965   6.547
13551TIP3    H140596   4.134   4.012   6.628
13551TIP3    H240597   4.232   4.000   6.514
13552TIP3   OH240598   7.896   5.139   5.647
13552TIP3    H140599   7.936   5.134   5.734
13552TIP3    H240600   7.852   5.224   5.646
13553TIP3   OH240601   1.628   0.129   6.607
13553TIP3    H140602   1.631   0.050   6.661
13553TIP3    H240603   1.660   0.101   6.521
13554TIP3   OH240604   0.991   0.373   2.693
13554TIP3    H140605   0.958   0.454   2.732
13554TIP3    H240606   1.049   0.337   2.761
13555TIP3   OH240607   1.307   5.948   1.384
13555TIP3    H140608   1.284   6.040   1.374
13555TIP3    H240609   1.259   5.920   1.462
13556TIP3   OH240610   3.460   2.032   0.674
13556TIP3    H140611   3.496   2.119   0.690
13556TIP3    H240612   3.480   2.015   0.582
13557TIP3   OH240613   1.777   4.423   6.711
13557TIP3    H140614   1.783   4.514   6.741
13557TIP3    H240615   1.683   4.410   6.693
13558TIP3   OH240616   5.783   5.350   0.178
13558TIP3    H140617   5.817   5.315   0.261
13558TIP3    H240618   5.845   5.321   0.112
13559TIP3   OH240619   6.348   0.482   2.638
13559TIP3    H140620   6.345   0.575   2.615
13559TIP3    H240621   6.433   0.469   2.679
13560TIP3   OH240622   7.641   4.201   1.222
13560TIP3    H140623   7.715   4.248   1.261
13560TIP3    H240624   7.602   4.153   1.295
13561TIP3   OH240625   4.735   2.194   1.627
13561TIP3    H140626   4.648   2.212   1.591
13561TIP3    H240627   4.783   2.151   1.556
13562TIP3   OH240628   1.871   0.640   2.871
13562TIP3    H140629   1.799   0.622   2.931
13562TIP3    H240630   1.895   0.554   2.836
13563TIP3   OH240631   1.248   0.345   4.151
13563TIP3    H140632   1.267   0.423   4.098
13563TIP3    H240633   1.259   0.272   4.090
13564TIP3   OH240634   3.898   4.123   3.893
13564TIP3    H140635   3.811   4.102   3.926
13564TIP3    H240636   3.894   4.106   3.799
13565TIP3   OH240637   6.995   0.161   3.625
13565TIP3    H140638   7.085   0.171   3.595
13565TIP3    H240639   6.942   0.166   3.546
13566TIP3   OH240640   1.971   6.107   4.702
13566TIP3    H140641   2.041   6.162   4.666
13566TIP3    H240642   1.979   6.024   4.655
13567TIP3   OH240643   7.308   2.097   1.811
13567TIP3    H140644   7.352   2.100   1.896
13567TIP3    H240645   7.215   2.111   1.832
13568TIP3   OH240646   5.856   2.728   1.366
13568TIP3    H140647   5.825   2.684   1.445
13568TIP3    H240648   5.792   2.705   1.299
13569TIP3   OH240649   1.598   0.402   4.335
13569TIP3    H140650   1.664   0.436   4.396
13569TIP3    H240651   1.538   0.475   4.322
13570TIP3   OH240652   1.435   4.264   4.307
13570TIP3    H140653   1.478   4.236   4.226
13570TIP3    H240654   1.374   4.193   4.328
13571TIP3   OH240655   0.158   3.983   6.429
13571TIP3    H140656   0.174   4.073   6.400
13571TIP3    H240657   0.215   3.972   6.505
13572TIP3   OH240658   2.476   5.727   0.058
13572TIP3    H140659   2.454   5.817   0.084
13572TIP3    H240660   2.542   5.699   0.122
13573TIP3   OH240661   7.381   4.168   6.099
13573TIP3    H140662   7.333   4.242   6.061
13573TIP3    H240663   7.466   4.169   6.053
13574TIP3   OH240664   2.281   3.106   4.789
13574TIP3    H140665   2.255   3.181   4.843
13574TIP3    H240666   2.356   3.137   4.739
13575TIP3   OH240667   1.435   7.574   5.401
13575TIP3    H140668   1.456   7.648   5.345
13575TIP3    H240669   1.520   7.536   5.424
13576TIP3   OH240670   6.204   1.435   4.560
13576TIP3    H140671   6.221   1.345   4.586
13576TIP3    H240672   6.110   1.446   4.571
13577TIP3   OH240673   7.860   2.295   3.685
13577TIP3    H140674   7.794   2.319   3.750
13577TIP3    H240675   7.851   2.360   3.615
13578TIP3   OH240676   3.035   2.879   4.276
13578TIP3    H140677   2.989   2.854   4.356
13578TIP3    H240678   3.125   2.848   4.289
13579TIP3   OH240679   2.400   3.382   1.809
13579TIP3    H140680   2.311   3.387   1.844
13579TIP3    H240681   2.407   3.456   1.750
13580TIP3   OH240682   7.642   1.685   6.633
13580TIP3    H140683   7.727   1.725   6.618
13580TIP3    H240684   7.662   1.597   6.664
13581TIP3   OH240685   7.364   3.957   0.357
13581TIP3    H140686   7.444   3.961   0.304
13581TIP3    H240687   7.385   3.895   0.427
13582TIP3   OH240688   6.308   4.512   5.562
13582TIP3    H140689   6.371   4.580   5.539
13582TIP3    H240690   6.341   4.434   5.516
13583TIP3   OH240691   7.688   0.558   2.276
13583TIP3    H140692   7.611   0.510   2.243
13583TIP3    H240693   7.679   0.554   2.372
13584TIP3   OH240694   0.387   0.940   6.191
13584TIP3    H140695   0.398   1.033   6.169
13584TIP3    H240696   0.361   0.941   6.284
13585TIP3   OH240697   1.323   6.909   3.174
13585TIP3    H140698   1.414   6.880   3.172
13585TIP3    H240699   1.281   6.849   3.236
13586TIP3   OH240700   5.411   6.419   6.041
13586TIP3    H140701   5.462   6.406   5.962
13586TIP3    H240702   5.327   6.375   6.023
13587TIP3   OH240703   4.461   0.965   5.177
13587TIP3    H140704   4.498   1.050   5.200
13587TIP3    H240705   4.432   0.928   5.261
13588TIP3   OH240706   6.626   3.234   4.071
13588TIP3    H140707   6.700   3.266   4.019
13588TIP3    H240708   6.584   3.314   4.102
13589TIP3   OH240709   0.586   0.471   1.396
13589TIP3    H140710   0.509   0.442   1.446
13589TIP3    H240711   0.559   0.553   1.356
13590TIP3   OH240712   6.581   6.951   2.540
13590TIP3    H140713   6.547   6.972   2.453
13590TIP3    H240714   6.643   7.022   2.559
13591TIP3   OH240715   2.489   5.445   4.851
13591TIP3    H140716   2.403   5.434   4.809
13591TIP3    H240717   2.523   5.526   4.815
13592TIP3   OH240718   7.591   1.377   1.154
13592TIP3    H140719   7.543   1.448   1.112
13592TIP3    H240720   7.525   1.331   1.206
13593TIP3   OH240721   8.295   7.218   1.767
13593TIP3    H140722   8.298   7.123   1.779
13593TIP3    H240723   8.235   7.249   1.835
13594TIP3   OH240724   7.852   5.699   3.565
13594TIP3    H140725   7.890   5.722   3.481
13594TIP3    H240726   7.762   5.675   3.545
13595TIP3   OH240727   6.300   1.492   0.071
13595TIP3    H140728   6.326   1.444   0.150
13595TIP3    H240729   6.381   1.499   0.020
13596TIP3   OH240730   2.453   2.680   2.902
13596TIP3    H140731   2.472   2.774   2.897
13596TIP3    H240732   2.537   2.637   2.886
13597TIP3   OH240733   4.121   3.108   6.744
13597TIP3    H140734   4.170   3.026   6.733
13597TIP3    H240735   4.064   3.112   6.668
13598TIP3   OH240736   6.722   7.637   3.807
13598TIP3    H140737   6.782   7.610   3.876
13598TIP3    H240738   6.755   7.722   3.778
13599TIP3   OH240739   5.635   4.401   6.528
13599TIP3    H140740   5.684   4.444   6.458
13599TIP3    H240741   5.666   4.311   6.529
13600TIP3   OH240742   6.615   3.445   0.611
13600TIP3    H140743   6.549   3.377   0.625
13600TIP3    H240744   6.588   3.487   0.529
13601TIP3   OH240745   3.168   6.609   2.583
13601TIP3    H140746   3.088   6.618   2.531
13601TIP3    H240747   3.183   6.697   2.618
13602TIP3   OH240748   5.699   5.728   0.319
13602TIP3    H140749   5.771   5.698   0.264
13602TIP3    H240750   5.741   5.753   0.401
13603TIP3   OH240751   1.433   6.028   2.371
13603TIP3    H140752   1.396   5.978   2.299
13603TIP3    H240753   1.388   5.995   2.449
13604TIP3   OH240754   6.913   4.723   3.325
13604TIP3    H140755   6.822   4.754   3.328
13604TIP3    H240756   6.915   4.649   3.386
13605TIP3   OH240757   3.216   0.362   3.812
13605TIP3    H140758   3.134   0.380   3.767
13605TIP3    H240759   3.227   0.267   3.806
13606TIP3   OH240760   5.883   1.811   4.379
13606TIP3    H140761   5.953   1.848   4.434
13606TIP3    H240762   5.806   1.863   4.401
13607TIP3   OH240763   6.257   5.514   0.852
13607TIP3    H140764   6.200   5.541   0.925
13607TIP3    H240765   6.329   5.467   0.894
13608TIP3   OH240766   0.783   1.917   4.503
13608TIP3    H140767   0.799   2.011   4.491
13608TIP3    H240768   0.780   1.882   4.414
13609TIP3   OH240769   7.895   5.636   1.568
13609TIP3    H140770   7.901   5.599   1.657
13609TIP3    H240771   7.803   5.660   1.558
13610TIP3   OH240772   5.496   2.892   4.483
13610TIP3    H140773   5.586   2.923   4.496
13610TIP3    H240774   5.497   2.849   4.397
13611TIP3   OH240775   6.596   2.160   5.280
13611TIP3    H140776   6.611   2.237   5.336
13611TIP3    H240777   6.682   2.118   5.274
13612TIP3   OH240778   1.659   7.059   5.667
13612TIP3    H140779   1.707   7.081   5.748
13612TIP3    H240780   1.716   7.090   5.597
13613TIP3   OH240781   0.885   4.102   3.572
13613TIP3    H140782   0.800   4.059   3.577
13613TIP3    H240783   0.910   4.095   3.480
13614TIP3   OH240784   6.170   4.548   2.789
13614TIP3    H140785   6.121   4.630   2.796
13614TIP3    H240786   6.103   4.481   2.774
13615TIP3   OH240787   5.320   2.148   3.542
13615TIP3    H140788   5.274   2.209   3.485
13615TIP3    H240789   5.278   2.159   3.627
13616TIP3   OH240790   2.030   7.401   1.357
13616TIP3    H140791   2.114   7.356   1.346
13616TIP3    H240792   2.033   7.474   1.296
13617TIP3   OH240793   8.171   0.848   5.375
13617TIP3    H140794   8.166   0.902   5.455
13617TIP3    H240795   8.157   0.911   5.304
13618TIP3   OH240796   3.152   2.871   0.272
13618TIP3    H140797   3.150   2.801   0.337
13618TIP3    H240798   3.191   2.830   0.195
13619TIP3   OH240799   0.443   2.715   3.471
13619TIP3    H140800   0.500   2.666   3.531
13619TIP3    H240801   0.431   2.800   3.513
13620TIP3   OH240802   6.201   0.055   6.735
13620TIP3    H140803   6.202  -0.040   6.719
13620TIP3    H240804   6.119   0.070   6.782
13621TIP3   OH240805   7.579   3.390   5.460
13621TIP3    H140806   7.489   3.398   5.493
13621TIP3    H240807   7.572   3.408   5.367
13622TIP3   OH240808   4.834   2.119   2.212
13622TIP3    H140809   4.754   2.121   2.264
13622TIP3    H240810   4.873   2.205   2.224
13623TIP3   OH240811   6.030   5.663   5.417
13623TIP3    H140812   6.032   5.627   5.506
13623TIP3    H240813   6.109   5.629   5.376
13624TIP3   OH240814   3.689   7.241   6.557
13624TIP3    H140815   3.755   7.198   6.612
13624TIP3    H240816   3.609   7.192   6.573
13625TIP3   OH240817   2.392   7.283   2.872
13625TIP3    H140818   2.320   7.261   2.930
13625TIP3    H240819   2.352   7.293   2.786
13626TIP3   OH240820   6.802   5.325   6.359
13626TIP3    H140821   6.874   5.279   6.402
13626TIP3    H240822   6.755   5.369   6.430
13627TIP3   OH240823   4.455   4.324   5.684
13627TIP3    H140824   4.456   4.229   5.691
13627TIP3    H240825   4.362   4.347   5.683
13628TIP3   OH240826   4.592   2.422   5.580
13628TIP3    H140827   4.685   2.401   5.568
13628TIP3    H240828   4.591   2.484   5.653
13629TIP3   OH240829   8.053   0.205   0.236
13629TIP3    H140830   8.002   0.235   0.161
13629TIP3    H240831   8.139   0.246   0.225
13630TIP3   OH240832   0.989   5.107   5.173
13630TIP3    H140833   1.030   5.128   5.257
13630TIP3    H240834   0.912   5.055   5.196
13631TIP3   OH240835   1.120   3.017   6.176
13631TIP3    H140836   1.206   3.012   6.216
13631TIP3    H240837   1.134   2.996   6.084
13632TIP3   OH240838   6.751   0.415   6.011
13632TIP3    H140839   6.768   0.431   6.104
13632TIP3    H240840   6.759   0.320   6.002
13633TIP3   OH240841   1.016   0.110   0.920
13633TIP3    H140842   1.031   0.033   0.865
13633TIP3    H240843   1.100   0.156   0.920
13634TIP3   OH240844   7.438   3.367   3.314
13634TIP3    H140845   7.403   3.313   3.384
13634TIP3    H240846   7.491   3.434   3.359
13635TIP3   OH240847   1.149   3.046   2.734
13635TIP3    H140848   1.082   3.064   2.799
13635TIP3    H240849   1.155   2.950   2.731
13636TIP3   OH240850   7.534   3.835   6.492
13636TIP3    H140851   7.625   3.815   6.469
13636TIP3    H240852   7.498   3.751   6.523
13637TIP3   OH240853   1.789   2.111   3.423
13637TIP3    H140854   1.721   2.083   3.361
13637TIP3    H240855   1.767   2.202   3.443
13638TIP3   OH240856   0.818   6.834   4.008
13638TIP3    H140857   0.765   6.757   4.028
13638TIP3    H240858   0.908   6.802   4.010
13639TIP3   OH240859   4.961   1.958   2.021
13639TIP3    H140860   4.909   1.990   2.095
13639TIP3    H240861   5.031   2.023   2.012
13640TIP3   OH240862   3.331   1.069   2.100
13640TIP3    H140863   3.366   1.018   2.027
13640TIP3    H240864   3.238   1.081   2.078
13641TIP3   OH240865   0.857   3.420   4.652
13641TIP3    H140866   0.923   3.406   4.584
13641TIP3    H240867   0.852   3.515   4.662
13642TIP3   OH240868   3.054   0.924   3.052
13642TIP3    H140869   2.995   0.965   3.116
13642TIP3    H240870   3.129   0.984   3.047
13643TIP3   OH240871   7.778   2.468   3.460
13643TIP3    H140872   7.685   2.489   3.459
13643TIP3    H240873   7.792   2.420   3.378
13644TIP3   OH240874   6.907   3.003   5.391
13644TIP3    H140875   6.874   3.086   5.356
13644TIP3    H240876   6.890   2.940   5.322
13645TIP3   OH240877   7.310   3.942   2.037
13645TIP3    H140878   7.307   4.012   1.973
13645TIP3    H240879   7.245   3.878   2.007
13646TIP3   OH240880   1.270   4.615   6.285
13646TIP3    H140881   1.282   4.575   6.198
13646TIP3    H240882   1.241   4.704   6.266
13647TIP3   OH240883   3.367   7.220   6.302
13647TIP3    H140884   3.354   7.276   6.226
13647TIP3    H240885   3.319   7.140   6.282
13648TIP3   OH240886   0.955   7.300   1.181
13648TIP3    H140887   1.020   7.358   1.221
13648TIP3    H240888   0.879   7.356   1.165
13649TIP3   OH240889   6.811   5.734   1.069
13649TIP3    H140890   6.749   5.704   1.002
13649TIP3    H240891   6.873   5.790   1.022
13650TIP3   OH240892   6.594   3.681   6.553
13650TIP3    H140893   6.623   3.702   6.464
13650TIP3    H240894   6.673   3.691   6.606
13651TIP3   OH240895   2.366   3.953   3.390
13651TIP3    H140896   2.392   3.898   3.316
13651TIP3    H240897   2.445   4.003   3.412
13652TIP3   OH240898   0.162   0.150   4.630
13652TIP3    H140899   0.222   0.099   4.685
13652TIP3    H240900   0.105   0.086   4.589
13653TIP3   OH240901   4.970   6.442   3.958
13653TIP3    H140902   4.891   6.491   3.979
13653TIP3    H240903   5.031   6.465   4.028
13654TIP3   OH240904   1.487   5.037   2.894
13654TIP3    H140905   1.529   5.102   2.951
13654TIP3    H240906   1.548   4.963   2.895
13655TIP3   OH240907   5.300   7.078   6.266
13655TIP3    H140908   5.209   7.099   6.243
13655TIP3    H240909   5.337   7.043   6.185
13656TIP3   OH240910   3.284   0.430   6.726
13656TIP3    H140911   3.213   0.472   6.678
13656TIP3    H240912   3.364   0.459   6.682
13657TIP3   OH240913   6.380   5.081   5.359
13657TIP3    H140914   6.350   5.067   5.449
13657TIP3    H240915   6.366   5.175   5.344
13658TIP3   OH240916   3.939   3.624   3.382
13658TIP3    H140917   3.985   3.616   3.298
13658TIP3    H240918   3.927   3.533   3.411
13659TIP3   OH240919   3.074   1.399   3.598
13659TIP3    H140920   3.115   1.417   3.513
13659TIP3    H240921   3.049   1.307   3.594
13660TIP3   OH240922   4.552   2.653   1.591
13660TIP3    H140923   4.462   2.622   1.601
13660TIP3    H240924   4.577   2.682   1.678
13661TIP3   OH240925   0.268   7.384   4.856
13661TIP3    H140926   0.211   7.335   4.915
13661TIP3    H240927   0.224   7.377   4.771
13662TIP3   OH240928   3.716   1.048   0.099
13662TIP3    H140929   3.700   0.954   0.097
13662TIP3    H240930   3.801   1.057   0.142
13663TIP3   OH240931   5.427   7.735   3.128
13663TIP3    H140932   5.440   7.640   3.133
13663TIP3    H240933   5.506   7.772   3.167
13664TIP3   OH240934   4.033   7.409   0.250
13664TIP3    H140935   4.084   7.411   0.331
13664TIP3    H240936   3.964   7.344   0.267
13665TIP3   OH240937   2.463   2.422   5.142
13665TIP3    H140938   2.515   2.493   5.178
13665TIP3    H240939   2.526   2.354   5.120
13666TIP3   OH240940   1.442   0.261   5.074
13666TIP3    H140941   1.482   0.194   5.019
13666TIP3    H240942   1.487   0.252   5.158
13667TIP3   OH240943   5.704   2.778  -0.005
13667TIP3    H140944   5.742   2.828   0.067
13667TIP3    H240945   5.618   2.752   0.026
13668TIP3   OH240946   2.368   0.811   0.612
13668TIP3    H140947   2.399   0.753   0.541
13668TIP3    H240948   2.335   0.888   0.567
13669TIP3   OH240949   0.210   3.079   1.789
13669TIP3    H140950   0.220   3.173   1.805
13669TIP3    H240951   0.248   3.065   1.702
13670TIP3   OH240952   6.313   7.687   4.589
13670TIP3    H140953   6.363   7.670   4.669
13670TIP3    H240954   6.262   7.766   4.609
13671TIP3   OH240955   0.663   4.958   1.185
13671TIP3    H140956   0.604   4.890   1.151
13671TIP3    H240957   0.691   5.006   1.107
13672TIP3   OH240958   4.206   7.332   6.104
13672TIP3    H140959   4.285   7.360   6.059
13672TIP3    H240960   4.205   7.382   6.186
13673TIP3   OH240961   3.554   0.861   1.572
13673TIP3    H140962   3.476   0.818   1.537
13673TIP3    H240963   3.619   0.790   1.577
13674TIP3   OH240964   3.213   3.403   4.906
13674TIP3    H140965   3.133   3.369   4.945
13674TIP3    H240966   3.206   3.498   4.915
13675TIP3   OH240967   1.951   0.067   1.720
13675TIP3    H140968   1.951   0.139   1.657
13675TIP3    H240969   1.992  -0.006   1.674
13676TIP3   OH240970   0.508   5.505   1.632
13676TIP3    H140971   0.588   5.452   1.633
13676TIP3    H240972   0.468   5.488   1.547
13677TIP3   OH240973   7.136   2.842   5.375
13677TIP3    H140974   7.069   2.900   5.410
13677TIP3    H240975   7.121   2.758   5.418
13678TIP3   OH240976   6.521   7.543   5.773
13678TIP3    H140977   6.484   7.556   5.860
13678TIP3    H240978   6.502   7.451   5.752
13679TIP3   OH240979   6.830   5.757   5.022
13679TIP3    H140980   6.766   5.755   4.950
13679TIP3    H240981   6.914   5.774   4.978
13680TIP3   OH240982   3.296   2.783   5.309
13680TIP3    H140983   3.300   2.867   5.355
13680TIP3    H240984   3.381   2.743   5.325
13681TIP3   OH240985   3.661   3.890   0.839
13681TIP3    H140986   3.607   3.826   0.793
13681TIP3    H240987   3.745   3.888   0.794
13682TIP3   OH240988   3.980   2.476   2.375
13682TIP3    H140989   4.061   2.506   2.418
13682TIP3    H240990   3.954   2.549   2.319
13683TIP3   OH240991   5.945   2.712   4.696
13683TIP3    H140992   5.944   2.618   4.684
13683TIP3    H240993   5.884   2.746   4.630
13684TIP3   OH240994   3.520   1.938   2.066
13684TIP3    H140995   3.449   1.876   2.080
13684TIP3    H240996   3.482   2.009   2.016
13685TIP3   OH240997   2.136   7.513   1.596
13685TIP3    H140998   2.087   7.482   1.519
13685TIP3    H240999   2.197   7.442   1.615
13686TIP3   OH241000   7.671   1.492   3.383
13686TIP3    H141001   7.666   1.550   3.459
13686TIP3    H241002   7.691   1.550   3.310
13687TIP3   OH241003   1.508   2.183   2.915
13687TIP3    H141004   1.418   2.212   2.928
13687TIP3    H241005   1.501   2.088   2.908
13688TIP3   OH241006   3.562   5.564   2.830
13688TIP3    H141007   3.507   5.504   2.880
13688TIP3    H241008   3.563   5.528   2.741
13689TIP3   OH241009   8.104   1.975   6.008
13689TIP3    H141010   8.183   2.014   6.046
13689TIP3    H241011   8.090   2.022   5.926
13690TIP3   OH241012   7.986   3.709   1.635
13690TIP3    H141013   7.957   3.790   1.677
13690TIP3    H241014   7.916   3.646   1.656
13691TIP3   OH241015   0.087   0.675   0.963
13691TIP3    H141016   0.145   0.600   0.974
13691TIP3    H241017   0.019   0.663   1.029
13692TIP3   OH241018   1.317   6.601   6.671
13692TIP3    H141019   1.308   6.684   6.625
13692TIP3    H241020   1.232   6.558   6.659
13693TIP3   OH241021   7.825   3.731   3.105
13693TIP3    H141022   7.847   3.789   3.177
13693TIP3    H241023   7.800   3.790   3.034
13694TIP3   OH241024   5.506   4.007   0.260
13694TIP3    H141025   5.598   4.019   0.237
13694TIP3    H241026   5.461   4.078   0.216
13695TIP3   OH241027   4.013   1.527   0.643
13695TIP3    H141028   4.066   1.452   0.667
13695TIP3    H241029   4.077   1.596   0.625
13696TIP3   OH241030   1.160   5.879   2.326
13696TIP3    H141031   1.075   5.859   2.365
13696TIP3    H241032   1.138   5.929   2.247
13697TIP3   OH241033   4.908   4.656   1.100
13697TIP3    H141034   4.947   4.597   1.036
13697TIP3    H241035   4.983   4.693   1.148
13698TIP3   OH241036   7.425   0.164   5.376
13698TIP3    H141037   7.503   0.216   5.357
13698TIP3    H241038   7.438   0.134   5.466
13699TIP3   OH241039   4.547   6.692   5.551
13699TIP3    H141040   4.499   6.722   5.628
13699TIP3    H241041   4.534   6.597   5.550
13700TIP3   OH241042   7.882   3.102   0.853
13700TIP3    H141043   7.849   3.068   0.770
13700TIP3    H241044   7.933   3.030   0.890
13701TIP3   OH241045   3.312   0.637   3.653
13701TIP3    H141046   3.404   0.627   3.629
13701TIP3    H241047   3.296   0.566   3.715
13702TIP3   OH241048   1.960   3.637   0.325
13702TIP3    H141049   1.940   3.723   0.288
13702TIP3    H241050   2.053   3.624   0.307
13703TIP3   OH241051   3.094   3.602   6.127
13703TIP3    H141052   3.016   3.585   6.076
13703TIP3    H241053   3.129   3.515   6.147
13704TIP3   OH241054   2.454   2.307   3.370
13704TIP3    H141055   2.401   2.361   3.313
13704TIP3    H241056   2.505   2.369   3.422
13705TIP3   OH241057   1.154   1.793   6.664
13705TIP3    H141058   1.079   1.740   6.638
13705TIP3    H241059   1.129   1.830   6.749
13706TIP3   OH241060   7.193   5.927   0.858
13706TIP3    H141061   7.204   6.021   0.872
13706TIP3    H241062   7.101   5.910   0.878
13707TIP3   OH241063   3.374   4.838   3.242
13707TIP3    H141064   3.419   4.856   3.160
13707TIP3    H241065   3.281   4.839   3.220
13708TIP3   OH241066   1.812   4.743   5.898
13708TIP3    H141067   1.799   4.799   5.975
13708TIP3    H241068   1.901   4.709   5.908
13709TIP3   OH241069   7.682   4.030   5.159
13709TIP3    H141070   7.773   4.004   5.144
13709TIP3    H241071   7.632   3.949   5.148
13710TIP3   OH241072   3.580   4.527   1.288
13710TIP3    H141073   3.553   4.496   1.202
13710TIP3    H241074   3.583   4.448   1.342
13711TIP3   OH241075   4.433   1.223   3.221
13711TIP3    H141076   4.418   1.315   3.243
13711TIP3    H241077   4.498   1.226   3.151
13712TIP3   OH241078   7.766   4.517   2.720
13712TIP3    H141079   7.809   4.593   2.680
13712TIP3    H241080   7.676   4.545   2.735
13713TIP3   OH241081   4.489   0.438   6.136
13713TIP3    H141082   4.556   0.477   6.079
13713TIP3    H241083   4.439   0.513   6.169
13714TIP3   OH241084   3.106   7.465   1.183
13714TIP3    H141085   3.155   7.434   1.258
13714TIP3    H241086   3.141   7.552   1.165
13715TIP3   OH241087   4.648   2.838   0.616
13715TIP3    H141088   4.568   2.890   0.615
13715TIP3    H241089   4.636   2.776   0.688
13716TIP3   OH241090   2.447   5.526   5.894
13716TIP3    H141091   2.516   5.552   5.954
13716TIP3    H241092   2.400   5.607   5.874
13717TIP3   OH241093   4.389   2.085   6.262
13717TIP3    H141094   4.420   2.148   6.327
13717TIP3    H241095   4.468   2.046   6.226
13718TIP3   OH241096   5.238   4.119   3.069
13718TIP3    H141097   5.209   4.197   3.021
13718TIP3    H241098   5.163   4.093   3.121
13719TIP3   OH241099   1.889   3.962   6.582
13719TIP3    H141100   1.905   4.055   6.570
13719TIP3    H241101   1.883   3.927   6.494
13720TIP3   OH241102   4.353   2.795   0.726
13720TIP3    H141103   4.377   2.744   0.805
13720TIP3    H241104   4.342   2.728   0.658
13721TIP3   OH241105   3.753   5.276   3.614
13721TIP3    H141106   3.814   5.290   3.687
13721TIP3    H241107   3.738   5.182   3.613
13722TIP3   OH241108   0.605   0.448   3.355
13722TIP3    H141109   0.570   0.500   3.283
13722TIP3    H241110   0.687   0.491   3.377
13723TIP3   OH241111   0.347   2.488   5.845
13723TIP3    H141112   0.417   2.454   5.902
13723TIP3    H241113   0.351   2.434   5.766
13724TIP3   OH241114   1.351   3.789   5.677
13724TIP3    H141115   1.374   3.769   5.586
13724TIP3    H241116   1.322   3.706   5.713
13725TIP3   OH241117   0.399   4.655   5.279
13725TIP3    H141118   0.336   4.664   5.350
13725TIP3    H241119   0.353   4.602   5.213
13726TIP3   OH241120   1.637   3.521   1.639
13726TIP3    H141121   1.669   3.600   1.683
13726TIP3    H241122   1.645   3.540   1.546
13727TIP3   OH241123   4.244   5.624   3.339
13727TIP3    H141124   4.185   5.679   3.392
13727TIP3    H241125   4.274   5.682   3.269
13728TIP3   OH241126   0.664   5.008   2.805
13728TIP3    H141127   0.618   5.079   2.849
13728TIP3    H241128   0.610   4.930   2.822
13729TIP3   OH241129   2.942   4.447   2.829
13729TIP3    H141130   3.037   4.456   2.824
13729TIP3    H241131   2.925   4.416   2.918
13730TIP3   OH241132   1.634   2.018   3.196
13730TIP3    H141133   1.598   1.936   3.229
13730TIP3    H241134   1.636   2.007   3.101
13731TIP3   OH241135   4.509   3.109   1.811
13731TIP3    H141136   4.508   3.053   1.888
13731TIP3    H241137   4.439   3.075   1.755
13732TIP3   OH241138   3.331   4.938   1.705
13732TIP3    H141139   3.400   4.999   1.731
13732TIP3    H241140   3.357   4.855   1.745
13733TIP3   OH241141   2.173   5.252   0.182
13733TIP3    H141142   2.163   5.344   0.154
13733TIP3    H241143   2.106   5.240   0.249
13734TIP3   OH241144   2.379   3.874   2.671
13734TIP3    H141145   2.463   3.918   2.680
13734TIP3    H241146   2.314   3.944   2.676
13735TIP3   OH241147   3.398   1.484   4.203
13735TIP3    H141148   3.420   1.569   4.165
13735TIP3    H241149   3.393   1.425   4.128
13736TIP3   OH241150   7.942   6.316   0.327
13736TIP3    H141151   7.860   6.293   0.371
13736TIP3    H241152   7.971   6.235   0.285
13737TIP3   OH241153   7.697   1.180   6.269
13737TIP3    H141154   7.712   1.120   6.196
13737TIP3    H241155   7.709   1.127   6.347
13738TIP3   OH241156   7.037   1.489   1.248
13738TIP3    H141157   6.991   1.561   1.292
13738TIP3    H241158   6.996   1.410   1.282
13739TIP3   OH241159   2.823   3.211   6.555
13739TIP3    H141160   2.899   3.181   6.504
13739TIP3    H241161   2.773   3.131   6.571
13740TIP3   OH241162   3.296   3.170   1.937
13740TIP3    H141163   3.241   3.247   1.928
13740TIP3    H241164   3.239   3.097   1.914
13741TIP3   OH241165   4.785   4.604   4.158
13741TIP3    H141166   4.701   4.612   4.111
13741TIP3    H241167   4.850   4.594   4.089
13742TIP3   OH241168   1.850   2.914   0.410
13742TIP3    H141169   1.867   2.825   0.377
13742TIP3    H241170   1.885   2.971   0.342
13743TIP3   OH241171   0.094   0.917   3.902
13743TIP3    H141172   0.072   0.825   3.888
13743TIP3    H241173   0.174   0.931   3.851
13744TIP3   OH241174   1.351   0.469   5.240
13744TIP3    H141175   1.264   0.500   5.265
13744TIP3    H241176   1.339   0.376   5.221
13745TIP3   OH241177   3.843   3.059   0.408
13745TIP3    H141178   3.892   3.120   0.464
13745TIP3    H241179   3.773   3.111   0.370
13746TIP3   OH241180   7.120   7.156   6.507
13746TIP3    H141181   7.204   7.185   6.471
13746TIP3    H241182   7.058   7.165   6.434
13747TIP3   OH241183   6.801   4.785   6.549
13747TIP3    H141184   6.783   4.695   6.579
13747TIP3    H241185   6.885   4.779   6.504
13748TIP3   OH241186   2.782   6.303   4.367
13748TIP3    H141187   2.838   6.281   4.442
13748TIP3    H241188   2.805   6.239   4.300
13749TIP3   OH241189   2.647   4.334   2.352
13749TIP3    H141190   2.606   4.418   2.331
13749TIP3    H241191   2.690   4.349   2.437
13750TIP3   OH241192   3.240   6.069   4.615
13750TIP3    H141193   3.212   5.991   4.568
13750TIP3    H241194   3.326   6.090   4.578
13751TIP3   OH241195   1.203   1.407   3.600
13751TIP3    H141196   1.200   1.456   3.682
13751TIP3    H241197   1.216   1.316   3.627
13752TIP3   OH241198   0.898   5.573   6.178
13752TIP3    H141199   0.829   5.507   6.172
13752TIP3    H241200   0.921   5.575   6.271
13753TIP3   OH241201   2.720   3.160   3.392
13753TIP3    H141202   2.698   3.247   3.359
13753TIP3    H241203   2.636   3.114   3.395
13754TIP3   OH241204   1.929   0.735   4.683
13754TIP3    H141205   2.000   0.786   4.643
13754TIP3    H241206   1.868   0.801   4.716
13755TIP3   OH241207   0.282   7.158   1.631
13755TIP3    H141208   0.239   7.092   1.578
13755TIP3    H241209   0.211   7.205   1.675
13756TIP3   OH241210   3.118   5.634   5.735
13756TIP3    H141211   3.120   5.578   5.658
13756TIP3    H241212   3.027   5.660   5.743
13757TIP3   OH241213   0.539   2.173   4.281
13757TIP3    H141214   0.518   2.104   4.344
13757TIP3    H241215   0.456   2.190   4.236
13758TIP3   OH241216   6.289   3.472   1.827
13758TIP3    H141217   6.227   3.406   1.860
13758TIP3    H241218   6.270   3.476   1.733
13759TIP3   OH241219   7.199   3.365   2.152
13759TIP3    H141220   7.107   3.371   2.179
13759TIP3    H241221   7.216   3.271   2.150
13760TIP3   OH241222   7.470   4.499   3.666
13760TIP3    H141223   7.432   4.521   3.581
13760TIP3    H241224   7.414   4.544   3.729
13761TIP3   OH241225   2.724   5.595   0.837
13761TIP3    H141226   2.693   5.505   0.837
13761TIP3    H241227   2.749   5.611   0.928
13762TIP3   OH241228   4.760   4.243   2.543
13762TIP3    H141229   4.799   4.312   2.598
13762TIP3    H241230   4.704   4.289   2.482
13763TIP3   OH241231   8.151   3.288   4.638
13763TIP3    H141232   8.184   3.335   4.561
13763TIP3    H241233   8.098   3.217   4.602
13764TIP3   OH241234   0.274   7.792   5.674
13764TIP3    H141235   0.199   7.756   5.626
13764TIP3    H241236   0.318   7.849   5.611
13765TIP3   OH241237   1.150   1.234   0.422
13765TIP3    H141238   1.177   1.262   0.509
13765TIP3    H241239   1.227   1.191   0.385
13766TIP3   OH241240   5.406   1.253   6.546
13766TIP3    H141241   5.368   1.303   6.474
13766TIP3    H241242   5.331   1.224   6.598
13767TIP3   OH241243   6.159   5.481   1.375
13767TIP3    H141244   6.195   5.569   1.369
13767TIP3    H241245   6.167   5.458   1.468
13768TIP3   OH241246   3.011   3.978   2.692
13768TIP3    H141247   2.968   4.057   2.658
13768TIP3    H241248   3.041   3.932   2.614
13769TIP3   OH241249   5.819   4.745   6.608
13769TIP3    H141250   5.783   4.736   6.696
13769TIP3    H241251   5.887   4.677   6.603
13770TIP3   OH241252   1.733   5.984   6.251
13770TIP3    H141253   1.782   5.960   6.173
13770TIP3    H241254   1.789   5.956   6.324
13771TIP3   OH241255   0.368   4.107   0.846
13771TIP3    H141256   0.348   4.163   0.771
13771TIP3    H241257   0.305   4.036   0.839
13772TIP3   OH241258   5.457   6.225   2.308
13772TIP3    H141259   5.417   6.178   2.235
13772TIP3    H241260   5.423   6.315   2.301
13773TIP3   OH241261   7.665   3.603   6.341
13773TIP3    H141262   7.750   3.559   6.332
13773TIP3    H241263   7.651   3.644   6.256
13774TIP3   OH241264   7.897   6.170   5.179
13774TIP3    H141265   7.948   6.106   5.130
13774TIP3    H241266   7.885   6.243   5.118
13775TIP3   OH241267   4.678   3.687   0.978
13775TIP3    H141268   4.745   3.730   1.031
13775TIP3    H241269   4.727   3.646   0.906
13776TIP3   OH241270   5.229   2.978   5.326
13776TIP3    H141271   5.222   3.000   5.419
13776TIP3    H241272   5.259   2.887   5.326
13777TIP3   OH241273   6.413   0.040   0.941
13777TIP3    H141274   6.478  -0.026   0.964
13777TIP3    H241275   6.461   0.122   0.940
13778TIP3   OH241276   6.826   7.096   5.874
13778TIP3    H141277   6.801   7.034   5.805
13778TIP3    H241278   6.899   7.145   5.835
13779TIP3   OH241279   7.188   2.719   2.762
13779TIP3    H141280   7.245   2.761   2.698
13779TIP3    H241281   7.099   2.733   2.729
13780TIP3   OH241282   4.510   2.065   3.005
13780TIP3    H141283   4.468   2.010   2.939
13780TIP3    H241284   4.457   2.054   3.083
13781TIP3   OH241285   4.253   6.260   1.766
13781TIP3    H141286   4.242   6.295   1.677
13781TIP3    H241287   4.264   6.166   1.753
13782TIP3   OH241288   7.109   4.838   3.094
13782TIP3    H141289   7.065   4.921   3.075
13782TIP3    H241290   7.041   4.783   3.132
13783TIP3   OH241291   4.324   0.638   5.867
13783TIP3    H141292   4.236   0.604   5.852
13783TIP3    H241293   4.324   0.664   5.959
13784TIP3   OH241294   1.611   1.465   0.638
13784TIP3    H141295   1.540   1.513   0.681
13784TIP3    H241296   1.566   1.401   0.583
13785TIP3   OH241297   6.712   7.517   2.249
13785TIP3    H141298   6.697   7.431   2.210
13785TIP3    H241299   6.626   7.545   2.281
13786TIP3   OH241300   4.628   5.268   0.891
13786TIP3    H141301   4.678   5.246   0.812
13786TIP3    H241302   4.536   5.263   0.863
13787TIP3   OH241303   6.066   1.198   5.226
13787TIP3    H141304   6.006   1.134   5.186
13787TIP3    H241305   6.094   1.253   5.153
13788TIP3   OH241306   7.848   1.863   3.015
13788TIP3    H141307   7.831   1.948   2.974
13788TIP3    H241308   7.903   1.816   2.951
13789TIP3   OH241309   4.009   4.622   1.432
13789TIP3    H141310   4.084   4.681   1.446
13789TIP3    H241311   3.962   4.623   1.515
13790TIP3   OH241312   5.915   6.581   2.388
13790TIP3    H141313   5.856   6.591   2.313
13790TIP3    H241314   5.895   6.656   2.444
13791TIP3   OH241315   8.137   0.420   6.695
13791TIP3    H141316   8.201   0.490   6.687
13791TIP3    H241317   8.093   0.418   6.610
13792TIP3   OH241318   0.629   0.630   5.819
13792TIP3    H141319   0.576   0.552   5.832
13792TIP3    H241320   0.574   0.688   5.766
13793TIP3   OH241321   2.297   1.206   4.971
13793TIP3    H141322   2.365   1.263   5.004
13793TIP3    H241323   2.245   1.182   5.048
13794TIP3   OH241324   0.196   7.245   0.268
13794TIP3    H141325   0.167   7.159   0.298
13794TIP3    H241326   0.257   7.275   0.335
13795TIP3   OH241327   3.848   7.405   4.284
13795TIP3    H141328   3.800   7.399   4.201
13795TIP3    H241329   3.827   7.323   4.330
13796TIP3   OH241330   8.195   1.496   4.926
13796TIP3    H141331   8.184   1.554   4.851
13796TIP3    H241332   8.128   1.524   4.988
13797TIP3   OH241333   2.958   6.639   4.945
13797TIP3    H141334   2.944   6.550   4.912
13797TIP3    H241335   2.871   6.673   4.963
13798TIP3   OH241336   1.649   1.538   0.914
13798TIP3    H141337   1.714   1.608   0.919
13798TIP3    H241338   1.697   1.463   0.880
13799TIP3   OH241339   1.000   7.755   2.663
13799TIP3    H141340   1.086   7.714   2.655
13799TIP3    H241341   1.010   7.820   2.732
13800TIP3   OH241342   0.270   7.464   5.231
13800TIP3    H141343   0.244   7.432   5.317
13800TIP3    H241344   0.251   7.392   5.171
13801TIP3   OH241345   3.951   7.670   2.579
13801TIP3    H141346   3.935   7.750   2.630
13801TIP3    H241347   3.908   7.601   2.629
13802TIP3   OH241348   7.788   1.514   4.721
13802TIP3    H141349   7.714   1.486   4.667
13802TIP3    H241350   7.748   1.566   4.791
13803TIP3   OH241351   1.184   3.333   1.841
13803TIP3    H141352   1.276   3.326   1.814
13803TIP3    H241353   1.188   3.355   1.934
13804TIP3   OH241354   5.367   3.150   5.823
13804TIP3    H141355   5.336   3.233   5.786
13804TIP3    H241356   5.371   3.166   5.917
13805TIP3   OH241357   2.608   3.240   4.808
13805TIP3    H141358   2.581   3.274   4.893
13805TIP3    H241359   2.689   3.286   4.787
13806TIP3   OH241360   5.154   6.911   5.596
13806TIP3    H141361   5.103   6.930   5.675
13806TIP3    H241362   5.194   6.826   5.612
13807TIP3   OH241363   3.883   2.649   5.215
13807TIP3    H141364   3.957   2.589   5.223
13807TIP3    H241365   3.857   2.668   5.305
13808TIP3   OH241366   5.065   3.682   4.935
13808TIP3    H141367   5.038   3.764   4.975
13808TIP3    H241368   5.157   3.696   4.912
13809TIP3   OH241369   7.986   3.395   6.111
13809TIP3    H141370   7.981   3.302   6.132
13809TIP3    H241371   8.014   3.397   6.019
13810TIP3   OH241372   4.655   1.998   3.330
13810TIP3    H141373   4.717   2.068   3.309
13810TIP3    H241374   4.636   2.010   3.423
13811TIP3   OH241375   7.780   3.528   2.834
13811TIP3    H141376   7.844   3.487   2.776
13811TIP3    H241377   7.813   3.617   2.848
13812TIP3   OH241378   0.171   6.002   1.375
13812TIP3    H141379   0.207   5.932   1.321
13812TIP3    H241380   0.246   6.034   1.426
13813TIP3   OH241381   1.821   5.410   1.439
13813TIP3    H141382   1.771   5.344   1.487
13813TIP3    H241383   1.789   5.404   1.349
13814TIP3   OH241384   0.756   0.596   6.338
13814TIP3    H141385   0.683   0.627   6.283
13814TIP3    H241386   0.731   0.619   6.427
13815TIP3   OH241387   2.001   5.365   5.799
13815TIP3    H141388   2.070   5.412   5.844
13815TIP3    H241389   1.934   5.431   5.782
13816TIP3   OH241390   1.366   2.236   5.334
13816TIP3    H141391   1.314   2.262   5.410
13816TIP3    H241392   1.320   2.274   5.259
13817TIP3   OH241393   2.822   4.464   5.139
13817TIP3    H141394   2.750   4.409   5.110
13817TIP3    H241395   2.809   4.472   5.234
13818TIP3   OH241396   7.153   7.721   2.530
13818TIP3    H141397   7.215   7.771   2.583
13818TIP3    H241398   7.068   7.738   2.570
13819TIP3   OH241399   3.969   2.611   3.691
13819TIP3    H141400   3.914   2.582   3.763
13819TIP3    H241401   4.051   2.563   3.702
13820TIP3   OH241402   4.768   7.469   3.229
13820TIP3    H141403   4.842   7.506   3.277
13820TIP3    H241404   4.692   7.489   3.283
13821TIP3   OH241405   1.613   3.472   5.814
13821TIP3    H141406   1.654   3.438   5.735
13821TIP3    H241407   1.519   3.477   5.793
13822TIP3   OH241408   0.030   6.738   2.683
13822TIP3    H141409   0.062   6.797   2.751
13822TIP3    H241410  -0.027   6.676   2.730
13823TIP3   OH241411   0.649   4.618   5.421
13823TIP3    H141412   0.707   4.556   5.378
13823TIP3    H241413   0.597   4.655   5.350
13824TIP3   OH241414   1.563   7.467   0.657
13824TIP3    H141415   1.478   7.503   0.628
13824TIP3    H241416   1.566   7.380   0.618
13825TIP3   OH241417   3.429   0.521   5.173
13825TIP3    H141418   3.349   0.489   5.214
13825TIP3    H241419   3.470   0.442   5.137
13826TIP3   OH241420   7.652   2.576   5.943
13826TIP3    H141421   7.748   2.579   5.943
13826TIP3    H241422   7.631   2.495   5.989
13827TIP3   OH241423   5.906   3.437   2.450
13827TIP3    H141424   5.939   3.516   2.405
13827TIP3    H241425   5.817   3.426   2.418
13828TIP3   OH241426   7.358   1.329   0.887
13828TIP3    H141427   7.299   1.266   0.928
13828TIP3    H241428   7.350   1.408   0.940
13829TIP3   OH241429   4.034   3.007   1.188
13829TIP3    H141430   4.070   3.049   1.266
13829TIP3    H241431   3.987   2.930   1.221
13830TIP3   OH241432   0.671   4.891   3.417
13830TIP3    H141433   0.744   4.898   3.478
13830TIP3    H241434   0.657   4.797   3.406
13831TIP3   OH241435   3.951   0.702   2.209
13831TIP3    H141436   4.014   0.765   2.174
13831TIP3    H241437   3.883   0.756   2.248
13832TIP3   OH241438   1.472   3.496   3.581
13832TIP3    H141439   1.397   3.555   3.571
13832TIP3    H241440   1.452   3.423   3.522
13833TIP3   OH241441   3.556   5.370   3.816
13833TIP3    H141442   3.493   5.298   3.823
13833TIP3    H241443   3.619   5.340   3.750
13834TIP3   OH241444   6.190   0.987   3.938
13834TIP3    H141445   6.140   0.997   3.857
13834TIP3    H241446   6.133   0.938   3.996
13835TIP3   OH241447   3.549   7.491   6.457
13835TIP3    H141448   3.587   7.413   6.497
13835TIP3    H241449   3.583   7.490   6.367
13836TIP3   OH241450   7.391   2.739   1.547
13836TIP3    H141451   7.348   2.678   1.607
13836TIP3    H241452   7.475   2.698   1.527
13837TIP3   OH241453   4.549   7.403   6.727
13837TIP3    H141454   4.546   7.386   6.821
13837TIP3    H241455   4.493   7.335   6.689
13838TIP3   OH241456   5.992   2.204   3.245
13838TIP3    H141457   6.053   2.165   3.182
13838TIP3    H241458   6.006   2.154   3.326
13839TIP3   OH241459   5.126   3.203   4.111
13839TIP3    H141460   5.185   3.263   4.155
13839TIP3    H241461   5.133   3.226   4.018
13840TIP3   OH241462   1.506   2.631   1.152
13840TIP3    H141463   1.448   2.707   1.144
13840TIP3    H241464   1.594   2.668   1.155
13841TIP3   OH241465   4.516   0.648   5.676
13841TIP3    H141466   4.463   0.643   5.756
13841TIP3    H241467   4.500   0.736   5.642
13842TIP3   OH241468   5.510   0.835   6.410
13842TIP3    H141469   5.486   0.827   6.318
13842TIP3    H241470   5.431   0.811   6.458
13843TIP3   OH241471   5.210   3.218   6.131
13843TIP3    H141472   5.302   3.191   6.134
13843TIP3    H241473   5.213   3.313   6.120
13844TIP3   OH241474   6.520   6.181   0.722
13844TIP3    H141475   6.504   6.134   0.803
13844TIP3    H241476   6.446   6.158   0.666
13845TIP3   OH241477   2.134   4.237   4.224
13845TIP3    H141478   2.197   4.166   4.212
13845TIP3    H241479   2.158   4.275   4.309
13846TIP3   OH241480   1.093   5.876   1.087
13846TIP3    H141481   1.038   5.951   1.110
13846TIP3    H241482   1.047   5.800   1.123
13847TIP3   OH241483   2.000   1.954   3.516
13847TIP3    H141484   1.923   2.010   3.507
13847TIP3    H241485   1.971   1.869   3.483
13848TIP3   OH241486   4.129   1.251   1.034
13848TIP3    H141487   4.102   1.281   1.120
13848TIP3    H241488   4.165   1.163   1.049
13849TIP3   OH241489   3.238   4.280   1.327
13849TIP3    H141490   3.209   4.267   1.237
13849TIP3    H241491   3.240   4.375   1.339
13850TIP3   OH241492   7.370   6.455   3.984
13850TIP3    H141493   7.301   6.435   3.922
13850TIP3    H241494   7.389   6.371   4.026
13851TIP3   OH241495   8.034   7.119   3.301
13851TIP3    H141496   7.971   7.046   3.297
13851TIP3    H241497   7.981   7.195   3.323
13852TIP3   OH241498   5.116   1.878   6.676
13852TIP3    H141499   5.133   1.853   6.766
13852TIP3    H241500   5.045   1.819   6.648
13853TIP3   OH241501   2.517   7.518   3.701
13853TIP3    H141502   2.508   7.439   3.647
13853TIP3    H241503   2.474   7.495   3.783
13854TIP3   OH241504   6.386   0.123   5.192
13854TIP3    H141505   6.369   0.055   5.127
13854TIP3    H241506   6.362   0.205   5.149
13855TIP3   OH241507   6.062   0.341   1.599
13855TIP3    H141508   6.057   0.421   1.548
13855TIP3    H241509   6.050   0.369   1.690
13856TIP3   OH241510   5.572   4.748   1.556
13856TIP3    H141511   5.584   4.726   1.464
13856TIP3    H241512   5.658   4.734   1.595
13857TIP3   OH241513   6.491   4.275   6.156
13857TIP3    H141514   6.563   4.337   6.140
13857TIP3    H241515   6.415   4.315   6.114
13858TIP3   OH241516   3.803   0.858   0.328
13858TIP3    H141517   3.734   0.887   0.387
13858TIP3    H241518   3.825   0.770   0.359
13859TIP3   OH241519   4.659   2.554   4.934
13859TIP3    H141520   4.624   2.488   4.994
13859TIP3    H241521   4.634   2.637   4.973
13860TIP3   OH241522   0.104   5.317   3.193
13860TIP3    H141523   0.141   5.313   3.282
13860TIP3    H241524   0.035   5.250   3.193
13861TIP3   OH241525   7.104   6.926   1.976
13861TIP3    H141526   7.135   6.928   1.885
13861TIP3    H241527   7.101   6.834   1.999
13862TIP3   OH241528   2.175   0.144   6.104
13862TIP3    H141529   2.152   0.232   6.133
13862TIP3    H241530   2.104   0.089   6.136
13863TIP3   OH241531   7.171   1.629   0.774
13863TIP3    H141532   7.218   1.599   0.696
13863TIP3    H241533   7.239   1.660   0.833
13864TIP3   OH241534   2.021   2.051   4.154
13864TIP3    H141535   2.095   2.006   4.195
13864TIP3    H241536   2.009   2.130   4.207
13865TIP3   OH241537   0.215   0.337   6.482
13865TIP3    H141538   0.176   0.424   6.476
13865TIP3    H241539   0.307   0.351   6.459
13866TIP3   OH241540   1.336   6.322   5.535
13866TIP3    H141541   1.414   6.266   5.535
13866TIP3    H241542   1.302   6.318   5.446
13867TIP3   OH241543   6.078   7.185   5.503
13867TIP3    H141544   6.080   7.275   5.471
13867TIP3    H241545   6.160   7.147   5.473
13868TIP3   OH241546   8.034   1.894   1.111
13868TIP3    H141547   8.030   1.940   1.195
13868TIP3    H241548   8.115   1.926   1.071
13869TIP3   OH241549   1.745   2.756   1.119
13869TIP3    H141550   1.768   2.843   1.152
13869TIP3    H241551   1.789   2.751   1.034
13870TIP3   OH241552   2.954   4.897   0.864
13870TIP3    H141553   3.046   4.901   0.840
13870TIP3    H241554   2.908   4.946   0.796
13871TIP3   OH241555   7.913   7.542   2.732
13871TIP3    H141556   7.840   7.585   2.775
13871TIP3    H241557   7.908   7.571   2.641
13872TIP3   OH241558   5.766   4.175   2.556
13872TIP3    H141559   5.756   4.198   2.649
13872TIP3    H241560   5.685   4.206   2.515
13873TIP3   OH241561   0.993   3.853   2.127
13873TIP3    H141562   0.911   3.901   2.136
13873TIP3    H241563   0.966   3.764   2.104
13874TIP3   OH241564   8.121   7.448   3.964
13874TIP3    H141565   8.102   7.446   3.870
13874TIP3    H241566   8.154   7.361   3.984
13875TIP3   OH241567   0.682   4.329   3.411
13875TIP3    H141568   0.754   4.287   3.363
13875TIP3    H241569   0.603   4.297   3.368
13876TIP3   OH241570   1.392   7.163   5.349
13876TIP3    H141571   1.451   7.142   5.276
13876TIP3    H241572   1.305   7.169   5.309
13877TIP3   OH241573   4.750   0.499   0.171
13877TIP3    H141574   4.829   0.516   0.222
13877TIP3    H241575   4.721   0.412   0.198
13878TIP3   OH241576   7.082   1.224   5.687
13878TIP3    H141577   7.134   1.294   5.728
13878TIP3    H241578   7.138   1.146   5.693
13879TIP3   OH241579   3.855   7.108   2.976
13879TIP3    H141580   3.828   7.194   2.943
13879TIP3    H241581   3.809   7.045   2.921
13880TIP3   OH241582   1.171   4.847   3.220
13880TIP3    H141583   1.092   4.899   3.233
13880TIP3    H241584   1.243   4.910   3.228
13881TIP3   OH241585   4.070   5.387   4.371
13881TIP3    H141586   4.087   5.437   4.451
13881TIP3    H241587   3.983   5.415   4.343
13882TIP3   OH241588   7.270   2.108   6.282
13882TIP3    H141589   7.317   2.040   6.330
13882TIP3    H241590   7.219   2.153   6.350
13883TIP3   OH241591   3.428   7.522   1.550
13883TIP3    H141592   3.355   7.571   1.513
13883TIP3    H241593   3.442   7.562   1.636
13884TIP3   OH241594   5.028   2.943   3.763
13884TIP3    H141595   5.117   2.936   3.730
13884TIP3    H241596   4.975   2.963   3.686
13885TIP3   OH241597   0.981   6.642   3.413
13885TIP3    H141598   0.901   6.651   3.465
13885TIP3    H241599   0.959   6.683   3.329
13886TIP3   OH241600   7.786   0.746   1.182
13886TIP3    H141601   7.845   0.800   1.131
13886TIP3    H241602   7.699   0.780   1.162
13887TIP3   OH241603   2.972   6.019   1.720
13887TIP3    H141604   2.959   5.927   1.699
13887TIP3    H241605   3.041   6.047   1.660
13888TIP3   OH241606   0.297   1.397   0.935
13888TIP3    H141607   0.280   1.390   1.029
13888TIP3    H241608   0.210   1.399   0.895
13889TIP3   OH241609   1.253   5.126   4.361
13889TIP3    H141610   1.319   5.060   4.338
13889TIP3    H241611   1.191   5.080   4.417
13890TIP3   OH241612   2.252   5.803   3.188
13890TIP3    H141613   2.166   5.786   3.226
13890TIP3    H241614   2.304   5.837   3.260
13891TIP3   OH241615   1.890   3.140   2.348
13891TIP3    H141616   1.824   3.072   2.365
13891TIP3    H241617   1.959   3.094   2.301
13892TIP3   OH241618   6.346   3.149   2.594
13892TIP3    H141619   6.356   3.100   2.676
13892TIP3    H241620   6.270   3.109   2.551
13893TIP3   OH241621   2.801   7.476   1.852
13893TIP3    H141622   2.856   7.552   1.868
13893TIP3    H241623   2.784   7.440   1.939
13894TIP3   OH241624   4.375   0.906   4.447
13894TIP3    H141625   4.331   0.826   4.419
13894TIP3    H241626   4.313   0.976   4.426
13895TIP3   OH241627   3.414   0.281   6.388
13895TIP3    H141628   3.396   0.187   6.391
13895TIP3    H241629   3.509   0.287   6.382
13896TIP3   OH241630   6.579   5.209   4.689
13896TIP3    H141631   6.615   5.184   4.604
13896TIP3    H241632   6.533   5.131   4.720
13897TIP3   OH241633   8.307   4.241   5.315
13897TIP3    H141634   8.256   4.164   5.342
13897TIP3    H241635   8.297   4.244   5.220
13898TIP3   OH241636   7.983   3.920   2.685
13898TIP3    H141637   7.976   3.828   2.712
13898TIP3    H241638   8.072   3.945   2.707
13899TIP3   OH241639   2.706   2.586   5.085
13899TIP3    H141640   2.743   2.646   5.149
13899TIP3    H241641   2.765   2.510   5.086
13900TIP3   OH241642   4.053   6.391   1.331
13900TIP3    H141643   4.098   6.403   1.248
13900TIP3    H241644   3.997   6.468   1.340
13901TIP3   OH241645   2.028   2.798   5.479
13901TIP3    H141646   1.976   2.812   5.400
13901TIP3    H241647   2.075   2.716   5.463
13902TIP3   OH241648   2.487   1.632   2.459
13902TIP3    H141649   2.476   1.696   2.530
13902TIP3    H241650   2.402   1.588   2.454
13903TIP3   OH241651   7.473   1.715   1.258
13903TIP3    H141652   7.531   1.707   1.334
13903TIP3    H241653   7.467   1.809   1.241
13904TIP3   OH241654   3.297   0.791   0.287
13904TIP3    H141655   3.327   0.813   0.375
13904TIP3    H241656   3.204   0.816   0.287
13905TIP3   OH241657   3.387   2.247   3.493
13905TIP3    H141658   3.316   2.210   3.545
13905TIP3    H241659   3.440   2.172   3.467
13906TIP3   OH241660   5.645   2.229   1.591
13906TIP3    H141661   5.727   2.182   1.607
13906TIP3    H241662   5.637   2.231   1.496
13907TIP3   OH241663   0.787   3.128   2.295
13907TIP3    H141664   0.755   3.134   2.385
13907TIP3    H241665   0.728   3.184   2.245
13908TIP3   OH241666   7.177   0.436   0.895
13908TIP3    H141667   7.256   0.384   0.903
13908TIP3    H241668   7.157   0.438   0.801
13909TIP3   OH241669   1.923   3.875   3.661
13909TIP3    H141670   1.972   3.855   3.581
13909TIP3    H241671   1.940   3.968   3.678
13910TIP3   OH241672   0.494   7.514   4.924
13910TIP3    H141673   0.559   7.450   4.955
13910TIP3    H241674   0.418   7.461   4.901
13911TIP3   OH241675   0.588   6.775   1.417
13911TIP3    H141676   0.543   6.700   1.455
13911TIP3    H241677   0.530   6.805   1.347
13912TIP3   OH241678   2.271   5.549   3.386
13912TIP3    H141679   2.190   5.599   3.388
13912TIP3    H241680   2.252   5.474   3.331
13913TIP3   OH241681   0.581   0.159   0.805
13913TIP3    H141682   0.572   0.253   0.824
13913TIP3    H241683   0.565   0.152   0.711
13914TIP3   OH241684   2.631   4.986   1.351
13914TIP3    H141685   2.650   5.027   1.435
13914TIP3    H241686   2.716   4.953   1.321
13915TIP3   OH241687   7.020   6.668   3.580
13915TIP3    H141688   6.997   6.678   3.672
13915TIP3    H241689   6.969   6.593   3.550
13916TIP3   OH241690   6.564   5.488   2.913
13916TIP3    H141691   6.646   5.443   2.936
13916TIP3    H241692   6.562   5.564   2.972
13917TIP3   OH241693   2.201   0.629   0.747
13917TIP3    H141694   2.259   0.701   0.720
13917TIP3    H241695   2.220   0.616   0.840
13918TIP3   OH241696   6.967   0.869   1.000
13918TIP3    H141697   7.014   0.840   0.922
13918TIP3    H241698   7.015   0.828   1.073
13919TIP3   OH241699   3.249   7.329   5.628
13919TIP3    H141700   3.265   7.270   5.555
13919TIP3    H241701   3.323   7.390   5.626
13920TIP3   OH241702   1.165   7.374   5.664
13920TIP3    H141703   1.143   7.448   5.608
13920TIP3    H241704   1.109   7.386   5.741
13921TIP3   OH241705   5.343   5.774   3.012
13921TIP3    H141706   5.369   5.751   2.923
13921TIP3    H241707   5.325   5.690   3.055
13922TIP3   OH241708   7.330   7.058   0.472
13922TIP3    H141709   7.255   7.114   0.450
13922TIP3    H241710   7.309   7.021   0.558
13923TIP3   OH241711   5.975   2.550   5.644
13923TIP3    H141712   5.926   2.627   5.672
13923TIP3    H241713   5.983   2.560   5.549
13924TIP3   OH241714   6.573   1.053   5.557
13924TIP3    H141715   6.549   0.972   5.511
13924TIP3    H241716   6.496   1.109   5.549
13925TIP3   OH241717   0.744   6.551   0.904
13925TIP3    H141718   0.668   6.603   0.880
13925TIP3    H241719   0.747   6.482   0.838
13926TIP3   OH241720   1.962   6.243   2.562
13926TIP3    H141721   1.932   6.152   2.567
13926TIP3    H241722   2.057   6.238   2.571
13927TIP3   OH241723   5.646   5.596   1.671
13927TIP3    H141724   5.636   5.507   1.704
13927TIP3    H241725   5.740   5.611   1.670
13928TIP3   OH241726   6.702   4.843   2.901
13928TIP3    H141727   6.612   4.820   2.925
13928TIP3    H241728   6.696   4.934   2.870
13929TIP3   OH241729   3.336   1.843   3.280
13929TIP3    H141730   3.382   1.842   3.196
13929TIP3    H241731   3.316   1.751   3.298
13930TIP3   OH241732   6.595   2.199   2.905
13930TIP3    H141733   6.626   2.204   2.996
13930TIP3    H241734   6.503   2.226   2.910
13931TIP3   OH241735   4.201   1.672   1.546
13931TIP3    H141736   4.278   1.694   1.493
13931TIP3    H241737   4.238   1.631   1.625
13932TIP3   OH241738   2.986   6.830   1.562
13932TIP3    H141739   3.003   6.875   1.479
13932TIP3    H241740   3.035   6.881   1.627
13933TIP3   OH241741   2.458   3.117   1.832
13933TIP3    H141742   2.415   3.196   1.800
13933TIP3    H241743   2.549   3.142   1.843
13934TIP3   OH241744   0.122   4.118   3.055
13934TIP3    H141745   0.077   4.201   3.073
13934TIP3    H241746   0.117   4.109   2.960
13935TIP3   OH241747   4.968   0.524   5.150
13935TIP3    H141748   4.892   0.579   5.129
13935TIP3    H241749   4.979   0.534   5.244
13936TIP3   OH241750   4.840   7.237   2.501
13936TIP3    H141751   4.788   7.235   2.581
13936TIP3    H241752   4.858   7.330   2.486
13937TIP3   OH241753   1.993   1.592   2.348
13937TIP3    H141754   2.042   1.536   2.288
13937TIP3    H241755   1.948   1.655   2.292
13938TIP3   OH241756   6.538   3.250   6.076
13938TIP3    H141757   6.597   3.324   6.084
13938TIP3    H241758   6.546   3.223   5.984
13939TIP3   OH241759   5.610   1.018   5.667
13939TIP3    H141760   5.611   1.095   5.611
13939TIP3    H241761   5.586   0.946   5.609
13940TIP3   OH241762   5.167   1.414   2.563
13940TIP3    H141763   5.138   1.493   2.608
13940TIP3    H241764   5.208   1.362   2.632
13941TIP3   OH241765   1.177   7.227   4.551
13941TIP3    H141766   1.143   7.218   4.462
13941TIP3    H241767   1.272   7.232   4.540
13942TIP3   OH241768   5.956   5.339   4.556
13942TIP3    H141769   6.022   5.382   4.610
13942TIP3    H241770   5.930   5.262   4.606
13943TIP3   OH241771   7.813   1.444   1.323
13943TIP3    H141772   7.874   1.508   1.287
13943TIP3    H241773   7.734   1.454   1.270
13944TIP3   OH241774   7.688   6.825   2.638
13944TIP3    H141775   7.764   6.876   2.667
13944TIP3    H241776   7.699   6.740   2.680
13945TIP3   OH241777   1.188   4.718   0.800
13945TIP3    H141778   1.171   4.812   0.798
13945TIP3    H241779   1.115   4.679   0.751
13946TIP3   OH241780   7.972   4.268   3.652
13946TIP3    H141781   7.908   4.338   3.643
13946TIP3    H241782   7.964   4.241   3.744
13947TIP3   OH241783   1.006   1.555   5.398
13947TIP3    H141784   1.040   1.528   5.312
13947TIP3    H241785   1.084   1.561   5.453
13948TIP3   OH241786   6.524   0.784   0.422
13948TIP3    H141787   6.584   0.723   0.379
13948TIP3    H241788   6.460   0.806   0.354
13949TIP3   OH241789   4.565   5.866   5.299
13949TIP3    H141790   4.527   5.821   5.224
13949TIP3    H241791   4.659   5.869   5.281
13950TIP3   OH241792   6.257   3.385   5.463
13950TIP3    H141793   6.334   3.422   5.421
13950TIP3    H241794   6.267   3.406   5.555
13951TIP3   OH241795   6.856   7.613   1.579
13951TIP3    H141796   6.803   7.668   1.637
13951TIP3    H241797   6.917   7.675   1.538
13952TIP3   OH241798   4.940   5.899   5.001
13952TIP3    H141799   4.954   5.807   4.977
13952TIP3    H241800   4.845   5.909   5.000
13953TIP3   OH241801   2.958   4.254   3.020
13953TIP3    H141802   2.986   4.284   3.107
13953TIP3    H241803   3.022   4.187   2.996
13954TIP3   OH241804   4.739   7.541   6.195
13954TIP3    H141805   4.724   7.476   6.264
13954TIP3    H241806   4.795   7.496   6.132
13955TIP3   OH241807   4.073   6.786   6.392
13955TIP3    H141808   4.119   6.705   6.371
13955TIP3    H241809   4.083   6.841   6.314
13956TIP3   OH241810   2.969   4.908   1.335
13956TIP3    H141811   2.898   4.924   1.273
13956TIP3    H241812   2.985   4.813   1.329
13957TIP3   OH241813   7.195   3.298   4.358
13957TIP3    H141814   7.189   3.217   4.307
13957TIP3    H241815   7.110   3.340   4.346
13958TIP3   OH241816   6.982   2.235   6.134
13958TIP3    H141817   7.006   2.143   6.123
13958TIP3    H241818   6.923   2.236   6.210
13959TIP3   OH241819   3.556   4.120   0.966
13959TIP3    H141820   3.608   4.051   0.924
13959TIP3    H241821   3.493   4.146   0.899
13960TIP3   OH241822   7.264   4.879   5.855
13960TIP3    H141823   7.209   4.841   5.787
13960TIP3    H241824   7.334   4.924   5.807
13961TIP3   OH241825   0.403   4.978   1.619
13961TIP3    H141826   0.433   5.016   1.536
13961TIP3    H241827   0.483   4.970   1.671
13962TIP3   OH241828   1.413   1.252   5.148
13962TIP3    H141829   1.476   1.292   5.207
13962TIP3    H241830   1.355   1.201   5.204
13963TIP3   OH241831   7.059   4.708   5.254
13963TIP3    H141832   7.039   4.707   5.161
13963TIP3    H241833   7.146   4.748   5.259
13964TIP3   OH241834   3.038   5.013   1.974
13964TIP3    H141835   3.054   5.098   2.013
13964TIP3    H241836   3.058   4.950   2.044
13965TIP3   OH241837   2.151   7.244   6.674
13965TIP3    H141838   2.067   7.286   6.657
13965TIP3    H241839   2.206   7.314   6.710
13966TIP3   OH241840   3.488   1.077   3.490
13966TIP3    H141841   3.455   1.097   3.403
13966TIP3    H241842   3.449   0.992   3.512
13967TIP3   OH241843   5.122   6.145   3.958
13967TIP3    H141844   5.045   6.199   3.940
13967TIP3    H241845   5.098   6.092   4.034
13968TIP3   OH241846   3.684   4.100   6.169
13968TIP3    H141847   3.605   4.138   6.209
13968TIP3    H241848   3.754   4.117   6.232
13969TIP3   OH241849   5.372   6.796   2.549
13969TIP3    H141850   5.306   6.728   2.560
13969TIP3    H241851   5.374   6.840   2.634
13970TIP3   OH241852   0.112   2.687   2.266
13970TIP3    H141853   0.025   2.724   2.248
13970TIP3    H241854   0.120   2.690   2.361
13971TIP3   OH241855   4.507   7.681   5.638
13971TIP3    H141856   4.426   7.717   5.602
13971TIP3    H241857   4.510   7.713   5.728
13972TIP3   OH241858   3.216   1.309   4.526
13972TIP3    H141859   3.309   1.305   4.502
13972TIP3    H241860   3.169   1.292   4.444
13973TIP3   OH241861   8.120   6.629   1.214
13973TIP3    H141862   8.189   6.563   1.209
13973TIP3    H241863   8.039   6.581   1.196
13974TIP3   OH241864   7.872   2.991   1.623
13974TIP3    H141865   7.852   2.981   1.530
13974TIP3    H241866   7.850   3.082   1.642
13975TIP3   OH241867   3.438   6.441   3.419
13975TIP3    H141868   3.420   6.502   3.348
13975TIP3    H241869   3.388   6.476   3.493
13976TIP3   OH241870   7.644   4.306   0.355
13976TIP3    H141871   7.562   4.309   0.405
13976TIP3    H241872   7.712   4.299   0.422
13977TIP3   OH241873   7.720   0.622   4.126
13977TIP3    H141874   7.625   0.629   4.138
13977TIP3    H241875   7.731   0.608   4.032
13978TIP3   OH241876   1.255   1.992   2.569
13978TIP3    H141877   1.196   2.065   2.590
13978TIP3    H241878   1.228   1.964   2.482
13979TIP3   OH241879   0.918   2.670   2.285
13979TIP3    H141880   0.836   2.682   2.235
13979TIP3    H241881   0.942   2.578   2.269
13980TIP3   OH241882   2.978   2.005   5.913
13980TIP3    H141883   3.037   1.930   5.915
13980TIP3    H241884   3.001   2.057   5.990
13981TIP3   OH241885   4.776   4.099   5.982
13981TIP3    H141886   4.743   4.012   5.959
13981TIP3    H241887   4.863   4.102   5.942
13982TIP3   OH241888   7.213   2.520   2.995
13982TIP3    H141889   7.159   2.563   2.929
13982TIP3    H241890   7.277   2.469   2.946
13983TIP3   OH241891   0.921   1.144   1.840
13983TIP3    H141892   0.965   1.067   1.874
13983TIP3    H241893   0.828   1.120   1.837
13984TIP3   OH241894   2.701   3.243   6.169
13984TIP3    H141895   2.676   3.302   6.240
13984TIP3    H241896   2.785   3.206   6.197
13985TIP3   OH241897   1.079   4.716   4.268
13985TIP3    H141898   1.079   4.753   4.356
13985TIP3    H241899   0.998   4.665   4.263
13986TIP3   OH241900   1.929   3.425   3.031
13986TIP3    H141901   1.971   3.510   3.021
13986TIP3    H241902   1.838   3.440   3.005
13987TIP3   OH241903   7.898   0.382   3.923
13987TIP3    H141904   7.964   0.433   3.970
13987TIP3    H241905   7.826   0.443   3.908
13988TIP3   OH241906   3.372   0.165   2.608
13988TIP3    H141907   3.300   0.126   2.556
13988TIP3    H241908   3.423   0.089   2.637
13989TIP3   OH241909   2.719   7.729   2.535
13989TIP3    H141910   2.695   7.637   2.544
13989TIP3    H241911   2.643   7.771   2.494
13990TIP3   OH241912   6.489   3.848   0.138
13990TIP3    H141913   6.474   3.789   0.065
13990TIP3    H241914   6.402   3.864   0.174
13991TIP3   OH241915   2.495   7.401   5.986
13991TIP3    H141916   2.400   7.392   5.995
13991TIP3    H241917   2.509   7.416   5.893
13992TIP3   OH241918   2.615   7.584   6.364
13992TIP3    H141919   2.634   7.658   6.421
13992TIP3    H241920   2.561   7.526   6.418
13993TIP3   OH241921   6.686   5.515   4.165
13993TIP3    H141922   6.687   5.591   4.107
13993TIP3    H241923   6.664   5.550   4.251
13994TIP3   OH241924   1.035   1.969   3.556
13994TIP3    H141925   1.081   2.052   3.540
13994TIP3    H241926   1.094   1.920   3.613
13995TIP3   OH241927   0.060   1.641   6.524
13995TIP3    H141928   0.028   1.597   6.602
13995TIP3    H241929   0.085   1.728   6.554
13996TIP3   OH241930   6.869   2.544   3.343
13996TIP3    H141931   6.880   2.518   3.435
13996TIP3    H241932   6.945   2.599   3.324
13997TIP3   OH241933   6.634   7.775   3.298
13997TIP3    H141934   6.659   7.787   3.207
13997TIP3    H241935   6.673   7.691   3.323
13998TIP3   OH241936   1.800   4.656   1.651
13998TIP3    H141937   1.759   4.570   1.647
13998TIP3    H241938   1.729   4.716   1.673
13999TIP3   OH241939   5.270   1.954   0.462
13999TIP3    H141940   5.321   2.012   0.405
13999TIP3    H241941   5.333   1.886   0.488
14000TIP3   OH241942   2.795   2.147   0.988
14000TIP3    H141943   2.705   2.150   1.020
14000TIP3    H241944   2.847   2.125   1.065
14001TIP3   OH241945   5.633   0.079   3.693
14001TIP3    H141946   5.668   0.168   3.682
14001TIP3    H241947   5.710   0.024   3.706
14002TIP3   OH241948   3.656   6.541   4.590
14002TIP3    H141949   3.607   6.467   4.626
14002TIP3    H241950   3.629   6.615   4.644
14003TIP3   OH241951   4.349   4.202   0.532
14003TIP3    H141952   4.388   4.256   0.601
14003TIP3    H241953   4.297   4.137   0.579
14004TIP3   OH241954   5.863   6.011   1.524
14004TIP3    H141955   5.894   6.051   1.605
14004TIP3    H241956   5.791   5.954   1.551
14005TIP3   OH241957   2.853   5.593   4.509
14005TIP3    H141958   2.878   5.517   4.560
14005TIP3    H241959   2.936   5.633   4.483
14006TIP3   OH241960   1.452   3.574   4.860
14006TIP3    H141961   1.461   3.669   4.855
14006TIP3    H241962   1.531   3.545   4.905
14007TIP3   OH241963   5.593   2.218   3.554
14007TIP3    H141964   5.622   2.224   3.463
14007TIP3    H241965   5.506   2.180   3.548
14008TIP3   OH241966   2.671   6.623   3.685
14008TIP3    H141967   2.714   6.669   3.756
14008TIP3    H241968   2.635   6.692   3.629
14009TIP3   OH241969   3.042   7.244   4.943
14009TIP3    H141970   3.025   7.168   4.999
14009TIP3    H241971   2.969   7.244   4.881
14010TIP3   OH241972   0.556   7.536   2.400
14010TIP3    H141973   0.597   7.461   2.356
14010TIP3    H241974   0.505   7.579   2.332
14011TIP3   OH241975   4.228   4.734   3.825
14011TIP3    H141976   4.261   4.747   3.914
14011TIP3    H241977   4.134   4.720   3.836
14012TIP3   OH241978   4.916   0.836   0.755
14012TIP3    H141979   4.886   0.845   0.845
14012TIP3    H241980   4.897   0.745   0.732
14013TIP3   OH241981   1.944   3.866   0.177
14013TIP3    H141982   2.037   3.881   0.192
14013TIP3    H241983   1.937   3.856   0.082
14014TIP3   OH241984   3.292   1.323   4.797
14014TIP3    H141985   3.282   1.254   4.863
14014TIP3    H241986   3.284   1.277   4.713
14015TIP3   OH241987   2.852   5.667   5.936
14015TIP3    H141988   2.901   5.587   5.954
14015TIP3    H241989   2.823   5.658   5.846
14016TIP3   OH241990   3.412   3.518   1.562
14016TIP3    H141991   3.377   3.463   1.491
14016TIP3    H241992   3.334   3.548   1.610
14017TIP3   OH241993   2.527   4.345   4.773
14017TIP3    H141994   2.542   4.403   4.699
14017TIP3    H241995   2.480   4.270   4.736
14018TIP3   OH241996   3.950   3.110   2.607
14018TIP3    H141997   4.008   3.183   2.626
14018TIP3    H241998   3.921   3.080   2.693
14019TIP3   OH241999   3.742   2.702   4.289
14019TIP3    H142000   3.836   2.706   4.308
14019TIP3    H242001   3.726   2.611   4.267
14020TIP3   OH242002   7.233   7.484   5.324
14020TIP3    H142003   7.293   7.452   5.257
14020TIP3    H242004   7.208   7.571   5.295
14021TIP3   OH242005   0.733   2.975   0.153
14021TIP3    H142006   0.641   2.964   0.132
14021TIP3    H242007   0.771   2.887   0.143
14022TIP3   OH242008   4.671   7.181   5.539
14022TIP3    H142009   4.646   7.107   5.594
14022TIP3    H242010   4.629   7.257   5.580
14023TIP3   OH242011   3.975   6.114   0.028
14023TIP3    H142012   3.882   6.128   0.048
14023TIP3    H242013   4.018   6.194   0.056
14024TIP3   OH242014   5.400   3.173   2.176
14024TIP3    H142015   5.372   3.192   2.266
14024TIP3    H242016   5.319   3.171   2.126
14025TIP3   OH242017   2.909   1.680   0.506
14025TIP3    H142018   2.945   1.620   0.571
14025TIP3    H242019   2.936   1.644   0.422
14026TIP3   OH242020   7.837   6.674   5.200
14026TIP3    H142021   7.902   6.697   5.267
14026TIP3    H242022   7.790   6.599   5.236
14027TIP3   OH242023   3.687   4.455   6.586
14027TIP3    H142024   3.629   4.426   6.516
14027TIP3    H242025   3.644   4.426   6.666
14028TIP3   OH242026   6.956   3.870   2.424
14028TIP3    H142027   6.900   3.824   2.487
14028TIP3    H242028   7.037   3.820   2.422
14029TIP3   OH242029   7.170   3.095   2.153
14029TIP3    H142030   7.098   3.091   2.089
14029TIP3    H242031   7.249   3.080   2.102
14030TIP3   OH242032   0.890   1.146   3.522
14030TIP3    H142033   0.831   1.110   3.456
14030TIP3    H242034   0.975   1.151   3.478
14031TIP3   OH242035   2.675   1.039   3.161
14031TIP3    H142036   2.622   1.118   3.157
14031TIP3    H242037   2.758   1.068   3.198
14032TIP3   OH242038   5.730   1.482   0.213
14032TIP3    H142039   5.670   1.504   0.142
14032TIP3    H242040   5.809   1.533   0.194
14033TIP3   OH242041   7.943   2.348   0.927
14033TIP3    H142042   7.859   2.310   0.952
14033TIP3    H242043   8.007   2.307   0.984
14034TIP3   OH242044   7.684   5.969   4.831
14034TIP3    H142045   7.668   5.882   4.867
14034TIP3    H242046   7.647   6.029   4.896
14035TIP3   OH242047   5.937   6.198   2.199
14035TIP3    H142048   5.929   6.105   2.221
14035TIP3    H242049   5.861   6.239   2.239
14036TIP3   OH242050   0.262   1.102   4.842
14036TIP3    H142051   0.225   1.077   4.926
14036TIP3    H242052   0.313   1.026   4.814
14037TIP3   OH242053   4.530   5.054   1.960
14037TIP3    H142054   4.455   5.000   1.987
14037TIP3    H242055   4.588   5.054   2.036
14038TIP3   OH242056   0.432   6.708   5.118
14038TIP3    H142057   0.526   6.692   5.124
14038TIP3    H242058   0.398   6.687   5.204
14039TIP3   OH242059   3.053   7.787   4.168
14039TIP3    H142060   2.997   7.851   4.124
14039TIP3    H242061   2.992   7.734   4.220
14040TIP3   OH242062   5.759   6.567   3.820
14040TIP3    H142063   5.723   6.656   3.816
14040TIP3    H242064   5.824   6.566   3.749
14041TIP3   OH242065   1.897   3.838   5.245
14041TIP3    H142066   1.991   3.858   5.244
14041TIP3    H242067   1.861   3.891   5.174
14042TIP3   OH242068   5.371   5.141   5.286
14042TIP3    H142069   5.418   5.224   5.278
14042TIP3    H242070   5.412   5.097   5.361
14043TIP3   OH242071   3.719   6.064   2.273
14043TIP3    H142072   3.745   6.151   2.242
14043TIP3    H242073   3.626   6.073   2.294
14044TIP3   OH242074   2.796   5.440   6.232
14044TIP3    H142075   2.732   5.442   6.303
14044TIP3    H242076   2.815   5.347   6.220
14045TIP3   OH242077   4.497   5.961   4.395
14045TIP3    H142078   4.460   6.044   4.426
14045TIP3    H242079   4.424   5.900   4.395
14046TIP3   OH242080   5.659   4.259   3.079
14046TIP3    H142081   5.679   4.291   2.992
14046TIP3    H242082   5.642   4.165   3.067
14047TIP3   OH242083   5.917   3.418   4.476
14047TIP3    H142084   5.923   3.406   4.570
14047TIP3    H242085   5.883   3.507   4.465
14048TIP3   OH242086   7.857   5.709   2.409
14048TIP3    H142087   7.906   5.680   2.486
14048TIP3    H242088   7.770   5.671   2.420
14049TIP3   OH242089   7.995   4.159   3.890
14049TIP3    H142090   7.936   4.103   3.940
14049TIP3    H242091   8.076   4.159   3.940
14050TIP3   OH242092   5.803   2.958   0.176
14050TIP3    H142093   5.869   2.954   0.245
14050TIP3    H242094   5.842   3.015   0.109
14051TIP3   OH242095   7.277   5.597   0.711
14051TIP3    H142096   7.277   5.552   0.796
14051TIP3    H242097   7.342   5.667   0.720
14052TIP3   OH242098   2.576   6.536   0.288
14052TIP3    H142099   2.542   6.480   0.357
14052TIP3    H242100   2.501   6.587   0.258
14053TIP3   OH242101   3.762   1.183   1.134
14053TIP3    H142102   3.811   1.240   1.074
14053TIP3    H242103   3.684   1.158   1.085
14054TIP3   OH242104   2.978   2.512   3.194
14054TIP3    H142105   3.065   2.547   3.176
14054TIP3    H242106   2.947   2.479   3.109
14055TIP3   OH242107   0.155   5.762   0.261
14055TIP3    H142108   0.158   5.819   0.184
14055TIP3    H242109   0.244   5.765   0.297
14056TIP3   OH242110   6.211   4.810   4.298
14056TIP3    H142111   6.171   4.748   4.359
14056TIP3    H242112   6.224   4.889   4.350
14057TIP3   OH242113   4.900   5.955   1.700
14057TIP3    H142114   4.855   5.938   1.617
14057TIP3    H242115   4.992   5.935   1.683
14058TIP3   OH242116   1.213   0.874   5.798
14058TIP3    H142117   1.284   0.810   5.798
14058TIP3    H242118   1.234   0.933   5.871
14059TIP3   OH242119   0.899   6.828   5.739
14059TIP3    H142120   0.821   6.877   5.765
14059TIP3    H242121   0.906   6.759   5.805
14060TIP3   OH242122   6.064   1.509   5.946
14060TIP3    H142123   6.136   1.505   5.883
14060TIP3    H242124   6.008   1.435   5.923
14061TIP3   OH242125   4.088   7.457   1.266
14061TIP3    H142126   4.094   7.410   1.349
14061TIP3    H242127   3.995   7.470   1.251
14062TIP3   OH242128   0.591   5.981   1.247
14062TIP3    H142129   0.619   6.058   1.198
14062TIP3    H242130   0.655   5.914   1.224
14063TIP3   OH242131   2.815   0.985   0.353
14063TIP3    H142132   2.736   0.930   0.353
14063TIP3    H242133   2.803   1.044   0.427
14064TIP3   OH242134   3.814   4.585   2.669
14064TIP3    H142135   3.882   4.634   2.624
14064TIP3    H242136   3.799   4.633   2.750
14065TIP3   OH242137   4.877   3.135   2.389
14065TIP3    H142138   4.795   3.157   2.344
14065TIP3    H242139   4.931   3.214   2.381
14066TIP3   OH242140   5.285   1.773   6.420
14066TIP3    H142141   5.212   1.833   6.407
14066TIP3    H242142   5.300   1.734   6.333
14067TIP3   OH242143   0.188   3.320   5.189
14067TIP3    H142144   0.154   3.396   5.236
14067TIP3    H242145   0.131   3.311   5.113
14068TIP3   OH242146   1.981   7.460   5.279
14068TIP3    H142147   2.036   7.382   5.278
14068TIP3    H242148   1.947   7.464   5.369
14069TIP3   OH242149   3.127   5.661   1.701
14069TIP3    H142150   3.059   5.683   1.638
14069TIP3    H242151   3.202   5.633   1.647
14070TIP3   OH242152   0.760   7.425   4.935
14070TIP3    H142153   0.825   7.409   5.003
14070TIP3    H242154   0.770   7.518   4.915
14071TIP3   OH242155   3.882   7.049   1.705
14071TIP3    H142156   3.804   7.100   1.729
14071TIP3    H242157   3.864   7.019   1.616
14072TIP3   OH242158   5.029   7.134   3.373
14072TIP3    H142159   4.934   7.123   3.377
14072TIP3    H242160   5.064   7.045   3.384
14073TIP3   OH242161   5.561   4.832   0.774
14073TIP3    H142162   5.656   4.827   0.786
14073TIP3    H242163   5.547   4.916   0.729
14074TIP3   OH242164   7.826   6.447   5.370
14074TIP3    H142165   7.855   6.368   5.415
14074TIP3    H242166   7.734   6.456   5.393
14075TIP3   OH242167   2.711   5.320   4.317
14075TIP3    H142168   2.725   5.227   4.337
14075TIP3    H242169   2.756   5.367   4.387
14076TIP3   OH242170   4.016   4.833   2.899
14076TIP3    H142171   3.987   4.865   2.984
14076TIP3    H242172   4.090   4.775   2.919
14077TIP3   OH242173   0.490   6.176   5.822
14077TIP3    H142174   0.408   6.211   5.788
14077TIP3    H242175   0.465   6.128   5.901
14078TIP3   OH242176   0.567   1.794   1.873
14078TIP3    H142177   0.551   1.753   1.788
14078TIP3    H242178   0.580   1.887   1.852
14079TIP3   OH242179   7.245   0.252   6.475
14079TIP3    H142180   7.160   0.232   6.434
14079TIP3    H242181   7.278   0.327   6.426
14080TIP3   OH242182   2.539   2.251   2.410
14080TIP3    H142183   2.611   2.196   2.380
14080TIP3    H242184   2.550   2.256   2.505
14081TIP3   OH242185   4.202   4.816   1.025
14081TIP3    H142186   4.269   4.872   1.063
14081TIP3    H242187   4.119   4.859   1.046
14082TIP3   OH242188   1.578   7.145   2.082
14082TIP3    H142189   1.558   7.095   2.161
14082TIP3    H242190   1.492   7.173   2.050
14083TIP3   OH242191   3.447   5.572   4.124
14083TIP3    H142192   3.430   5.638   4.191
14083TIP3    H242193   3.361   5.535   4.104
14084TIP3   OH242194   1.289   2.391   3.144
14084TIP3    H142195   1.235   2.312   3.144
14084TIP3    H242196   1.254   2.444   3.215
14085TIP3   OH242197   2.167   4.687   5.487
14085TIP3    H142198   2.096   4.660   5.429
14085TIP3    H242199   2.124   4.727   5.562
14086TIP3   OH242200   1.534   6.765   1.949
14086TIP3    H142201   1.462   6.826   1.932
14086TIP3    H242202   1.613   6.820   1.946
14087TIP3   OH242203   8.074   6.710   0.622
14087TIP3    H142204   8.114   6.623   0.632
14087TIP3    H242205   8.071   6.746   0.710
14088TIP3   OH242206   6.344   4.222   5.366
14088TIP3    H142207   6.423   4.215   5.420
14088TIP3    H242208   6.374   4.258   5.283
14089TIP3   OH242209   4.943   6.706   5.580
14089TIP3    H142210   5.021   6.736   5.534
14089TIP3    H242211   4.903   6.786   5.614
14090TIP3   OH242212   2.823   4.265   3.404
14090TIP3    H142213   2.812   4.336   3.467
14090TIP3    H242214   2.776   4.294   3.326
14091TIP3   OH242215   1.458   6.454   6.460
14091TIP3    H142216   1.416   6.373   6.434
14091TIP3    H242217   1.392   6.500   6.513
14092TIP3   OH242218   8.204   1.085   0.443
14092TIP3    H142219   8.272   1.149   0.462
14092TIP3    H242220   8.206   1.075   0.348
14093TIP3   OH242221   4.482   0.728   3.369
14093TIP3    H142222   4.487   0.674   3.448
14093TIP3    H242223   4.424   0.800   3.392
14094TIP3   OH242224   7.727   1.791   6.335
14094TIP3    H142225   7.780   1.777   6.413
14094TIP3    H242226   7.787   1.833   6.273
14095TIP3   OH242227   0.308   1.362   4.755
14095TIP3    H142228   0.240   1.403   4.807
14095TIP3    H242229   0.305   1.269   4.780
14096TIP3   OH242230   2.356   5.468   0.078
14096TIP3    H142231   2.397   5.551   0.054
14096TIP3    H242232   2.377   5.409   0.006
14097TIP3   OH242233   3.727   5.590   1.008
14097TIP3    H142234   3.796   5.642   0.967
14097TIP3    H242235   3.740   5.603   1.102
14098TIP3   OH242236   2.433   5.553   3.096
14098TIP3    H142237   2.476   5.474   3.128
14098TIP3    H242238   2.366   5.572   3.162
14099TIP3   OH242239   4.655   1.924   6.377
14099TIP3    H142240   4.697   1.925   6.463
14099TIP3    H242241   4.672   1.836   6.343
14100TIP3   OH242242   1.455   6.512   5.344
14100TIP3    H142243   1.550   6.506   5.356
14100TIP3    H242244   1.428   6.579   5.407
14101TIP3   OH242245   4.949   7.081   0.451
14101TIP3    H142246   4.875   7.029   0.422
14101TIP3    H242247   4.943   7.080   0.547
14102TIP3   OH242248   3.125   1.835   1.814
14102TIP3    H142249   3.180   1.913   1.803
14102TIP3    H242250   3.131   1.789   1.731
14103TIP3   OH242251   0.035   4.320   6.768
14103TIP3    H142252   0.121   4.349   6.795
14103TIP3    H242253   0.040   4.313   6.672
14104TIP3   OH242254   1.983   3.346   3.553
14104TIP3    H142255   2.000   3.258   3.588
14104TIP3    H242256   2.064   3.370   3.508
14105TIP3   OH242257   8.045   7.142   0.188
14105TIP3    H142258   8.075   7.199   0.118
14105TIP3    H242259   7.984   7.082   0.146
14106TIP3   OH242260   2.424   2.097   0.894
14106TIP3    H142261   2.489   2.036   0.859
14106TIP3    H242262   2.368   2.044   0.951
14107TIP3   OH242263   0.963   7.280   2.204
14107TIP3    H142264   1.042   7.228   2.194
14107TIP3    H242265   0.917   7.271   2.120
14108TIP3   OH242266   4.771   0.759   0.390
14108TIP3    H142267   4.778   0.854   0.381
14108TIP3    H242268   4.678   0.741   0.381
14109TIP3   OH242269   2.952   6.736   6.312
14109TIP3    H142270   2.893   6.811   6.322
14109TIP3    H242271   2.901   6.671   6.266
14110TIP3   OH242272   3.954   2.081   6.746
14110TIP3    H142273   3.948   2.003   6.691
14110TIP3    H242274   4.028   2.063   6.804
14111TIP3   OH242275   4.484   0.708   0.376
14111TIP3    H142276   4.510   0.636   0.434
14111TIP3    H242277   4.458   0.778   0.436
14112TIP3   OH242278   3.658   1.228   3.649
14112TIP3    H142279   3.738   1.240   3.598
14112TIP3    H242280   3.589   1.215   3.584
14113TIP3   OH242281   6.767   2.142   0.549
14113TIP3    H142282   6.703   2.157   0.479
14113TIP3    H242283   6.836   2.092   0.507
14114TIP3   OH242284   8.075   0.997   6.404
14114TIP3    H142285   8.100   0.996   6.311
14114TIP3    H242286   7.987   1.034   6.405
14115TIP3   OH242287   0.519   2.780   0.696
14115TIP3    H142288   0.542   2.761   0.787
14115TIP3    H242289   0.602   2.803   0.655
14116TIP3   OH242290   1.975   3.946   1.100
14116TIP3    H142291   2.001   3.961   1.009
14116TIP3    H242292   1.987   3.852   1.114
14117TIP3   OH242293   0.673   2.440   5.779
14117TIP3    H142294   0.763   2.474   5.782
14117TIP3    H242295   0.659   2.400   5.865
14118TIP3   OH242296   4.305   5.342   5.336
14118TIP3    H142297   4.252   5.276   5.291
14118TIP3    H242298   4.319   5.411   5.271
14119TIP3   OH242299   5.533   1.799   6.046
14119TIP3    H142300   5.587   1.863   6.001
14119TIP3    H242301   5.541   1.719   5.994
14120TIP3   OH242302   7.930   6.771   4.962
14120TIP3    H142303   7.913   6.745   5.052
14120TIP3    H242304   7.960   6.691   4.919
14121TIP3   OH242305   6.695   6.284   1.637
14121TIP3    H142306   6.766   6.331   1.592
14121TIP3    H242307   6.615   6.331   1.611
14122TIP3   OH242308   5.964   2.629   6.490
14122TIP3    H142309   6.044   2.637   6.437
14122TIP3    H242310   5.918   2.712   6.475
14123TIP3   OH242311   0.886   2.680   5.968
14123TIP3    H142312   0.883   2.684   6.063
14123TIP3    H242313   0.861   2.769   5.940
14124TIP3   OH242314   0.367   4.167   0.552
14124TIP3    H142315   0.353   4.153   0.458
14124TIP3    H242316   0.336   4.256   0.567
14125TIP3   OH242317   3.658   1.147   2.303
14125TIP3    H142318   3.695   1.222   2.257
14125TIP3    H242319   3.706   1.071   2.269
14126TIP3   OH242320   2.525   4.895   6.235
14126TIP3    H142321   2.528   4.985   6.267
14126TIP3    H242322   2.530   4.903   6.140
14127TIP3   OH242323   2.933   4.307   5.738
14127TIP3    H142324   3.020   4.286   5.772
14127TIP3    H242325   2.903   4.381   5.790
14128TIP3   OH242326   7.162   4.695   2.870
14128TIP3    H142327   7.149   4.758   2.941
14128TIP3    H242328   7.192   4.615   2.913
14129TIP3   OH242329   7.142   7.159   6.773
14129TIP3    H142330   7.083   7.228   6.802
14129TIP3    H242331   7.146   7.168   6.678
14130TIP3   OH242332   4.188   3.279   0.713
14130TIP3    H142333   4.272   3.236   0.699
14130TIP3    H242334   4.134   3.214   0.758
14131TIP3   OH242335   1.953   4.772   6.477
14131TIP3    H142336   1.885   4.734   6.422
14131TIP3    H242337   2.028   4.784   6.419
14132TIP3   OH242338   2.015   6.787   0.666
14132TIP3    H142339   2.056   6.828   0.742
14132TIP3    H242340   2.038   6.844   0.593
14133TIP3   OH242341   6.779   0.844   3.048
14133TIP3    H142342   6.763   0.877   2.960
14133TIP3    H242343   6.823   0.760   3.035
14134TIP3   OH242344   5.359   5.909   1.407
14134TIP3    H142345   5.440   5.863   1.430
14134TIP3    H242346   5.316   5.852   1.345
14135TIP3   OH242347   4.934   2.480   3.429
14135TIP3    H142348   4.920   2.574   3.413
14135TIP3    H242349   5.021   2.475   3.468
14136TIP3   OH242350   2.636   4.325   2.711
14136TIP3    H142351   2.627   4.286   2.798
14136TIP3    H242352   2.730   4.333   2.698
14137TIP3   OH242353   8.224   4.063   2.682
14137TIP3    H142354   8.249   4.150   2.715
14137TIP3    H242355   8.225   4.073   2.587
14138TIP3   OH242356   5.668   7.248   1.443
14138TIP3    H142357   5.692   7.267   1.352
14138TIP3    H242358   5.617   7.167   1.438
14139TIP3   OH242359   1.977   0.428   2.745
14139TIP3    H142360   2.063   0.467   2.729
14139TIP3    H242361   1.978   0.346   2.696
14140TIP3   OH242362   3.976   7.108   5.597
14140TIP3    H142363   3.924   7.028   5.589
14140TIP3    H242364   4.006   7.109   5.688
14141TIP3   OH242365   6.395   6.797   2.839
14141TIP3    H142366   6.411   6.826   2.749
14141TIP3    H242367   6.349   6.714   2.830
14142TIP3   OH242368   8.213   7.345   2.506
14142TIP3    H142369   8.249   7.257   2.490
14142TIP3    H242370   8.119   7.335   2.494
14143TIP3   OH242371   1.393   2.885   6.695
14143TIP3    H142372   1.400   2.925   6.781
14143TIP3    H242373   1.390   2.959   6.634
14144TIP3   OH242374   4.568   7.074   6.097
14144TIP3    H142375   4.499   7.055   6.161
14144TIP3    H242376   4.590   6.990   6.059
14145TIP3   OH242377   3.001   5.602   1.354
14145TIP3    H142378   2.981   5.645   1.271
14145TIP3    H242379   3.061   5.531   1.331
14146TIP3   OH242380   8.112   6.296   4.687
14146TIP3    H142381   8.123   6.203   4.710
14146TIP3    H242382   8.025   6.300   4.648
14147TIP3   OH242383   4.555   7.089   2.905
14147TIP3    H142384   4.628   7.050   2.953
14147TIP3    H242385   4.518   7.154   2.965
14148TIP3   OH242386   7.982   5.466   0.644
14148TIP3    H142387   7.899   5.515   0.639
14148TIP3    H242388   7.966   5.398   0.709
14149TIP3   OH242389   2.312   2.726   1.525
14149TIP3    H142390   2.278   2.806   1.484
14149TIP3    H242391   2.357   2.756   1.604
14150TIP3   OH242392   0.572   5.493   3.946
14150TIP3    H142393   0.599   5.559   4.010
14150TIP3    H242394   0.569   5.411   3.995
14151TIP3   OH242395   2.980   4.586   4.974
14151TIP3    H142396   2.911   4.608   4.911
14151TIP3    H242397   2.938   4.524   5.034
14152TIP3   OH242398   5.180   6.383   2.334
14152TIP3    H142399   5.107   6.445   2.344
14152TIP3    H242400   5.162   6.338   2.251
14153TIP3   OH242401   0.065   5.643   2.219
14153TIP3    H142402   0.094   5.611   2.305
14153TIP3    H242403  -0.025   5.611   2.212
14154TIP3   OH242404   2.919   1.017   6.200
14154TIP3    H142405   2.953   1.024   6.289
14154TIP3    H242406   2.834   0.975   6.209
14155TIP3   OH242407   5.162   4.725   2.766
14155TIP3    H142408   5.157   4.641   2.720
14155TIP3    H242409   5.251   4.755   2.751
14156TIP3   OH242410   0.922   0.884   5.858
14156TIP3    H142411   1.016   0.900   5.849
14156TIP3    H242412   0.914   0.841   5.943
14157TIP3   OH242413   1.062   0.938   1.654
14157TIP3    H142414   0.970   0.961   1.660
14157TIP3    H242415   1.076   0.875   1.726
14158TIP3   OH242416   6.292   4.883   3.708
14158TIP3    H142417   6.241   4.910   3.632
14158TIP3    H242418   6.294   4.787   3.702
14159TIP3   OH242419   7.515   5.149   5.099
14159TIP3    H142420   7.421   5.165   5.107
14159TIP3    H242421   7.551   5.169   5.185
14160TIP3   OH242422   5.284   1.365   2.980
14160TIP3    H142423   5.297   1.460   2.981
14160TIP3    H242424   5.314   1.337   2.893
14161TIP3   OH242425   4.503   5.273   4.356
14161TIP3    H142426   4.510   5.340   4.424
14161TIP3    H242427   4.444   5.312   4.290
14162TIP3   OH242428   5.325   0.264   3.012
14162TIP3    H142429   5.289   0.178   3.035
14162TIP3    H242430   5.403   0.244   2.960
14163TIP3   OH242431   2.159   6.291   4.550
14163TIP3    H142432   2.169   6.386   4.550
14163TIP3    H242433   2.233   6.259   4.498
14164TIP3   OH242434   1.776   2.574   6.076
14164TIP3    H142435   1.690   2.613   6.062
14164TIP3    H242436   1.838   2.645   6.057
14165TIP3   OH242437   5.006   5.232   5.480
14165TIP3    H142438   5.056   5.180   5.543
14165TIP3    H242439   5.072   5.264   5.418
14166TIP3   OH242440   1.668   2.942   1.438
14166TIP3    H142441   1.628   2.952   1.525
14166TIP3    H242442   1.631   3.014   1.387
14167TIP3   OH242443   1.187   7.097   2.207
14167TIP3    H142444   1.226   7.124   2.123
14167TIP3    H242445   1.262   7.087   2.266
14168TIP3   OH242446   1.209   7.309   0.958
14168TIP3    H142447   1.209   7.398   0.994
14168TIP3    H242448   1.119   7.295   0.929
14169TIP3   OH242449   2.234   5.867   2.876
14169TIP3    H142450   2.261   5.832   2.961
14169TIP3    H242451   2.262   5.801   2.813
14170TIP3   OH242452   4.608   3.132   3.284
14170TIP3    H142453   4.530   3.180   3.310
14170TIP3    H242454   4.678   3.197   3.288
14171TIP3   OH242455   1.509   2.133   2.085
14171TIP3    H142456   1.472   2.216   2.114
14171TIP3    H242457   1.439   2.070   2.096
14172TIP3   OH242458   1.386   5.677   1.252
14172TIP3    H142459   1.349   5.759   1.287
14172TIP3    H242460   1.418   5.630   1.329
14173TIP3   OH242461   4.028   0.453   3.370
14173TIP3    H142462   3.978   0.371   3.376
14173TIP3    H242463   4.117   0.425   3.348
14174TIP3   OH242464   6.761   7.167   2.526
14174TIP3    H142465   6.741   7.258   2.547
14174TIP3    H242466   6.793   7.169   2.436
14175TIP3   OH242467   1.212   7.661   4.650
14175TIP3    H142468   1.225   7.697   4.563
14175TIP3    H242469   1.299   7.632   4.677
14176TIP3   OH242470   4.182   2.467   0.534
14176TIP3    H142471   4.141   2.386   0.565
14176TIP3    H242472   4.263   2.473   0.584
14177TIP3   OH242473   8.247   7.006   4.465
14177TIP3    H142474   8.295   6.996   4.547
14177TIP3    H242475   8.308   7.052   4.407
14178TIP3   OH242476   5.620   0.460   4.726
14178TIP3    H142477   5.549   0.406   4.761
14178TIP3    H242478   5.655   0.507   4.802
14179TIP3   OH242479   4.713   4.829   0.870
14179TIP3    H142480   4.768   4.892   0.916
14179TIP3    H242481   4.646   4.803   0.934
14180TIP3   OH242482   4.468   1.870   0.484
14180TIP3    H142483   4.391   1.918   0.453
14180TIP3    H242484   4.463   1.786   0.440
14181TIP3   OH242485   5.122   0.112   3.321
14181TIP3    H142486   5.153   0.027   3.352
14181TIP3    H242487   5.161   0.176   3.381
14182TIP3   OH242488   2.577   3.044   5.701
14182TIP3    H142489   2.599   3.127   5.744
14182TIP3    H242490   2.617   3.052   5.614
14183TIP3   OH242491   4.297   3.533   0.020
14183TIP3    H142492   4.300   3.532   0.116
14183TIP3    H242493   4.377   3.578  -0.006
14184TIP3   OH242494   7.650   6.897   0.662
14184TIP3    H142495   7.733   6.927   0.700
14184TIP3    H242496   7.675   6.860   0.577
14185TIP3   OH242497   3.123   4.554   6.706
14185TIP3    H142498   3.207   4.512   6.688
14185TIP3    H242499   3.121   4.563   6.801
14186TIP3   OH242500   2.593   3.821   2.211
14186TIP3    H142501   2.626   3.896   2.261
14186TIP3    H242502   2.651   3.817   2.134
14187TIP3   OH242503   3.377   2.442   5.965
14187TIP3    H142504   3.317   2.402   5.901
14187TIP3    H242505   3.423   2.367   6.004
14188TIP3   OH242506   4.513   1.046   4.811
14188TIP3    H142507   4.549   1.127   4.774
14188TIP3    H242508   4.541   0.977   4.751
14189TIP3   OH242509   2.801   7.494   3.404
14189TIP3    H142510   2.772   7.585   3.406
14189TIP3    H242511   2.870   7.489   3.471
14190TIP3   OH242512   4.841   5.475   1.778
14190TIP3    H142513   4.792   5.549   1.743
14190TIP3    H242514   4.857   5.419   1.701
14191TIP3   OH242515   4.063   7.732   6.046
14191TIP3    H142516   4.131   7.712   5.981
14191TIP3    H242517   3.986   7.683   6.015
14192TIP3   OH242518   7.172   4.122   4.254
14192TIP3    H142519   7.181   4.099   4.347
14192TIP3    H242520   7.250   4.174   4.235
14193TIP3   OH242521   5.985   0.613   0.399
14193TIP3    H142522   5.928   0.689   0.402
14193TIP3    H242523   6.059   0.640   0.345
14194TIP3   OH242524   4.529   0.962   3.701
14194TIP3    H142525   4.560   1.049   3.725
14194TIP3    H242526   4.587   0.935   3.630
14195TIP3   OH242527   6.280   2.795   2.447
14195TIP3    H142528   6.196   2.806   2.493
14195TIP3    H242529   6.346   2.801   2.516
14196TIP3   OH242530   4.433   4.058   2.559
14196TIP3    H142531   4.519   4.019   2.572
14196TIP3    H242532   4.449   4.133   2.501
14197TIP3   OH242533   2.019   7.306   6.080
14197TIP3    H142534   1.974   7.389   6.095
14197TIP3    H242535   2.029   7.267   6.167
14198TIP3   OH242536   4.098   5.849   0.536
14198TIP3    H142537   4.177   5.871   0.585
14198TIP3    H242538   4.045   5.798   0.598
14199TIP3   OH242539   2.671   3.490   3.855
14199TIP3    H142540   2.673   3.573   3.807
14199TIP3    H242541   2.758   3.453   3.841
14200TIP3   OH242542   3.533   0.714   4.057
14200TIP3    H142543   3.555   0.802   4.090
14200TIP3    H242544   3.473   0.730   3.984
14201TIP3   OH242545   0.897   7.208   3.515
14201TIP3    H142546   0.958   7.199   3.589
14201TIP3    H242547   0.924   7.290   3.473
14202TIP3   OH242548   3.516   6.078   4.573
14202TIP3    H142549   3.521   6.052   4.481
14202TIP3    H242550   3.539   5.999   4.622
14203TIP3   OH242551   2.776   6.927   2.004
14203TIP3    H142552   2.863   6.908   2.038
14203TIP3    H242553   2.747   6.845   1.964
14204TIP3   OH242554   7.591   5.675   2.648
14204TIP3    H142555   7.627   5.652   2.734
14204TIP3    H242556   7.625   5.608   2.589
14205TIP3   OH242557   7.754   4.935   0.583
14205TIP3    H142558   7.735   5.018   0.539
14205TIP3    H242559   7.843   4.912   0.554
14206TIP3   OH242560   3.769   5.897   3.635
14206TIP3    H142561   3.693   5.875   3.690
14206TIP3    H242562   3.803   5.812   3.607
14207TIP3   OH242563   5.673   4.737   2.320
14207TIP3    H142564   5.609   4.667   2.332
14207TIP3    H242565   5.640   4.810   2.373
14208TIP3   OH242566   3.720   4.067   3.441
14208TIP3    H142567   3.706   3.973   3.432
14208TIP3    H242568   3.812   4.080   3.420
14209TIP3   OH242569   0.679   1.307   0.492
14209TIP3    H142570   0.619   1.359   0.439
14209TIP3    H242571   0.767   1.334   0.463
14210TIP3   OH242572   1.939   6.018   5.274
14210TIP3    H142573   2.000   6.068   5.328
14210TIP3    H242574   1.977   5.930   5.270
14211TIP3   OH242575   7.479   3.993   5.830
14211TIP3    H142576   7.409   3.939   5.867
14211TIP3    H242577   7.540   4.008   5.902
14212TIP3   OH242578   0.887   1.264   6.368
14212TIP3    H142579   0.857   1.196   6.428
14212TIP3    H242580   0.808   1.311   6.343
14213TIP3   OH242581   3.839   4.625   6.398
14213TIP3    H142582   3.787   4.554   6.437
14213TIP3    H242583   3.810   4.703   6.445
14214TIP3   OH242584   1.956   1.362   1.902
14214TIP3    H142585   2.006   1.282   1.892
14214TIP3    H242586   1.865   1.333   1.911
14215TIP3   OH242587   2.495   1.255   3.248
14215TIP3    H142588   2.438   1.332   3.244
14215TIP3    H242589   2.551   1.270   3.324
14216TIP3   OH242590   2.823   2.110   5.686
14216TIP3    H142591   2.904   2.159   5.668
14216TIP3    H242592   2.840   2.065   5.769
14217TIP3   OH242593   3.460   7.073   0.013
14217TIP3    H142594   3.428   6.983   0.022
14217TIP3    H242595   3.484   7.099   0.102
14218TIP3   OH242596   2.412   3.296   4.614
14218TIP3    H142597   2.429   3.281   4.521
14218TIP3    H242598   2.495   3.277   4.657
14219TIP3   OH242599   2.472   5.076   3.362
14219TIP3    H142600   2.490   5.164   3.393
14219TIP3    H242601   2.554   5.028   3.373
14220TIP3   OH242602   4.269   3.847   2.021
14220TIP3    H142603   4.261   3.869   1.928
14220TIP3    H242604   4.350   3.891   2.048
14221TIP3   OH242605   0.268   1.958   2.198
14221TIP3    H142606   0.283   1.918   2.112
14221TIP3    H242607   0.178   1.991   2.194
14222TIP3   OH242608   2.964   7.020   5.075
14222TIP3    H142609   3.020   6.954   5.035
14222TIP3    H242610   2.876   7.000   5.044
14223TIP3   OH242611   5.575   0.599   3.528
14223TIP3    H142612   5.593   0.515   3.486
14223TIP3    H242613   5.662   0.632   3.554
14224TIP3   OH242614   2.687   3.672   1.479
14224TIP3    H142615   2.781   3.671   1.458
14224TIP3    H242616   2.676   3.750   1.533
14225TIP3   OH242617   2.202   6.153   2.010
14225TIP3    H142618   2.172   6.104   1.934
14225TIP3    H242619   2.291   6.181   1.987
14226TIP3   OH242620   7.214   2.405   5.682
14226TIP3    H142621   7.298   2.449   5.699
14226TIP3    H242622   7.225   2.318   5.720
14227TIP3   OH242623   2.401   3.275   2.479
14227TIP3    H142624   2.351   3.197   2.457
14227TIP3    H242625   2.483   3.241   2.516
14228TIP3   OH242626   5.903   5.864   2.906
14228TIP3    H142627   5.966   5.793   2.913
14228TIP3    H242628   5.924   5.922   2.979
14229TIP3   OH242629   3.221   6.662   6.234
14229TIP3    H142630   3.142   6.710   6.258
14229TIP3    H242631   3.189   6.581   6.195
14230TIP3   OH242632   7.510   4.532   2.438
14230TIP3    H142633   7.512   4.565   2.528
14230TIP3    H242634   7.489   4.439   2.447
14231TIP3   OH242635   6.729   1.337   0.454
14231TIP3    H142636   6.823   1.354   0.465
14231TIP3    H242637   6.698   1.319   0.543
14232TIP3   OH242638   8.268   5.319   4.520
14232TIP3    H142639   8.219   5.241   4.545
14232TIP3    H242640   8.251   5.328   4.426
14233TIP3   OH242641   4.838   3.948   2.558
14233TIP3    H142642   4.869   3.939   2.468
14233TIP3    H242643   4.803   4.037   2.563
14234TIP3   OH242644   0.379   1.269   1.572
14234TIP3    H142645   0.464   1.292   1.608
14234TIP3    H242646   0.352   1.191   1.621
14235TIP3   OH242647   6.760   4.365   6.317
14235TIP3    H142648   6.759   4.447   6.268
14235TIP3    H242649   6.673   4.326   6.301
14236TIP3   OH242650   0.742   2.049   2.768
14236TIP3    H142651   0.801   2.026   2.697
14236TIP3    H242652   0.677   1.979   2.769
14237TIP3   OH242653   5.609   7.074   4.589
14237TIP3    H142654   5.569   7.006   4.643
14237TIP3    H242655   5.606   7.153   4.644
14238TIP3   OH242656   6.248   2.664   0.417
14238TIP3    H142657   6.226   2.708   0.499
14238TIP3    H242658   6.331   2.704   0.391
14239TIP3   OH242659   2.725   6.858   1.653
14239TIP3    H142660   2.668   6.797   1.701
14239TIP3    H242661   2.812   6.817   1.657
14240TIP3   OH242662   1.652   0.792   1.221
14240TIP3    H142663   1.731   0.743   1.199
14240TIP3    H242664   1.623   0.830   1.138
14241TIP3   OH242665   1.560   6.678   4.467
14241TIP3    H142666   1.492   6.640   4.523
14241TIP3    H242667   1.534   6.654   4.378
14242TIP3   OH242668   2.836   6.651   0.202
14242TIP3    H142669   2.807   6.610   0.284
14242TIP3    H242670   2.886   6.582   0.158
14243TIP3   OH242671   7.161   3.038   1.858
14243TIP3    H142672   7.087   3.079   1.902
14243TIP3    H242673   7.156   2.946   1.883
14244TIP3   OH242674   0.182   3.657   2.435
14244TIP3    H142675   0.188   3.721   2.506
14244TIP3    H242676   0.253   3.682   2.375
14245TIP3   OH242677   5.348   6.435   4.709
14245TIP3    H142678   5.300   6.446   4.627
14245TIP3    H242679   5.280   6.427   4.776
14246TIP3   OH242680   5.097   4.551   1.867
14246TIP3    H142681   5.116   4.589   1.781
14246TIP3    H242682   5.158   4.478   1.875
14247TIP3   OH242683   5.514   2.425   2.387
14247TIP3    H142684   5.544   2.515   2.387
14247TIP3    H242685   5.509   2.402   2.294
14248TIP3   OH242686   0.413   2.542   0.547
14248TIP3    H142687   0.320   2.526   0.534
14248TIP3    H242688   0.419   2.637   0.559
14249TIP3   OH242689   5.102   4.594   2.128
14249TIP3    H142690   5.119   4.544   2.049
14249TIP3    H242691   5.118   4.685   2.104
14250TIP3   OH242692   1.276   1.992   1.994
14250TIP3    H142693   1.219   1.925   2.032
14250TIP3    H242694   1.238   2.075   2.023
14251TIP3   OH242695   1.167   2.743   3.073
14251TIP3    H142696   1.246   2.793   3.095
14251TIP3    H242697   1.195   2.682   3.004
14252TIP3   OH242698   4.100   7.041   3.874
14252TIP3    H142699   4.136   7.020   3.788
14252TIP3    H242700   4.147   6.984   3.935
14253TIP3   OH242701   6.429   1.039   4.824
14253TIP3    H142702   6.494   1.092   4.868
14253TIP3    H242703   6.440   1.059   4.731
14254TIP3   OH242704   6.873   2.585   5.636
14254TIP3    H142705   6.816   2.637   5.580
14254TIP3    H242706   6.835   2.593   5.724
14255TIP3   OH242707   3.767   2.084   3.968
14255TIP3    H142708   3.848   2.104   4.014
14255TIP3    H242709   3.788   2.096   3.875
14256TIP3   OH242710   7.812   0.787   1.572
14256TIP3    H142711   7.878   0.743   1.518
14256TIP3    H242712   7.728   0.757   1.538
14257TIP3   OH242713   3.031   4.192   2.264
14257TIP3    H142714   3.105   4.247   2.289
14257TIP3    H242715   3.042   4.176   2.170
14258TIP3   OH242716   4.917   0.346   5.706
14258TIP3    H142717   4.977   0.390   5.766
14258TIP3    H242718   4.889   0.267   5.753
14259TIP3   OH242719   8.058   0.678   5.543
14259TIP3    H142720   7.963   0.668   5.543
14259TIP3    H242721   8.074   0.754   5.600
14260TIP3   OH242722   1.440   1.857   5.831
14260TIP3    H142723   1.527   1.819   5.844
14260TIP3    H242724   1.448   1.906   5.750
14261TIP3   OH242725   3.821   4.971   2.528
14261TIP3    H142726   3.819   5.035   2.599
14261TIP3    H242727   3.898   4.918   2.545
14262TIP3   OH242728   6.691   0.665   1.853
14262TIP3    H142729   6.697   0.646   1.759
14262TIP3    H242730   6.761   0.613   1.892
14263TIP3   OH242731   4.916   2.633   0.360
14263TIP3    H142732   5.005   2.627   0.326
14263TIP3    H242733   4.906   2.555   0.414
14264TIP3   OH242734   6.721   4.731   2.085
14264TIP3    H142735   6.804   4.742   2.132
14264TIP3    H242736   6.659   4.705   2.153
14265TIP3   OH242737   4.816   5.067   1.593
14265TIP3    H142738   4.833   5.084   1.686
14265TIP3    H242739   4.815   4.971   1.587
14266TIP3   OH242740   7.287   6.100   4.964
14266TIP3    H142741   7.251   6.017   4.934
14266TIP3    H242742   7.210   6.157   4.975
14267TIP3   OH242743   7.658   2.888   4.835
14267TIP3    H142744   7.618   2.925   4.757
14267TIP3    H242745   7.719   2.955   4.865
14268TIP3   OH242746   8.043   3.021   5.550
14268TIP3    H142747   8.076   3.110   5.560
14268TIP3    H242748   8.038   2.987   5.639
14269TIP3   OH242749   1.191   7.603   1.063
14269TIP3    H142750   1.139   7.611   0.982
14269TIP3    H242751   1.146   7.660   1.125
14270TIP3   OH242752   2.945   3.912   0.195
14270TIP3    H142753   3.000   3.991   0.192
14270TIP3    H242754   2.871   3.937   0.250
14271TIP3   OH242755   5.763   0.598   6.461
14271TIP3    H142756   5.763   0.664   6.392
14271TIP3    H242757   5.691   0.623   6.519
14272TIP3   OH242758   7.496   1.759   3.236
14272TIP3    H142759   7.475   1.847   3.268
14272TIP3    H242760   7.577   1.736   3.280
14273TIP3   OH242761   2.024   5.387   5.526
14273TIP3    H142762   2.041   5.338   5.607
14273TIP3    H242763   1.932   5.368   5.507
14274TIP3   OH242764   7.617   3.482   4.244
14274TIP3    H142765   7.539   3.478   4.300
14274TIP3    H242766   7.646   3.391   4.238
14275TIP3   OH242767   5.014   4.280   1.757
14275TIP3    H142768   4.981   4.215   1.696
14275TIP3    H242769   5.108   4.263   1.761
14276TIP3   OH242770   0.563   5.093   5.329
14276TIP3    H142771   0.653   5.096   5.296
14276TIP3    H242772   0.564   5.146   5.408
14277TIP3   OH242773   7.933   0.214   3.720
14277TIP3    H142774   7.975   0.130   3.737
14277TIP3    H242775   7.935   0.259   3.805
14278TIP3   OH242776   5.545   4.548   3.953
14278TIP3    H142777   5.517   4.612   3.888
14278TIP3    H242778   5.640   4.559   3.957
14279TIP3   OH242779   7.054   2.773   1.248
14279TIP3    H142780   7.027   2.863   1.267
14279TIP3    H242781   7.038   2.727   1.331
14280TIP3   OH242782   6.264   5.080   4.421
14280TIP3    H142783   6.215   5.054   4.499
14280TIP3    H242784   6.220   5.159   4.391
14281TIP3   OH242785   6.240   5.334   2.375
14281TIP3    H142786   6.318   5.279   2.373
14281TIP3    H242787   6.183   5.299   2.306
14282TIP3   OH242788   7.132   4.578   6.679
14282TIP3    H142789   7.168   4.571   6.767
14282TIP3    H242790   7.074   4.503   6.670
14283TIP3   OH242791   8.203   5.291   5.401
14283TIP3    H142792   8.278   5.310   5.345
14283TIP3    H242793   8.237   5.232   5.468
14284TIP3   OH242794   3.974   6.635   2.551
14284TIP3    H142795   3.962   6.677   2.467
14284TIP3    H242796   3.930   6.551   2.542
14285TIP3   OH242797   2.445   7.777   3.720
14285TIP3    H142798   2.519   7.806   3.773
14285TIP3    H242799   2.461   7.684   3.705
14286TIP3   OH242800   2.860   2.167   4.920
14286TIP3    H142801   2.934   2.220   4.889
14286TIP3    H242802   2.884   2.077   4.896
14287TIP3   OH242803   0.920   5.746   1.261
14287TIP3    H142804   0.830   5.714   1.270
14287TIP3    H242805   0.936   5.796   1.341
14288TIP3   OH242806   7.137   6.475   1.614
14288TIP3    H142807   7.198   6.549   1.608
14288TIP3    H242808   7.183   6.402   1.573
14289TIP3   OH242809   6.783   5.540   5.208
14289TIP3    H142810   6.848   5.471   5.193
14289TIP3    H242811   6.797   5.602   5.136
14290TIP3   OH242812   3.954   1.809   5.017
14290TIP3    H142813   3.897   1.763   5.078
14290TIP3    H242814   3.932   1.902   5.028
14291TIP3   OH242815   1.634   7.209   0.326
14291TIP3    H142816   1.582   7.158   0.264
14291TIP3    H242817   1.675   7.144   0.383
14292TIP3   OH242818   4.469   4.150   0.083
14292TIP3    H142819   4.458   4.136  -0.011
14292TIP3    H242820   4.558   4.122   0.102
14293TIP3   OH242821   0.227   2.582   4.608
14293TIP3    H142822   0.289   2.571   4.535
14293TIP3    H242823   0.260   2.658   4.656
14294TIP3   OH242824   5.606   1.524   6.425
14294TIP3    H142825   5.563   1.529   6.510
14294TIP3    H242826   5.648   1.609   6.414
14295TIP3   OH242827   6.112   1.889   0.080
14295TIP3    H142828   6.136   1.981   0.089
14295TIP3    H242829   6.022   1.890   0.047
14296TIP3   OH242830   0.963   4.907   0.666
14296TIP3    H142831   0.949   4.886   0.574
14296TIP3    H242832   0.963   5.003   0.669
14297TIP3   OH242833   6.530   5.727   0.912
14297TIP3    H142834   6.469   5.766   0.850
14297TIP3    H242835   6.562   5.648   0.869
14298TIP3   OH242836   3.390   5.303   5.260
14298TIP3    H142837   3.296   5.313   5.252
14298TIP3    H242838   3.414   5.247   5.187
14299TIP3   OH242839   0.327   1.497   5.525
14299TIP3    H142840   0.301   1.589   5.529
14299TIP3    H242841   0.376   1.490   5.443
14300TIP3   OH242842   1.190   7.655   1.980
14300TIP3    H142843   1.101   7.632   1.952
14300TIP3    H242844   1.206   7.599   2.056
14301TIP3   OH242845   6.581   0.623   0.822
14301TIP3    H142846   6.556   0.548   0.769
14301TIP3    H242847   6.547   0.699   0.775
14302TIP3   OH242848   7.752   6.476   0.200
14302TIP3    H142849   7.829   6.531   0.203
14302TIP3    H242850   7.779   6.393   0.241
14303TIP3   OH242851   1.847   0.134   3.295
14303TIP3    H142852   1.859   0.192   3.220
14303TIP3    H242853   1.902   0.058   3.276
14304TIP3   OH242854   3.920   1.051   1.307
14304TIP3    H142855   3.858   1.093   1.247
14304TIP3    H242856   3.874   1.049   1.391
14305TIP3   OH242857   3.911   3.628   5.064
14305TIP3    H142858   3.957   3.653   5.144
14305TIP3    H242859   3.819   3.648   5.082
14306TIP3   OH242860   2.251   5.906   4.489
14306TIP3    H142861   2.214   5.885   4.403
14306TIP3    H242862   2.179   5.890   4.550
14307TIP3   OH242863   1.648   2.516   1.980
14307TIP3    H142864   1.634   2.459   2.056
14307TIP3    H242865   1.592   2.479   1.912
14308TIP3   OH242866   2.724   4.776   5.774
14308TIP3    H142867   2.652   4.816   5.726
14308TIP3    H242868   2.767   4.850   5.819
14309TIP3   OH242869   1.958   2.795   5.745
14309TIP3    H142870   1.983   2.802   5.653
14309TIP3    H242871   1.918   2.709   5.753
14310TIP3   OH242872   4.249   5.432   2.931
14310TIP3    H142873   4.310   5.503   2.952
14310TIP3    H242874   4.295   5.379   2.867
14311TIP3   OH242875   7.054   6.060   5.755
14311TIP3    H142876   6.961   6.084   5.747
14311TIP3    H242877   7.057   5.967   5.730
14312TIP3   OH242878   7.780   6.295   6.450
14312TIP3    H142879   7.813   6.361   6.389
14312TIP3    H242880   7.806   6.211   6.411
14313TIP3   OH242881   2.007   1.592   4.554
14313TIP3    H142882   1.969   1.600   4.641
14313TIP3    H242883   1.937   1.620   4.494
14314TIP3   OH242884   1.089   0.493   5.300
14314TIP3    H142885   1.074   0.562   5.365
14314TIP3    H242886   1.001   0.462   5.278
14315TIP3   OH242887   5.595   6.910   4.791
14315TIP3    H142888   5.582   6.821   4.823
14315TIP3    H242889   5.553   6.966   4.857
14316TIP3   OH242890   0.967   4.545   6.086
14316TIP3    H142891   0.876   4.568   6.106
14316TIP3    H242892   1.010   4.629   6.067
14317TIP3   OH242893   1.901   0.836   0.570
14317TIP3    H142894   1.953   0.866   0.644
14317TIP3    H242895   1.929   0.745   0.556
14318TIP3   OH242896   5.874   6.429   2.879
14318TIP3    H142897   5.911   6.347   2.910
14318TIP3    H242898   5.780   6.413   2.874
14319TIP3   OH242899   5.427   6.023   0.922
14319TIP3    H142900   5.452   6.086   0.989
14319TIP3    H242901   5.487   5.950   0.934
14320TIP3   OH242902   6.748   7.019   2.211
14320TIP3    H142903   6.655   7.010   2.231
14320TIP3    H242904   6.781   6.929   2.210
14321TIP3   OH242905   5.889   2.448   4.588
14321TIP3    H142906   5.825   2.441   4.517
14321TIP3    H242907   5.972   2.421   4.549
14322TIP3   OH242908   0.608   3.020   5.718
14322TIP3    H142909   0.634   2.986   5.803
14322TIP3    H242910   0.515   3.042   5.728
14323TIP3   OH242911   3.558   7.349   6.057
14323TIP3    H142912   3.610   7.290   6.003
14323TIP3    H242913   3.622   7.405   6.100
14324TIP3   OH242914   8.274   0.893   0.802
14324TIP3    H142915   8.311   0.815   0.843
14324TIP3    H242916   8.224   0.935   0.872
14325TIP3   OH242917   7.738   3.112   3.972
14325TIP3    H142918   7.782   3.062   3.903
14325TIP3    H242919   7.785   3.195   3.975
14326TIP3   OH242920   6.619   4.493   6.119
14326TIP3    H142921   6.601   4.578   6.160
14326TIP3    H242922   6.641   4.515   6.029
14327TIP3   OH242923   1.443   6.120   0.826
14327TIP3    H142924   1.397   6.195   0.865
14327TIP3    H242925   1.443   6.054   0.895
14328TIP3   OH242926   3.512   3.094   1.791
14328TIP3    H142927   3.474   3.054   1.713
14328TIP3    H242928   3.439   3.139   1.833
14329TIP3   OH242929   3.751   0.135   4.074
14329TIP3    H142930   3.845   0.137   4.056
14329TIP3    H242931   3.737   0.203   4.140
14330TIP3   OH242932   2.122   5.684   1.081
14330TIP3    H142933   2.094   5.768   1.044
14330TIP3    H242934   2.069   5.619   1.035
14331TIP3   OH242935   8.147   0.137   3.908
14331TIP3    H142936   8.149   0.063   3.969
14331TIP3    H242937   8.157   0.214   3.964
14332TIP3   OH242938   0.379   1.752   0.237
14332TIP3    H142939   0.385   1.847   0.226
14332TIP3    H242940   0.295   1.729   0.198
14333TIP3   OH242941   1.152   1.496   3.168
14333TIP3    H142942   1.134   1.557   3.097
14333TIP3    H242943   1.142   1.548   3.247
14334TIP3   OH242944   6.783   0.918   2.435
14334TIP3    H142945   6.809   0.841   2.385
14334TIP3    H242946   6.852   0.982   2.418
14335TIP3   OH242947   0.999   0.490   3.918
14335TIP3    H142948   0.962   0.454   3.837
14335TIP3    H242949   0.973   0.428   3.985
14336TIP3   OH242950   4.337   2.508   1.652
14336TIP3    H142951   4.257   2.472   1.614
14336TIP3    H242952   4.329   2.493   1.746
14337TIP3   OH242953   6.054   4.792   5.199
14337TIP3    H142954   6.022   4.725   5.139
14337TIP3    H242955   5.980   4.809   5.258
14338TIP3   OH242956   3.459   3.381   5.072
14338TIP3    H142957   3.514   3.439   5.020
14338TIP3    H242958   3.379   3.372   5.021
14339TIP3   OH242959   4.233   0.677   3.193
14339TIP3    H142960   4.170   0.647   3.259
14339TIP3    H242961   4.318   0.670   3.237
14340TIP3   OH242962   2.641   7.460   5.724
14340TIP3    H142963   2.576   7.525   5.749
14340TIP3    H242964   2.723   7.509   5.718
14341TIP3   OH242965   2.122   6.134   3.414
14341TIP3    H142966   2.132   6.049   3.457
14341TIP3    H242967   2.124   6.197   3.487
14342TIP3   OH242968   1.702   1.777   1.183
14342TIP3    H142969   1.707   1.867   1.215
14342TIP3    H242970   1.748   1.725   1.250
14343TIP3   OH242971   1.793   0.352   2.322
14343TIP3    H142972   1.856   0.311   2.381
14343TIP3    H242973   1.745   0.414   2.378
14344TIP3   OH242974   6.223   2.329   6.268
14344TIP3    H142975   6.256   2.240   6.259
14344TIP3    H242976   6.298   2.379   6.300
14345TIP3   OH242977   5.089   5.720   3.550
14345TIP3    H142978   5.087   5.787   3.618
14345TIP3    H242979   5.182   5.698   3.541
14346TIP3   OH242980   7.991   3.882   2.330
14346TIP3    H142981   7.944   3.868   2.248
14346TIP3    H242982   8.081   3.900   2.303
14347TIP3   OH242983   6.764   7.467   3.583
14347TIP3    H142984   6.858   7.480   3.591
14347TIP3    H242985   6.727   7.510   3.661
14348TIP3   OH242986   1.014   2.653   1.938
14348TIP3    H142987   1.076   2.608   1.995
14348TIP3    H242988   0.932   2.654   1.987
14349TIP3   OH242989   6.719   1.307   0.727
14349TIP3    H142990   6.707   1.246   0.801
14349TIP3    H242991   6.705   1.393   0.765
14350TIP3   OH242992   4.013   4.775   2.608
14350TIP3    H142993   4.078   4.729   2.554
14350TIP3    H242994   4.054   4.782   2.694
14351TIP3   OH242995   5.610   2.383   3.781
14351TIP3    H142996   5.621   2.320   3.710
14351TIP3    H242997   5.619   2.468   3.740
14352TIP3   OH242998   4.065   4.085   5.580
14352TIP3    H142999   4.008   4.077   5.503
14352TIP3    H243000   4.005   4.086   5.654
14353TIP3   OH243001   4.727   2.323   3.689
14353TIP3    H143002   4.729   2.250   3.628
14353TIP3    H243003   4.680   2.392   3.643
14354TIP3   OH243004   5.038   5.458   5.247
14354TIP3    H143005   5.048   5.502   5.331
14354TIP3    H243006   5.124   5.465   5.205
14355TIP3   OH243007   4.389   4.201   1.199
14355TIP3    H143008   4.480   4.203   1.229
14355TIP3    H243009   4.351   4.126   1.245
14356TIP3   OH243010   1.782   1.303   1.387
14356TIP3    H143011   1.836   1.330   1.461
14356TIP3    H243012   1.832   1.330   1.310
14357TIP3   OH243013   3.675   7.657   0.519
14357TIP3    H143014   3.764   7.676   0.549
14357TIP3    H243015   3.627   7.738   0.534
14358TIP3   OH243016   2.011   0.088   3.719
14358TIP3    H143017   2.042  -0.001   3.703
14358TIP3    H243018   1.940   0.077   3.782
14359TIP3   OH243019   3.312   1.206   5.617
14359TIP3    H143020   3.310   1.231   5.709
14359TIP3    H243021   3.250   1.134   5.610
14360TIP3   OH243022   4.560   0.172   5.575
14360TIP3    H143023   4.615   0.250   5.568
14360TIP3    H243024   4.604   0.107   5.521
14361TIP3   OH243025   3.396   0.846   0.616
14361TIP3    H143026   3.421   0.871   0.705
14361TIP3    H243027   3.360   0.758   0.625
14362TIP3   OH243028   0.086   2.874   4.023
14362TIP3    H143029   0.068   2.798   3.968
14362TIP3    H243030   0.001   2.919   4.030
14363TIP3   OH243031   1.321   5.384   4.434
14363TIP3    H143032   1.291   5.304   4.391
14363TIP3    H243033   1.415   5.373   4.443
14364TIP3   OH243034   2.562   0.168   5.503
14364TIP3    H143035   2.529   0.255   5.526
14364TIP3    H243036   2.565   0.168   5.407
14365TIP3   OH243037   6.115   2.534   2.905
14365TIP3    H143038   6.115   2.503   2.815
14365TIP3    H243039   6.028   2.512   2.938
14366TIP3   OH243040   0.404   2.908   2.173
14366TIP3    H143041   0.331   2.892   2.113
14366TIP3    H243042   0.371   2.881   2.259
14367TIP3   OH243043   8.159   2.425   1.996
14367TIP3    H143044   8.176   2.410   2.089
14367TIP3    H243045   8.170   2.340   1.955
14368TIP3   OH243046   6.003   5.575   3.627
14368TIP3    H143047   5.952   5.497   3.603
14368TIP3    H243048   5.994   5.634   3.552
14369TIP3   OH243049   0.568   5.021   4.277
14369TIP3    H143050   0.658   4.995   4.263
14369TIP3    H243051   0.521   4.986   4.201
14370TIP3   OH243052   0.926   7.560   1.855
14370TIP3    H143053   0.914   7.568   1.949
14370TIP3    H243054   0.840   7.537   1.821
14371TIP3   OH243055   4.590   2.512   3.518
14371TIP3    H143056   4.577   2.452   3.445
14371TIP3    H243057   4.506   2.512   3.564
14372TIP3   OH243058   5.970   0.073   4.368
14372TIP3    H143059   5.903   0.048   4.305
14372TIP3    H243060   5.924   0.080   4.452
14373TIP3   OH243061   4.081   4.665   5.943
14373TIP3    H143062   4.003   4.631   5.987
14373TIP3    H243063   4.063   4.651   5.850
14374TIP3   OH243064   5.522   7.789   4.529
14374TIP3    H143065   5.507   7.697   4.550
14374TIP3    H243066   5.434   7.826   4.520
14375TIP3   OH243067   6.972   2.346   1.136
14375TIP3    H143068   6.938   2.259   1.116
14375TIP3    H243069   7.047   2.357   1.077
14376TIP3   OH243070   6.336   4.192   3.449
14376TIP3    H143071   6.282   4.215   3.373
14376TIP3    H243072   6.274   4.185   3.522
14377TIP3   OH243073   5.346   6.724   0.786
14377TIP3    H143074   5.254   6.746   0.804
14377TIP3    H243075   5.342   6.671   0.707
14378TIP3   OH243076   7.791   5.899   2.215
14378TIP3    H143077   7.710   5.935   2.181
14378TIP3    H243078   7.766   5.858   2.298
14379TIP3   OH243079   5.466   5.644   0.516
14379TIP3    H143080   5.404   5.606   0.578
14379TIP3    H243081   5.542   5.585   0.519
14380TIP3   OH243082   3.800   7.609   1.852
14380TIP3    H143083   3.821   7.590   1.760
14380TIP3    H243084   3.871   7.666   1.880
14381TIP3   OH243085   0.058   4.092   1.536
14381TIP3    H143086   0.053   4.023   1.470
14381TIP3    H243087   0.119   4.156   1.500
14382TIP3   OH243088   3.582   4.452   4.734
14382TIP3    H143089   3.553   4.378   4.787
14382TIP3    H243090   3.566   4.529   4.790
14383TIP3   OH243091   3.541   1.655   6.496
14383TIP3    H143092   3.564   1.636   6.405
14383TIP3    H243093   3.625   1.663   6.541
14384TIP3   OH243094   4.319   0.910   1.729
14384TIP3    H143095   4.315   0.926   1.823
14384TIP3    H243096   4.349   0.819   1.722
14385TIP3   OH243097   0.090   0.905   6.290
14385TIP3    H143098   0.024   0.953   6.239
14385TIP3    H243099   0.086   0.945   6.377
14386TIP3   OH243100   1.360   2.078   4.969
14386TIP3    H143101   1.287   2.020   4.951
14386TIP3    H243102   1.401   2.041   5.048
14387TIP3   OH243103   4.629   1.961   5.148
14387TIP3    H143104   4.678   1.927   5.223
14387TIP3    H243105   4.627   2.056   5.162
14388TIP3   OH243106   3.619   7.423   0.366
14388TIP3    H143107   3.640   7.493   0.426
14388TIP3    H243108   3.620   7.464   0.279
14389TIP3   OH243109   0.944   5.858   4.803
14389TIP3    H143110   0.900   5.806   4.870
14389TIP3    H243111   0.987   5.928   4.852
14390TIP3   OH243112   7.812   0.291   5.477
14390TIP3    H143113   7.772   0.207   5.500
14390TIP3    H243114   7.825   0.335   5.561
14391TIP3   OH243115   5.218   5.738   3.887
14391TIP3    H143116   5.269   5.818   3.886
14391TIP3    H243117   5.127   5.767   3.876
14392TIP3   OH243118   0.941   2.727   5.099
14392TIP3    H143119   0.867   2.756   5.044
14392TIP3    H243120   0.925   2.767   5.184
14393TIP3   OH243121   7.879   3.437   2.496
14393TIP3    H143122   7.857   3.502   2.428
14393TIP3    H243123   7.947   3.479   2.548
14394TIP3   OH243124   5.155   4.502   2.605
14394TIP3    H143125   5.236   4.465   2.639
14394TIP3    H243126   5.183   4.569   2.542
14395TIP3   OH243127   4.750   6.597   3.827
14395TIP3    H143128   4.663   6.570   3.798
14395TIP3    H243129   4.797   6.617   3.747
14396TIP3   OH243130   1.249   5.024   1.823
14396TIP3    H143131   1.209   5.111   1.833
14396TIP3    H243132   1.236   4.982   1.908
14397TIP3   OH243133   7.714   0.416   4.835
14397TIP3    H143134   7.760   0.500   4.824
14397TIP3    H243135   7.772   0.352   4.794
14398TIP3   OH243136   1.063   4.612   0.479
14398TIP3    H143137   1.127   4.661   0.427
14398TIP3    H243138   1.068   4.523   0.446
14399TIP3   OH243139   0.852   7.190   2.447
14399TIP3    H143140   0.865   7.266   2.503
14399TIP3    H243141   0.867   7.222   2.358
14400TIP3   OH243142   7.479   5.919   2.272
14400TIP3    H143143   7.524   5.989   2.320
14400TIP3    H243144   7.405   5.963   2.230
14401TIP3   OH243145   4.043   2.026   2.690
14401TIP3    H143146   4.032   2.006   2.597
14401TIP3    H243147   4.063   1.941   2.731
14402TIP3   OH243148   0.118   2.008   0.373
14402TIP3    H143149   0.091   1.990   0.463
14402TIP3    H243150   0.044   2.054   0.335
14403TIP3   OH243151   7.959   0.415   0.640
14403TIP3    H143152   7.906   0.365   0.702
14403TIP3    H243153   7.956   0.365   0.559
14404TIP3   OH243154   0.146   1.642   5.344
14404TIP3    H143155   0.168   1.690   5.264
14404TIP3    H243156   0.118   1.709   5.406
14405TIP3   OH243157   0.157   1.834   5.124
14405TIP3    H143158   0.218   1.896   5.164
14405TIP3    H243159   0.073   1.850   5.167
14406TIP3   OH243160   6.552   7.496   3.956
14406TIP3    H143161   6.593   7.557   3.894
14406TIP3    H243162   6.494   7.442   3.903
14407TIP3   OH243163   0.796   3.595   4.919
14407TIP3    H143164   0.706   3.624   4.934
14407TIP3    H243165   0.833   3.585   5.007
14408TIP3   OH243166   1.765   6.772   1.650
14408TIP3    H143167   1.850   6.813   1.664
14408TIP3    H243168   1.784   6.678   1.648
14409TIP3   OH243169   4.854   6.873   3.019
14409TIP3    H143170   4.925   6.860   3.082
14409TIP3    H243171   4.899   6.895   2.937
14410TIP3   OH243172   6.655   6.785   5.983
14410TIP3    H143173   6.750   6.777   5.985
14410TIP3    H243174   6.624   6.698   6.010
14411TIP3   OH243175   4.202   6.197   2.573
14411TIP3    H143176   4.212   6.237   2.487
14411TIP3    H243177   4.290   6.166   2.595
14412TIP3   OH243178   0.850   6.994   5.001
14412TIP3    H143179   0.896   6.912   5.015
14412TIP3    H243180   0.812   6.987   4.914
14413TIP3   OH243181   0.175   3.762   6.235
14413TIP3    H143182   0.172   3.810   6.318
14413TIP3    H243183   0.123   3.815   6.175
14414TIP3   OH243184   0.562   7.510   6.108
14414TIP3    H143185   0.640   7.526   6.160
14414TIP3    H243186   0.591   7.519   6.018
14415TIP3   OH243187   2.259   3.338   6.022
14415TIP3    H143188   2.165   3.324   6.008
14415TIP3    H243189   2.293   3.251   6.041
14416TIP3   OH243190   6.061   5.772   4.178
14416TIP3    H143191   6.105   5.844   4.224
14416TIP3    H243192   6.109   5.765   4.095
14417TIP3   OH243193   0.621   7.108   5.595
14417TIP3    H143194   0.543   7.085   5.546
14417TIP3    H243195   0.649   7.192   5.559
14418TIP3   OH243196   5.256   2.806   5.063
14418TIP3    H143197   5.254   2.769   5.151
14418TIP3    H243198   5.335   2.771   5.023
14419TIP3   OH243199   2.960   3.328   3.777
14419TIP3    H143200   2.988   3.403   3.830
14419TIP3    H243201   2.919   3.368   3.699
14420TIP3   OH243202   3.081   4.102   2.000
14420TIP3    H143203   3.147   4.118   1.933
14420TIP3    H243204   3.048   4.015   1.981
14421TIP3   OH243205   8.207   0.705   6.168
14421TIP3    H143206   8.228   0.751   6.249
14421TIP3    H243207   8.190   0.615   6.195
14422TIP3   OH243208   7.104   1.764   2.007
14422TIP3    H143209   7.059   1.726   2.082
14422TIP3    H243210   7.175   1.815   2.044
14423TIP3   OH243211   2.581   3.751   1.247
14423TIP3    H143212   2.593   3.844   1.231
14423TIP3    H243213   2.630   3.734   1.328
14424TIP3   OH243214   7.182   4.062   3.401
14424TIP3    H143215   7.158   4.111   3.480
14424TIP3    H243216   7.100   4.051   3.353
14425TIP3   OH243217   6.462   5.373   1.794
14425TIP3    H143218   6.469   5.444   1.859
14425TIP3    H243219   6.500   5.410   1.715
14426TIP3   OH243220   3.972   1.112   0.196
14426TIP3    H143221   4.004   1.202   0.209
14426TIP3    H243222   3.973   1.073   0.283
14427TIP3   OH243223   8.026   1.386   1.771
14427TIP3    H143224   8.010   1.380   1.677
14427TIP3    H243225   8.079   1.465   1.781
14428TIP3   OH243226   2.711   0.429   4.964
14428TIP3    H143227   2.635   0.427   5.022
14428TIP3    H243228   2.787   0.431   5.023
14429TIP3   OH243229   6.009   3.467   5.757
14429TIP3    H143230   6.079   3.527   5.784
14429TIP3    H243231   5.930   3.521   5.756
14430TIP3   OH243232   0.882   5.595   3.188
14430TIP3    H143233   0.803   5.625   3.232
14430TIP3    H243234   0.851   5.539   3.118
14431TIP3   OH243235   1.441   4.290   0.084
14431TIP3    H143236   1.378   4.220   0.100
14431TIP3    H243237   1.521   4.262   0.127
14432TIP3   OH243238   1.359   3.177   0.760
14432TIP3    H143239   1.405   3.238   0.817
14432TIP3    H243240   1.426   3.114   0.733
14433TIP3   OH243241   2.413   6.641   5.904
14433TIP3    H143242   2.481   6.594   5.952
14433TIP3    H243243   2.461   6.691   5.837
14434TIP3   OH243244   1.796   3.871   3.072
14434TIP3    H143245   1.712   3.914   3.055
14434TIP3    H243246   1.786   3.783   3.038
14435TIP3   OH243247   3.692   1.303   0.397
14435TIP3    H143248   3.715   1.235   0.461
14435TIP3    H243249   3.772   1.354   0.387
14436TIP3   OH243250   7.513   3.051   3.164
14436TIP3    H143251   7.444   3.049   3.230
14436TIP3    H243252   7.589   3.011   3.207
14437TIP3   OH243253   3.617   1.958   1.699
14437TIP3    H143254   3.533   1.922   1.728
14437TIP3    H243255   3.594   2.023   1.633
14438TIP3   OH243256   3.975   1.152   3.054
14438TIP3    H143257   4.040   1.133   2.986
14438TIP3    H243258   3.961   1.068   3.098
14439TIP3   OH243259   0.948   7.653   6.633
14439TIP3    H143260   0.870   7.680   6.584
14439TIP3    H243261   0.972   7.568   6.596
14440TIP3   OH243262   7.231   4.049   6.385
14440TIP3    H143263   7.183   4.124   6.350
14440TIP3    H243264   7.173   3.974   6.372
14441TIP3   OH243265   3.250   6.349   5.606
14441TIP3    H143266   3.312   6.279   5.584
14441TIP3    H243267   3.194   6.312   5.674
14442TIP3   OH243268   7.509   0.919   6.704
14442TIP3    H143269   7.548   0.981   6.766
14442TIP3    H243270   7.449   0.973   6.652
14443TIP3   OH243271   5.207   4.214   5.334
14443TIP3    H143272   5.199   4.251   5.422
14443TIP3    H243273   5.185   4.122   5.345
14444TIP3   OH243274   6.362   5.535   5.716
14444TIP3    H143275   6.417   5.459   5.696
14444TIP3    H243276   6.288   5.528   5.656
14445TIP3   OH243277   2.776   0.531   1.251
14445TIP3    H143278   2.823   0.612   1.231
14445TIP3    H243279   2.765   0.532   1.346
14446TIP3   OH243280   1.196   5.716   5.834
14446TIP3    H143281   1.157   5.803   5.829
14446TIP3    H243282   1.243   5.706   5.751
14447TIP3   OH243283   4.330   7.042   5.607
14447TIP3    H143284   4.311   7.065   5.516
14447TIP3    H243285   4.314   7.122   5.656
14448TIP3   OH243286   4.411   3.522   3.719
14448TIP3    H143287   4.365   3.594   3.761
14448TIP3    H243288   4.408   3.451   3.782
14449TIP3   OH243289   0.067   1.625   0.869
14449TIP3    H143290   0.063   1.600   0.962
14449TIP3    H243291  -0.020   1.602   0.835
14450TIP3   OH243292   3.023   5.821   2.842
14450TIP3    H143293   2.987   5.733   2.857
14450TIP3    H243294   3.118   5.810   2.856
14451TIP3   OH243295   0.011   2.776   3.115
14451TIP3    H143296   0.082   2.752   3.174
14451TIP3    H243297   0.026   2.869   3.096
14452TIP3   OH243298   3.809   1.196   4.922
14452TIP3    H143299   3.900   1.167   4.930
14452TIP3    H243300   3.795   1.205   4.827
14453TIP3   OH243301   1.539   2.672   2.719
14453TIP3    H143302   1.568   2.630   2.800
14453TIP3    H243303   1.486   2.746   2.748
14454TIP3   OH243304   2.212   5.205   2.597
14454TIP3    H143305   2.191   5.281   2.542
14454TIP3    H243306   2.287   5.234   2.650
14455TIP3   OH243307   0.074   4.869   4.492
14455TIP3    H143308   0.047   4.961   4.491
14455TIP3    H243309   0.169   4.872   4.479
14456TIP3   OH243310   1.234   2.328   1.405
14456TIP3    H143311   1.153   2.374   1.430
14456TIP3    H243312   1.211   2.235   1.412
14457TIP3   OH243313   6.371   2.958   5.320
14457TIP3    H143314   6.312   2.930   5.390
14457TIP3    H243315   6.454   2.975   5.364
14458TIP3   OH243316   7.819   5.783   0.491
14458TIP3    H143317   7.852   5.866   0.525
14458TIP3    H243318   7.726   5.784   0.512
14459TIP3   OH243319   3.319   0.389   2.139
14459TIP3    H143320   3.399   0.395   2.086
14459TIP3    H243321   3.301   0.295   2.143
14460TIP3   OH243322   2.308   5.423   3.769
14460TIP3    H143323   2.223   5.423   3.812
14460TIP3    H243324   2.370   5.449   3.837
14461TIP3   OH243325   5.524   1.364   0.643
14461TIP3    H143326   5.569   1.314   0.712
14461TIP3    H243327   5.525   1.454   0.674
14462TIP3   OH243328   6.698   7.506   2.743
14462TIP3    H143329   6.706   7.596   2.775
14462TIP3    H243330   6.699   7.514   2.648
14463TIP3   OH243331   0.404   7.401   6.327
14463TIP3    H143332   0.459   7.422   6.251
14463TIP3    H243333   0.407   7.480   6.381
14464TIP3   OH243334   4.562   5.554   2.481
14464TIP3    H143335   4.621   5.587   2.414
14464TIP3    H243336   4.474   5.567   2.445
14465TIP3   OH243337   6.340   3.364   0.488
14465TIP3    H143338   6.360   3.278   0.451
14465TIP3    H243339   6.365   3.426   0.419
14466TIP3   OH243340   0.293   0.632   4.154
14466TIP3    H143341   0.342   0.672   4.082
14466TIP3    H243342   0.227   0.578   4.111
14467TIP3   OH243343   1.775   4.804   4.957
14467TIP3    H143344   1.809   4.858   5.028
14467TIP3    H243345   1.721   4.738   5.001
14468TIP3   OH243346   1.523   2.209   4.780
14468TIP3    H143347   1.466   2.164   4.842
14468TIP3    H243348   1.491   2.184   4.694
14469TIP3   OH243349   3.072   6.083   0.647
14469TIP3    H143350   3.017   6.032   0.706
14469TIP3    H243351   3.118   6.144   0.703
14470TIP3   OH243352   2.744   6.496   2.921
14470TIP3    H143353   2.688   6.454   2.856
14470TIP3    H243354   2.689   6.505   2.998
14471TIP3   OH243355   4.443   1.866   2.422
14471TIP3    H143356   4.461   1.778   2.456
14471TIP3    H243357   4.366   1.855   2.366
14472TIP3   OH243358   5.052   0.601   3.444
14472TIP3    H143359   4.970   0.586   3.491
14472TIP3    H243360   5.047   0.691   3.414
14473TIP3   OH243361   2.393   3.539   2.443
14473TIP3    H143362   2.320   3.593   2.475
14473TIP3    H243363   2.383   3.456   2.491
14474TIP3   OH243364   2.952   6.159   4.545
14474TIP3    H143365   3.045   6.139   4.541
14474TIP3    H243366   2.913   6.086   4.593
14475TIP3   OH243367   5.178   6.064   2.280
14475TIP3    H143368   5.100   6.029   2.325
14475TIP3    H243369   5.143   6.129   2.220
14476TIP3   OH243370   7.634   0.261   3.794
14476TIP3    H143371   7.642   0.315   3.715
14476TIP3    H243372   7.724   0.234   3.814
14477TIP3   OH243373   7.393   5.087   4.158
14477TIP3    H143374   7.322   5.103   4.220
14477TIP3    H243375   7.468   5.062   4.212
14478TIP3   OH243376   8.263   1.326   0.155
14478TIP3    H143377   8.314   1.285   0.226
14478TIP3    H243378   8.173   1.300   0.173
14479TIP3   OH243379   0.471   0.279   3.539
14479TIP3    H143380   0.459   0.368   3.570
14479TIP3    H243381   0.495   0.289   3.447
14480TIP3   OH243382   0.416   6.392   2.335
14480TIP3    H143383   0.382   6.335   2.404
14480TIP3    H243384   0.414   6.480   2.373
14481TIP3   OH243385   3.690   6.558   3.286
14481TIP3    H143386   3.711   6.582   3.195
14481TIP3    H243387   3.666   6.466   3.281
14482TIP3   OH243388   7.866   6.152   3.196
14482TIP3    H143389   7.944   6.205   3.210
14482TIP3    H243390   7.795   6.215   3.183
14483TIP3   OH243391   2.047   1.187   3.185
14483TIP3    H143392   2.104   1.258   3.214
14483TIP3    H243393   2.094   1.107   3.210
14484TIP3   OH243394   2.870   1.006   0.654
14484TIP3    H143395   2.928   1.066   0.605
14484TIP3    H243396   2.891   0.919   0.619
14485TIP3   OH243397   1.952   3.263   4.937
14485TIP3    H143398   1.971   3.272   4.844
14485TIP3    H243399   2.005   3.332   4.978
14486TIP3   OH243400   5.715   5.503   3.601
14486TIP3    H143401   5.730   5.410   3.584
14486TIP3    H243402   5.632   5.506   3.647
14487TIP3   OH243403   2.725   1.455   2.474
14487TIP3    H143404   2.667   1.530   2.482
14487TIP3    H243405   2.805   1.490   2.435
14488TIP3   OH243406   7.657   2.940   0.389
14488TIP3    H143407   7.647   3.014   0.328
14488TIP3    H243408   7.570   2.929   0.427
14489TIP3   OH243409   5.457   6.017   6.311
14489TIP3    H143410   5.366   6.047   6.312
14489TIP3    H243411   5.509   6.096   6.324
14490TIP3   OH243412   4.028   1.256   4.502
14490TIP3    H143413   4.099   1.252   4.438
14490TIP3    H243414   4.049   1.187   4.565
14491TIP3   OH243415   5.282   0.302   3.825
14491TIP3    H143416   5.311   0.264   3.908
14491TIP3    H243417   5.196   0.263   3.810
14492TIP3   OH243418   3.103   1.430   2.942
14492TIP3    H143419   3.084   1.386   2.858
14492TIP3    H243420   3.074   1.367   3.008
14493TIP3   OH243421   6.475   3.381   4.666
14493TIP3    H143422   6.386   3.351   4.649
14493TIP3    H243423   6.466   3.443   4.738
14494TIP3   OH243424   6.983   3.038   4.359
14494TIP3    H143425   6.898   3.022   4.399
14494TIP3    H243426   6.970   3.115   4.303
14495TIP3   OH243427   0.476   1.166   0.938
14495TIP3    H143428   0.413   1.232   0.909
14495TIP3    H243429   0.516   1.134   0.857
14496TIP3   OH243430   6.377   4.443   4.108
14496TIP3    H143431   6.281   4.446   4.104
14496TIP3    H243432   6.404   4.533   4.095
14497TIP3   OH243433   3.207   1.258   4.252
14497TIP3    H143434   3.177   1.327   4.192
14497TIP3    H243435   3.283   1.220   4.209
14498TIP3   OH243436   3.143   7.781   6.552
14498TIP3    H143437   3.197   7.737   6.487
14498TIP3    H243438   3.133   7.870   6.519
14499TIP3   OH243439   2.044   2.212   4.701
14499TIP3    H143440   2.017   2.139   4.645
14499TIP3    H243441   2.139   2.212   4.696
14500TIP3   OH243442   6.679   2.818   5.905
14500TIP3    H143443   6.623   2.810   5.982
14500TIP3    H243444   6.719   2.732   5.896
14501TIP3   OH243445   3.157   3.106   3.726
14501TIP3    H143446   3.108   3.189   3.733
14501TIP3    H243447   3.090   3.041   3.708
14502TIP3   OH243448   0.578   5.055   2.498
14502TIP3    H143449   0.519   5.083   2.568
14502TIP3    H243450   0.636   4.991   2.540
14503TIP3   OH243451   3.189   7.532   0.543
14503TIP3    H143452   3.159   7.588   0.615
14503TIP3    H243453   3.198   7.591   0.469
14504TIP3   OH243454   7.374   3.893   2.308
14504TIP3    H143455   7.364   3.797   2.306
14504TIP3    H243456   7.351   3.921   2.219
14505TIP3   OH243457   4.891   1.582   4.664
14505TIP3    H143458   4.884   1.599   4.758
14505TIP3    H243459   4.984   1.595   4.644
14506TIP3   OH243460   2.462   5.599   3.580
14506TIP3    H143461   2.412   5.604   3.499
14506TIP3    H243462   2.398   5.572   3.646
14507TIP3   OH243463   5.310   0.682   6.525
14507TIP3    H143464   5.262   0.600   6.532
14507TIP3    H243465   5.243   0.748   6.510
14508TIP3   OH243466   6.711   3.778   3.320
14508TIP3    H143467   6.786   3.820   3.363
14508TIP3    H243468   6.636   3.805   3.374
14509TIP3   OH243469   6.057   4.655   0.890
14509TIP3    H143470   6.029   4.604   0.815
14509TIP3    H243471   6.077   4.590   0.958
14510TIP3   OH243472   0.076   2.835   3.429
14510TIP3    H143473   0.127   2.911   3.456
14510TIP3    H243474   0.131   2.790   3.365
14511TIP3   OH243475   6.529   0.775   5.168
14511TIP3    H143476   6.521   0.692   5.215
14511TIP3    H243477   6.493   0.756   5.081
14512TIP3   OH243478   0.597   6.652   3.990
14512TIP3    H143479   0.503   6.661   3.973
14512TIP3    H243480   0.619   6.564   3.958
14513TIP3   OH243481   7.701   4.402   1.673
14513TIP3    H143482   7.712   4.369   1.763
14513TIP3    H243483   7.771   4.359   1.624
14514TIP3   OH243484   2.264   1.819   3.464
14514TIP3    H143485   2.216   1.883   3.517
14514TIP3    H243486   2.261   1.854   3.375
14515TIP3   OH243487   1.629   3.767   2.312
14515TIP3    H143488   1.539   3.782   2.339
14515TIP3    H243489   1.682   3.817   2.374
14516TIP3   OH243490   3.035   5.943   5.751
14516TIP3    H143491   3.001   5.945   5.661
14516TIP3    H243492   3.104   5.877   5.750
14517TIP3   OH243493   0.139   6.117   2.782
14517TIP3    H143494   0.113   6.090   2.870
14517TIP3    H243495   0.226   6.080   2.770
14518TIP3   OH243496   2.823   2.442   3.389
14518TIP3    H143497   2.883   2.482   3.326
14518TIP3    H243498   2.759   2.510   3.409
14519TIP3   OH243499   6.942   7.721   0.811
14519TIP3    H143500   6.984   7.724   0.898
14519TIP3    H243501   6.924   7.628   0.797
14520TIP3   OH243502   6.509   2.551   1.749
14520TIP3    H143503   6.604   2.553   1.756
14520TIP3    H243504   6.483   2.475   1.802
14521TIP3   OH243505   6.611   1.284   5.884
14521TIP3    H143506   6.567   1.199   5.874
14521TIP3    H243507   6.573   1.339   5.816
14522TIP3   OH243508   7.597   0.730   0.216
14522TIP3    H143509   7.512   0.773   0.223
14522TIP3    H243510   7.595   0.662   0.283
14523TIP3   OH243511   0.424   3.186   3.049
14523TIP3    H143512   0.334   3.217   3.041
14523TIP3    H243513   0.450   3.208   3.138
14524TIP3   OH243514   6.685   2.735   0.246
14524TIP3    H143515   6.781   2.727   0.241
14524TIP3    H243516   6.663   2.799   0.178
14525TIP3   OH243517   3.259   1.351   6.318
14525TIP3    H143518   3.241   1.397   6.236
14525TIP3    H243519   3.223   1.408   6.386
14526TIP3   OH243520   2.598   0.178   0.726
14526TIP3    H143521   2.515   0.149   0.689
14526TIP3    H243522   2.664   0.121   0.686
14527TIP3   OH243523   1.517   1.763   2.122
14527TIP3    H143524   1.433   1.718   2.121
14527TIP3    H243525   1.548   1.759   2.032
14528TIP3   OH243526   1.713   4.203   3.615
14528TIP3    H143527   1.724   4.298   3.617
14528TIP3    H243528   1.798   4.169   3.640
14529TIP3   OH243529   8.190   5.749   0.720
14529TIP3    H143530   8.251   5.675   0.712
14529TIP3    H243531   8.114   5.724   0.669
14530TIP3   OH243532   1.615   3.327   3.101
14530TIP3    H143533   1.594   3.416   3.073
14530TIP3    H243534   1.625   3.334   3.196
14531TIP3   OH243535   7.279   3.405   0.051
14531TIP3    H143536   7.189   3.394   0.021
14531TIP3    H243537   7.271   3.436   0.141
14532TIP3   OH243538   3.184   7.478   4.972
14532TIP3    H143539   3.192   7.492   5.066
14532TIP3    H243540   3.150   7.389   4.964
14533TIP3   OH243541   4.880   4.127   5.042
14533TIP3    H143542   4.790   4.152   5.062
14533TIP3    H243543   4.933   4.200   5.073
14534TIP3   OH243544   4.416   5.651   5.405
14534TIP3    H143545   4.441   5.615   5.490
14534TIP3    H243546   4.412   5.745   5.419
14535TIP3   OH243547   7.238   6.454   5.153
14535TIP3    H143548   7.250   6.362   5.177
14535TIP3    H243549   7.283   6.503   5.222
14536TIP3   OH243550   5.590   1.833   5.410
14536TIP3    H143551   5.618   1.742   5.404
14536TIP3    H243552   5.538   1.848   5.332
14537TIP3   OH243553   6.068   4.858   1.792
14537TIP3    H143554   6.039   4.918   1.860
14537TIP3    H243555   6.061   4.908   1.711
14538TIP3   OH243556   1.759   7.683   4.498
14538TIP3    H143557   1.839   7.691   4.550
14538TIP3    H243558   1.694   7.734   4.546
14539TIP3   OH243559   0.324   6.370   5.151
14539TIP3    H143560   0.234   6.357   5.183
14539TIP3    H243561   0.313   6.418   5.069
14540TIP3   OH243562   0.595   5.849   5.351
14540TIP3    H143563   0.654   5.775   5.363
14540TIP3    H243564   0.524   5.834   5.413
14541TIP3   OH243565   4.751   7.671   5.538
14541TIP3    H143566   4.659   7.671   5.564
14541TIP3    H243567   4.792   7.608   5.597
14542TIP3   OH243568   0.893   2.356   0.235
14542TIP3    H143569   0.905   2.358   0.330
14542TIP3    H243570   0.805   2.319   0.223
14543TIP3   OH243571   6.674   0.417   3.896
14543TIP3    H143572   6.603   0.397   3.957
14543TIP3    H243573   6.703   0.505   3.921
14544TIP3   OH243574   6.101   1.244   1.760
14544TIP3    H143575   6.179   1.285   1.725
14544TIP3    H243576   6.038   1.315   1.770
14545TIP3   OH243577   1.545   0.066   2.205
14545TIP3    H143578   1.628   0.018   2.202
14545TIP3    H243579   1.479   0.003   2.178
14546TIP3   OH243580   6.949   5.488   2.090
14546TIP3    H143581   7.001   5.414   2.058
14546TIP3    H243582   6.960   5.556   2.024
14547TIP3   OH243583   4.871   7.370   6.030
14547TIP3    H143584   4.918   7.297   5.988
14547TIP3    H243585   4.779   7.353   6.010
14548TIP3   OH243586   3.401   1.704   4.037
14548TIP3    H143587   3.471   1.769   4.039
14548TIP3    H243588   3.322   1.754   4.015
14549TIP3   OH243589   5.725   7.735   2.175
14549TIP3    H143590   5.803   7.761   2.126
14549TIP3    H243591   5.661   7.712   2.107
14550TIP3   OH243592   8.246   4.086   4.006
14550TIP3    H143593   8.265   4.171   4.044
14550TIP3    H243594   8.214   4.033   4.079
14551TIP3   OH243595   5.953   6.795   5.118
14551TIP3    H143596   6.024   6.787   5.055
14551TIP3    H243597   5.996   6.801   5.203
14552TIP3   OH243598   4.793   6.944   0.261
14552TIP3    H143599   4.855   6.906   0.198
14552TIP3    H243600   4.739   7.003   0.208
14553TIP3   OH243601   4.771   5.304   0.475
14553TIP3    H143602   4.778   5.336   0.385
14553TIP3    H243603   4.697   5.352   0.511
14554TIP3   OH243604   5.569   0.377   3.324
14554TIP3    H143605   5.509   0.303   3.313
14554TIP3    H243606   5.652   0.337   3.348
14555TIP3   OH243607   4.104   5.537   4.613
14555TIP3    H143608   4.037   5.604   4.601
14555TIP3    H243609   4.058   5.462   4.651
14556TIP3   OH243610   5.058   5.855   0.256
14556TIP3    H143611   5.142   5.855   0.210
14556TIP3    H243612   4.994   5.832   0.190
14557TIP3   OH243613   7.163   0.839   6.639
14557TIP3    H143614   7.233   0.775   6.646
14557TIP3    H243615   7.107   0.822   6.715
14558TIP3   OH243616   1.663   3.614   3.084
14558TIP3    H143617   1.602   3.624   3.156
14558TIP3    H243618   1.749   3.613   3.126
14559TIP3   OH243619   3.583   4.026   3.064
14559TIP3    H143620   3.676   4.003   3.055
14559TIP3    H243621   3.545   4.003   2.980
14560TIP3   OH243622   2.840   3.154   0.706
14560TIP3    H143623   2.884   3.108   0.634
14560TIP3    H243624   2.750   3.121   0.704
14561TIP3   OH243625   4.583   7.401   5.659
14561TIP3    H143626   4.658   7.460   5.646
14561TIP3    H243627   4.508   7.459   5.668
14562TIP3   OH243628   0.202   6.209   4.018
14562TIP3    H143629   0.206   6.156   4.099
14562TIP3    H243630   0.198   6.299   4.049
14563TIP3   OH243631   3.728   0.052   0.831
14563TIP3    H143632   3.662   0.021   0.893
14563TIP3    H243633   3.772   0.123   0.877
14564TIP3   OH243634   7.867   5.260   2.454
14564TIP3    H143635   7.882   5.346   2.414
14564TIP3    H243636   7.776   5.264   2.485
14565TIP3   OH243637   2.831   6.470   0.459
14565TIP3    H143638   2.897   6.401   0.451
14565TIP3    H243639   2.802   6.464   0.550
14566TIP3   OH243640   1.446   7.758   0.618
14566TIP3    H143641   1.401   7.730   0.538
14566TIP3    H243642   1.489   7.840   0.594
14567TIP3   OH243643   5.016   6.649   1.913
14567TIP3    H143644   5.003   6.744   1.910
14567TIP3    H243645   4.936   6.614   1.952
14568TIP3   OH243646   2.237   0.404   2.031
14568TIP3    H143647   2.273   0.346   1.964
14568TIP3    H243648   2.269   0.368   2.114
14569TIP3   OH243649   8.247   7.182   4.021
14569TIP3    H143650   8.317   7.200   3.959
14569TIP3    H243651   8.246   7.086   4.029
14570TIP3   OH243652   4.280   2.154   4.121
14570TIP3    H143653   4.348   2.219   4.106
14570TIP3    H243654   4.313   2.101   4.194
14571TIP3   OH243655   4.592   0.865   1.014
14571TIP3    H143656   4.601   0.810   0.936
14571TIP3    H243657   4.548   0.808   1.078
14572TIP3   OH243658   6.079   1.559   4.246
14572TIP3    H143659   6.109   1.551   4.336
14572TIP3    H243660   5.983   1.550   4.252
14573TIP3   OH243661   2.922   6.079   2.253
14573TIP3    H143662   2.870   6.091   2.332
14573TIP3    H243663   2.934   5.984   2.246
14574TIP3   OH243664   5.534   5.166   1.385
14574TIP3    H143665   5.541   5.262   1.377
14574TIP3    H243666   5.511   5.137   1.297
14575TIP3   OH243667   5.412   0.239   5.396
14575TIP3    H143668   5.402   0.156   5.443
14575TIP3    H243669   5.393   0.305   5.463
14576TIP3   OH243670   7.824   1.700   4.050
14576TIP3    H143671   7.838   1.624   4.107
14576TIP3    H243672   7.864   1.773   4.098
14577TIP3   OH243673   1.188   1.584   5.598
14577TIP3    H143674   1.175   1.638   5.676
14577TIP3    H243675   1.266   1.532   5.617
14578TIP3   OH243676   2.542   3.685   4.742
14578TIP3    H143677   2.500   3.770   4.728
14578TIP3    H243678   2.487   3.642   4.808
14579TIP3   OH243679   2.510   2.418   5.546
14579TIP3    H143680   2.429   2.367   5.544
14579TIP3    H243681   2.524   2.436   5.640
14580TIP3   OH243682   8.037   4.292   4.824
14580TIP3    H143683   8.014   4.258   4.737
14580TIP3    H243684   7.993   4.233   4.885
14581TIP3   OH243685   3.861   6.085   2.721
14581TIP3    H143686   3.908   6.006   2.749
14581TIP3    H243687   3.911   6.118   2.646
14582TIP3   OH243688   2.139   5.624   0.709
14582TIP3    H143689   2.191   5.553   0.747
14582TIP3    H243690   2.167   5.702   0.756
14583TIP3   OH243691   0.825   1.391   2.538
14583TIP3    H143692   0.907   1.426   2.505
14583TIP3    H243693   0.795   1.456   2.601
14584TIP3   OH243694   5.349   7.225   0.509
14584TIP3    H143695   5.293   7.244   0.434
14584TIP3    H243696   5.342   7.131   0.521
14585TIP3   OH243697   1.123   2.363   6.551
14585TIP3    H143698   1.174   2.332   6.626
14585TIP3    H243699   1.169   2.328   6.475
14586TIP3   OH243700   7.822   0.084   3.454
14586TIP3    H143701   7.880   0.068   3.380
14586TIP3    H243702   7.851   0.023   3.521
14587TIP3   OH243703   1.819   2.530   4.046
14587TIP3    H143704   1.838   2.538   3.952
14587TIP3    H243705   1.904   2.536   4.089
14588TIP3   OH243706   1.949   0.243   1.055
14588TIP3    H143707   1.963   0.164   1.003
14588TIP3    H243708   1.937   0.212   1.144
14589TIP3   OH243709   6.885   1.998   4.509
14589TIP3    H143710   6.810   2.047   4.477
14589TIP3    H243711   6.895   1.925   4.449
14590TIP3   OH243712   1.572   7.781   3.118
14590TIP3    H143713   1.562   7.690   3.090
14590TIP3    H243714   1.499   7.827   3.076
14591TIP3   OH243715   0.815   6.326   3.371
14591TIP3    H143716   0.852   6.315   3.459
14591TIP3    H243717   0.877   6.385   3.327
14592TIP3   OH243718   7.918   6.026   0.578
14592TIP3    H143719   7.991   6.022   0.516
14592TIP3    H243720   7.940   6.101   0.634
14593TIP3   OH243721   3.140   6.107   5.244
14593TIP3    H143722   3.150   6.102   5.149
14593TIP3    H243723   3.210   6.166   5.273
14594TIP3   OH243724   5.652   7.584   2.836
14594TIP3    H143725   5.739   7.586   2.877
14594TIP3    H243726   5.607   7.660   2.871
14595TIP3   OH243727   1.655   1.838   0.906
14595TIP3    H143728   1.684   1.798   0.988
14595TIP3    H243729   1.640   1.930   0.929
14596TIP3   OH243730   5.643   5.844   6.163
14596TIP3    H143731   5.605   5.780   6.223
14596TIP3    H243732   5.584   5.919   6.167
14597TIP3   OH243733   4.625   0.498   6.472
14597TIP3    H143734   4.642   0.537   6.558
14597TIP3    H243735   4.657   0.563   6.409
14598TIP3   OH243736   0.940   4.382   6.629
14598TIP3    H143737   0.942   4.427   6.545
14598TIP3    H243738   0.900   4.297   6.609
14599TIP3   OH243739   7.183   2.038   6.056
14599TIP3    H143740   7.219   2.056   6.143
14599TIP3    H243741   7.251   1.989   6.011
14600TIP3   OH243742   6.130   6.324   5.863
14600TIP3    H143743   6.223   6.339   5.881
14600TIP3    H243744   6.129   6.265   5.788
14601TIP3   OH243745   1.611   6.192   4.880
14601TIP3    H143746   1.654   6.239   4.808
14601TIP3    H243747   1.541   6.250   4.908
14602TIP3   OH243748   6.900   2.182   5.884
14602TIP3    H143749   6.914   2.228   5.966
14602TIP3    H243750   6.811   2.146   5.891
14603TIP3   OH243751   3.713   2.823   1.769
14603TIP3    H143752   3.716   2.840   1.675
14603TIP3    H243753   3.625   2.786   1.784
14604TIP3   OH243754   5.949   3.116   4.552
14604TIP3    H143755   6.040   3.089   4.541
14604TIP3    H243756   5.951   3.211   4.552
14605TIP3   OH243757   1.520   0.642   4.098
14605TIP3    H143758   1.444   0.655   4.042
14605TIP3    H243759   1.591   0.619   4.038
14606TIP3   OH243760   6.875   0.630   5.653
14606TIP3    H143761   6.792   0.629   5.701
14606TIP3    H243762   6.852   0.600   5.565
14607TIP3   OH243763   8.027   7.474   0.687
14607TIP3    H143764   8.069   7.418   0.752
14607TIP3    H243765   8.013   7.417   0.612
14608TIP3   OH243766   0.444   4.042   3.050
14608TIP3    H143767   0.402   4.097   2.985
14608TIP3    H243768   0.510   3.992   3.001
14609TIP3   OH243769   8.084   2.089   1.329
14609TIP3    H143770   8.023   2.116   1.397
14609TIP3    H243771   8.169   2.124   1.357
14610TIP3   OH243772   6.346   7.155   5.488
14610TIP3    H143773   6.410   7.113   5.546
14610TIP3    H243774   6.380   7.244   5.476
14611TIP3   OH243775   7.776   4.002   6.325
14611TIP3    H143776   7.682   4.022   6.332
14611TIP3    H243777   7.814   4.080   6.286
14612TIP3   OH243778   7.349   3.620   2.286
14612TIP3    H143779   7.389   3.576   2.361
14612TIP3    H243780   7.385   3.575   2.209
14613TIP3   OH243781   6.852   2.063   6.327
14613TIP3    H143782   6.848   2.065   6.423
14613TIP3    H243783   6.878   1.974   6.306
14614TIP3   OH243784   8.169   2.694   1.367
14614TIP3    H143785   8.245   2.722   1.315
14614TIP3    H243786   8.146   2.770   1.420
14615TIP3   OH243787   7.341   2.782   1.235
14615TIP3    H143788   7.248   2.783   1.256
14615TIP3    H243789   7.379   2.723   1.300
14616TIP3   OH243790   7.553   1.878   2.084
14616TIP3    H143791   7.471   1.892   2.037
14616TIP3    H243792   7.531   1.814   2.152
14617TIP3   OH243793   3.539   5.087   3.455
14617TIP3    H143794   3.454   5.045   3.466
14617TIP3    H243795   3.602   5.015   3.456
14618TIP3   OH243796   7.279   7.436   6.389
14618TIP3    H143797   7.310   7.354   6.428
14618TIP3    H243798   7.339   7.503   6.424
14619TIP3   OH243799   4.179   2.292   2.873
14619TIP3    H143800   4.201   2.244   2.954
14619TIP3    H243801   4.084   2.290   2.869
14620TIP3   OH243802   4.959   0.587   1.673
14620TIP3    H143803   5.011   0.509   1.693
14620TIP3    H243804   4.877   0.552   1.638
14621TIP3   OH243805   4.090   2.564   0.306
14621TIP3    H143806   4.113   2.657   0.299
14621TIP3    H243807   4.116   2.540   0.395
14622TIP3   OH243808   5.187   0.489   0.431
14622TIP3    H143809   5.158   0.407   0.471
14622TIP3    H243810   5.271   0.508   0.474
14623TIP3   OH243811   7.384   3.203   6.759
14623TIP3    H143812   7.339   3.132   6.712
14623TIP3    H243813   7.458   3.160   6.802
14624TIP3   OH243814   7.220   4.975   5.458
14624TIP3    H143815   7.153   4.940   5.517
14624TIP3    H243816   7.171   5.025   5.393
14625TIP3   OH243817   0.878   4.766   0.114
14625TIP3    H143818   0.878   4.771   0.210
14625TIP3    H243819   0.867   4.857   0.086
14626TIP3   OH243820   2.186   5.488   6.005
14626TIP3    H143821   2.104   5.521   6.041
14626TIP3    H243822   2.227   5.564   5.964
14627TIP3   OH243823   6.907   3.247   5.232
14627TIP3    H143824   6.967   3.321   5.225
14627TIP3    H243825   6.910   3.206   5.145
14628TIP3   OH243826   5.977   0.390   3.702
14628TIP3    H143827   6.000   0.468   3.753
14628TIP3    H243828   6.055   0.372   3.649
14629TIP3   OH243829   0.945   1.598   0.102
14629TIP3    H143830   0.955   1.504   0.118
14629TIP3    H243831   0.938   1.637   0.189
14630TIP3   OH243832   3.283   4.508   3.984
14630TIP3    H143833   3.326   4.523   4.068
14630TIP3    H243834   3.190   4.502   4.006
14631TIP3   OH243835   3.035   5.664   6.216
14631TIP3    H143836   2.944   5.666   6.187
14631TIP3    H243837   3.032   5.623   6.302
14632TIP3   OH243838   5.125   0.100   4.827
14632TIP3    H143839   5.088   0.162   4.889
14632TIP3    H243840   5.132   0.148   4.745
14633TIP3   OH243841   1.121   0.028   5.859
14633TIP3    H143842   1.081   0.094   5.802
14633TIP3    H243843   1.120  -0.053   5.807
14634TIP3   OH243844   3.508   4.544   0.488
14634TIP3    H143845   3.457   4.495   0.552
14634TIP3    H243846   3.457   4.540   0.407
14635TIP3   OH243847   4.882   1.615   2.579
14635TIP3    H143848   4.831   1.693   2.601
14635TIP3    H243849   4.946   1.607   2.649
14636TIP3   OH243850   0.589   1.071   2.238
14636TIP3    H143851   0.677   1.102   2.256
14636TIP3    H243852   0.545   1.072   2.323
14637TIP3   OH243853   6.237   4.779   2.006
14637TIP3    H143854   6.305   4.839   2.038
14637TIP3    H243855   6.200   4.825   1.930
14638TIP3   OH243856   2.501   1.369   5.086
14638TIP3    H143857   2.574   1.333   5.136
14638TIP3    H243858   2.542   1.419   5.016
14639TIP3   OH243859   6.264   0.107   0.128
14639TIP3    H143860   6.218   0.094   0.211
14639TIP3    H243861   6.229   0.189   0.094
14640TIP3   OH243862   3.885   1.962   0.303
14640TIP3    H143863   3.843   2.044   0.278
14640TIP3    H243864   3.890   1.912   0.221
14641TIP3   OH243865   7.721   0.569   3.831
14641TIP3    H143866   7.779   0.560   3.756
14641TIP3    H243867   7.637   0.595   3.793
14642TIP3   OH243868   0.069   5.471   0.193
14642TIP3    H143869   0.111   5.431   0.269
14642TIP3    H243870   0.106   5.559   0.190
14643TIP3   OH243871   4.047   7.115   1.268
14643TIP3    H143872   4.008   7.179   1.208
14643TIP3    H243873   4.081   7.047   1.211
14644TIP3   OH243874   5.144   6.647   5.295
14644TIP3    H143875   5.106   6.560   5.286
14644TIP3    H243876   5.077   6.706   5.261
14645TIP3   OH243877   6.164   0.641   1.317
14645TIP3    H143878   6.110   0.627   1.395
14645TIP3    H243879   6.201   0.728   1.329
14646TIP3   OH243880   5.086   0.935   5.096
14646TIP3    H143881   5.128   0.850   5.084
14646TIP3    H243882   5.064   0.963   5.007
14647TIP3   OH243883   2.304   2.286   5.323
14647TIP3    H143884   2.365   2.360   5.311
14647TIP3    H243885   2.254   2.283   5.241
14648TIP3   OH243886   5.241   4.481   5.244
14648TIP3    H143887   5.297   4.520   5.177
14648TIP3    H243888   5.258   4.533   5.323
14649TIP3   OH243889   6.888   0.161   5.079
14649TIP3    H143890   6.914   0.091   5.019
14649TIP3    H243891   6.884   0.239   5.024
14650TIP3   OH243892   4.544   7.810   2.191
14650TIP3    H143893   4.624   7.861   2.206
14650TIP3    H243894   4.568   7.748   2.122
14651TIP3   OH243895   6.828   0.313   2.784
14651TIP3    H143896   6.888   0.312   2.709
14651TIP3    H243897   6.795   0.223   2.789
14652TIP3   OH243898   3.919   2.775   4.979
14652TIP3    H143899   3.894   2.860   5.014
14652TIP3    H243900   3.909   2.715   5.053
14653TIP3   OH243901   2.846   5.337   2.012
14653TIP3    H143902   2.916   5.401   2.004
14653TIP3    H243903   2.778   5.368   1.952
14654TIP3   OH243904   1.053   0.009   4.016
14654TIP3    H143905   1.086   0.093   4.049
14654TIP3    H243906   1.088   0.003   3.927
14655TIP3   OH243907   8.148   1.926   4.156
14655TIP3    H143908   8.240   1.910   4.136
14655TIP3    H243909   8.146   2.017   4.188
14656TIP3   OH243910   3.798   0.480   1.956
14656TIP3    H143911   3.840   0.510   1.875
14656TIP3    H243912   3.871   0.456   2.014
14657TIP3   OH243913   0.598   1.240   4.757
14657TIP3    H143914   0.628   1.257   4.846
14657TIP3    H243915   0.502   1.244   4.763
14658TIP3   OH243916   3.425   3.731   5.777
14658TIP3    H143917   3.449   3.812   5.733
14658TIP3    H243918   3.394   3.760   5.863
14659TIP3   OH243919   4.391   5.811   1.056
14659TIP3    H143920   4.449   5.837   0.985
14659TIP3    H243921   4.313   5.777   1.013
14660TIP3   OH243922   2.121   1.447   5.685
14660TIP3    H143923   2.087   1.368   5.644
14660TIP3    H243924   2.045   1.489   5.723
14661TIP3   OH243925   3.952   2.074   2.113
14661TIP3    H143926   4.045   2.063   2.132
14661TIP3    H243927   3.935   2.014   2.041
14662TIP3   OH243928   8.269   1.180   4.718
14662TIP3    H143929   8.222   1.097   4.714
14662TIP3    H243930   8.360   1.156   4.736
14663TIP3   OH243931   6.937   4.235   1.786
14663TIP3    H143932   7.026   4.220   1.816
14663TIP3    H243933   6.888   4.158   1.814
14664TIP3   OH243934   6.146   1.695   0.502
14664TIP3    H143935   6.184   1.767   0.452
14664TIP3    H243936   6.084   1.736   0.562
14665TIP3   OH243937   8.142   0.173   1.993
14665TIP3    H143938   8.211   0.217   1.943
14665TIP3    H243939   8.066   0.174   1.936
14666TIP3   OH243940   0.822   2.266   6.359
14666TIP3    H143941   0.797   2.177   6.384
14666TIP3    H243942   0.746   2.299   6.310
14667TIP3   OH243943   4.040   0.886   2.747
14667TIP3    H143944   4.062   0.883   2.840
14667TIP3    H243945   3.995   0.803   2.730
14668TIP3   OH243946   4.892   4.212   6.403
14668TIP3    H143947   4.975   4.198   6.450
14668TIP3    H243948   4.885   4.307   6.396
14669TIP3   OH243949   0.103   4.334   0.083
14669TIP3    H143950   0.181   4.294   0.046
14669TIP3    H243951   0.060   4.375   0.008
14670TIP3   OH243952   1.801   2.289   6.565
14670TIP3    H143953   1.815   2.279   6.660
14670TIP3    H243954   1.779   2.382   6.555
14671TIP3   OH243955   0.813   1.832   4.145
14671TIP3    H143956   0.724   1.866   4.146
14671TIP3    H243957   0.857   1.880   4.075
14672TIP3   OH243958   8.078   1.601   2.935
14672TIP3    H143959   8.130   1.607   2.854
14672TIP3    H243960   8.137   1.633   3.003
14673TIP3   OH243961   1.717   2.448   2.300
14673TIP3    H143962   1.807   2.477   2.314
14673TIP3    H243963   1.725   2.359   2.267
14674TIP3   OH243964   5.984   4.108   3.992
14674TIP3    H143965   5.991   4.100   4.087
14674TIP3    H243966   6.068   4.077   3.959
14675TIP3   OH243967   2.312   4.252   5.786
14675TIP3    H143968   2.344   4.199   5.859
14675TIP3    H243969   2.257   4.193   5.735
14676TIP3   OH243970   6.506   5.147   5.803
14676TIP3    H143971   6.415   5.120   5.788
14676TIP3    H243972   6.555   5.108   5.731
14677TIP3   OH243973   6.047   6.287   6.688
14677TIP3    H143974   5.981   6.335   6.637
14677TIP3    H243975   6.103   6.247   6.622
14678TIP3   OH243976   6.455   1.052   5.221
14678TIP3    H143977   6.500   1.095   5.148
14678TIP3    H243978   6.470   0.958   5.205
14679TIP3   OH243979   6.956   6.123   6.725
14679TIP3    H143980   6.875   6.134   6.675
14679TIP3    H243981   7.020   6.176   6.677
14680TIP3   OH243982   5.426   1.744   0.552
14680TIP3    H143983   5.491   1.696   0.501
14680TIP3    H243984   5.376   1.677   0.597
14681TIP3   OH243985   5.920   0.305   4.900
14681TIP3    H143986   5.985   0.294   4.970
14681TIP3    H243987   5.889   0.217   4.882
14682TIP3   OH243988   7.321   2.648   4.487
14682TIP3    H143989   7.294   2.560   4.513
14682TIP3    H243990   7.277   2.706   4.549
14683TIP3   OH243991   1.546   3.217   1.913
14683TIP3    H143992   1.516   3.223   1.822
14683TIP3    H243993   1.477   3.169   1.958
14684TIP3   OH243994   0.960   5.848   5.605
14684TIP3    H143995   0.965   5.904   5.683
14684TIP3    H243996   0.921   5.904   5.538
14685TIP3   OH243997   7.738   7.416   3.587
14685TIP3    H143998   7.788   7.419   3.505
14685TIP3    H243999   7.796   7.372   3.649
14686TIP3   OH244000   1.517   4.215   5.499
14686TIP3    H144001   1.612   4.231   5.502
14686TIP3    H244002   1.503   4.144   5.561
14687TIP3   OH244003   7.320   2.328   0.511
14687TIP3    H144004   7.380   2.358   0.580
14687TIP3    H244005   7.328   2.394   0.442
14688TIP3   OH244006   2.294   3.480   1.229
14688TIP3    H144007   2.207   3.444   1.209
14688TIP3    H244008   2.278   3.540   1.302
14689TIP3   OH244009   7.540   6.836   1.418
14689TIP3    H144010   7.538   6.869   1.508
14689TIP3    H244011   7.532   6.914   1.364
14690TIP3   OH244012   5.241   5.026   3.760
14690TIP3    H144013   5.195   5.080   3.695
14690TIP3    H244014   5.230   5.074   3.842
14691TIP3   OH244015   0.022   1.972   0.662
14691TIP3    H144016  -0.060   1.923   0.669
14691TIP3    H244017   0.089   1.910   0.691
14692TIP3   OH244018   6.632   5.597   4.416
14692TIP3    H144019   6.592   5.528   4.468
14692TIP3    H244020   6.690   5.642   4.478
14693TIP3   OH244021   1.182   7.186   5.188
14693TIP3    H144022   1.195   7.148   5.101
14693TIP3    H244023   1.112   7.250   5.176
14694TIP3   OH244024   0.790   4.907   5.208
14694TIP3    H144025   0.695   4.898   5.206
14694TIP3    H244026   0.821   4.851   5.136
14695TIP3   OH244027   2.912   1.902   5.479
14695TIP3    H144028   2.851   1.925   5.409
14695TIP3    H244029   2.972   1.977   5.485
14696TIP3   OH244030   2.682   1.324   4.009
14696TIP3    H144031   2.707   1.335   3.917
14696TIP3    H244032   2.757   1.356   4.059
14697TIP3   OH244033   0.760   7.380   6.629
14697TIP3    H144034   0.824   7.401   6.698
14697TIP3    H244035   0.788   7.294   6.597
14698TIP3   OH244036   4.415   3.997   6.542
14698TIP3    H144037   4.455   3.984   6.628
14698TIP3    H244038   4.434   3.916   6.494
14699TIP3   OH244039   7.055   1.634   2.909
14699TIP3    H144040   7.035   1.689   2.984
14699TIP3    H244041   7.143   1.599   2.927
14700TIP3   OH244042   6.012   3.678   6.306
14700TIP3    H144043   6.050   3.613   6.246
14700TIP3    H244044   5.988   3.751   6.248
14701TIP3   OH244045   0.478   3.180   3.443
14701TIP3    H144046   0.444   3.243   3.506
14701TIP3    H244047   0.500   3.234   3.366
14702TIP3   OH244048   5.645   0.936   3.353
14702TIP3    H144049   5.717   0.979   3.400
14702TIP3    H244050   5.675   0.846   3.342
14703TIP3   OH244051   0.218   5.577   6.660
14703TIP3    H144052   0.227   5.482   6.666
14703TIP3    H244053   0.289   5.604   6.603
14704TIP3   OH244054   4.978   6.498   4.340
14704TIP3    H144055   4.904   6.451   4.299
14704TIP3    H244056   5.045   6.500   4.272
14705TIP3   OH244057   3.141   1.716   0.880
14705TIP3    H144058   3.163   1.758   0.797
14705TIP3    H244059   3.107   1.630   0.856
14706TIP3   OH244060   1.463   3.054   4.428
14706TIP3    H144061   1.515   3.117   4.379
14706TIP3    H244062   1.464   2.975   4.374
14707TIP3   OH244063   4.361   3.963   5.977
14707TIP3    H144064   4.286   4.013   5.944
14707TIP3    H244065   4.436   3.995   5.925
14708TIP3   OH244066   5.897   1.742   5.947
14708TIP3    H144067   5.941   1.661   5.920
14708TIP3    H244068   5.808   1.715   5.967
14709TIP3   OH244069   4.159   5.763   1.496
14709TIP3    H144070   4.096   5.836   1.499
14709TIP3    H244071   4.107   5.688   1.469
14710TIP3   OH244072   2.447   6.239   6.380
14710TIP3    H144073   2.429   6.184   6.304
14710TIP3    H244074   2.473   6.178   6.448
14711TIP3   OH244075   0.371   3.164   6.501
14711TIP3    H144076   0.351   3.103   6.572
14711TIP3    H244077   0.447   3.214   6.532
14712TIP3   OH244078   6.370   3.706   4.711
14712TIP3    H144079   6.431   3.758   4.658
14712TIP3    H244080   6.426   3.657   4.771
14713TIP3   OH244081   2.244   4.818   1.813
14713TIP3    H144082   2.285   4.905   1.815
14713TIP3    H244083   2.153   4.835   1.790
14714TIP3   OH244084   6.745   1.091   2.001
14714TIP3    H144085   6.663   1.130   1.974
14714TIP3    H244086   6.810   1.125   1.939
14715TIP3   OH244087   1.828   2.922   0.007
14715TIP3    H144088   1.752   2.917   0.064
14715TIP3    H244089   1.902   2.937   0.066
14716TIP3   OH244090   3.930   6.372   4.791
14716TIP3    H144091   3.871   6.325   4.732
14716TIP3    H244092   3.876   6.441   4.829
14717TIP3   OH244093   0.061   5.982   0.430
14717TIP3    H144094   0.064   6.047   0.360
14717TIP3    H244095  -0.020   6.002   0.478
14718TIP3   OH244096   0.990   0.436   6.287
14718TIP3    H144097   0.922   0.478   6.341
14718TIP3    H244098   1.071   0.453   6.334
14719TIP3   OH244099   0.392   2.943   6.706
14719TIP3    H144100   0.360   2.866   6.660
14719TIP3    H244101   0.463   2.911   6.762
14720TIP3   OH244102   7.260   0.576   2.827
14720TIP3    H144103   7.338   0.630   2.831
14720TIP3    H244104   7.189   0.638   2.810
14721TIP3   OH244105   2.971   7.753   2.471
14721TIP3    H144106   2.951   7.781   2.381
14721TIP3    H244107   2.886   7.756   2.515
14722TIP3   OH244108   1.245   4.121   5.229
14722TIP3    H144109   1.303   4.167   5.290
14722TIP3    H244110   1.252   4.170   5.147
14723TIP3   OH244111   6.385   1.637   2.361
14723TIP3    H144112   6.295   1.648   2.392
14723TIP3    H244113   6.379   1.572   2.292
14724TIP3   OH244114   0.800   3.745   1.400
14724TIP3    H144115   0.895   3.750   1.401
14724TIP3    H244116   0.774   3.762   1.491
14725TIP3   OH244117   1.809   2.128   4.538
14725TIP3    H144118   1.736   2.124   4.476
14725TIP3    H244119   1.863   2.052   4.516
14726TIP3   OH244120   4.469   1.723   4.035
14726TIP3    H144121   4.424   1.672   3.968
14726TIP3    H244122   4.465   1.669   4.114
14727TIP3   OH244123   1.161   4.491   1.450
14727TIP3    H144124   1.186   4.492   1.542
14727TIP3    H244125   1.178   4.401   1.421
14728TIP3   OH244126   2.122   6.598   3.466
14728TIP3    H144127   2.039   6.567   3.431
14728TIP3    H244128   2.098   6.639   3.550
14729TIP3   OH244129   4.577   0.873   5.985
14729TIP3    H144130   4.572   0.948   5.926
14729TIP3    H244131   4.662   0.833   5.966
14730TIP3   OH244132   5.945   3.663   4.823
14730TIP3    H144133   6.023   3.662   4.877
14730TIP3    H244134   5.901   3.745   4.844
14731TIP3   OH244135   6.728   7.453   5.505
14731TIP3    H144136   6.635   7.435   5.501
14731TIP3    H244137   6.762   7.426   5.420
14732TIP3   OH244138   4.750   0.317   1.044
14732TIP3    H144139   4.723   0.230   1.074
14732TIP3    H244140   4.843   0.308   1.026
14733TIP3   OH244141   3.005   2.778   6.136
14733TIP3    H144142   3.027   2.688   6.110
14733TIP3    H244143   2.977   2.771   6.227
14734TIP3   OH244144   1.735   6.537   4.247
14734TIP3    H144145   1.643   6.563   4.241
14734TIP3    H244146   1.775   6.574   4.168
14735TIP3   OH244147   2.702   4.068   3.194
14735TIP3    H144148   2.758   4.036   3.264
14735TIP3    H244149   2.666   3.988   3.153
14736TIP3   OH244150   7.005   7.578   0.139
14736TIP3    H144151   6.999   7.613   0.049
14736TIP3    H244152   6.954   7.497   0.136
14737TIP3   OH244153   6.549   4.944   1.054
14737TIP3    H144154   6.546   4.889   0.976
14737TIP3    H244155   6.562   4.882   1.126
14738TIP3   OH244156   1.764   3.837   2.691
14738TIP3    H144157   1.729   3.921   2.720
14738TIP3    H244158   1.686   3.781   2.683
14739TIP3   OH244159   8.182   1.320   6.443
14739TIP3    H144160   8.181   1.226   6.427
14739TIP3    H244161   8.220   1.358   6.364
14740TIP3   OH244162   3.022   6.916   1.264
14740TIP3    H144163   3.101   6.905   1.212
14740TIP3    H244164   3.018   7.010   1.282
14741TIP3   OH244165   5.317   4.623   6.524
14741TIP3    H144166   5.292   4.625   6.432
14741TIP3    H244167   5.339   4.714   6.545
14742TIP3   OH244168   1.146   4.954   3.943
14742TIP3    H144169   1.241   4.948   3.953
14742TIP3    H244170   1.119   5.021   4.005
14743TIP3   OH244171   5.122   2.476   6.112
14743TIP3    H144172   5.063   2.533   6.161
14743TIP3    H244173   5.079   2.390   6.112
14744TIP3   OH244174   7.174   6.299   3.490
14744TIP3    H144175   7.241   6.241   3.453
14744TIP3    H244176   7.169   6.372   3.429
14745TIP3   OH244177   5.786   4.950   5.924
14745TIP3    H144178   5.852   4.946   5.854
14745TIP3    H244179   5.822   5.013   5.987
14746TIP3   OH244180   2.622   6.931   1.407
14746TIP3    H144181   2.624   6.857   1.347
14746TIP3    H244182   2.674   6.902   1.482
14747TIP3   OH244183   7.250   3.842   5.275
14747TIP3    H144184   7.275   3.754   5.248
14747TIP3    H244185   7.265   3.844   5.369
14748TIP3   OH244186   4.824   2.184   4.068
14748TIP3    H144187   4.741   2.151   4.101
14748TIP3    H244188   4.805   2.274   4.040
14749TIP3   OH244189   6.251   5.623   2.021
14749TIP3    H144190   6.301   5.684   1.967
14749TIP3    H244191   6.312   5.596   2.090
14750TIP3   OH244192   6.578   4.079   0.022
14750TIP3    H144193   6.535   4.017   0.081
14750TIP3    H244194   6.626   4.138   0.080
14751TIP3   OH244195   3.269   3.044   6.437
14751TIP3    H144196   3.235   3.132   6.454
14751TIP3    H244197   3.294   3.045   6.345
14752TIP3   OH244198   4.347   6.119   3.046
14752TIP3    H144199   4.329   6.175   2.970
14752TIP3    H244200   4.382   6.038   3.008
14753TIP3   OH244201   1.229   3.640   2.446
14753TIP3    H144202   1.285   3.575   2.486
14753TIP3    H244203   1.195   3.598   2.367
14754TIP3   OH244204   6.650   1.466   6.121
14754TIP3    H144205   6.603   1.439   6.042
14754TIP3    H244206   6.683   1.554   6.100
14755TIP3   OH244207   1.815   7.754   3.475
14755TIP3    H144208   1.861   7.709   3.545
14755TIP3    H244209   1.878   7.818   3.442
14756TIP3   OH244210   8.085   7.209   6.668
14756TIP3    H144211   8.120   7.263   6.596
14756TIP3    H244212   8.025   7.268   6.714
14757TIP3   OH244213   1.156   7.285   6.240
14757TIP3    H144214   1.199   7.222   6.181
14757TIP3    H244215   1.093   7.330   6.184
14758TIP3   OH244216   7.482   6.237   5.537
14758TIP3    H144217   7.496   6.329   5.562
14758TIP3    H244218   7.501   6.234   5.443
14759TIP3   OH244219   5.568   2.704   6.062
14759TIP3    H144220   5.602   2.784   6.024
14759TIP3    H244221   5.645   2.663   6.103
14760TIP3   OH244222   0.697   1.184   4.314
14760TIP3    H144223   0.703   1.267   4.269
14760TIP3    H244224   0.786   1.150   4.315
14761TIP3   OH244225   1.088   3.458   2.268
14761TIP3    H144226   1.151   3.468   2.197
14761TIP3    H244227   1.031   3.386   2.239
14762TIP3   OH244228   6.955   3.016   2.876
14762TIP3    H144229   6.948   2.935   2.926
14762TIP3    H244230   6.888   3.073   2.914
14763TIP3   OH244231   7.403   6.899   0.282
14763TIP3    H144232   7.330   6.915   0.222
14763TIP3    H244233   7.386   6.956   0.357
14764TIP3   OH244234   3.468   0.246   3.263
14764TIP3    H144235   3.458   0.299   3.184
14764TIP3    H244236   3.452   0.306   3.335
14765TIP3   OH244237   6.560   2.406   2.365
14765TIP3    H144238   6.482   2.407   2.420
14765TIP3    H244239   6.575   2.314   2.345
14766TIP3   OH244240   1.169   2.887   3.730
14766TIP3    H144241   1.119   2.904   3.650
14766TIP3    H244242   1.260   2.899   3.705
14767TIP3   OH244243   1.684   5.562   4.762
14767TIP3    H144244   1.719   5.649   4.781
14767TIP3    H244245   1.592   5.577   4.743
14768TIP3   OH244246   4.635   2.707   0.898
14768TIP3    H144247   4.573   2.699   0.971
14768TIP3    H244248   4.696   2.635   0.912
14769TIP3   OH244249   4.207   1.780   0.204
14769TIP3    H144250   4.172   1.786   0.292
14769TIP3    H244251   4.135   1.745   0.151
14770TIP3   OH244252   1.501   1.257   6.449
14770TIP3    H144253   1.432   1.315   6.417
14770TIP3    H244254   1.541   1.305   6.521
14771TIP3   OH244255   3.707   7.165   5.177
14771TIP3    H144256   3.705   7.176   5.082
14771TIP3    H244257   3.669   7.246   5.211
14772TIP3   OH244258   6.196   6.340   0.237
14772TIP3    H144259   6.154   6.410   0.186
14772TIP3    H244260   6.286   6.338   0.205
14773TIP3   OH244261   6.917   5.546   3.181
14773TIP3    H144262   6.871   5.580   3.105
14773TIP3    H244263   6.866   5.469   3.208
14774TIP3   OH244264   6.321   3.628   5.767
14774TIP3    H144265   6.381   3.554   5.775
14774TIP3    H244266   6.350   3.676   5.689
14775TIP3   OH244267   1.221   5.063   6.352
14775TIP3    H144268   1.237   5.060   6.446
14775TIP3    H244269   1.166   4.988   6.333
14776TIP3   OH244270   5.219   4.839   5.436
14776TIP3    H144271   5.132   4.845   5.474
14776TIP3    H244272   5.247   4.930   5.424
14777TIP3   OH244273   5.647   0.870   0.187
14777TIP3    H144274   5.702   0.897   0.260
14777TIP3    H244275   5.686   0.912   0.110
14778TIP3   OH244276   2.243   2.182   1.367
14778TIP3    H144277   2.289   2.127   1.431
14778TIP3    H244278   2.155   2.145   1.362
14779TIP3   OH244279   0.197   1.170   2.359
14779TIP3    H144280   0.126   1.129   2.309
14779TIP3    H244281   0.199   1.260   2.329
14780TIP3   OH244282   2.900   0.302   5.141
14780TIP3    H144283   2.943   0.284   5.057
14780TIP3    H244284   2.950   0.374   5.178
14781TIP3   OH244285   7.828   1.263   4.859
14781TIP3    H144286   7.830   1.338   4.918
14781TIP3    H244287   7.780   1.294   4.782
14782TIP3   OH244288   4.070   2.929   3.805
14782TIP3    H144289   4.016   2.856   3.774
14782TIP3    H244290   4.008   2.986   3.851
14783TIP3   OH244291   5.348   6.871   6.571
14783TIP3    H144292   5.343   6.920   6.488
14783TIP3    H244293   5.277   6.807   6.565
14784TIP3   OH244294   4.815   3.244   1.715
14784TIP3    H144295   4.804   3.194   1.796
14784TIP3    H244296   4.851   3.328   1.745
14785TIP3   OH244297   6.707   0.302   4.249
14785TIP3    H144298   6.634   0.269   4.195
14785TIP3    H244299   6.669   0.375   4.297
14786TIP3   OH244300   6.127   2.021   4.195
14786TIP3    H144301   6.098   2.002   4.284
14786TIP3    H244302   6.104   2.113   4.182
14787TIP3   OH244303   1.727   2.594   0.758
14787TIP3    H144304   1.779   2.529   0.711
14787TIP3    H244305   1.789   2.665   0.777
14788TIP3   OH244306   2.908   4.152   4.116
14788TIP3    H144307   2.911   4.192   4.203
14788TIP3    H244308   2.823   4.178   4.081
14789TIP3   OH244309   6.269   6.520   1.933
14789TIP3    H144310   6.246   6.574   2.008
14789TIP3    H244311   6.355   6.551   1.906
14790TIP3   OH244312   8.166   2.088   0.236
14790TIP3    H144313   8.105   2.156   0.265
14790TIP3    H244314   8.132   2.060   0.151
14791TIP3   OH244315   1.553   0.492   5.507
14791TIP3    H144316   1.527   0.413   5.460
14791TIP3    H244317   1.642   0.475   5.535
14792TIP3   OH244318   7.663   5.205   2.786
14792TIP3    H144319   7.587   5.234   2.836
14792TIP3    H244320   7.632   5.198   2.696
14793TIP3   OH244321   5.481   6.288   0.333
14793TIP3    H144322   5.432   6.206   0.338
14793TIP3    H244323   5.573   6.260   0.333
14794TIP3   OH244324   1.197   2.599   0.564
14794TIP3    H144325   1.154   2.573   0.645
14794TIP3    H244326   1.197   2.694   0.567
14795TIP3   OH244327   6.708   3.674   1.677
14795TIP3    H144328   6.696   3.736   1.605
14795TIP3    H244329   6.624   3.674   1.723
14796TIP3   OH244330   1.228   0.563   0.834
14796TIP3    H144331   1.201   0.489   0.888
14796TIP3    H244332   1.160   0.629   0.848
14797TIP3   OH244333   7.420   6.557   2.012
14797TIP3    H144334   7.423   6.607   1.931
14797TIP3    H244335   7.395   6.468   1.985
14798TIP3   OH244336   6.666   0.663   5.910
14798TIP3    H144337   6.711   0.580   5.923
14798TIP3    H244338   6.574   0.640   5.902
14799TIP3   OH244339   7.548   7.573   0.224
14799TIP3    H144340   7.459   7.539   0.213
14799TIP3    H244341   7.539   7.668   0.219
14800TIP3   OH244342   5.247   4.531   4.139
14800TIP3    H144343   5.220   4.480   4.215
14800TIP3    H244344   5.330   4.491   4.112
14801TIP3   OH244345   3.322   6.553   5.050
14801TIP3    H144346   3.320   6.471   5.100
14801TIP3    H244347   3.348   6.620   5.113
14802TIP3   OH244348   5.019   2.680   3.122
14802TIP3    H144349   4.985   2.704   3.209
14802TIP3    H244350   5.003   2.757   3.068
14803TIP3   OH244351   7.298   2.604   6.034
14803TIP3    H144352   7.311   2.581   5.941
14803TIP3    H244353   7.316   2.522   6.081
14804TIP3   OH244354   2.475   4.719   4.870
14804TIP3    H144355   2.387   4.683   4.859
14804TIP3    H244356   2.506   4.682   4.953
14805TIP3   OH244357   5.071   5.291   6.656
14805TIP3    H144358   5.130   5.367   6.658
14805TIP3    H244359   5.072   5.258   6.746
14806TIP3   OH244360   7.321   5.942   0.417
14806TIP3    H144361   7.249   5.887   0.447
14806TIP3    H244362   7.307   6.026   0.461
14807TIP3   OH244363   4.301   5.654   5.849
14807TIP3    H144364   4.227   5.635   5.792
14807TIP3    H244365   4.328   5.569   5.884
14808TIP3   OH244366   2.167   1.772   0.481
14808TIP3    H144367   2.212   1.847   0.520
14808TIP3    H244368   2.129   1.725   0.555
14809TIP3   OH244369   7.085   0.305   5.448
14809TIP3    H144370   7.119   0.374   5.504
14809TIP3    H244371   7.119   0.326   5.361
14810TIP3   OH244372   7.535   3.033   2.311
14810TIP3    H144373   7.550   3.012   2.403
14810TIP3    H244374   7.608   2.991   2.265
14811TIP3   OH244375   4.006   2.169   4.064
14811TIP3    H144376   3.997   2.173   4.159
14811TIP3    H244377   4.098   2.143   4.050
14812TIP3   OH244378   3.011   3.202   3.466
14812TIP3    H144379   2.916   3.202   3.475
14812TIP3    H244380   3.027   3.253   3.386
14813TIP3   OH244381   2.410   5.945   6.396
14813TIP3    H144382   2.410   5.897   6.313
14813TIP3    H244383   2.318   5.954   6.419
14814TIP3   OH244384   1.305   7.255   1.994
14814TIP3    H144385   1.302   7.320   2.064
14814TIP3    H244386   1.301   7.305   1.913
14815TIP3   OH244387   1.209   6.741   1.211
14815TIP3    H144388   1.168   6.808   1.266
14815TIP3    H244389   1.261   6.790   1.147
14816TIP3   OH244390   5.111   0.835   6.122
14816TIP3    H144391   5.199   0.840   6.160
14816TIP3    H244392   5.052   0.848   6.196
14817TIP3   OH244393   4.062   0.527   5.262
14817TIP3    H144394   4.060   0.437   5.295
14817TIP3    H244395   4.008   0.525   5.183
14818TIP3   OH244396   3.918   3.447   4.030
14818TIP3    H144397   4.001   3.430   4.074
14818TIP3    H244398   3.940   3.448   3.937
14819TIP3   OH244399   0.377   6.859   5.629
14819TIP3    H144400   0.402   6.883   5.540
14819TIP3    H244401   0.459   6.833   5.671
14820TIP3   OH244402   7.286   0.527   6.432
14820TIP3    H144403   7.198   0.555   6.409
14820TIP3    H244404   7.303   0.564   6.518
14821TIP3   OH244405   3.393   5.554   5.364
14821TIP3    H144406   3.395   5.472   5.315
14821TIP3    H244407   3.303   5.561   5.395
14822TIP3   OH244408   2.417   5.045   4.536
14822TIP3    H144409   2.441   5.135   4.514
14822TIP3    H244410   2.333   5.052   4.581
14823TIP3   OH244411   0.855   6.644   2.112
14823TIP3    H144412   0.923   6.707   2.087
14823TIP3    H244413   0.900   6.580   2.167
14824TIP3   OH244414   7.407   1.318   3.628
14824TIP3    H144415   7.356   1.241   3.653
14824TIP3    H244416   7.443   1.350   3.711
14825TIP3   OH244417   3.068   1.151   6.407
14825TIP3    H144418   3.137   1.189   6.353
14825TIP3    H244419   3.019   1.226   6.440
14826TIP3   OH244420   7.866   0.546   3.593
14826TIP3    H144421   7.881   0.640   3.585
14826TIP3    H244422   7.953   0.508   3.602
14827TIP3   OH244423   6.501   2.588   2.776
14827TIP3    H144424   6.573   2.539   2.817
14827TIP3    H244425   6.463   2.639   2.847
14828TIP3   OH244426   0.350   0.025   3.608
14828TIP3    H144427   0.280   0.061   3.552
14828TIP3    H244428   0.420   0.090   3.603
14829TIP3   OH244429   7.657   4.950   5.989
14829TIP3    H144430   7.743   4.912   6.007
14829TIP3    H244431   7.643   4.936   5.895
14830TIP3   OH244432   7.378   5.624   3.290
14830TIP3    H144433   7.345   5.713   3.273
14830TIP3    H244434   7.311   5.567   3.252
   8.29158   7.81738   6.77004   0.00000   0.00000  -2.76386   0.00000  -2.76386  -3.90868
