Title t= 239.00000 step= 119500
29212
    1ASP      N    1   2.142   0.964   2.734
    1ASP    HT1    2   2.207   0.898   2.685
    1ASP    HT2    3   2.082   0.916   2.804
    1ASP    HT3    4   2.196   1.035   2.787
    1ASP     CA    5   2.056   1.021   2.627
    1ASP     HA    6   2.120   1.088   2.571
    1ASP     CB    7   1.991   0.899   2.547
    1ASP    HB1    8   1.925   0.948   2.472
    1ASP    HB2    9   1.928   0.835   2.612
    1ASP     CG   10   2.087   0.813   2.469
    1ASP    OD1   11   2.209   0.825   2.503
    1ASP    OD2   12   2.050   0.736   2.375
    1ASP      C   13   1.950   1.108   2.695
    1ASP      O   14   1.947   1.108   2.819
    2GLY      N   15   1.862   1.183   2.619
    2GLY     HN   16   1.871   1.184   2.520
    2GLY     CA   17   1.746   1.242   2.683
    2GLY    HA1   18   1.774   1.343   2.709
    2GLY    HA2   19   1.720   1.195   2.777
    2GLY      C   20   1.619   1.243   2.595
    2GLY      O   21   1.596   1.168   2.503
    3ASP      N   22   1.536   1.337   2.631
    3ASP     HN   23   1.548   1.386   2.717
    3ASP     CA   24   1.410   1.358   2.562
    3ASP     HA   25   1.415   1.309   2.465
    3ASP     CB   26   1.293   1.294   2.638
    3ASP    HB1   27   1.199   1.326   2.589
    3ASP    HB2   28   1.287   1.331   2.743
    3ASP     CG   29   1.280   1.139   2.630
    3ASP    OD1   30   1.215   1.077   2.720
    3ASP    OD2   31   1.315   1.082   2.529
    3ASP      C   32   1.380   1.506   2.521
    3ASP      O   33   1.404   1.603   2.589
    4GLY      N   34   1.340   1.526   2.392
    4GLY     HN   35   1.351   1.456   2.322
    4GLY     CA   36   1.297   1.657   2.348
    4GLY    HA1   37   1.299   1.651   2.240
    4GLY    HA2   38   1.367   1.730   2.385
    4GLY      C   39   1.157   1.704   2.397
    4GLY      O   40   1.105   1.661   2.500
    5PRO      N   41   1.096   1.805   2.332
    5PRO     CD   42   1.162   1.872   2.223
    5PRO    HD1   43   1.176   1.810   2.132
    5PRO    HD2   44   1.257   1.918   2.258
    5PRO     CA   45   0.993   1.888   2.395
    5PRO     HA   46   1.010   1.900   2.501
    5PRO     CB   47   1.011   2.021   2.321
    5PRO    HB1   48   1.086   2.080   2.379
    5PRO    HB2   49   0.922   2.085   2.302
    5PRO     CG   50   1.062   1.983   2.185
    5PRO    HG1   51   0.980   1.946   2.120
    5PRO    HG2   52   1.115   2.062   2.129
    5PRO      C   53   0.851   1.835   2.379
    5PRO      O   54   0.782   1.860   2.282
    6GLY      N   55   0.798   1.752   2.469
    6GLY     HN   56   0.844   1.724   2.554
    6GLY     CA   57   0.660   1.704   2.479
    6GLY    HA1   58   0.676   1.614   2.537
    6GLY    HA2   59   0.614   1.704   2.381
    6GLY      C   60   0.555   1.788   2.553
    6GLY      O   61   0.563   1.907   2.583
    7ASP      N   62   0.451   1.720   2.590
    7ASP     HN   63   0.444   1.624   2.563
    7ASP     CA   64   0.335   1.773   2.667
    7ASP     HA   65   0.296   1.856   2.610
    7ASP     CB   66   0.218   1.668   2.673
    7ASP    HB1   67   0.131   1.700   2.734
    7ASP    HB2   68   0.258   1.572   2.713
    7ASP     CG   69   0.169   1.630   2.542
    7ASP    OD1   70   0.095   1.526   2.544
    7ASP    OD2   71   0.182   1.695   2.436
    7ASP      C   72   0.372   1.816   2.815
    7ASP      O   73   0.445   1.740   2.878
    8PRO      N   74   0.322   1.930   2.869
    8PRO     CD   75   0.246   2.026   2.794
    8PRO    HD1   76   0.149   1.972   2.782
    8PRO    HD2   77   0.303   2.037   2.699
    8PRO     CA   78   0.325   1.966   3.006
    8PRO     HA   79   0.425   2.000   3.029
    8PRO     CB   80   0.227   2.083   3.020
    8PRO    HB1   81   0.256   2.145   3.108
    8PRO    HB2   82   0.125   2.041   3.035
    8PRO     CG   83   0.238   2.149   2.880
    8PRO    HG1   84   0.152   2.209   2.843
    8PRO    HG2   85   0.325   2.217   2.873
    8PRO      C   86   0.311   1.857   3.113
    8PRO      O   87   0.217   1.774   3.111
    9GLY      N   88   0.399   1.852   3.208
    9GLY     HN   89   0.482   1.907   3.198
    9GLY     CA   90   0.407   1.760   3.328
    9GLY    HA1   91   0.449   1.664   3.301
    9GLY    HA2   92   0.303   1.744   3.352
    9GLY      C   93   0.482   1.831   3.439
    9GLY      O   94   0.458   1.948   3.464
   10ASP      N   95   0.558   1.750   3.519
   10ASP     HN   96   0.555   1.650   3.516
   10ASP     CA   97   0.641   1.797   3.624
   10ASP     HA   98   0.586   1.875   3.674
   10ASP     CB   99   0.684   1.678   3.706
   10ASP    HB1  100   0.746   1.702   3.796
   10ASP    HB2  101   0.738   1.604   3.644
   10ASP     CG  102   0.571   1.597   3.772
   10ASP    OD1  103   0.588   1.480   3.806
   10ASP    OD2  104   0.457   1.647   3.787
   10ASP      C  105   0.766   1.873   3.576
   10ASP      O  106   0.816   1.964   3.647
   11GLY      N  107   0.830   1.834   3.464
   11GLY     HN  108   0.788   1.762   3.409
   11GLY     CA  109   0.968   1.881   3.419
   11GLY    HA1  110   0.991   1.984   3.442
   11GLY    HA2  111   0.961   1.868   3.312
   11GLY      C  112   1.077   1.787   3.482
   11GLY    OT1  113   1.087   1.672   3.444
   11GLY    OT2  114   1.166   1.843   3.557
   12LIT    LIT  115   5.454   5.409   2.001
   13LIT    LIT  116   2.930   2.708   5.373
   14LIT    LIT  117   4.527   0.130   0.321
   15LIT    LIT  118   3.037   2.150   3.166
   16LIT    LIT  119   1.247   1.664   3.565
   17LIT    LIT  120   1.903   5.533   5.578
   18LIT    LIT  121   2.084   1.119   4.979
   19LIT    LIT  122   2.508   6.660   1.311
   20LIT    LIT  123   0.151   3.411   2.869
   21LIT    LIT  124   2.916   0.622   5.139
   22LIT    LIT  125   3.746   5.380   0.198
   23LIT    LIT  126   4.094   4.403   5.689
   24LIT    LIT  127   0.006   4.568   2.111
   25LIT    LIT  128   6.761   1.699   2.181
   26LIT    LIT  129   0.394   1.474   3.834
   27LIT    LIT  130   4.138   1.396   4.364
   28LIT    LIT  131   6.840   5.346   5.660
   29LIT    LIT  132   0.617   2.672   2.812
   30LIT    LIT  133   6.624   2.616   1.258
   31LIT    LIT  134   4.444   1.026   2.383
   32LIT    LIT  135   5.943   1.478   0.592
   33LIT    LIT  136   4.242   3.393   1.771
   34LIT    LIT  137   5.203   1.845   5.090
   35LIT    LIT  138   0.889   2.134   1.675
   36LIT    LIT  139   4.177   2.909   5.711
   37LIT    LIT  140   3.625   4.114   1.258
   38LIT    LIT  141   1.397   4.199   0.019
   39LIT    LIT  142   2.231   0.672   2.374
   40LIT    LIT  143   5.380   0.688   2.812
   41LIT    LIT  144   3.409   1.412   4.287
   42LIT    LIT  145   1.479   1.040   2.445
   43CLA    CLA  146   5.173   0.689   2.701
   44CLA    CLA  147   7.029   1.809   3.418
   45CLA    CLA  148   3.300   2.127   5.139
   46CLA    CLA  149   5.316   4.696   0.195
   47CLA    CLA  150   5.903   0.999   1.721
   48CLA    CLA  151   3.433   3.427   4.549
   49CLA    CLA  152   4.465   3.976   1.841
   50CLA    CLA  153   5.148   6.401   0.407
   51CLA    CLA  154   5.656   2.227   0.285
   52CLA    CLA  155   2.109   1.490   1.416
   53CLA    CLA  156   4.696   3.838   3.088
   54CLA    CLA  157   4.852   2.379   2.707
   55CLA    CLA  158   0.428   2.683   4.911
   56CLA    CLA  159   0.220   2.866   1.426
   57CLA    CLA  160   6.302   0.528   3.791
   58CLA    CLA  161   4.218   3.174   1.754
   59CLA    CLA  162   6.118   4.819   4.418
   60CLA    CLA  163   2.090   1.845   5.043
   61CLA    CLA  164   0.043   6.772   0.715
   62CLA    CLA  165   2.731   6.356   0.843
   63CLA    CLA  166   1.982   0.825   3.191
   64CLA    CLA  167   3.811   1.589   0.275
   65CLA    CLA  168   6.261   4.106   2.928
   66CLA    CLA  169   1.613   0.851   4.644
   67CLA    CLA  170   5.122   3.163   1.781
   68CLA    CLA  171   1.494   2.993   1.710
   69CLA    CLA  172   4.560   4.899   0.835
   70TIP3   OH2  173   1.003   6.003   5.749
   70TIP3    H1  174   1.008   6.047   5.664
   70TIP3    H2  175   1.029   5.913   5.731
   71TIP3   OH2  176   2.238   6.600   3.576
   71TIP3    H1  177   2.233   6.603   3.671
   71TIP3    H2  178   2.311   6.541   3.558
   72TIP3   OH2  179   3.455   2.469   5.649
   72TIP3    H1  180   3.408   2.537   5.600
   72TIP3    H2  181   3.402   2.454   5.727
   73TIP3   OH2  182   4.262   3.240   1.331
   73TIP3    H1  183   4.300   3.233   1.243
   73TIP3    H2  184   4.336   3.259   1.388
   74TIP3   OH2  185   5.218   4.239   2.738
   74TIP3    H1  186   5.224   4.184   2.660
   74TIP3    H2  187   5.299   4.291   2.737
   75TIP3   OH2  188   4.677   3.733   1.706
   75TIP3    H1  189   4.769   3.758   1.694
   75TIP3    H2  190   4.632   3.816   1.722
   76TIP3   OH2  191   4.178   6.746   5.237
   76TIP3    H1  192   4.261   6.745   5.189
   76TIP3    H2  193   4.182   6.825   5.290
   77TIP3   OH2  194   3.357   2.060   2.014
   77TIP3    H1  195   3.312   2.068   2.098
   77TIP3    H2  196   3.438   2.110   2.024
   78TIP3   OH2  197   6.303   1.089   4.605
   78TIP3    H1  198   6.253   1.128   4.533
   78TIP3    H2  199   6.252   1.013   4.631
   79TIP3   OH2  200   1.236   4.748   5.886
   79TIP3    H1  201   1.232   4.744   5.790
   79TIP3    H2  202   1.221   4.840   5.907
   80TIP3   OH2  203   3.970   1.608   0.790
   80TIP3    H1  204   3.989   1.544   0.859
   80TIP3    H2  205   3.911   1.563   0.730
   81TIP3   OH2  206   6.369   1.943   4.996
   81TIP3    H1  207   6.461   1.931   4.975
   81TIP3    H2  208   6.345   1.865   5.047
   82TIP3   OH2  209   4.412   4.979   3.485
   82TIP3    H1  210   4.471   4.940   3.549
   82TIP3    H2  211   4.332   4.999   3.535
   83TIP3   OH2  212   6.353   3.328   1.858
   83TIP3    H1  213   6.315   3.411   1.885
   83TIP3    H2  214   6.336   3.269   1.932
   84TIP3   OH2  215   5.812   5.305   1.590
   84TIP3    H1  216   5.757   5.313   1.512
   84TIP3    H2  217   5.814   5.211   1.609
   85TIP3   OH2  218   4.821   2.091   3.469
   85TIP3    H1  219   4.866   2.164   3.510
   85TIP3    H2  220   4.776   2.046   3.541
   86TIP3   OH2  221   6.583   0.789   3.419
   86TIP3    H1  222   6.527   0.713   3.407
   86TIP3    H2  223   6.640   0.790   3.342
   87TIP3   OH2  224   3.211   1.158   2.451
   87TIP3    H1  225   3.185   1.066   2.456
   87TIP3    H2  226   3.136   1.201   2.410
   88TIP3   OH2  227   0.020   4.408   5.382
   88TIP3    H1  228   0.108   4.372   5.393
   88TIP3    H2  229  -0.034   4.355   5.441
   89TIP3   OH2  230   0.869   4.897   3.141
   89TIP3    H1  231   0.881   4.853   3.225
   89TIP3    H2  232   0.774   4.903   3.131
   90TIP3   OH2  233   6.209   1.089   3.829
   90TIP3    H1  234   6.222   1.055   3.740
   90TIP3    H2  235   6.133   1.147   3.822
   91TIP3   OH2  236   0.290   2.607   4.162
   91TIP3    H1  237   0.301   2.515   4.138
   91TIP3    H2  238   0.257   2.605   4.252
   92TIP3   OH2  239   1.464   5.361   1.503
   92TIP3    H1  240   1.490   5.442   1.459
   92TIP3    H2  241   1.400   5.321   1.445
   93TIP3   OH2  242   0.093   4.193   3.690
   93TIP3    H1  243   0.136   4.267   3.732
   93TIP3    H2  244   0.155   4.120   3.699
   94TIP3   OH2  245   5.041   2.646   2.728
   94TIP3    H1  246   5.025   2.552   2.718
   94TIP3    H2  247   4.963   2.688   2.693
   95TIP3   OH2  248   6.133   1.934   0.412
   95TIP3    H1  249   6.067   1.894   0.469
   95TIP3    H2  250   6.089   2.011   0.376
   96TIP3   OH2  251   0.083   1.669   2.187
   96TIP3    H1  252   0.062   1.576   2.192
   96TIP3    H2  253   0.127   1.688   2.271
   97TIP3   OH2  254   6.168   0.828   5.718
   97TIP3    H1  255   6.079   0.860   5.702
   97TIP3    H2  256   6.197   0.796   5.632
   98TIP3   OH2  257   0.790   1.143   0.767
   98TIP3    H1  258   0.700   1.131   0.799
   98TIP3    H2  259   0.840   1.073   0.809
   99TIP3   OH2  260   1.564   3.961   0.663
   99TIP3    H1  261   1.613   4.034   0.702
   99TIP3    H2  262   1.629   3.913   0.612
  100TIP3   OH2  263   5.221   4.721   1.291
  100TIP3    H1  264   5.271   4.658   1.239
  100TIP3    H2  265   5.174   4.668   1.355
  101TIP3   OH2  266   2.480   3.786   3.241
  101TIP3    H1  267   2.400   3.758   3.285
  101TIP3    H2  268   2.493   3.721   3.172
  102TIP3   OH2  269   2.288   2.114   1.614
  102TIP3    H1  270   2.305   2.208   1.618
  102TIP3    H2  271   2.328   2.086   1.531
  103TIP3   OH2  272   5.545   5.564   2.131
  103TIP3    H1  273   5.501   5.642   2.166
  103TIP3    H2  274   5.638   5.587   2.129
  104TIP3   OH2  275   2.264   6.713   5.795
  104TIP3    H1  276   2.253   6.621   5.815
  104TIP3    H2  277   2.252   6.719   5.700
  105TIP3   OH2  278   5.391   4.830   1.495
  105TIP3    H1  279   5.330   4.780   1.441
  105TIP3    H2  280   5.472   4.778   1.495
  106TIP3   OH2  281   2.668   1.325   5.199
  106TIP3    H1  282   2.707   1.412   5.207
  106TIP3    H2  283   2.647   1.300   5.288
  107TIP3   OH2  284   4.890   0.621   1.475
  107TIP3    H1  285   4.908   0.687   1.543
  107TIP3    H2  286   4.836   0.556   1.519
  108TIP3   OH2  287   2.487   1.196   1.194
  108TIP3    H1  288   2.482   1.291   1.192
  108TIP3    H2  289   2.527   1.172   1.110
  109TIP3   OH2  290   0.195   6.690   1.400
  109TIP3    H1  291   0.179   6.782   1.422
  109TIP3    H2  292   0.114   6.661   1.358
  110TIP3   OH2  293   2.426   0.667   1.713
  110TIP3    H1  294   2.379   0.617   1.647
  110TIP3    H2  295   2.479   0.603   1.760
  111TIP3   OH2  296   1.581   2.921   3.440
  111TIP3    H1  297   1.572   2.951   3.350
  111TIP3    H2  298   1.497   2.944   3.481
  112TIP3   OH2  299   7.165   0.728   4.648
  112TIP3    H1  300   7.098   0.685   4.701
  112TIP3    H2  301   7.154   0.689   4.561
  113TIP3   OH2  302   7.193   0.240   2.311
  113TIP3    H1  303   7.204   0.150   2.342
  113TIP3    H2  304   7.145   0.283   2.382
  114TIP3   OH2  305   1.078   6.150   4.488
  114TIP3    H1  306   1.080   6.105   4.404
  114TIP3    H2  307   0.990   6.188   4.493
  115TIP3   OH2  308   3.972   0.923   5.067
  115TIP3    H1  309   3.991   0.846   5.015
  115TIP3    H2  310   3.899   0.897   5.123
  116TIP3   OH2  311   4.082   3.665   2.752
  116TIP3    H1  312   4.100   3.704   2.667
  116TIP3    H2  313   4.165   3.667   2.799
  117TIP3   OH2  314   3.464   5.646   1.581
  117TIP3    H1  315   3.393   5.695   1.623
  117TIP3    H2  316   3.505   5.709   1.521
  118TIP3   OH2  317   6.680   3.566   2.406
  118TIP3    H1  318   6.619   3.493   2.400
  118TIP3    H2  319   6.640   3.636   2.355
  119TIP3   OH2  320   4.980   3.842   5.329
  119TIP3    H1  321   5.000   3.883   5.245
  119TIP3    H2  322   4.886   3.825   5.326
  120TIP3   OH2  323   6.396   1.897   2.128
  120TIP3    H1  324   6.449   1.962   2.081
  120TIP3    H2  325   6.345   1.948   2.191
  121TIP3   OH2  326   1.689   0.133   1.437
  121TIP3    H1  327   1.767   0.184   1.457
  121TIP3    H2  328   1.620   0.173   1.490
  122TIP3   OH2  329   3.896   1.848   4.197
  122TIP3    H1  330   3.903   1.835   4.102
  122TIP3    H2  331   3.818   1.902   4.207
  123TIP3   OH2  332   2.003   6.453   4.389
  123TIP3    H1  333   2.075   6.514   4.406
  123TIP3    H2  334   1.980   6.468   4.298
  124TIP3   OH2  335   0.851   4.246  -0.003
  124TIP3    H1  336   0.911   4.298  -0.057
  124TIP3    H2  337   0.807   4.188  -0.064
  125TIP3   OH2  338   5.581   1.522   2.521
  125TIP3    H1  339   5.567   1.582   2.594
  125TIP3    H2  340   5.674   1.531   2.500
  126TIP3   OH2  341   2.697   0.667   3.829
  126TIP3    H1  342   2.735   0.701   3.748
  126TIP3    H2  343   2.634   0.734   3.856
  127TIP3   OH2  344   2.091   3.350   0.368
  127TIP3    H1  345   2.154   3.299   0.419
  127TIP3    H2  346   2.054   3.287   0.306
  128TIP3   OH2  347   3.410   2.832   1.970
  128TIP3    H1  348   3.392   2.895   1.901
  128TIP3    H2  349   3.336   2.772   1.969
  129TIP3   OH2  350   1.568   1.742   3.811
  129TIP3    H1  351   1.553   1.648   3.804
  129TIP3    H2  352   1.648   1.749   3.864
  130TIP3   OH2  353   3.738   1.516  -0.008
  130TIP3    H1  354   3.774   1.533   0.079
  130TIP3    H2  355   3.674   1.586  -0.022
  131TIP3   OH2  356   7.232   6.017   5.629
  131TIP3    H1  357   7.201   6.038   5.718
  131TIP3    H2  358   7.173   6.065   5.571
  132TIP3   OH2  359   6.343   0.308   4.424
  132TIP3    H1  360   6.423   0.275   4.465
  132TIP3    H2  361   6.359   0.300   4.330
  133TIP3   OH2  362   5.766   1.073   2.815
  133TIP3    H1  363   5.745   1.122   2.895
  133TIP3    H2  364   5.693   1.091   2.756
  134TIP3   OH2  365   0.759   1.990   1.649
  134TIP3    H1  366   0.682   1.953   1.692
  134TIP3    H2  367   0.775   1.933   1.574
  135TIP3   OH2  368   4.490   4.817   2.612
  135TIP3    H1  369   4.537   4.864   2.680
  135TIP3    H2  370   4.507   4.724   2.631
  136TIP3   OH2  371   3.108   0.419   0.250
  136TIP3    H1  372   3.075   0.426   0.340
  136TIP3    H2  373   3.140   0.329   0.243
  137TIP3   OH2  374   2.957   1.592   0.030
  137TIP3    H1  375   2.869   1.571   0.061
  137TIP3    H2  376   3.009   1.514   0.051
  138TIP3   OH2  377   6.484   0.828   2.111
  138TIP3    H1  378   6.424   0.893   2.075
  138TIP3    H2  379   6.507   0.772   2.036
  139TIP3   OH2  380   0.158   2.753   4.712
  139TIP3    H1  381   0.245   2.742   4.750
  139TIP3    H2  382   0.118   2.667   4.717
  140TIP3   OH2  383   2.290   2.853   3.771
  140TIP3    H1  384   2.340   2.780   3.735
  140TIP3    H2  385   2.211   2.813   3.807
  141TIP3   OH2  386   0.628   0.671   2.149
  141TIP3    H1  387   0.585   0.719   2.219
  141TIP3    H2  388   0.556   0.629   2.101
  142TIP3   OH2  389   2.012   1.545   4.954
  142TIP3    H1  390   1.938   1.551   5.014
  142TIP3    H2  391   2.026   1.635   4.923
  143TIP3   OH2  392   0.033   5.514   1.995
  143TIP3    H1  393   0.040   5.422   2.021
  143TIP3    H2  394   0.106   5.557   2.040
  144TIP3   OH2  395   6.831   3.854   4.708
  144TIP3    H1  396   6.926   3.866   4.704
  144TIP3    H2  397   6.811   3.791   4.640
  145TIP3   OH2  398   1.339   3.071   0.078
  145TIP3    H1  399   1.408   3.135   0.094
  145TIP3    H2  400   1.321   3.034   0.165
  146TIP3   OH2  401   2.849   5.606   0.442
  146TIP3    H1  402   2.933   5.580   0.403
  146TIP3    H2  403   2.817   5.527   0.485
  147TIP3   OH2  404   3.912   0.948   3.318
  147TIP3    H1  405   3.949   0.986   3.238
  147TIP3    H2  406   3.871   1.021   3.363
  148TIP3   OH2  407   6.699   4.762   0.555
  148TIP3    H1  408   6.662   4.812   0.483
  148TIP3    H2  409   6.633   4.694   0.574
  149TIP3   OH2  410   5.161   6.048   2.715
  149TIP3    H1  411   5.128   6.000   2.791
  149TIP3    H2  412   5.105   6.125   2.709
  150TIP3   OH2  413   1.165   6.586   0.982
  150TIP3    H1  414   1.204   6.674   0.979
  150TIP3    H2  415   1.146   6.566   0.890
  151TIP3   OH2  416   1.708   5.235   3.145
  151TIP3    H1  417   1.725   5.317   3.098
  151TIP3    H2  418   1.639   5.257   3.207
  152TIP3   OH2  419   4.475   3.759   4.751
  152TIP3    H1  420   4.547   3.706   4.716
  152TIP3    H2  421   4.409   3.695   4.776
  153TIP3   OH2  422   1.420   1.924   4.242
  153TIP3    H1  423   1.510   1.899   4.263
  153TIP3    H2  424   1.401   1.880   4.159
  154TIP3   OH2  425   0.392   0.821   4.229
  154TIP3    H1  426   0.301   0.797   4.241
  154TIP3    H2  427   0.393   0.917   4.233
  155TIP3   OH2  428   1.193   3.361   0.395
  155TIP3    H1  429   1.139   3.341   0.472
  155TIP3    H2  430   1.249   3.433   0.423
  156TIP3   OH2  431   3.416   2.276   3.010
  156TIP3    H1  432   3.484   2.338   3.036
  156TIP3    H2  433   3.456   2.190   3.020
  157TIP3   OH2  434   6.787   6.103   2.172
  157TIP3    H1  435   6.694   6.085   2.156
  157TIP3    H2  436   6.795   6.105   2.267
  158TIP3   OH2  437   6.228   6.224   4.476
  158TIP3    H1  438   6.222   6.171   4.396
  158TIP3    H2  439   6.227   6.314   4.445
  159TIP3   OH2  440   4.480   1.414   2.406
  159TIP3    H1  441   4.569   1.430   2.375
  159TIP3    H2  442   4.482   1.441   2.498
  160TIP3   OH2  443   1.314   3.837   2.415
  160TIP3    H1  444   1.232   3.884   2.401
  160TIP3    H2  445   1.327   3.786   2.336
  161TIP3   OH2  446   3.136   3.677   2.240
  161TIP3    H1  447   3.225   3.704   2.259
  161TIP3    H2  448   3.092   3.679   2.325
  162TIP3   OH2  449   5.397   1.612   0.676
  162TIP3    H1  450   5.357   1.551   0.613
  162TIP3    H2  451   5.398   1.696   0.630
  163TIP3   OH2  452   3.166   0.776   2.890
  163TIP3    H1  453   3.156   0.705   2.826
  163TIP3    H2  454   3.100   0.840   2.866
  164TIP3   OH2  455   3.445   5.228   0.525
  164TIP3    H1  456   3.502   5.261   0.594
  164TIP3    H2  457   3.462   5.133   0.523
  165TIP3   OH2  458   5.067   2.595   3.958
  165TIP3    H1  459   5.103   2.520   3.910
  165TIP3    H2  460   5.143   2.640   3.992
  166TIP3   OH2  461   2.475   5.358   4.746
  166TIP3    H1  462   2.453   5.272   4.782
  166TIP3    H2  463   2.492   5.341   4.653
  167TIP3   OH2  464   6.107   1.183   4.438
  167TIP3    H1  465   6.068   1.270   4.433
  167TIP3    H2  466   6.063   1.133   4.369
  168TIP3   OH2  467   0.996   6.087   2.303
  168TIP3    H1  468   1.022   6.025   2.235
  168TIP3    H2  469   0.952   6.158   2.256
  169TIP3   OH2  470   6.693   4.518   2.262
  169TIP3    H1  471   6.623   4.575   2.291
  169TIP3    H2  472   6.719   4.470   2.341
  170TIP3   OH2  473   5.017   2.570   5.031
  170TIP3    H1  474   5.025   2.604   5.121
  170TIP3    H2  475   4.925   2.583   5.009
  171TIP3   OH2  476   0.095   2.094   1.861
  171TIP3    H1  477   0.136   2.009   1.844
  171TIP3    H2  478   0.157   2.139   1.919
  172TIP3   OH2  479   6.060   0.051   2.486
  172TIP3    H1  480   6.153   0.037   2.469
  172TIP3    H2  481   6.058   0.089   2.574
  173TIP3   OH2  482   0.103   1.931   3.509
  173TIP3    H1  483   0.027   1.900   3.461
  173TIP3    H2  484   0.144   1.852   3.545
  174TIP3   OH2  485   1.598   4.185   0.019
  174TIP3    H1  486   1.631   4.181  -0.070
  174TIP3    H2  487   1.670   4.225   0.069
  175TIP3   OH2  488   3.927   6.091   1.135
  175TIP3    H1  489   3.993   6.026   1.161
  175TIP3    H2  490   3.866   6.094   1.209
  176TIP3   OH2  491   2.542   3.185   1.006
  176TIP3    H1  492   2.569   3.095   0.985
  176TIP3    H2  493   2.450   3.188   0.982
  177TIP3   OH2  494   4.603   5.127   4.284
  177TIP3    H1  495   4.602   5.115   4.379
  177TIP3    H2  496   4.694   5.153   4.265
  178TIP3   OH2  497   3.791   3.847   1.534
  178TIP3    H1  498   3.764   3.906   1.464
  178TIP3    H2  499   3.877   3.881   1.562
  179TIP3   OH2  500   4.512   4.614   0.095
  179TIP3    H1  501   4.606   4.602   0.087
  179TIP3    H2  502   4.502   4.690   0.153
  180TIP3   OH2  503   3.447   3.601   3.997
  180TIP3    H1  504   3.362   3.588   3.955
  180TIP3    H2  505   3.426   3.617   4.089
  181TIP3   OH2  506   5.464   1.517   2.031
  181TIP3    H1  507   5.379   1.558   2.016
  181TIP3    H2  508   5.454   1.428   1.997
  182TIP3   OH2  509   2.467   0.948   4.358
  182TIP3    H1  510   2.409   0.900   4.416
  182TIP3    H2  511   2.555   0.915   4.378
  183TIP3   OH2  512   2.590   5.144   3.612
  183TIP3    H1  513   2.589   5.071   3.550
  183TIP3    H2  514   2.566   5.105   3.696
  184TIP3   OH2  515   0.706   5.294   3.781
  184TIP3    H1  516   0.792   5.265   3.814
  184TIP3    H2  517   0.713   5.389   3.777
  185TIP3   OH2  518   4.856   5.382   4.960
  185TIP3    H1  519   4.935   5.433   4.937
  185TIP3    H2  520   4.839   5.404   5.051
  186TIP3   OH2  521   4.157   3.081   2.837
  186TIP3    H1  522   4.154   2.995   2.880
  186TIP3    H2  523   4.068   3.114   2.843
  187TIP3   OH2  524   4.134   5.372   4.752
  187TIP3    H1  525   4.043   5.355   4.729
  187TIP3    H2  526   4.184   5.306   4.704
  188TIP3   OH2  527   6.985   5.734   0.327
  188TIP3    H1  528   6.954   5.689   0.406
  188TIP3    H2  529   7.068   5.773   0.354
  189TIP3   OH2  530   6.605   3.831   5.187
  189TIP3    H1  531   6.545   3.885   5.135
  189TIP3    H2  532   6.599   3.744   5.147
  190TIP3   OH2  533   4.888   4.092   1.179
  190TIP3    H1  534   4.941   4.039   1.120
  190TIP3    H2  535   4.926   4.180   1.175
  191TIP3   OH2  536   4.129   1.870   3.534
  191TIP3    H1  537   4.090   1.956   3.546
  191TIP3    H2  538   4.123   1.854   3.440
  192TIP3   OH2  539   4.778   5.001   1.344
  192TIP3    H1  540   4.773   5.076   1.285
  192TIP3    H2  541   4.866   4.965   1.327
  193TIP3   OH2  542   4.316   0.536   4.206
  193TIP3    H1  543   4.266   0.588   4.143
  193TIP3    H2  544   4.257   0.464   4.229
  194TIP3   OH2  545   1.135   3.286   1.979
  194TIP3    H1  546   1.175   3.366   2.013
  194TIP3    H2  547   1.051   3.315   1.942
  195TIP3   OH2  548   4.066   6.469   3.770
  195TIP3    H1  549   3.980   6.499   3.801
  195TIP3    H2  550   4.085   6.525   3.695
  196TIP3   OH2  551   1.039   1.653   5.186
  196TIP3    H1  552   1.062   1.658   5.279
  196TIP3    H2  553   1.021   1.561   5.170
  197TIP3   OH2  554   3.417   1.904   1.538
  197TIP3    H1  555   3.377   1.982   1.500
  197TIP3    H2  556   3.461   1.936   1.617
  198TIP3   OH2  557   2.052   6.050   0.789
  198TIP3    H1  558   2.076   5.988   0.859
  198TIP3    H2  559   2.102   6.020   0.713
  199TIP3   OH2  560   5.433   1.591   3.904
  199TIP3    H1  561   5.385   1.645   3.840
  199TIP3    H2  562   5.524   1.594   3.874
  200TIP3   OH2  563   2.800   3.028   2.180
  200TIP3    H1  564   2.774   3.102   2.124
  200TIP3    H2  565   2.893   3.016   2.163
  201TIP3   OH2  566   2.046   3.405   1.483
  201TIP3    H1  567   2.017   3.374   1.569
  201TIP3    H2  568   2.019   3.497   1.481
  202TIP3   OH2  569   0.361   4.187   2.035
  202TIP3    H1  570   0.274   4.184   2.076
  202TIP3    H2  571   0.347   4.232   1.952
  203TIP3   OH2  572   3.803   0.404   0.179
  203TIP3    H1  573   3.869   0.471   0.159
  203TIP3    H2  574   3.747   0.403   0.102
  204TIP3   OH2  575   0.801   1.713   2.059
  204TIP3    H1  576   0.896   1.705   2.053
  204TIP3    H2  577   0.786   1.774   2.131
  205TIP3   OH2  578   5.335   2.937   4.223
  205TIP3    H1  579   5.351   2.846   4.201
  205TIP3    H2  580   5.417   2.968   4.260
  206TIP3   OH2  581   2.221   2.340   0.840
  206TIP3    H1  582   2.232   2.255   0.883
  206TIP3    H2  583   2.305   2.356   0.797
  207TIP3   OH2  584   7.035   2.584   4.198
  207TIP3    H1  585   7.115   2.599   4.248
  207TIP3    H2  586   7.064   2.536   4.120
  208TIP3   OH2  587   6.037   6.000   5.597
  208TIP3    H1  588   5.982   6.068   5.558
  208TIP3    H2  589   5.976   5.930   5.619
  209TIP3   OH2  590   5.180   6.619   2.061
  209TIP3    H1  591   5.255   6.606   2.120
  209TIP3    H2  592   5.135   6.534   2.060
  210TIP3   OH2  593   6.687   4.736   4.302
  210TIP3    H1  594   6.666   4.675   4.231
  210TIP3    H2  595   6.631   4.709   4.374
  211TIP3   OH2  596   4.990   0.819   1.704
  211TIP3    H1  597   5.017   0.739   1.748
  211TIP3    H2  598   4.895   0.824   1.718
  212TIP3   OH2  599   2.931   4.897   0.633
  212TIP3    H1  600   3.021   4.867   0.642
  212TIP3    H2  601   2.887   4.826   0.585
  213TIP3   OH2  602   1.029   3.789   4.807
  213TIP3    H1  603   1.115   3.782   4.849
  213TIP3    H2  604   1.039   3.743   4.723
  214TIP3   OH2  605   6.706   2.434   3.910
  214TIP3    H1  606   6.749   2.373   3.849
  214TIP3    H2  607   6.705   2.387   3.993
  215TIP3   OH2  608   4.455   0.967   5.468
  215TIP3    H1  609   4.463   0.913   5.389
  215TIP3    H2  610   4.509   1.044   5.450
  216TIP3   OH2  611   7.074   2.308   3.446
  216TIP3    H1  612   7.085   2.267   3.361
  216TIP3    H2  613   7.101   2.242   3.509
  217TIP3   OH2  614   3.224   1.951   5.402
  217TIP3    H1  615   3.244   1.999   5.322
  217TIP3    H2  616   3.287   1.985   5.466
  218TIP3   OH2  617   7.154   1.403   5.865
  218TIP3    H1  618   7.238   1.369   5.897
  218TIP3    H2  619   7.172   1.432   5.776
  219TIP3   OH2  620   4.021   1.849   0.516
  219TIP3    H1  621   4.026   1.922   0.578
  219TIP3    H2  622   3.930   1.847   0.488
  220TIP3   OH2  623   6.839   0.082   2.561
  220TIP3    H1  624   6.875   0.018   2.624
  220TIP3    H2  625   6.777   0.031   2.509
  221TIP3   OH2  626   0.024   3.024   3.184
  221TIP3    H1  627  -0.055   2.969   3.191
  221TIP3    H2  628   0.071   3.008   3.265
  222TIP3   OH2  629   6.802   6.533   2.180
  222TIP3    H1  630   6.876   6.500   2.128
  222TIP3    H2  631   6.839   6.605   2.231
  223TIP3   OH2  632   1.826   2.087   3.409
  223TIP3    H1  633   1.783   2.137   3.479
  223TIP3    H2  634   1.916   2.076   3.440
  224TIP3   OH2  635   2.242   6.126   4.650
  224TIP3    H1  636   2.155   6.092   4.673
  224TIP3    H2  637   2.294   6.048   4.633
  225TIP3   OH2  638   4.590   5.940   5.220
  225TIP3    H1  639   4.632   5.969   5.139
  225TIP3    H2  640   4.634   5.858   5.242
  226TIP3   OH2  641   6.272   2.478   0.070
  226TIP3    H1  642   6.319   2.556   0.099
  226TIP3    H2  643   6.275   2.482  -0.026
  227TIP3   OH2  644   4.766   3.244   5.590
  227TIP3    H1  645   4.700   3.313   5.597
  227TIP3    H2  646   4.717   3.166   5.567
  228TIP3   OH2  647   3.036   5.921   5.831
  228TIP3    H1  648   3.014   5.894   5.920
  228TIP3    H2  649   2.986   5.862   5.775
  229TIP3   OH2  650   2.807   6.386   3.260
  229TIP3    H1  651   2.773   6.439   3.332
  229TIP3    H2  652   2.738   6.323   3.242
  230TIP3   OH2  653   4.848   6.533   0.918
  230TIP3    H1  654   4.864   6.625   0.900
  230TIP3    H2  655   4.867   6.488   0.836
  231TIP3   OH2  656   5.080   0.872   2.116
  231TIP3    H1  657   4.996   0.832   2.094
  231TIP3    H2  658   5.088   0.860   2.210
  232TIP3   OH2  659   3.405   5.604   2.234
  232TIP3    H1  660   3.404   5.699   2.220
  232TIP3    H2  661   3.321   5.574   2.199
  233TIP3   OH2  662   0.856   3.442   4.470
  233TIP3    H1  663   0.811   3.389   4.536
  233TIP3    H2  664   0.916   3.381   4.427
  234TIP3   OH2  665   4.908   1.623   2.223
  234TIP3    H1  666   4.881   1.568   2.296
  234TIP3    H2  667   4.944   1.702   2.264
  235TIP3   OH2  668   5.318   3.937   4.198
  235TIP3    H1  669   5.236   3.910   4.156
  235TIP3    H2  670   5.383   3.935   4.127
  236TIP3   OH2  671   2.137   4.829   3.480
  236TIP3    H1  672   2.212   4.798   3.430
  236TIP3    H2  673   2.073   4.758   3.474
  237TIP3   OH2  674   6.742   0.949   0.576
  237TIP3    H1  675   6.649   0.926   0.568
  237TIP3    H2  676   6.756   1.015   0.509
  238TIP3   OH2  677   4.312   5.810   4.646
  238TIP3    H1  678   4.340   5.790   4.557
  238TIP3    H2  679   4.348   5.738   4.699
  239TIP3   OH2  680   5.612   6.151   1.937
  239TIP3    H1  681   5.555   6.199   1.997
  239TIP3    H2  682   5.652   6.220   1.883
  240TIP3   OH2  683   5.800   5.994   1.179
  240TIP3    H1  684   5.850   5.919   1.211
  240TIP3    H2  685   5.709   5.972   1.200
  241TIP3   OH2  686   3.095   4.893   1.680
  241TIP3    H1  687   3.014   4.943   1.666
  241TIP3    H2  688   3.156   4.957   1.716
  242TIP3   OH2  689   5.561   2.137   3.238
  242TIP3    H1  690   5.483   2.159   3.289
  242TIP3    H2  691   5.632   2.181   3.283
  243TIP3   OH2  692   0.059   0.802  -0.021
  243TIP3    H1  693   0.135   0.859  -0.005
  243TIP3    H2  694   0.062   0.739   0.051
  244TIP3   OH2  695   1.443   0.454   2.900
  244TIP3    H1  696   1.358   0.427   2.864
  244TIP3    H2  697   1.435   0.437   2.994
  245TIP3   OH2  698   1.252   3.870   3.773
  245TIP3    H1  699   1.254   3.914   3.688
  245TIP3    H2  700   1.172   3.817   3.771
  246TIP3   OH2  701   5.450   3.407   5.569
  246TIP3    H1  702   5.415   3.330   5.614
  246TIP3    H2  703   5.426   3.394   5.477
  247TIP3   OH2  704   6.218   3.496   2.453
  247TIP3    H1  705   6.230   3.507   2.548
  247TIP3    H2  706   6.225   3.585   2.418
  248TIP3   OH2  707   1.946   4.649   4.437
  248TIP3    H1  708   1.990   4.718   4.388
  248TIP3    H2  709   1.922   4.584   4.371
  249TIP3   OH2  710   6.908   6.622   3.371
  249TIP3    H1  711   6.841   6.556   3.389
  249TIP3    H2  712   6.874   6.702   3.410
  250TIP3   OH2  713   3.725   2.653   3.729
  250TIP3    H1  714   3.771   2.733   3.756
  250TIP3    H2  715   3.795   2.592   3.705
  251TIP3   OH2  716   0.805   4.147   1.225
  251TIP3    H1  717   0.838   4.199   1.298
  251TIP3    H2  718   0.712   4.136   1.244
  252TIP3   OH2  719   3.047   3.638   0.204
  252TIP3    H1  720   2.963   3.665   0.242
  252TIP3    H2  721   3.057   3.694   0.127
  253TIP3   OH2  722   3.952   4.578   1.607
  253TIP3    H1  723   3.983   4.645   1.547
  253TIP3    H2  724   3.921   4.626   1.684
  254TIP3   OH2  725   2.819   1.990   3.829
  254TIP3    H1  726   2.792   2.080   3.809
  254TIP3    H2  727   2.771   1.936   3.766
  255TIP3   OH2  728   3.370   3.599   1.003
  255TIP3    H1  729   3.392   3.550   0.924
  255TIP3    H2  730   3.395   3.689   0.984
  256TIP3   OH2  731   0.104   0.341   5.063
  256TIP3    H1  732   0.088   0.249   5.043
  256TIP3    H2  733   0.030   0.367   5.117
  257TIP3   OH2  734   4.310   5.077   0.679
  257TIP3    H1  735   4.365   5.019   0.731
  257TIP3    H2  736   4.317   5.162   0.723
  258TIP3   OH2  737   3.516   3.778   3.784
  258TIP3    H1  738   3.607   3.807   3.790
  258TIP3    H2  739   3.500   3.732   3.867
  259TIP3   OH2  740   3.310   4.128   3.152
  259TIP3    H1  741   3.384   4.146   3.209
  259TIP3    H2  742   3.349   4.093   3.072
  260TIP3   OH2  743   2.538   5.810   0.816
  260TIP3    H1  744   2.468   5.756   0.780
  260TIP3    H2  745   2.618   5.773   0.781
  261TIP3   OH2  746   1.055   2.079   2.908
  261TIP3    H1  747   1.117   2.142   2.872
  261TIP3    H2  748   1.015   2.124   2.982
  262TIP3   OH2  749   0.137   1.327   0.104
  262TIP3    H1  750   0.178   1.290   0.182
  262TIP3    H2  751   0.045   1.338   0.128
  263TIP3   OH2  752   0.733   4.574  -0.033
  263TIP3    H1  753   0.761   4.665  -0.021
  263TIP3    H2  754   0.754   4.532   0.050
  264TIP3   OH2  755   1.158   4.536   1.009
  264TIP3    H1  756   1.201   4.574   0.933
  264TIP3    H2  757   1.180   4.594   1.081
  265TIP3   OH2  758   6.228   3.782   0.902
  265TIP3    H1  759   6.280   3.862   0.909
  265TIP3    H2  760   6.288   3.713   0.931
  266TIP3   OH2  761   5.904   0.467   1.472
  266TIP3    H1  762   5.852   0.403   1.521
  266TIP3    H2  763   5.936   0.418   1.396
  267TIP3   OH2  764   1.404   2.784   0.397
  267TIP3    H1  765   1.362   2.870   0.406
  267TIP3    H2  766   1.351   2.737   0.333
  268TIP3   OH2  767   5.139   5.764   1.207
  268TIP3    H1  768   5.052   5.745   1.172
  268TIP3    H2  769   5.140   5.859   1.217
  269TIP3   OH2  770   2.580   5.860   5.109
  269TIP3    H1  771   2.667   5.856   5.068
  269TIP3    H2  772   2.519   5.852   5.036
  270TIP3   OH2  773   3.417   1.725   3.533
  270TIP3    H1  774   3.417   1.804   3.586
  270TIP3    H2  775   3.326   1.711   3.508
  271TIP3   OH2  776   6.373   1.338   2.840
  271TIP3    H1  777   6.292   1.374   2.803
  271TIP3    H2  778   6.348   1.305   2.926
  272TIP3   OH2  779   0.471   5.003   1.693
  272TIP3    H1  780   0.381   5.026   1.667
  272TIP3    H2  781   0.478   5.031   1.784
  273TIP3   OH2  782   2.115   1.490   2.834
  273TIP3    H1  783   2.118   1.489   2.739
  273TIP3    H2  784   2.092   1.580   2.857
  274TIP3   OH2  785   0.340   3.944   0.071
  274TIP3    H1  786   0.310   3.953   0.161
  274TIP3    H2  787   0.261   3.932   0.020
  275TIP3   OH2  788   5.083   5.658   0.699
  275TIP3    H1  789   5.044   5.648   0.612
  275TIP3    H2  790   5.149   5.727   0.689
  276TIP3   OH2  791   2.363   1.983   5.090
  276TIP3    H1  792   2.290   1.924   5.110
  276TIP3    H2  793   2.367   1.984   4.994
  277TIP3   OH2  794   6.766   0.732   5.640
  277TIP3    H1  795   6.833   0.780   5.591
  277TIP3    H2  796   6.785   0.751   5.731
  278TIP3   OH2  797   0.663   2.137   1.203
  278TIP3    H1  798   0.682   2.104   1.115
  278TIP3    H2  799   0.624   2.063   1.249
  279TIP3   OH2  800   6.869   2.219   2.405
  279TIP3    H1  801   6.830   2.213   2.492
  279TIP3    H2  802   6.871   2.312   2.386
  280TIP3   OH2  803   6.162   0.157   3.808
  280TIP3    H1  804   6.237   0.168   3.867
  280TIP3    H2  805   6.201   0.128   3.725
  281TIP3   OH2  806   2.271   0.170   3.238
  281TIP3    H1  807   2.329   0.222   3.294
  281TIP3    H2  808   2.229   0.234   3.180
  282TIP3   OH2  809   4.356   5.319   5.227
  282TIP3    H1  810   4.275   5.271   5.208
  282TIP3    H2  811   4.326   5.404   5.259
  283TIP3   OH2  812   1.157   1.323   1.627
  283TIP3    H1  813   1.140   1.267   1.551
  283TIP3    H2  814   1.219   1.388   1.595
  284TIP3   OH2  815   5.852   1.337   0.186
  284TIP3    H1  816   5.925   1.331   0.124
  284TIP3    H2  817   5.782   1.380   0.137
  285TIP3   OH2  818   2.570   1.279   3.947
  285TIP3    H1  819   2.549   1.200   3.997
  285TIP3    H2  820   2.582   1.247   3.857
  286TIP3   OH2  821   3.121   6.527   2.993
  286TIP3    H1  822   3.139   6.619   3.012
  286TIP3    H2  823   3.027   6.524   2.974
  287TIP3   OH2  824   3.973   6.773   4.072
  287TIP3    H1  825   3.931   6.856   4.094
  287TIP3    H2  826   3.919   6.736   4.003
  288TIP3   OH2  827   1.540   0.290   5.502
  288TIP3    H1  828   1.501   0.214   5.460
  288TIP3    H2  829   1.545   0.356   5.433
  289TIP3   OH2  830   2.910   3.098   4.980
  289TIP3    H1  831   2.943   3.108   4.891
  289TIP3    H2  832   2.887   3.187   5.007
  290TIP3   OH2  833   4.332   5.944   4.232
  290TIP3    H1  834   4.342   5.890   4.154
  290TIP3    H2  835   4.248   5.988   4.220
  291TIP3   OH2  836   0.182   5.571   5.082
  291TIP3    H1  837   0.090   5.575   5.109
  291TIP3    H2  838   0.180   5.591   4.988
  292TIP3   OH2  839   1.817   2.531   5.808
  292TIP3    H1  840   1.882   2.545   5.739
  292TIP3    H2  841   1.753   2.471   5.769
  293TIP3   OH2  842   5.836   1.743   3.019
  293TIP3    H1  843   5.875   1.656   3.017
  293TIP3    H2  844   5.814   1.757   3.111
  294TIP3   OH2  845   0.209   0.666   3.972
  294TIP3    H1  846   0.162   0.606   3.913
  294TIP3    H2  847   0.216   0.748   3.922
  295TIP3   OH2  848   1.449   0.507   1.454
  295TIP3    H1  849   1.478   0.497   1.363
  295TIP3    H2  850   1.453   0.419   1.491
  296TIP3   OH2  851   3.329   1.538   5.775
  296TIP3    H1  852   3.250   1.497   5.810
  296TIP3    H2  853   3.312   1.549   5.682
  297TIP3   OH2  854   4.104   2.076   2.874
  297TIP3    H1  855   4.195   2.067   2.902
  297TIP3    H2  856   4.105   2.047   2.783
  298TIP3   OH2  857   6.298   0.755   5.220
  298TIP3    H1  858   6.339   0.669   5.207
  298TIP3    H2  859   6.232   0.760   5.151
  299TIP3   OH2  860   3.725   3.430   2.740
  299TIP3    H1  861   3.656   3.474   2.791
  299TIP3    H2  862   3.681   3.405   2.659
  300TIP3   OH2  863   5.971   4.176   0.697
  300TIP3    H1  864   5.883   4.199   0.727
  300TIP3    H2  865   5.977   4.082   0.712
  301TIP3   OH2  866   1.149   2.919   0.384
  301TIP3    H1  867   1.087   2.989   0.402
  301TIP3    H2  868   1.117   2.845   0.434
  302TIP3   OH2  869   3.619   4.792   4.892
  302TIP3    H1  870   3.705   4.828   4.916
  302TIP3    H2  871   3.593   4.739   4.967
  303TIP3   OH2  872   0.279   5.707   4.823
  303TIP3    H1  873   0.345   5.752   4.770
  303TIP3    H2  874   0.234   5.649   4.761
  304TIP3   OH2  875   0.463   3.833   5.422
  304TIP3    H1  876   0.434   3.925   5.421
  304TIP3    H2  877   0.383   3.783   5.439
  305TIP3   OH2  878   6.999   4.752   5.403
  305TIP3    H1  879   6.904   4.741   5.416
  305TIP3    H2  880   7.009   4.845   5.380
  306TIP3   OH2  881   3.626   3.293   3.045
  306TIP3    H1  882   3.720   3.305   3.037
  306TIP3    H2  883   3.606   3.217   2.990
  307TIP3   OH2  884   4.906   3.691   0.335
  307TIP3    H1  885   4.937   3.732   0.254
  307TIP3    H2  886   4.970   3.716   0.401
  308TIP3   OH2  887   3.555  -0.001   1.455
  308TIP3    H1  888   3.538   0.078   1.505
  308TIP3    H2  889   3.547  -0.072   1.520
  309TIP3   OH2  890   0.555   0.328   1.723
  309TIP3    H1  891   0.484   0.334   1.786
  309TIP3    H2  892   0.613   0.260   1.757
  310TIP3   OH2  893   2.652   2.352   5.424
  310TIP3    H1  894   2.629   2.434   5.467
  310TIP3    H2  895   2.654   2.287   5.494
  311TIP3   OH2  896   5.926   6.022   1.540
  311TIP3    H1  897   5.844   5.977   1.559
  311TIP3    H2  898   5.972   6.028   1.624
  312TIP3   OH2  899   0.753   4.712   3.347
  312TIP3    H1  900   0.680   4.652   3.333
  312TIP3    H2  901   0.829   4.654   3.359
  313TIP3   OH2  902   1.509   0.842   1.883
  313TIP3    H1  903   1.479   0.772   1.825
  313TIP3    H2  904   1.429   0.875   1.925
  314TIP3   OH2  905   1.717   3.513   1.272
  314TIP3    H1  906   1.770   3.480   1.199
  314TIP3    H2  907   1.776   3.571   1.321
  315TIP3   OH2  908   5.662   3.252   3.300
  315TIP3    H1  909   5.690   3.327   3.352
  315TIP3    H2  910   5.617   3.290   3.225
  316TIP3   OH2  911   6.363   5.901   1.821
  316TIP3    H1  912   6.431   5.859   1.768
  316TIP3    H2  913   6.281   5.873   1.781
  317TIP3   OH2  914   1.889   4.242   4.130
  317TIP3    H1  915   1.838   4.167   4.163
  317TIP3    H2  916   1.900   4.298   4.206
  318TIP3   OH2  917   7.069   5.926   5.011
  318TIP3    H1  918   7.036   5.953   4.926
  318TIP3    H2  919   7.164   5.937   5.005
  319TIP3   OH2  920   2.534   1.869   1.487
  319TIP3    H1  921   2.525   1.913   1.403
  319TIP3    H2  922   2.615   1.904   1.524
  320TIP3   OH2  923   5.945   2.091   2.033
  320TIP3    H1  924   5.947   2.187   2.034
  320TIP3    H2  925   5.854   2.070   2.012
  321TIP3   OH2  926   2.955   0.130   5.337
  321TIP3    H1  927   2.929   0.067   5.270
  321TIP3    H2  928   3.046   0.107   5.357
  322TIP3   OH2  929   2.932   4.648   4.017
  322TIP3    H1  930   2.943   4.743   4.024
  322TIP3    H2  931   3.022   4.614   4.015
  323TIP3   OH2  932   2.132   2.722   0.847
  323TIP3    H1  933   2.137   2.646   0.905
  323TIP3    H2  934   2.186   2.698   0.772
  324TIP3   OH2  935   0.326   3.894   2.846
  324TIP3    H1  936   0.387   3.828   2.811
  324TIP3    H2  937   0.357   3.910   2.935
  325TIP3   OH2  938   2.625   5.772   2.430
  325TIP3    H1  939   2.544   5.736   2.466
  325TIP3    H2  940   2.617   5.867   2.443
  326TIP3   OH2  941   7.042   2.941   0.324
  326TIP3    H1  942   7.080   3.011   0.377
  326TIP3    H2  943   7.013   2.876   0.388
  327TIP3   OH2  944   1.264   1.618   0.892
  327TIP3    H1  945   1.200   1.612   0.963
  327TIP3    H2  946   1.295   1.709   0.896
  328TIP3   OH2  947   3.776   2.788   3.243
  328TIP3    H1  948   3.771   2.860   3.180
  328TIP3    H2  949   3.750   2.827   3.327
  329TIP3   OH2  950   4.280   0.124   3.400
  329TIP3    H1  951   4.307   0.118   3.492
  329TIP3    H2  952   4.327   0.052   3.357
  330TIP3   OH2  953   4.012   0.661   1.244
  330TIP3    H1  954   3.971   0.590   1.194
  330TIP3    H2  955   4.106   0.643   1.238
  331TIP3   OH2  956   2.549   1.171   2.029
  331TIP3    H1  957   2.480   1.191   2.092
  331TIP3    H2  958   2.504   1.164   1.945
  332TIP3   OH2  959   5.783   1.371   3.352
  332TIP3    H1  960   5.750   1.414   3.431
  332TIP3    H2  961   5.717   1.305   3.331
  333TIP3   OH2  962   6.797   6.835   1.839
  333TIP3    H1  963   6.819   6.752   1.882
  333TIP3    H2  964   6.769   6.809   1.751
  334TIP3   OH2  965   0.144   6.006   2.203
  334TIP3    H1  966   0.159   5.987   2.296
  334TIP3    H2  967   0.063   6.058   2.202
  335TIP3   OH2  968   5.700   4.412   0.356
  335TIP3    H1  969   5.739   4.455   0.280
  335TIP3    H2  970   5.610   4.445   0.358
  336TIP3   OH2  971   2.878   4.463   3.787
  336TIP3    H1  972   2.895   4.499   3.701
  336TIP3    H2  973   2.867   4.539   3.844
  337TIP3   OH2  974   6.646   1.281   1.931
  337TIP3    H1  975   6.638   1.280   2.027
  337TIP3    H2  976   6.555   1.278   1.899
  338TIP3   OH2  977   1.185   0.537   2.757
  338TIP3    H1  978   1.134   0.512   2.680
  338TIP3    H2  979   1.212   0.627   2.739
  339TIP3   OH2  980   3.693   5.916   2.455
  339TIP3    H1  981   3.677   5.992   2.399
  339TIP3    H2  982   3.776   5.935   2.499
  340TIP3   OH2  983   0.640   1.772   1.788
  340TIP3    H1  984   0.619   1.834   1.858
  340TIP3    H2  985   0.709   1.717   1.824
  341TIP3   OH2  986   6.252   5.385   1.339
  341TIP3    H1  987   6.187   5.378   1.409
  341TIP3    H2  988   6.287   5.473   1.348
  342TIP3   OH2  989   4.963   3.615   2.338
  342TIP3    H1  990   4.925   3.657   2.261
  342TIP3    H2  991   4.957   3.681   2.408
  343TIP3   OH2  992   0.329   0.209   2.755
  343TIP3    H1  993   0.289   0.179   2.673
  343TIP3    H2  994   0.325   0.304   2.750
  344TIP3   OH2  995   1.604   6.100   2.973
  344TIP3    H1  996   1.698   6.093   2.989
  344TIP3    H2  997   1.595   6.175   2.915
  345TIP3   OH2  998   3.921   5.611   5.864
  345TIP3    H1  999   3.941   5.595   5.956
  345TIP3    H2 1000   4.003   5.642   5.826
  346TIP3   OH2 1001   6.938   2.143   4.115
  346TIP3    H1 1002   7.008   2.112   4.174
  346TIP3    H2 1003   6.904   2.221   4.159
  347TIP3   OH2 1004   1.446   4.244   1.083
  347TIP3    H1 1005   1.419   4.152   1.092
  347TIP3    H2 1006   1.364   4.293   1.083
  348TIP3   OH2 1007   4.469   6.262   0.488
  348TIP3    H1 1008   4.382   6.228   0.469
  348TIP3    H2 1009   4.485   6.237   0.580
  349TIP3   OH2 1010   5.481   4.616   2.889
  349TIP3    H1 1011   5.478   4.527   2.854
  349TIP3    H2 1012   5.507   4.670   2.815
  350TIP3   OH2 1013   4.856   5.348   1.848
  350TIP3    H1 1014   4.808   5.267   1.866
  350TIP3    H2 1015   4.788   5.416   1.845
  351TIP3   OH2 1016   6.848   4.062   0.507
  351TIP3    H1 1017   6.843   4.038   0.415
  351TIP3    H2 1018   6.936   4.098   0.518
  352TIP3   OH2 1019   4.965   4.899   4.190
  352TIP3    H1 1020   4.992   4.868   4.276
  352TIP3    H2 1021   5.016   4.979   4.176
  353TIP3   OH2 1022   7.027   5.122   1.678
  353TIP3    H1 1023   6.961   5.191   1.675
  353TIP3    H2 1024   6.992   5.053   1.621
  354TIP3   OH2 1025   0.078   5.608   4.648
  354TIP3    H1 1026   0.118   5.525   4.623
  354TIP3    H2 1027   0.003   5.584   4.703
  355TIP3   OH2 1028   7.028   2.072   2.932
  355TIP3    H1 1029   7.023   2.033   2.844
  355TIP3    H2 1030   7.018   1.998   2.991
  356TIP3   OH2 1031   3.409   1.291   0.146
  356TIP3    H1 1032   3.454   1.291   0.230
  356TIP3    H2 1033   3.316   1.284   0.168
  357TIP3   OH2 1034   0.389   3.190   3.791
  357TIP3    H1 1035   0.322   3.250   3.823
  357TIP3    H2 1036   0.374   3.110   3.840
  358TIP3   OH2 1037   0.554   2.359   4.836
  358TIP3    H1 1038   0.622   2.360   4.905
  358TIP3    H2 1039   0.538   2.452   4.818
  359TIP3   OH2 1040   4.967   2.386   5.417
  359TIP3    H1 1041   4.925   2.470   5.436
  359TIP3    H2 1042   4.894   2.324   5.407
  360TIP3   OH2 1043   1.272   6.283   4.221
  360TIP3    H1 1044   1.193   6.319   4.261
  360TIP3    H2 1045   1.247   6.262   4.131
  361TIP3   OH2 1046   4.141   3.773   2.465
  361TIP3    H1 1047   4.107   3.851   2.420
  361TIP3    H2 1048   4.235   3.778   2.453
  362TIP3   OH2 1049   4.049   2.234   3.772
  362TIP3    H1 1050   4.077   2.194   3.690
  362TIP3    H2 1051   4.130   2.265   3.813
  363TIP3   OH2 1052   3.635   4.392   3.673
  363TIP3    H1 1053   3.609   4.478   3.642
  363TIP3    H2 1054   3.561   4.335   3.651
  364TIP3   OH2 1055   1.869   0.231   2.776
  364TIP3    H1 1056   1.905   0.222   2.688
  364TIP3    H2 1057   1.794   0.172   2.777
  365TIP3   OH2 1058   3.424   2.412   1.332
  365TIP3    H1 1059   3.328   2.414   1.335
  365TIP3    H2 1060   3.451   2.492   1.377
  366TIP3   OH2 1061   3.946   2.949   4.225
  366TIP3    H1 1062   3.914   2.985   4.308
  366TIP3    H2 1063   3.929   2.854   4.233
  367TIP3   OH2 1064   2.531   6.475   3.486
  367TIP3    H1 1065   2.557   6.401   3.540
  367TIP3    H2 1066   2.475   6.437   3.418
  368TIP3   OH2 1067   0.218   1.182   0.823
  368TIP3    H1 1068   0.214   1.116   0.893
  368TIP3    H2 1069   0.192   1.134   0.744
  369TIP3   OH2 1070   2.822   0.511   1.463
  369TIP3    H1 1071   2.762   0.571   1.508
  369TIP3    H2 1072   2.864   0.462   1.534
  370TIP3   OH2 1073   6.873   2.212   0.337
  370TIP3    H1 1074   6.896   2.173   0.421
  370TIP3    H2 1075   6.782   2.241   0.348
  371TIP3   OH2 1076   7.183   3.792   2.996
  371TIP3    H1 1077   7.088   3.782   3.006
  371TIP3    H2 1078   7.214   3.812   3.084
  372TIP3   OH2 1079   4.745   5.771   5.787
  372TIP3    H1 1080   4.819   5.819   5.749
  372TIP3    H2 1081   4.700   5.733   5.711
  373TIP3   OH2 1082   1.827   2.430   3.549
  373TIP3    H1 1083   1.780   2.380   3.616
  373TIP3    H2 1084   1.767   2.500   3.525
  374TIP3   OH2 1085   1.738   6.373   4.401
  374TIP3    H1 1086   1.829   6.400   4.415
  374TIP3    H2 1087   1.744   6.280   4.380
  375TIP3   OH2 1088   1.051   1.304   1.153
  375TIP3    H1 1089   1.085   1.288   1.065
  375TIP3    H2 1090   0.959   1.278   1.150
  376TIP3   OH2 1091   2.889   4.097   1.456
  376TIP3    H1 1092   2.809   4.126   1.502
  376TIP3    H2 1093   2.893   4.003   1.471
  377TIP3   OH2 1094   3.441   4.083   1.705
  377TIP3    H1 1095   3.357   4.047   1.734
  377TIP3    H2 1096   3.507   4.031   1.752
  378TIP3   OH2 1097   6.980   3.024   5.249
  378TIP3    H1 1098   6.919   3.055   5.316
  378TIP3    H2 1099   7.027   2.951   5.291
  379TIP3   OH2 1100   6.062   3.812   5.803
  379TIP3    H1 1101   6.126   3.883   5.794
  379TIP3    H2 1102   6.059   3.770   5.717
  380TIP3   OH2 1103   0.606   2.307   3.145
  380TIP3    H1 1104   0.664   2.378   3.120
  380TIP3    H2 1105   0.545   2.347   3.207
  381TIP3   OH2 1106   4.094   6.044   4.311
  381TIP3    H1 1107   4.157   6.040   4.382
  381TIP3    H2 1108   4.023   6.099   4.345
  382TIP3   OH2 1109   1.874   2.924   5.068
  382TIP3    H1 1110   1.804   2.906   5.131
  382TIP3    H2 1111   1.873   2.848   5.009
  383TIP3   OH2 1112   5.766   0.560   5.759
  383TIP3    H1 1113   5.726   0.475   5.780
  383TIP3    H2 1114   5.857   0.539   5.739
  384TIP3   OH2 1115   5.373   1.805   4.492
  384TIP3    H1 1116   5.369   1.847   4.577
  384TIP3    H2 1117   5.402   1.874   4.432
  385TIP3   OH2 1118   4.311   1.111   3.806
  385TIP3    H1 1119   4.256   1.059   3.747
  385TIP3    H2 1120   4.398   1.071   3.799
  386TIP3   OH2 1121   6.381   3.848   3.229
  386TIP3    H1 1122   6.412   3.762   3.255
  386TIP3    H2 1123   6.338   3.883   3.307
  387TIP3   OH2 1124   6.805   4.656   2.071
  387TIP3    H1 1125   6.740   4.687   2.009
  387TIP3    H2 1126   6.754   4.617   2.142
  388TIP3   OH2 1127   4.457   5.588   1.672
  388TIP3    H1 1128   4.446   5.638   1.591
  388TIP3    H2 1129   4.369   5.589   1.711
  389TIP3   OH2 1130   7.162   6.649   2.742
  389TIP3    H1 1131   7.201   6.680   2.660
  389TIP3    H2 1132   7.098   6.583   2.714
  390TIP3   OH2 1133   0.302   3.500   3.606
  390TIP3    H1 1134   0.342   3.584   3.625
  390TIP3    H2 1135   0.375   3.439   3.599
  391TIP3   OH2 1136   2.672   1.931   0.505
  391TIP3    H1 1137   2.724   1.883   0.570
  391TIP3    H2 1138   2.731   1.943   0.431
  392TIP3   OH2 1139   2.921   5.861   3.420
  392TIP3    H1 1140   2.930   5.955   3.435
  392TIP3    H2 1141   2.826   5.845   3.419
  393TIP3   OH2 1142   3.400   4.022   3.802
  393TIP3    H1 1143   3.433   3.937   3.773
  393TIP3    H2 1144   3.327   4.001   3.861
  394TIP3   OH2 1145   5.013   1.486   0.213
  394TIP3    H1 1146   5.081   1.469   0.278
  394TIP3    H2 1147   5.061   1.514   0.135
  395TIP3   OH2 1148   6.681   1.364   1.100
  395TIP3    H1 1149   6.667   1.270   1.090
  395TIP3    H2 1150   6.593   1.402   1.093
  396TIP3   OH2 1151   2.093   4.486   5.542
  396TIP3    H1 1152   2.167   4.428   5.555
  396TIP3    H2 1153   2.032   4.464   5.612
  397TIP3   OH2 1154   1.321   1.386   4.077
  397TIP3    H1 1155   1.275   1.361   4.158
  397TIP3    H2 1156   1.254   1.385   4.010
  398TIP3   OH2 1157   2.502   2.646   5.521
  398TIP3    H1 1158   2.577   2.666   5.466
  398TIP3    H2 1159   2.525   2.681   5.607
  399TIP3   OH2 1160   5.296   5.251   2.507
  399TIP3    H1 1161   5.288   5.211   2.420
  399TIP3    H2 1162   5.371   5.309   2.500
  400TIP3   OH2 1163   3.848   2.347   2.832
  400TIP3    H1 1164   3.821   2.413   2.768
  400TIP3    H2 1165   3.835   2.263   2.788
  401TIP3   OH2 1166   3.133   1.246   3.194
  401TIP3    H1 1167   3.162   1.212   3.109
  401TIP3    H2 1168   3.202   1.307   3.220
  402TIP3   OH2 1169   0.676   4.615   1.782
  402TIP3    H1 1170   0.608   4.594   1.846
  402TIP3    H2 1171   0.708   4.701   1.808
  403TIP3   OH2 1172   6.839   1.476   0.641
  403TIP3    H1 1173   6.813   1.389   0.670
  403TIP3    H2 1174   6.778   1.535   0.684
  404TIP3   OH2 1175   6.770   2.015   3.511
  404TIP3    H1 1176   6.853   1.968   3.515
  404TIP3    H2 1177   6.779   2.074   3.436
  405TIP3   OH2 1178   6.000   3.303   0.986
  405TIP3    H1 1179   6.032   3.257   0.908
  405TIP3    H2 1180   6.005   3.396   0.963
  406TIP3   OH2 1181   0.383   3.305   5.380
  406TIP3    H1 1182   0.471   3.325   5.412
  406TIP3    H2 1183   0.357   3.383   5.331
  407TIP3   OH2 1184   2.875   5.885   4.018
  407TIP3    H1 1185   2.847   5.976   4.007
  407TIP3    H2 1186   2.963   5.883   3.981
  408TIP3   OH2 1187   3.529   4.446   2.668
  408TIP3    H1 1188   3.453   4.398   2.636
  408TIP3    H2 1189   3.599   4.381   2.669
  409TIP3   OH2 1190   4.399   0.234   0.429
  409TIP3    H1 1191   4.362   0.188   0.504
  409TIP3    H2 1192   4.365   0.323   0.436
  410TIP3   OH2 1193   5.089   0.288   5.244
  410TIP3    H1 1194   5.122   0.219   5.302
  410TIP3    H2 1195   5.056   0.355   5.304
  411TIP3   OH2 1196   5.408   3.877   5.583
  411TIP3    H1 1197   5.334   3.880   5.522
  411TIP3    H2 1198   5.413   3.785   5.610
  412TIP3   OH2 1199   7.064   4.520   4.837
  412TIP3    H1 1200   7.054   4.511   4.931
  412TIP3    H2 1201   6.976   4.540   4.805
  413TIP3   OH2 1202   0.755   3.744   2.334
  413TIP3    H1 1203   0.679   3.693   2.306
  413TIP3    H2 1204   0.718   3.830   2.356
  414TIP3   OH2 1205   3.979   1.849   0.145
  414TIP3    H1 1206   4.018   1.901   0.216
  414TIP3    H2 1207   3.931   1.779   0.191
  415TIP3   OH2 1208   5.088   2.058   1.525
  415TIP3    H1 1209   5.065   2.095   1.440
  415TIP3    H2 1210   5.022   1.992   1.542
  416TIP3   OH2 1211   5.539   1.938   1.603
  416TIP3    H1 1212   5.513   1.854   1.565
  416TIP3    H2 1213   5.457   1.987   1.610
  417TIP3   OH2 1214   2.308   3.919   0.600
  417TIP3    H1 1215   2.243   3.900   0.668
  417TIP3    H2 1216   2.349   3.834   0.582
  418TIP3   OH2 1217   3.214   1.789   4.448
  418TIP3    H1 1218   3.151   1.852   4.413
  418TIP3    H2 1219   3.204   1.796   4.543
  419TIP3   OH2 1220   6.780   6.135   0.902
  419TIP3    H1 1221   6.815   6.168   0.984
  419TIP3    H2 1222   6.686   6.125   0.919
  420TIP3   OH2 1223   6.389   1.053   3.280
  420TIP3    H1 1224   6.454   1.008   3.227
  420TIP3    H2 1225   6.433   1.070   3.364
  421TIP3   OH2 1226   4.205   1.614   4.111
  421TIP3    H1 1227   4.287   1.588   4.153
  421TIP3    H2 1228   4.224   1.700   4.072
  422TIP3   OH2 1229   6.691   5.574   0.345
  422TIP3    H1 1230   6.598   5.560   0.325
  422TIP3    H2 1231   6.693   5.661   0.385
  423TIP3   OH2 1232   6.659   1.255   2.227
  423TIP3    H1 1233   6.631   1.343   2.202
  423TIP3    H2 1234   6.619   1.240   2.313
  424TIP3   OH2 1235   5.580   5.605   0.153
  424TIP3    H1 1236   5.581   5.599   0.248
  424TIP3    H2 1237   5.582   5.513   0.124
  425TIP3   OH2 1238   0.450   1.807   4.331
  425TIP3    H1 1239   0.505   1.818   4.253
  425TIP3    H2 1240   0.501   1.844   4.402
  426TIP3   OH2 1241   5.546   5.896   3.938
  426TIP3    H1 1242   5.458   5.923   3.965
  426TIP3    H2 1243   5.531   5.823   3.878
  427TIP3   OH2 1244   6.965   4.049   3.058
  427TIP3    H1 1245   6.972   4.069   3.151
  427TIP3    H2 1246   6.961   3.953   3.054
  428TIP3   OH2 1247   4.184   0.206   2.571
  428TIP3    H1 1248   4.181   0.110   2.563
  428TIP3    H2 1249   4.156   0.224   2.660
  429TIP3   OH2 1250   3.833   5.808   2.839
  429TIP3    H1 1251   3.781   5.886   2.818
  429TIP3    H2 1252   3.794   5.775   2.920
  430TIP3   OH2 1253   6.566   3.908   1.178
  430TIP3    H1 1254   6.508   3.981   1.161
  430TIP3    H2 1255   6.582   3.911   1.272
  431TIP3   OH2 1256   0.787   3.207   1.142
  431TIP3    H1 1257   0.714   3.184   1.084
  431TIP3    H2 1258   0.864   3.168   1.100
  432TIP3   OH2 1259   0.643  -0.017   2.513
  432TIP3    H1 1260   0.627  -0.041   2.604
  432TIP3    H2 1261   0.629   0.078   2.511
  433TIP3   OH2 1262   0.269   4.360   5.506
  433TIP3    H1 1263   0.300   4.402   5.586
  433TIP3    H2 1264   0.348   4.342   5.456
  434TIP3   OH2 1265   5.410   2.296   0.705
  434TIP3    H1 1266   5.464   2.374   0.694
  434TIP3    H2 1267   5.457   2.228   0.655
  435TIP3   OH2 1268   0.691   4.491   4.940
  435TIP3    H1 1269   0.718   4.573   4.980
  435TIP3    H2 1270   0.741   4.485   4.859
  436TIP3   OH2 1271   5.200   4.096   4.841
  436TIP3    H1 1272   5.123   4.120   4.788
  436TIP3    H2 1273   5.228   4.012   4.805
  437TIP3   OH2 1274   1.245   2.064   5.490
  437TIP3    H1 1275   1.174   2.114   5.450
  437TIP3    H2 1276   1.267   1.996   5.426
  438TIP3   OH2 1277   2.776   0.318   0.748
  438TIP3    H1 1278   2.793   0.404   0.708
  438TIP3    H2 1279   2.713   0.277   0.688
  439TIP3   OH2 1280   6.269   6.580   4.950
  439TIP3    H1 1281   6.313   6.657   4.913
  439TIP3    H2 1282   6.231   6.612   5.032
  440TIP3   OH2 1283   5.782   5.832   4.417
  440TIP3    H1 1284   5.793   5.792   4.504
  440TIP3    H2 1285   5.699   5.879   4.422
  441TIP3   OH2 1286   0.014   3.780   5.356
  441TIP3    H1 1287  -0.006   3.850   5.294
  441TIP3    H2 1288  -0.066   3.728   5.362
  442TIP3   OH2 1289   6.324   5.842   5.532
  442TIP3    H1 1290   6.411   5.878   5.548
  442TIP3    H2 1291   6.331   5.750   5.560
  443TIP3   OH2 1292   4.663   4.478   4.219
  443TIP3    H1 1293   4.722   4.408   4.192
  443TIP3    H2 1294   4.701   4.512   4.300
  444TIP3   OH2 1295   3.777   4.977   2.626
  444TIP3    H1 1296   3.720   4.900   2.633
  444TIP3    H2 1297   3.776   4.998   2.533
  445TIP3   OH2 1298   0.589   0.934   1.753
  445TIP3    H1 1299   0.665   0.908   1.701
  445TIP3    H2 1300   0.518   0.942   1.690
  446TIP3   OH2 1301   1.597   0.159   4.283
  446TIP3    H1 1302   1.687   0.193   4.279
  446TIP3    H2 1303   1.542   0.238   4.283
  447TIP3   OH2 1304   5.411   2.064   4.090
  447TIP3    H1 1305   5.394   2.093   4.180
  447TIP3    H2 1306   5.440   2.143   4.045
  448TIP3   OH2 1307   0.411   5.763   3.080
  448TIP3    H1 1308   0.370   5.758   3.166
  448TIP3    H2 1309   0.454   5.678   3.069
  449TIP3   OH2 1310   1.540   1.187   5.927
  449TIP3    H1 1311   1.622   1.214   5.886
  449TIP3    H2 1312   1.472   1.233   5.878
  450TIP3   OH2 1313   6.792   3.689   4.502
  450TIP3    H1 1314   6.847   3.720   4.430
  450TIP3    H2 1315   6.752   3.608   4.469
  451TIP3   OH2 1316   2.227   3.909   3.860
  451TIP3    H1 1317   2.270   3.994   3.867
  451TIP3    H2 1318   2.142   3.921   3.903
  452TIP3   OH2 1319   0.082   5.539   5.487
  452TIP3    H1 1320   0.147   5.599   5.449
  452TIP3    H2 1321   0.024   5.596   5.538
  453TIP3   OH2 1322   1.351   2.669   5.003
  453TIP3    H1 1323   1.359   2.695   5.094
  453TIP3    H2 1324   1.259   2.686   4.980
  454TIP3   OH2 1325   4.117   4.576   4.384
  454TIP3    H1 1326   4.075   4.641   4.328
  454TIP3    H2 1327   4.049   4.548   4.445
  455TIP3   OH2 1328   0.753   6.371   0.258
  455TIP3    H1 1329   0.814   6.436   0.223
  455TIP3    H2 1330   0.802   6.288   0.253
  456TIP3   OH2 1331   6.543   0.641   2.382
  456TIP3    H1 1332   6.486   0.565   2.380
  456TIP3    H2 1333   6.521   0.690   2.303
  457TIP3   OH2 1334   2.745   5.180   1.036
  457TIP3    H1 1335   2.781   5.101   1.076
  457TIP3    H2 1336   2.652   5.177   1.059
  458TIP3   OH2 1337   4.964   3.339   1.344
  458TIP3    H1 1338   5.023   3.346   1.419
  458TIP3    H2 1339   4.893   3.283   1.374
  459TIP3   OH2 1340   5.732   0.685   4.334
  459TIP3    H1 1341   5.737   0.742   4.411
  459TIP3    H2 1342   5.811   0.631   4.339
  460TIP3   OH2 1343   2.114   3.279   5.417
  460TIP3    H1 1344   2.204   3.260   5.389
  460TIP3    H2 1345   2.105   3.374   5.406
  461TIP3   OH2 1346   0.512   5.248   0.668
  461TIP3    H1 1347   0.434   5.294   0.640
  461TIP3    H2 1348   0.584   5.306   0.646
  462TIP3   OH2 1349   3.918   5.888   5.202
  462TIP3    H1 1350   3.947   5.835   5.276
  462TIP3    H2 1351   3.899   5.974   5.239
  463TIP3   OH2 1352  -0.028   0.335   1.843
  463TIP3    H1 1353   0.060   0.311   1.874
  463TIP3    H2 1354  -0.012   0.397   1.772
  464TIP3   OH2 1355   1.462   6.765   3.707
  464TIP3    H1 1356   1.491   6.850   3.740
  464TIP3    H2 1357   1.436   6.782   3.617
  465TIP3   OH2 1358   6.234   6.366   3.957
  465TIP3    H1 1359   6.170   6.368   3.886
  465TIP3    H2 1360   6.308   6.419   3.925
  466TIP3   OH2 1361   1.947   6.544   4.972
  466TIP3    H1 1362   2.026   6.490   4.981
  466TIP3    H2 1363   1.970   6.628   5.012
  467TIP3   OH2 1364   5.741   2.624   0.645
  467TIP3    H1 1365   5.778   2.575   0.572
  467TIP3    H2 1366   5.656   2.583   0.660
  468TIP3   OH2 1367   6.631   6.258   4.234
  468TIP3    H1 1368   6.538   6.254   4.214
  468TIP3    H2 1369   6.668   6.314   4.166
  469TIP3   OH2 1370   4.466   2.272   4.098
  469TIP3    H1 1371   4.401   2.298   4.033
  469TIP3    H2 1372   4.535   2.338   4.091
  470TIP3   OH2 1373   1.635   4.697   4.195
  470TIP3    H1 1374   1.669   4.641   4.264
  470TIP3    H2 1375   1.654   4.650   4.114
  471TIP3   OH2 1376   5.043   1.372   2.151
  471TIP3    H1 1377   5.094   1.387   2.071
  471TIP3    H2 1378   4.996   1.454   2.165
  472TIP3   OH2 1379   6.470   3.674   5.731
  472TIP3    H1 1380   6.442   3.583   5.739
  472TIP3    H2 1381   6.420   3.708   5.657
  473TIP3   OH2 1382   5.779   2.423   1.095
  473TIP3    H1 1383   5.859   2.403   1.144
  473TIP3    H2 1384   5.709   2.392   1.152
  474TIP3   OH2 1385   3.761   0.262   0.878
  474TIP3    H1 1386   3.754   0.269   0.783
  474TIP3    H2 1387   3.671   0.261   0.909
  475TIP3   OH2 1388   4.210   2.536   1.337
  475TIP3    H1 1389   4.164   2.558   1.257
  475TIP3    H2 1390   4.208   2.616   1.389
  476TIP3   OH2 1391   6.826   0.429   4.062
  476TIP3    H1 1392   6.787   0.418   4.148
  476TIP3    H2 1393   6.751   0.433   4.002
  477TIP3   OH2 1394   6.451   4.555   2.616
  477TIP3    H1 1395   6.500   4.480   2.650
  477TIP3    H2 1396   6.409   4.593   2.693
  478TIP3   OH2 1397   3.059   6.361   3.332
  478TIP3    H1 1398   3.115   6.338   3.258
  478TIP3    H2 1399   2.978   6.393   3.292
  479TIP3   OH2 1400   2.484   5.209   5.373
  479TIP3    H1 1401   2.564   5.262   5.371
  479TIP3    H2 1402   2.437   5.235   5.293
  480TIP3   OH2 1403   1.304   4.028   0.069
  480TIP3    H1 1404   1.374   3.972   0.102
  480TIP3    H2 1405   1.225   3.994   0.110
  481TIP3   OH2 1406   4.488   1.035   2.978
  481TIP3    H1 1407   4.415   1.050   2.917
  481TIP3    H2 1408   4.540   0.967   2.935
  482TIP3   OH2 1409   6.208   2.931   2.928
  482TIP3    H1 1410   6.167   2.898   2.848
  482TIP3    H2 1411   6.302   2.921   2.913
  483TIP3   OH2 1412   6.685   4.178   2.278
  483TIP3    H1 1413   6.720   4.193   2.366
  483TIP3    H2 1414   6.758   4.138   2.230
  484TIP3   OH2 1415   6.019   3.323   4.807
  484TIP3    H1 1416   6.090   3.372   4.848
  484TIP3    H2 1417   6.046   3.311   4.716
  485TIP3   OH2 1418   4.134   1.162   5.095
  485TIP3    H1 1419   4.178   1.166   5.180
  485TIP3    H2 1420   4.087   1.079   5.095
  486TIP3   OH2 1421   6.218   5.067   4.996
  486TIP3    H1 1422   6.130   5.101   4.979
  486TIP3    H2 1423   6.272   5.104   4.926
  487TIP3   OH2 1424   4.127   6.057   3.548
  487TIP3    H1 1425   4.139   6.107   3.629
  487TIP3    H2 1426   4.177   5.976   3.562
  488TIP3   OH2 1427   3.268   1.331   3.848
  488TIP3    H1 1428   3.192   1.366   3.801
  488TIP3    H2 1429   3.344   1.369   3.804
  489TIP3   OH2 1430   4.080   2.771   4.940
  489TIP3    H1 1431   4.012   2.837   4.953
  489TIP3    H2 1432   4.037   2.688   4.957
  490TIP3   OH2 1433   2.393   6.599   1.445
  490TIP3    H1 1434   2.308   6.608   1.401
  490TIP3    H2 1435   2.373   6.609   1.538
  491TIP3   OH2 1436   3.100   6.085   1.835
  491TIP3    H1 1437   3.170   6.020   1.835
  491TIP3    H2 1438   3.130   6.154   1.895
  492TIP3   OH2 1439   1.836   5.092   5.767
  492TIP3    H1 1440   1.846   5.074   5.674
  492TIP3    H2 1441   1.917   5.138   5.791
  493TIP3   OH2 1442   2.284   2.409   5.042
  493TIP3    H1 1443   2.285   2.337   4.980
  493TIP3    H2 1444   2.352   2.469   5.010
  494TIP3   OH2 1445   3.778   2.687   1.111
  494TIP3    H1 1446   3.701   2.655   1.158
  494TIP3    H2 1447   3.790   2.777   1.142
  495TIP3   OH2 1448   2.454   1.961   0.791
  495TIP3    H1 1449   2.475   2.042   0.744
  495TIP3    H2 1450   2.537   1.913   0.794
  496TIP3   OH2 1451   5.761   5.369   2.691
  496TIP3    H1 1452   5.668   5.380   2.712
  496TIP3    H2 1453   5.773   5.417   2.610
  497TIP3   OH2 1454  -0.001   5.501   2.552
  497TIP3    H1 1455   0.067   5.454   2.601
  497TIP3    H2 1456   0.044   5.578   2.517
  498TIP3   OH2 1457   1.451   5.743   3.868
  498TIP3    H1 1458   1.397   5.807   3.821
  498TIP3    H2 1459   1.506   5.796   3.925
  499TIP3   OH2 1460   0.620   4.016   1.000
  499TIP3    H1 1461   0.582   4.026   1.087
  499TIP3    H2 1462   0.712   3.997   1.016
  500TIP3   OH2 1463   2.029   1.980   4.629
  500TIP3    H1 1464   1.960   1.921   4.597
  500TIP3    H2 1465   1.983   2.044   4.682
  501TIP3   OH2 1466   3.778   0.488   3.956
  501TIP3    H1 1467   3.873   0.490   3.942
  501TIP3    H2 1468   3.749   0.577   3.936
  502TIP3   OH2 1469   1.741   2.653   2.008
  502TIP3    H1 1470   1.734   2.710   2.085
  502TIP3    H2 1471   1.674   2.686   1.948
  503TIP3   OH2 1472   1.423   2.880   2.241
  503TIP3    H1 1473   1.328   2.871   2.251
  503TIP3    H2 1474   1.458   2.797   2.274
  504TIP3   OH2 1475   5.754   2.993   3.062
  504TIP3    H1 1476   5.785   3.006   3.151
  504TIP3    H2 1477   5.776   3.073   3.015
  505TIP3   OH2 1478   2.922   1.741   1.490
  505TIP3    H1 1479   2.832   1.740   1.523
  505TIP3    H2 1480   2.949   1.833   1.495
  506TIP3   OH2 1481   6.340   1.323   1.179
  506TIP3    H1 1482   6.345   1.242   1.128
  506TIP3    H2 1483   6.293   1.298   1.258
  507TIP3   OH2 1484   1.593   3.200   1.915
  507TIP3    H1 1485   1.542   3.149   1.853
  507TIP3    H2 1486   1.607   3.140   1.989
  508TIP3   OH2 1487   1.834   1.169   4.035
  508TIP3    H1 1488   1.800   1.131   3.955
  508TIP3    H2 1489   1.795   1.256   4.040
  509TIP3   OH2 1490   4.863   0.269   0.704
  509TIP3    H1 1491   4.918   0.197   0.673
  509TIP3    H2 1492   4.894   0.286   0.793
  510TIP3   OH2 1493   5.373   6.425   0.154
  510TIP3    H1 1494   5.298   6.462   0.200
  510TIP3    H2 1495   5.380   6.335   0.188
  511TIP3   OH2 1496   4.344   5.221   3.298
  511TIP3    H1 1497   4.380   5.162   3.364
  511TIP3    H2 1498   4.249   5.214   3.308
  512TIP3   OH2 1499   3.201   2.977   4.046
  512TIP3    H1 1500   3.293   2.999   4.032
  512TIP3    H2 1501   3.201   2.882   4.059
  513TIP3   OH2 1502   1.328   3.782   4.629
  513TIP3    H1 1503   1.258   3.799   4.567
  513TIP3    H2 1504   1.356   3.692   4.611
  514TIP3   OH2 1505   3.485   2.522   4.376
  514TIP3    H1 1506   3.564   2.511   4.429
  514TIP3    H2 1507   3.426   2.453   4.406
  515TIP3   OH2 1508   6.490   4.305   3.116
  515TIP3    H1 1509   6.406   4.270   3.147
  515TIP3    H2 1510   6.556   4.267   3.174
  516TIP3   OH2 1511   5.550   0.350   2.303
  516TIP3    H1 1512   5.579   0.434   2.339
  516TIP3    H2 1513   5.521   0.300   2.379
  517TIP3   OH2 1514   1.012   3.893   0.699
  517TIP3    H1 1515   0.973   3.853   0.621
  517TIP3    H2 1516   0.996   3.987   0.688
  518TIP3   OH2 1517   2.909   0.037   2.207
  518TIP3    H1 1518   2.815   0.056   2.202
  518TIP3    H2 1519   2.944   0.073   2.125
  519TIP3   OH2 1520   5.893   0.749   3.919
  519TIP3    H1 1521   5.854   0.662   3.933
  519TIP3    H2 1522   5.842   0.786   3.847
  520TIP3   OH2 1523   0.959   1.001   2.770
  520TIP3    H1 1524   0.917   1.029   2.690
  520TIP3    H2 1525   1.049   1.034   2.763
  521TIP3   OH2 1526   6.976   4.591   1.385
  521TIP3    H1 1527   6.988   4.623   1.474
  521TIP3    H2 1528   6.909   4.523   1.393
  522TIP3   OH2 1529   5.924   2.645   2.928
  522TIP3    H1 1530   5.980   2.612   2.858
  522TIP3    H2 1531   5.946   2.591   3.004
  523TIP3   OH2 1532   5.673   1.837   5.126
  523TIP3    H1 1533   5.637   1.767   5.071
  523TIP3    H2 1534   5.767   1.837   5.107
  524TIP3   OH2 1535   3.690   5.765   0.563
  524TIP3    H1 1536   3.616   5.709   0.589
  524TIP3    H2 1537   3.665   5.852   0.595
  525TIP3   OH2 1538   1.737   4.233   1.297
  525TIP3    H1 1539   1.698   4.311   1.337
  525TIP3    H2 1540   1.666   4.169   1.294
  526TIP3   OH2 1541   4.219   6.035   0.165
  526TIP3    H1 1542   4.242   5.949   0.199
  526TIP3    H2 1543   4.173   6.016   0.083
  527TIP3   OH2 1544   2.514   4.318   2.215
  527TIP3    H1 1545   2.559   4.308   2.298
  527TIP3    H2 1546   2.430   4.358   2.238
  528TIP3   OH2 1547   7.180   2.555   0.004
  528TIP3    H1 1548   7.136   2.542   0.088
  528TIP3    H2 1549   7.180   2.468  -0.036
  529TIP3   OH2 1550   3.167   4.715   3.041
  529TIP3    H1 1551   3.104   4.716   3.113
  529TIP3    H2 1552   3.253   4.712   3.083
  530TIP3   OH2 1553   5.209   6.397   5.486
  530TIP3    H1 1554   5.147   6.452   5.533
  530TIP3    H2 1555   5.288   6.399   5.540
  531TIP3   OH2 1556   5.308   6.318   4.809
  531TIP3    H1 1557   5.217   6.305   4.781
  531TIP3    H2 1558   5.319   6.260   4.884
  532TIP3   OH2 1559   5.752   3.698   5.839
  532TIP3    H1 1560   5.766   3.692   5.934
  532TIP3    H2 1561   5.837   3.726   5.804
  533TIP3   OH2 1562   3.979   2.500   3.981
  533TIP3    H1 1563   3.978   2.404   3.986
  533TIP3    H2 1564   3.939   2.520   3.897
  534TIP3   OH2 1565   4.023   5.181   3.721
  534TIP3    H1 1566   3.972   5.238   3.779
  534TIP3    H2 1567   4.055   5.239   3.652
  535TIP3   OH2 1568   2.515   3.320   4.698
  535TIP3    H1 1569   2.512   3.360   4.611
  535TIP3    H2 1570   2.497   3.393   4.758
  536TIP3   OH2 1571   0.422   0.137   0.852
  536TIP3    H1 1572   0.485   0.129   0.781
  536TIP3    H2 1573   0.352   0.191   0.816
  537TIP3   OH2 1574   6.189   4.202   0.512
  537TIP3    H1 1575   6.257   4.161   0.566
  537TIP3    H2 1576   6.109   4.192   0.564
  538TIP3   OH2 1577   6.539   5.275   3.781
  538TIP3    H1 1578   6.602   5.345   3.761
  538TIP3    H2 1579   6.498   5.302   3.863
  539TIP3   OH2 1580   3.008   2.912   2.946
  539TIP3    H1 1581   2.963   2.838   2.904
  539TIP3    H2 1582   3.050   2.874   3.023
  540TIP3   OH2 1583   2.586   6.077   2.981
  540TIP3    H1 1584   2.638   5.998   2.994
  540TIP3    H2 1585   2.573   6.112   3.069
  541TIP3   OH2 1586   4.884   2.359   5.722
  541TIP3    H1 1587   4.824   2.403   5.782
  541TIP3    H2 1588   4.827   2.317   5.658
  542TIP3   OH2 1589   5.341   5.172   1.058
  542TIP3    H1 1590   5.261   5.215   1.087
  542TIP3    H2 1591   5.329   5.080   1.080
  543TIP3   OH2 1592   6.886   0.219   4.988
  543TIP3    H1 1593   6.925   0.299   4.954
  543TIP3    H2 1594   6.944   0.149   4.956
  544TIP3   OH2 1595   5.834   1.036  -0.004
  544TIP3    H1 1596   5.815   0.971   0.063
  544TIP3    H2 1597   5.900   1.093   0.036
  545TIP3   OH2 1598   2.358   2.415   2.769
  545TIP3    H1 1599   2.284   2.361   2.797
  545TIP3    H2 1600   2.403   2.362   2.703
  546TIP3   OH2 1601   4.698   6.721   3.243
  546TIP3    H1 1602   4.721   6.743   3.153
  546TIP3    H2 1603   4.761   6.769   3.297
  547TIP3   OH2 1604   6.077   2.253   5.885
  547TIP3    H1 1605   6.168   2.280   5.898
  547TIP3    H2 1606   6.080   2.196   5.808
  548TIP3   OH2 1607   1.312   1.429   0.617
  548TIP3    H1 1608   1.281   1.467   0.699
  548TIP3    H2 1609   1.298   1.335   0.626
  549TIP3   OH2 1610   7.185   0.087   3.628
  549TIP3    H1 1611   7.236   0.049   3.700
  549TIP3    H2 1612   7.229   0.056   3.549
  550TIP3   OH2 1613   7.015   2.218   1.771
  550TIP3    H1 1614   7.048   2.128   1.769
  550TIP3    H2 1615   7.021   2.248   1.680
  551TIP3   OH2 1616   0.914   4.059   2.887
  551TIP3    H1 1617   0.985   4.119   2.864
  551TIP3    H2 1618   0.835   4.113   2.881
  552TIP3   OH2 1619   2.736   1.307   3.304
  552TIP3    H1 1620   2.763   1.261   3.383
  552TIP3    H2 1621   2.803   1.374   3.291
  553TIP3   OH2 1622   0.378   5.361   1.262
  553TIP3    H1 1623   0.419   5.431   1.212
  553TIP3    H2 1624   0.288   5.357   1.228
  554TIP3   OH2 1625   4.990   0.745   5.254
  554TIP3    H1 1626   5.000   0.734   5.159
  554TIP3    H2 1627   4.995   0.840   5.268
  555TIP3   OH2 1628   5.602   0.571   3.282
  555TIP3    H1 1629   5.645   0.578   3.197
  555TIP3    H2 1630   5.607   0.478   3.303
  556TIP3   OH2 1631   1.620   2.383   3.934
  556TIP3    H1 1632   1.710   2.393   3.965
  556TIP3    H2 1633   1.590   2.473   3.920
  557TIP3   OH2 1634   3.798   5.240   3.875
  557TIP3    H1 1635   3.829   5.229   3.965
  557TIP3    H2 1636   3.706   5.265   3.883
  558TIP3   OH2 1637   3.793   5.535   2.721
  558TIP3    H1 1638   3.824   5.520   2.632
  558TIP3    H2 1639   3.863   5.584   2.763
  559TIP3   OH2 1640   6.608   0.470   0.228
  559TIP3    H1 1641   6.578   0.490   0.317
  559TIP3    H2 1642   6.646   0.552   0.197
  560TIP3   OH2 1643   3.425   2.062   5.849
  560TIP3    H1 1644   3.492   2.105   5.903
  560TIP3    H2 1645   3.466   1.979   5.822
  561TIP3   OH2 1646   2.153   4.289   3.574
  561TIP3    H1 1647   2.105   4.230   3.632
  561TIP3    H2 1648   2.172   4.236   3.497
  562TIP3   OH2 1649   6.694   0.722   0.192
  562TIP3    H1 1650   6.610   0.718   0.147
  562TIP3    H2 1651   6.740   0.795   0.150
  563TIP3   OH2 1652   0.989   4.898   2.495
  563TIP3    H1 1653   0.983   4.902   2.400
  563TIP3    H2 1654   1.064   4.953   2.518
  564TIP3   OH2 1655   1.276   5.490   4.550
  564TIP3    H1 1656   1.218   5.440   4.492
  564TIP3    H2 1657   1.337   5.425   4.584
  565TIP3   OH2 1658   3.267   1.080   3.952
  565TIP3    H1 1659   3.305   1.157   3.910
  565TIP3    H2 1660   3.176   1.104   3.967
  566TIP3   OH2 1661   3.089   5.536   2.271
  566TIP3    H1 1662   3.030   5.556   2.198
  566TIP3    H2 1663   3.048   5.461   2.315
  567TIP3   OH2 1664   2.002   2.857   4.401
  567TIP3    H1 1665   1.992   2.774   4.447
  567TIP3    H2 1666   1.955   2.920   4.456
  568TIP3   OH2 1667   4.625   2.691   1.290
  568TIP3    H1 1668   4.588   2.610   1.254
  568TIP3    H2 1669   4.671   2.732   1.217
  569TIP3   OH2 1670   1.245   0.214   4.243
  569TIP3    H1 1671   1.327   0.263   4.235
  569TIP3    H2 1672   1.245   0.182   4.333
  570TIP3   OH2 1673   0.029   0.600   1.922
  570TIP3    H1 1674   0.034   0.629   2.014
  570TIP3    H2 1675  -0.006   0.511   1.927
  571TIP3   OH2 1676   3.609   3.358   1.545
  571TIP3    H1 1677   3.612   3.452   1.527
  571TIP3    H2 1678   3.533   3.327   1.496
  572TIP3   OH2 1679   2.298   4.373   2.894
  572TIP3    H1 1680   2.286   4.324   2.813
  572TIP3    H2 1681   2.268   4.313   2.962
  573TIP3   OH2 1682   0.963   1.169   4.501
  573TIP3    H1 1683   0.985   1.089   4.455
  573TIP3    H2 1684   0.875   1.192   4.471
  574TIP3   OH2 1685   0.321   4.075   5.359
  574TIP3    H1 1686   0.263   4.108   5.290
  574TIP3    H2 1687   0.379   4.149   5.378
  575TIP3   OH2 1688   4.146   2.727   4.032
  575TIP3    H1 1689   4.065   2.778   4.026
  575TIP3    H2 1690   4.169   2.729   4.125
  576TIP3   OH2 1691   3.178   4.391   5.418
  576TIP3    H1 1692   3.238   4.353   5.353
  576TIP3    H2 1693   3.170   4.483   5.391
  577TIP3   OH2 1694   6.223   3.157   3.103
  577TIP3    H1 1695   6.231   3.081   3.044
  577TIP3    H2 1696   6.296   3.213   3.078
  578TIP3   OH2 1697   5.988   0.518   4.729
  578TIP3    H1 1698   5.940   0.474   4.800
  578TIP3    H2 1699   5.963   0.610   4.737
  579TIP3   OH2 1700   3.300   3.676   2.668
  579TIP3    H1 1701   3.280   3.675   2.762
  579TIP3    H2 1702   3.241   3.611   2.630
  580TIP3   OH2 1703   0.312   5.894   3.904
  580TIP3    H1 1704   0.233   5.863   3.860
  580TIP3    H2 1705   0.281   5.962   3.964
  581TIP3   OH2 1706   0.572   5.265   4.556
  581TIP3    H1 1707   0.554   5.221   4.473
  581TIP3    H2 1708   0.619   5.200   4.608
  582TIP3   OH2 1709   4.047   4.326   2.869
  582TIP3    H1 1710   4.028   4.241   2.909
  582TIP3    H2 1711   4.061   4.385   2.943
  583TIP3   OH2 1712   7.052   5.894   5.335
  583TIP3    H1 1713   6.985   5.928   5.394
  583TIP3    H2 1714   7.082   5.813   5.376
  584TIP3   OH2 1715   2.647   5.090   2.587
  584TIP3    H1 1716   2.590   5.089   2.510
  584TIP3    H2 1717   2.588   5.109   2.660
  585TIP3   OH2 1718   5.569   1.685   4.794
  585TIP3    H1 1719   5.596   1.610   4.741
  585TIP3    H2 1720   5.524   1.646   4.870
  586TIP3   OH2 1721   1.434   2.719   5.296
  586TIP3    H1 1722   1.388   2.655   5.350
  586TIP3    H2 1723   1.525   2.691   5.297
  587TIP3   OH2 1724   2.384   3.947   2.570
  587TIP3    H1 1725   2.328   4.009   2.523
  587TIP3    H2 1726   2.345   3.940   2.657
  588TIP3   OH2 1727   5.272   3.192   1.276
  588TIP3    H1 1728   5.209   3.220   1.343
  588TIP3    H2 1729   5.262   3.097   1.273
  589TIP3   OH2 1730   0.370   3.674   3.305
  589TIP3    H1 1731   0.431   3.676   3.230
  589TIP3    H2 1732   0.415   3.723   3.373
  590TIP3   OH2 1733   3.922   0.429   1.097
  590TIP3    H1 1734   3.946   0.351   1.048
  590TIP3    H2 1735   3.871   0.481   1.035
  591TIP3   OH2 1736   4.847   4.931   3.010
  591TIP3    H1 1737   4.887   5.010   3.048
  591TIP3    H2 1738   4.853   4.866   3.079
  592TIP3   OH2 1739   6.395   6.171   1.816
  592TIP3    H1 1740   6.382   6.076   1.820
  592TIP3    H2 1741   6.342   6.199   1.742
  593TIP3   OH2 1742   4.672   1.771   1.380
  593TIP3    H1 1743   4.698   1.723   1.301
  593TIP3    H2 1744   4.576   1.764   1.382
  594TIP3   OH2 1745   7.073   0.215   2.064
  594TIP3    H1 1746   7.111   0.254   2.143
  594TIP3    H2 1747   7.099   0.274   1.993
  595TIP3   OH2 1748   6.243   1.777   5.740
  595TIP3    H1 1749   6.159   1.774   5.786
  595TIP3    H2 1750   6.269   1.686   5.731
  596TIP3   OH2 1751   3.074   3.105   3.144
  596TIP3    H1 1752   3.017   3.029   3.130
  596TIP3    H2 1753   3.160   3.067   3.162
  597TIP3   OH2 1754   3.044   4.238   2.228
  597TIP3    H1 1755   3.031   4.218   2.320
  597TIP3    H2 1756   2.964   4.208   2.185
  598TIP3   OH2 1757   6.921   6.534   1.713
  598TIP3    H1 1758   6.852   6.600   1.707
  598TIP3    H2 1759   6.909   6.479   1.636
  599TIP3   OH2 1760   0.104   3.849   2.164
  599TIP3    H1 1761   0.112   3.932   2.118
  599TIP3    H2 1762   0.154   3.861   2.245
  600TIP3   OH2 1763   4.388   5.719   4.413
  600TIP3    H1 1764   4.373   5.794   4.356
  600TIP3    H2 1765   4.418   5.650   4.354
  601TIP3   OH2 1766   0.835   0.741   5.552
  601TIP3    H1 1767   0.763   0.804   5.538
  601TIP3    H2 1768   0.914   0.793   5.538
  602TIP3   OH2 1769   2.253   5.082   2.998
  602TIP3    H1 1770   2.214   5.152   2.945
  602TIP3    H2 1771   2.194   5.072   3.073
  603TIP3   OH2 1772   5.054   6.733   5.487
  603TIP3    H1 1773   5.088   6.726   5.397
  603TIP3    H2 1774   4.969   6.776   5.478
  604TIP3   OH2 1775   6.068   5.453   1.540
  604TIP3    H1 1776   5.993   5.513   1.546
  604TIP3    H2 1777   6.028   5.366   1.535
  605TIP3   OH2 1778   6.650   3.961   3.197
  605TIP3    H1 1779   6.634   4.007   3.115
  605TIP3    H2 1780   6.568   3.915   3.215
  606TIP3   OH2 1781   0.746   3.860   0.297
  606TIP3    H1 1782   0.823   3.909   0.270
  606TIP3    H2 1783   0.695   3.849   0.217
  607TIP3   OH2 1784   7.178   2.007   1.080
  607TIP3    H1 1785   7.249   2.001   1.017
  607TIP3    H2 1786   7.219   2.036   1.161
  608TIP3   OH2 1787   3.533   2.527   1.879
  608TIP3    H1 1788   3.621   2.522   1.917
  608TIP3    H2 1789   3.502   2.615   1.901
  609TIP3   OH2 1790   4.495   5.156   5.070
  609TIP3    H1 1791   4.573   5.137   5.122
  609TIP3    H2 1792   4.447   5.221   5.121
  610TIP3   OH2 1793   4.161   1.217   1.379
  610TIP3    H1 1794   4.256   1.228   1.381
  610TIP3    H2 1795   4.133   1.235   1.469
  611TIP3   OH2 1796   5.148   2.287   0.547
  611TIP3    H1 1797   5.088   2.359   0.569
  611TIP3    H2 1798   5.225   2.302   0.603
  612TIP3   OH2 1799   7.105   2.783   4.033
  612TIP3    H1 1800   7.024   2.814   3.992
  612TIP3    H2 1801   7.075   2.723   4.102
  613TIP3   OH2 1802   4.682   5.819   1.907
  613TIP3    H1 1803   4.773   5.792   1.923
  613TIP3    H2 1804   4.688   5.880   1.833
  614TIP3   OH2 1805   4.118   2.547   4.441
  614TIP3    H1 1806   4.024   2.535   4.429
  614TIP3    H2 1807   4.144   2.474   4.498
  615TIP3   OH2 1808   4.484   3.014   1.918
  615TIP3    H1 1809   4.556   3.076   1.921
  615TIP3    H2 1810   4.422   3.052   1.856
  616TIP3   OH2 1811   2.439   4.358   3.331
  616TIP3    H1 1812   2.444   4.418   3.405
  616TIP3    H2 1813   2.345   4.350   3.313
  617TIP3   OH2 1814   2.889   5.257   1.261
  617TIP3    H1 1815   2.919   5.171   1.288
  617TIP3    H2 1816   2.863   5.246   1.169
  618TIP3   OH2 1817   1.117   1.802   0.131
  618TIP3    H1 1818   1.147   1.812   0.221
  618TIP3    H2 1819   1.121   1.890   0.093
  619TIP3   OH2 1820   2.163   3.554   1.954
  619TIP3    H1 1821   2.190   3.473   1.910
  619TIP3    H2 1822   2.121   3.524   2.035
  620TIP3   OH2 1823   4.414   4.415   4.150
  620TIP3    H1 1824   4.438   4.322   4.148
  620TIP3    H2 1825   4.492   4.459   4.185
  621TIP3   OH2 1826   2.729   3.574   1.213
  621TIP3    H1 1827   2.703   3.655   1.169
  621TIP3    H2 1828   2.648   3.524   1.221
  622TIP3   OH2 1829   4.571   5.910   4.869
  622TIP3    H1 1830   4.480   5.901   4.897
  622TIP3    H2 1831   4.566   5.920   4.774
  623TIP3   OH2 1832   4.477   0.519   3.489
  623TIP3    H1 1833   4.396   0.559   3.520
  623TIP3    H2 1834   4.456   0.487   3.401
  624TIP3   OH2 1835   1.864   5.749   3.126
  624TIP3    H1 1836   1.933   5.799   3.081
  624TIP3    H2 1837   1.908   5.709   3.201
  625TIP3   OH2 1838   1.636   5.884   5.066
  625TIP3    H1 1839   1.588   5.892   4.983
  625TIP3    H2 1840   1.585   5.937   5.128
  626TIP3   OH2 1841   1.248   5.829   1.895
  626TIP3    H1 1842   1.183   5.839   1.965
  626TIP3    H2 1843   1.333   5.837   1.940
  627TIP3   OH2 1844   1.439   3.308   3.465
  627TIP3    H1 1845   1.505   3.260   3.414
  627TIP3    H2 1846   1.379   3.342   3.399
  628TIP3   OH2 1847   6.057   4.351   1.178
  628TIP3    H1 1848   6.151   4.356   1.197
  628TIP3    H2 1849   6.030   4.442   1.167
  629TIP3   OH2 1850   2.791   2.966   1.831
  629TIP3    H1 1851   2.810   3.059   1.826
  629TIP3    H2 1852   2.703   2.962   1.869
  630TIP3   OH2 1853   4.659   2.021   1.961
  630TIP3    H1 1854   4.692   2.079   2.030
  630TIP3    H2 1855   4.569   2.052   1.947
  631TIP3   OH2 1856   6.206   5.142   2.243
  631TIP3    H1 1857   6.218   5.059   2.289
  631TIP3    H2 1858   6.219   5.209   2.310
  632TIP3   OH2 1859   4.305   1.955   1.712
  632TIP3    H1 1860   4.217   1.991   1.706
  632TIP3    H2 1861   4.296   1.864   1.685
  633TIP3   OH2 1862   4.499   4.686   4.682
  633TIP3    H1 1863   4.501   4.705   4.776
  633TIP3    H2 1864   4.482   4.592   4.677
  634TIP3   OH2 1865   4.893   6.774   0.800
  634TIP3    H1 1866   4.971   6.769   0.744
  634TIP3    H2 1867   4.889   6.866   0.827
  635TIP3   OH2 1868   2.295   2.278   4.242
  635TIP3    H1 1869   2.269   2.217   4.311
  635TIP3    H2 1870   2.275   2.364   4.277
  636TIP3   OH2 1871   3.802   1.240   5.258
  636TIP3    H1 1872   3.713   1.261   5.286
  636TIP3    H2 1873   3.793   1.162   5.204
  637TIP3   OH2 1874   6.062   5.974   3.773
  637TIP3    H1 1875   5.967   5.976   3.758
  637TIP3    H2 1876   6.090   6.065   3.758
  638TIP3   OH2 1877   3.493   4.815   4.630
  638TIP3    H1 1878   3.512   4.807   4.723
  638TIP3    H2 1879   3.523   4.903   4.607
  639TIP3   OH2 1880   5.817   5.875   5.715
  639TIP3    H1 1881   5.742   5.915   5.759
  639TIP3    H2 1882   5.780   5.804   5.663
  640TIP3   OH2 1883   4.159   1.000   3.608
  640TIP3    H1 1884   4.184   1.053   3.532
  640TIP3    H2 1885   4.064   1.010   3.613
  641TIP3   OH2 1886   2.602   4.220   5.627
  641TIP3    H1 1887   2.694   4.194   5.630
  641TIP3    H2 1888   2.565   4.186   5.709
  642TIP3   OH2 1889   6.821   3.256   3.645
  642TIP3    H1 1890   6.769   3.217   3.575
  642TIP3    H2 1891   6.764   3.323   3.684
  643TIP3   OH2 1892   0.984   4.780   5.576
  643TIP3    H1 1893   0.938   4.716   5.631
  643TIP3    H2 1894   0.955   4.762   5.487
  644TIP3   OH2 1895   2.684   5.653   1.616
  644TIP3    H1 1896   2.628   5.600   1.558
  644TIP3    H2 1897   2.766   5.604   1.621
  645TIP3   OH2 1898   1.701   5.333   4.463
  645TIP3    H1 1899   1.678   5.310   4.373
  645TIP3    H2 1900   1.760   5.407   4.455
  646TIP3   OH2 1901   0.046   5.236   4.697
  646TIP3    H1 1902   0.060   5.151   4.655
  646TIP3    H2 1903   0.080   5.300   4.634
  647TIP3   OH2 1904   3.902   5.738   0.376
  647TIP3    H1 1905   3.968   5.770   0.438
  647TIP3    H2 1906   3.818   5.757   0.419
  648TIP3   OH2 1907   4.069   3.397   0.344
  648TIP3    H1 1908   4.007   3.415   0.273
  648TIP3    H2 1909   4.091   3.304   0.334
  649TIP3   OH2 1910   4.049   3.545   5.387
  649TIP3    H1 1911   3.963   3.523   5.351
  649TIP3    H2 1912   4.032   3.562   5.480
  650TIP3   OH2 1913   2.855   2.401   0.240
  650TIP3    H1 1914   2.875   2.450   0.320
  650TIP3    H2 1915   2.811   2.465   0.184
  651TIP3   OH2 1916   5.631   6.105   2.625
  651TIP3    H1 1917   5.681   6.145   2.697
  651TIP3    H2 1918   5.678   6.134   2.546
  652TIP3   OH2 1919   5.195   3.698   4.464
  652TIP3    H1 1920   5.239   3.725   4.545
  652TIP3    H2 1921   5.106   3.731   4.473
  653TIP3   OH2 1922   0.389   4.173   0.475
  653TIP3    H1 1923   0.331   4.108   0.435
  653TIP3    H2 1924   0.457   4.188   0.410
  654TIP3   OH2 1925   0.510   5.897   3.452
  654TIP3    H1 1926   0.461   5.827   3.409
  654TIP3    H2 1927   0.554   5.943   3.381
  655TIP3   OH2 1928   4.034   0.235   0.891
  655TIP3    H1 1929   4.068   0.149   0.868
  655TIP3    H2 1930   3.943   0.234   0.861
  656TIP3   OH2 1931   0.139   1.762   1.936
  656TIP3    H1 1932   0.048   1.732   1.942
  656TIP3    H2 1933   0.171   1.760   2.026
  657TIP3   OH2 1934   3.831   4.158   0.968
  657TIP3    H1 1935   3.818   4.238   0.916
  657TIP3    H2 1936   3.788   4.089   0.917
  658TIP3   OH2 1937   4.540   5.026   4.556
  658TIP3    H1 1938   4.509   5.054   4.642
  658TIP3    H2 1939   4.526   4.931   4.556
  659TIP3   OH2 1940   0.221   0.105   4.068
  659TIP3    H1 1941   0.243   0.179   4.012
  659TIP3    H2 1942   0.164   0.141   4.135
  660TIP3   OH2 1943   1.939   4.625   3.429
  660TIP3    H1 1944   1.867   4.648   3.370
  660TIP3    H2 1945   1.995   4.568   3.377
  661TIP3   OH2 1946   3.520   4.807   1.187
  661TIP3    H1 1947   3.595   4.866   1.193
  661TIP3    H2 1948   3.533   4.745   1.258
  662TIP3   OH2 1949   2.345   6.546   2.968
  662TIP3    H1 1950   2.311   6.612   3.028
  662TIP3    H2 1951   2.285   6.472   2.977
  663TIP3   OH2 1952   0.812   5.944   1.566
  663TIP3    H1 1953   0.827   5.934   1.660
  663TIP3    H2 1954   0.899   5.932   1.527
  664TIP3   OH2 1955   3.069   4.271   1.571
  664TIP3    H1 1956   3.016   4.197   1.542
  664TIP3    H2 1957   3.045   4.284   1.662
  665TIP3   OH2 1958   3.964   1.426   4.274
  665TIP3    H1 1959   3.944   1.420   4.181
  665TIP3    H2 1960   3.898   1.486   4.309
  666TIP3   OH2 1961   6.388   3.412   3.030
  666TIP3    H1 1962   6.399   3.477   2.961
  666TIP3    H2 1963   6.302   3.431   3.068
  667TIP3   OH2 1964   6.259   5.478   2.687
  667TIP3    H1 1965   6.222   5.406   2.739
  667TIP3    H2 1966   6.194   5.547   2.691
  668TIP3   OH2 1967   0.119   5.330   1.197
  668TIP3    H1 1968   0.078   5.298   1.278
  668TIP3    H2 1969   0.082   5.418   1.185
  669TIP3   OH2 1970   4.486   5.557   0.037
  669TIP3    H1 1971   4.540   5.566  -0.041
  669TIP3    H2 1972   4.539   5.596   0.107
  670TIP3   OH2 1973   2.954   4.722   3.236
  670TIP3    H1 1974   2.950   4.627   3.233
  670TIP3    H2 1975   2.869   4.749   3.272
  671TIP3   OH2 1976   0.317   6.607   4.932
  671TIP3    H1 1977   0.247   6.575   4.988
  671TIP3    H2 1978   0.350   6.685   4.976
  672TIP3   OH2 1979   1.715   3.895   3.468
  672TIP3    H1 1980   1.771   3.949   3.413
  672TIP3    H2 1981   1.633   3.886   3.419
  673TIP3   OH2 1982   4.991   0.168   2.026
  673TIP3    H1 1983   4.976   0.149   1.933
  673TIP3    H2 1984   5.015   0.260   2.028
  674TIP3   OH2 1985   3.923   4.474   5.048
  674TIP3    H1 1986   3.900   4.551   5.100
  674TIP3    H2 1987   3.868   4.404   5.083
  675TIP3   OH2 1988   1.194   1.209   3.675
  675TIP3    H1 1989   1.185   1.180   3.765
  675TIP3    H2 1990   1.267   1.158   3.640
  676TIP3   OH2 1991   1.056   5.377   3.646
  676TIP3    H1 1992   1.139   5.403   3.608
  676TIP3    H2 1993   1.072   5.290   3.683
  677TIP3   OH2 1994   1.622   5.721   4.225
  677TIP3    H1 1995   1.588   5.768   4.301
  677TIP3    H2 1996   1.552   5.661   4.200
  678TIP3   OH2 1997   0.523   4.942   5.094
  678TIP3    H1 1998   0.490   5.032   5.096
  678TIP3    H2 1999   0.449   4.890   5.064
  679TIP3   OH2 2000   0.753   5.813   5.791
  679TIP3    H1 2001   0.712   5.882   5.739
  679TIP3    H2 2002   0.847   5.831   5.785
  680TIP3   OH2 2003   1.686   5.069   5.252
  680TIP3    H1 2004   1.678   5.150   5.202
  680TIP3    H2 2005   1.652   5.091   5.339
  681TIP3   OH2 2006   2.116   2.209   1.803
  681TIP3    H1 2007   2.057   2.248   1.739
  681TIP3    H2 2008   2.172   2.150   1.753
  682TIP3   OH2 2009   4.733   3.196   3.228
  682TIP3    H1 2010   4.671   3.192   3.301
  682TIP3    H2 2011   4.683   3.169   3.152
  683TIP3   OH2 2012   6.485   2.653   2.856
  683TIP3    H1 2013   6.467   2.739   2.893
  683TIP3    H2 2014   6.539   2.608   2.921
  684TIP3   OH2 2015   6.438   2.228   1.318
  684TIP3    H1 2016   6.529   2.199   1.332
  684TIP3    H2 2017   6.386   2.172   1.376
  685TIP3   OH2 2018   4.363   6.662   4.757
  685TIP3    H1 2019   4.355   6.636   4.665
  685TIP3    H2 2020   4.333   6.586   4.806
  686TIP3   OH2 2021   6.572   2.750   0.548
  686TIP3    H1 2022   6.591   2.740   0.641
  686TIP3    H2 2023   6.484   2.788   0.545
  687TIP3   OH2 2024   2.775   4.331   4.950
  687TIP3    H1 2025   2.823   4.398   4.998
  687TIP3    H2 2026   2.720   4.289   5.017
  688TIP3   OH2 2027   1.827   0.406   3.513
  688TIP3    H1 2028   1.877   0.370   3.440
  688TIP3    H2 2029   1.768   0.335   3.539
  689TIP3   OH2 2030   0.714   5.004   0.407
  689TIP3    H1 2031   0.679   4.917   0.389
  689TIP3    H2 2032   0.738   5.002   0.500
  690TIP3   OH2 2033   3.647   2.033   4.804
  690TIP3    H1 2034   3.555   2.012   4.788
  690TIP3    H2 2035   3.682   1.956   4.849
  691TIP3   OH2 2036   2.137   6.731   0.602
  691TIP3    H1 2037   2.097   6.787   0.669
  691TIP3    H2 2038   2.212   6.690   0.647
  692TIP3   OH2 2039   3.348   0.377   4.367
  692TIP3    H1 2040   3.426   0.401   4.318
  692TIP3    H2 2041   3.275   0.404   4.311
  693TIP3   OH2 2042   4.407   3.873   3.462
  693TIP3    H1 2043   4.420   3.949   3.406
  693TIP3    H2 2044   4.313   3.875   3.483
  694TIP3   OH2 2045   3.281   1.214   2.765
  694TIP3    H1 2046   3.211   1.268   2.802
  694TIP3    H2 2047   3.254   1.197   2.675
  695TIP3   OH2 2048   0.592   0.626   3.106
  695TIP3    H1 2049   0.603   0.548   3.160
  695TIP3    H2 2050   0.647   0.692   3.147
  696TIP3   OH2 2051   4.872   6.505   5.226
  696TIP3    H1 2052   4.795   6.527   5.173
  696TIP3    H2 2053   4.932   6.579   5.213
  697TIP3   OH2 2054   4.231   2.811   2.909
  697TIP3    H1 2055   4.242   2.810   3.004
  697TIP3    H2 2056   4.254   2.722   2.881
  698TIP3   OH2 2057   6.698   2.933   5.918
  698TIP3    H1 2058   6.687   3.027   5.926
  698TIP3    H2 2059   6.654   2.910   5.836
  699TIP3   OH2 2060   5.628   6.513   2.800
  699TIP3    H1 2061   5.682   6.517   2.721
  699TIP3    H2 2062   5.561   6.579   2.786
  700TIP3   OH2 2063   5.742   1.432   4.293
  700TIP3    H1 2064   5.707   1.344   4.276
  700TIP3    H2 2065   5.666   1.483   4.322
  701TIP3   OH2 2066   4.183   6.459   4.965
  701TIP3    H1 2067   4.255   6.424   4.912
  701TIP3    H2 2068   4.210   6.444   5.055
  702TIP3   OH2 2069   0.883   5.170   4.282
  702TIP3    H1 2070   0.906   5.201   4.194
  702TIP3    H2 2071   0.802   5.215   4.303
  703TIP3   OH2 2072   4.125   5.453   5.486
  703TIP3    H1 2073   4.166   5.367   5.484
  703TIP3    H2 2074   4.033   5.436   5.466
  704TIP3   OH2 2075   3.634   6.231   2.628
  704TIP3    H1 2076   3.695   6.302   2.650
  704TIP3    H2 2077   3.624   6.183   2.710
  705TIP3   OH2 2078   1.987   5.820   2.517
  705TIP3    H1 2079   1.962   5.744   2.570
  705TIP3    H2 2080   2.059   5.789   2.462
  706TIP3   OH2 2081   4.024   0.463   0.585
  706TIP3    H1 2082   3.936   0.427   0.577
  706TIP3    H2 2083   4.037   0.475   0.679
  707TIP3   OH2 2084   6.145   3.631   4.779
  707TIP3    H1 2085   6.204   3.682   4.834
  707TIP3    H2 2086   6.070   3.612   4.835
  708TIP3   OH2 2087   0.938   2.911   4.943
  708TIP3    H1 2088   0.901   2.989   4.985
  708TIP3    H2 2089   0.864   2.871   4.898
  709TIP3   OH2 2090   0.931   2.626   0.212
  709TIP3    H1 2091   0.910   2.554   0.272
  709TIP3    H2 2092   0.849   2.673   0.201
  710TIP3   OH2 2093   2.878   3.790   0.658
  710TIP3    H1 2094   2.809   3.854   0.641
  710TIP3    H2 2095   2.854   3.715   0.604
  711TIP3   OH2 2096   6.035   0.419   0.028
  711TIP3    H1 2097   5.940   0.421   0.028
  711TIP3    H2 2098   6.061   0.475   0.101
  712TIP3   OH2 2099   0.775   1.063   2.566
  712TIP3    H1 2100   0.757   1.025   2.480
  712TIP3    H2 2101   0.725   1.144   2.568
  713TIP3   OH2 2102   4.748   6.609   4.786
  713TIP3    H1 2103   4.825   6.662   4.764
  713TIP3    H2 2104   4.739   6.548   4.713
  714TIP3   OH2 2105   6.564   4.838   3.619
  714TIP3    H1 2106   6.484   4.887   3.599
  714TIP3    H2 2107   6.626   4.904   3.650
  715TIP3   OH2 2108   2.346   2.478   4.674
  715TIP3    H1 2109   2.316   2.401   4.721
  715TIP3    H2 2110   2.441   2.476   4.682
  716TIP3   OH2 2111   1.118   1.673   3.175
  716TIP3    H1 2112   1.070   1.705   3.252
  716TIP3    H2 2113   1.134   1.580   3.195
  717TIP3   OH2 2114   3.468   6.580   1.334
  717TIP3    H1 2115   3.488   6.671   1.311
  717TIP3    H2 2116   3.488   6.530   1.255
  718TIP3   OH2 2117   5.065   0.420   2.821
  718TIP3    H1 2118   5.130   0.350   2.826
  718TIP3    H2 2119   5.114   0.496   2.789
  719TIP3   OH2 2120   6.030   3.254   5.479
  719TIP3    H1 2121   6.064   3.196   5.547
  719TIP3    H2 2122   5.937   3.234   5.475
  720TIP3   OH2 2123   2.332   3.875   1.874
  720TIP3    H1 2124   2.239   3.867   1.857
  720TIP3    H2 2125   2.346   3.827   1.956
  721TIP3   OH2 2126   0.888   3.495   0.661
  721TIP3    H1 2127   0.854   3.424   0.607
  721TIP3    H2 2128   0.838   3.489   0.743
  722TIP3   OH2 2129   4.621   4.441   3.921
  722TIP3    H1 2130   4.605   4.509   3.987
  722TIP3    H2 2131   4.702   4.468   3.877
  723TIP3   OH2 2132   2.979   0.224   1.179
  723TIP3    H1 2133   2.958   0.189   1.092
  723TIP3    H2 2134   2.895   0.255   1.213
  724TIP3   OH2 2135   6.757   5.730   2.376
  724TIP3    H1 2136   6.712   5.802   2.420
  724TIP3    H2 2137   6.848   5.737   2.405
  725TIP3   OH2 2138   2.877   1.067   5.416
  725TIP3    H1 2139   2.882   1.162   5.413
  725TIP3    H2 2140   2.824   1.044   5.339
  726TIP3   OH2 2141   4.276   3.030   4.344
  726TIP3    H1 2142   4.249   2.939   4.328
  726TIP3    H2 2143   4.216   3.062   4.411
  727TIP3   OH2 2144   4.797   4.003   0.109
  727TIP3    H1 2145   4.794   3.953   0.027
  727TIP3    H2 2146   4.729   3.963   0.164
  728TIP3   OH2 2147   5.949   6.367   5.358
  728TIP3    H1 2148   5.944   6.400   5.447
  728TIP3    H2 2149   6.002   6.431   5.311
  729TIP3   OH2 2150   1.643   5.731   2.957
  729TIP3    H1 2151   1.711   5.758   3.019
  729TIP3    H2 2152   1.662   5.781   2.877
  730TIP3   OH2 2153   4.936   6.223   3.938
  730TIP3    H1 2154   4.852   6.229   3.983
  730TIP3    H2 2155   4.999   6.204   4.008
  731TIP3   OH2 2156   5.428   6.746   5.753
  731TIP3    H1 2157   5.341   6.769   5.787
  731TIP3    H2 2158   5.466   6.689   5.819
  732TIP3   OH2 2159   5.798   6.022   3.738
  732TIP3    H1 2160   5.744   6.067   3.803
  732TIP3    H2 2161   5.739   5.958   3.697
  733TIP3   OH2 2162   6.726   0.573   5.029
  733TIP3    H1 2163   6.678   0.494   5.005
  733TIP3    H2 2164   6.749   0.561   5.121
  734TIP3   OH2 2165   2.441   3.299   5.830
  734TIP3    H1 2166   2.347   3.288   5.841
  734TIP3    H2 2167   2.480   3.248   5.901
  735TIP3   OH2 2168   3.760   3.797   3.883
  735TIP3    H1 2169   3.744   3.747   3.963
  735TIP3    H2 2170   3.817   3.869   3.912
  736TIP3   OH2 2171   5.505   3.363   1.358
  736TIP3    H1 2172   5.575   3.353   1.293
  736TIP3    H2 2173   5.427   3.329   1.315
  737TIP3   OH2 2174   6.931   3.194   5.010
  737TIP3    H1 2175   6.854   3.138   4.996
  737TIP3    H2 2176   7.005   3.133   5.014
  738TIP3   OH2 2177   1.070   0.257   0.807
  738TIP3    H1 2178   0.983   0.217   0.795
  738TIP3    H2 2179   1.063   0.342   0.764
  739TIP3   OH2 2180   2.831   1.972   0.280
  739TIP3    H1 2181   2.900   1.925   0.234
  739TIP3    H2 2182   2.860   2.063   0.280
  740TIP3   OH2 2183   3.366   0.657   1.757
  740TIP3    H1 2184   3.419   0.685   1.831
  740TIP3    H2 2185   3.426   0.657   1.683
  741TIP3   OH2 2186   4.567   3.228   0.608
  741TIP3    H1 2187   4.553   3.278   0.528
  741TIP3    H2 2188   4.562   3.293   0.678
  742TIP3   OH2 2189   6.233   2.814   3.724
  742TIP3    H1 2190   6.236   2.903   3.687
  742TIP3    H2 2191   6.189   2.762   3.657
  743TIP3   OH2 2192   1.417   6.412   0.071
  743TIP3    H1 2193   1.447   6.499   0.097
  743TIP3    H2 2194   1.324   6.411   0.092
  744TIP3   OH2 2195   5.687   5.701   1.813
  744TIP3    H1 2196   5.608   5.650   1.795
  744TIP3    H2 2197   5.759   5.639   1.801
  745TIP3   OH2 2198   5.136   2.327   5.619
  745TIP3    H1 2199   5.096   2.387   5.556
  745TIP3    H2 2200   5.076   2.328   5.694
  746TIP3   OH2 2201   5.234   5.721   1.998
  746TIP3    H1 2202   5.189   5.644   2.034
  746TIP3    H2 2203   5.259   5.772   2.076
  747TIP3   OH2 2204   0.836   2.277   0.313
  747TIP3    H1 2205   0.806   2.186   0.314
  747TIP3    H2 2206   0.834   2.302   0.220
  748TIP3   OH2 2207   4.239   2.158   2.179
  748TIP3    H1 2208   4.148   2.186   2.176
  748TIP3    H2 2209   4.275   2.197   2.258
  749TIP3   OH2 2210   4.439   1.398   5.112
  749TIP3    H1 2211   4.500   1.443   5.054
  749TIP3    H2 2212   4.353   1.434   5.090
  750TIP3   OH2 2213   3.144   5.456   2.819
  750TIP3    H1 2214   3.233   5.471   2.853
  750TIP3    H2 2215   3.158   5.424   2.730
  751TIP3   OH2 2216   5.875   0.214   0.971
  751TIP3    H1 2217   5.923   0.134   0.994
  751TIP3    H2 2218   5.783   0.188   0.972
  752TIP3   OH2 2219   1.434   2.969   2.750
  752TIP3    H1 2220   1.440   3.064   2.745
  752TIP3    H2 2221   1.514   2.942   2.794
  753TIP3   OH2 2222   1.654   3.610   5.146
  753TIP3    H1 2223   1.679   3.526   5.185
  753TIP3    H2 2224   1.558   3.610   5.149
  754TIP3   OH2 2225   0.948   5.247   4.022
  754TIP3    H1 2226   1.041   5.253   4.000
  754TIP3    H2 2227   0.921   5.161   3.991
  755TIP3   OH2 2228   6.523   0.747   1.346
  755TIP3    H1 2229   6.539   0.668   1.294
  755TIP3    H2 2230   6.607   0.764   1.389
  756TIP3   OH2 2231   4.390   4.243   2.504
  756TIP3    H1 2232   4.396   4.288   2.419
  756TIP3    H2 2233   4.300   4.256   2.532
  757TIP3   OH2 2234   6.009   3.068   4.399
  757TIP3    H1 2235   6.081   3.017   4.362
  757TIP3    H2 2236   5.955   3.093   4.323
  758TIP3   OH2 2237   5.068   0.670   4.926
  758TIP3    H1 2238   4.979   0.686   4.894
  758TIP3    H2 2239   5.067   0.579   4.955
  759TIP3   OH2 2240   3.046   2.751   4.384
  759TIP3    H1 2241   3.030   2.700   4.464
  759TIP3    H2 2242   3.038   2.842   4.411
  760TIP3   OH2 2243   6.642   2.064   2.307
  760TIP3    H1 2244   6.725   2.102   2.336
  760TIP3    H2 2245   6.629   2.098   2.219
  761TIP3   OH2 2246   5.449   6.657   3.995
  761TIP3    H1 2247   5.371   6.619   4.035
  761TIP3    H2 2248   5.425   6.747   3.975
  762TIP3   OH2 2249   4.774   3.298   5.009
  762TIP3    H1 2250   4.686   3.311   5.047
  762TIP3    H2 2251   4.774   3.208   4.977
  763TIP3   OH2 2252   3.682   4.553   4.759
  763TIP3    H1 2253   3.689   4.638   4.804
  763TIP3    H2 2254   3.773   4.531   4.737
  764TIP3   OH2 2255   0.030   5.090   2.424
  764TIP3    H1 2256   0.042   5.005   2.383
  764TIP3    H2 2257   0.085   5.150   2.373
  765TIP3   OH2 2258   2.953   6.739   1.187
  765TIP3    H1 2259   3.020   6.729   1.119
  765TIP3    H2 2260   2.888   6.673   1.165
  766TIP3   OH2 2261   7.197   2.144   5.796
  766TIP3    H1 2262   7.206   2.049   5.793
  766TIP3    H2 2263   7.138   2.161   5.870
  767TIP3   OH2 2264   5.785   1.248   3.718
  767TIP3    H1 2265   5.842   1.231   3.793
  767TIP3    H2 2266   5.833   1.312   3.665
  768TIP3   OH2 2267   1.324   3.282   5.505
  768TIP3    H1 2268   1.287   3.239   5.428
  768TIP3    H2 2269   1.256   3.276   5.572
  769TIP3   OH2 2270   2.695   6.385   0.099
  769TIP3    H1 2271   2.696   6.295   0.068
  769TIP3    H2 2272   2.624   6.387   0.164
  770TIP3   OH2 2273   2.325   0.898   4.098
  770TIP3    H1 2274   2.359   0.947   4.173
  770TIP3    H2 2275   2.236   0.931   4.086
  771TIP3   OH2 2276   3.976   6.467   4.093
  771TIP3    H1 2277   3.927   6.447   4.013
  771TIP3    H2 2278   3.971   6.563   4.101
  772TIP3   OH2 2279   5.545   0.724   5.098
  772TIP3    H1 2280   5.457   0.706   5.131
  772TIP3    H2 2281   5.582   0.637   5.083
  773TIP3   OH2 2282   3.005   1.108   5.028
  773TIP3    H1 2283   2.914   1.081   5.041
  773TIP3    H2 2284   3.013   1.190   5.077
  774TIP3   OH2 2285   6.242   1.299   1.443
  774TIP3    H1 2286   6.146   1.300   1.441
  774TIP3    H2 2287   6.265   1.283   1.534
  775TIP3   OH2 2288   7.153   6.564   5.495
  775TIP3    H1 2289   7.241   6.535   5.470
  775TIP3    H2 2290   7.111   6.587   5.413
  776TIP3   OH2 2291   0.658   1.457   1.355
  776TIP3    H1 2292   0.609   1.437   1.435
  776TIP3    H2 2293   0.742   1.490   1.387
  777TIP3   OH2 2294   5.532   5.165   5.239
  777TIP3    H1 2295   5.549   5.237   5.301
  777TIP3    H2 2296   5.466   5.111   5.283
  778TIP3   OH2 2297   3.708   3.837   5.012
  778TIP3    H1 2298   3.690   3.930   4.997
  778TIP3    H2 2299   3.778   3.816   4.951
  779TIP3   OH2 2300   6.905   5.086   0.424
  779TIP3    H1 2301   6.846   5.162   0.419
  779TIP3    H2 2302   6.900   5.047   0.337
  780TIP3   OH2 2303   1.706   3.261   2.622
  780TIP3    H1 2304   1.617   3.228   2.634
  780TIP3    H2 2305   1.718   3.264   2.527
  781TIP3   OH2 2306   4.356   3.600   5.635
  781TIP3    H1 2307   4.355   3.519   5.584
  781TIP3    H2 2308   4.283   3.592   5.696
  782TIP3   OH2 2309   3.314   2.945   3.120
  782TIP3    H1 2310   3.336   2.900   3.039
  782TIP3    H2 2311   3.381   2.917   3.182
  783TIP3   OH2 2312   0.269   0.360   0.767
  783TIP3    H1 2313   0.267   0.437   0.823
  783TIP3    H2 2314   0.271   0.395   0.678
  784TIP3   OH2 2315   2.940   0.216   3.141
  784TIP3    H1 2316   3.006   0.165   3.187
  784TIP3    H2 2317   2.982   0.301   3.125
  785TIP3   OH2 2318   6.824   2.063   1.897
  785TIP3    H1 2319   6.868   2.002   1.837
  785TIP3    H2 2320   6.877   2.143   1.892
  786TIP3   OH2 2321   0.996   2.107   5.805
  786TIP3    H1 2322   0.929   2.080   5.742
  786TIP3    H2 2323   0.969   2.194   5.834
  787TIP3   OH2 2324   4.465   2.666   2.958
  787TIP3    H1 2325   4.498   2.632   2.875
  787TIP3    H2 2326   4.503   2.753   2.966
  788TIP3   OH2 2327   6.868   1.782   1.218
  788TIP3    H1 2328   6.795   1.805   1.161
  788TIP3    H2 2329   6.909   1.707   1.175
  789TIP3   OH2 2330   4.669   4.709   1.532
  789TIP3    H1 2331   4.715   4.709   1.449
  789TIP3    H2 2332   4.609   4.635   1.526
  790TIP3   OH2 2333   1.627   6.395   3.103
  790TIP3    H1 2334   1.634   6.431   3.015
  790TIP3    H2 2335   1.575   6.460   3.151
  791TIP3   OH2 2336   2.065   4.988   2.623
  791TIP3    H1 2337   1.978   5.021   2.644
  791TIP3    H2 2338   2.122   5.025   2.691
  792TIP3   OH2 2339   4.424   1.822   2.758
  792TIP3    H1 2340   4.415   1.907   2.801
  792TIP3    H2 2341   4.492   1.777   2.809
  793TIP3   OH2 2342   3.455   6.637   0.070
  793TIP3    H1 2343   3.536   6.672   0.107
  793TIP3    H2 2344   3.390   6.706   0.085
  794TIP3   OH2 2345   5.851   0.892   1.252
  794TIP3    H1 2346   5.834   0.835   1.326
  794TIP3    H2 2347   5.844   0.981   1.287
  795TIP3   OH2 2348   1.610   2.269   1.310
  795TIP3    H1 2349   1.660   2.293   1.232
  795TIP3    H2 2350   1.558   2.194   1.283
  796TIP3   OH2 2351   0.328   2.809   3.171
  796TIP3    H1 2352   0.273   2.857   3.233
  796TIP3    H2 2353   0.306   2.717   3.186
  797TIP3   OH2 2354   4.678   4.573   3.362
  797TIP3    H1 2355   4.598   4.613   3.330
  797TIP3    H2 2356   4.695   4.500   3.302
  798TIP3   OH2 2357   1.777   2.653   0.127
  798TIP3    H1 2358   1.692   2.654   0.082
  798TIP3    H2 2359   1.802   2.560   0.129
  799TIP3   OH2 2360   6.248   3.303   1.377
  799TIP3    H1 2361   6.219   3.393   1.363
  799TIP3    H2 2362   6.170   3.258   1.410
  800TIP3   OH2 2363   4.203   6.521   0.626
  800TIP3    H1 2364   4.127   6.467   0.601
  800TIP3    H2 2365   4.169   6.610   0.626
  801TIP3   OH2 2366   1.335   5.372   5.443
  801TIP3    H1 2367   1.338   5.411   5.530
  801TIP3    H2 2368   1.286   5.435   5.390
  802TIP3   OH2 2369   5.297   4.132   0.259
  802TIP3    H1 2370   5.337   4.185   0.327
  802TIP3    H2 2371   5.210   4.110   0.293
  803TIP3   OH2 2372   1.859   6.661   4.543
  803TIP3    H1 2373   1.787   6.705   4.588
  803TIP3    H2 2374   1.875   6.714   4.465
  804TIP3   OH2 2375   6.725   4.687   3.798
  804TIP3    H1 2376   6.668   4.731   3.735
  804TIP3    H2 2377   6.794   4.648   3.743
  805TIP3   OH2 2378   5.333   4.561   3.205
  805TIP3    H1 2379   5.292   4.623   3.145
  805TIP3    H2 2380   5.421   4.595   3.218
  806TIP3   OH2 2381   1.456   6.250   0.424
  806TIP3    H1 2382   1.477   6.177   0.483
  806TIP3    H2 2383   1.392   6.214   0.362
  807TIP3   OH2 2384   5.959   6.773   1.908
  807TIP3    H1 2385   5.898   6.840   1.940
  807TIP3    H2 2386   5.965   6.790   1.814
  808TIP3   OH2 2387   2.830   1.922   4.779
  808TIP3    H1 2388   2.767   1.850   4.773
  808TIP3    H2 2389   2.825   1.951   4.870
  809TIP3   OH2 2390   3.581   6.582   4.159
  809TIP3    H1 2391   3.629   6.640   4.218
  809TIP3    H2 2392   3.598   6.494   4.193
  810TIP3   OH2 2393   7.141   5.203   4.340
  810TIP3    H1 2394   7.105   5.125   4.298
  810TIP3    H2 2395   7.221   5.174   4.383
  811TIP3   OH2 2396   2.847   5.224   2.689
  811TIP3    H1 2397   2.833   5.316   2.711
  811TIP3    H2 2398   2.774   5.201   2.631
  812TIP3   OH2 2399   4.606   1.734   2.551
  812TIP3    H1 2400   4.621   1.640   2.565
  812TIP3    H2 2401   4.514   1.747   2.574
  813TIP3   OH2 2402   0.524   1.087   0.872
  813TIP3    H1 2403   0.550   1.081   0.964
  813TIP3    H2 2404   0.475   1.169   0.866
  814TIP3   OH2 2405   2.387   2.679   0.347
  814TIP3    H1 2406   2.391   2.599   0.294
  814TIP3    H2 2407   2.305   2.720   0.321
  815TIP3   OH2 2408   0.529   1.816   5.435
  815TIP3    H1 2409   0.535   1.767   5.353
  815TIP3    H2 2410   0.550   1.906   5.410
  816TIP3   OH2 2411   0.728   4.777   3.682
  816TIP3    H1 2412   0.810   4.756   3.637
  816TIP3    H2 2413   0.724   4.873   3.680
  817TIP3   OH2 2414   4.171   1.269   3.173
  817TIP3    H1 2415   4.180   1.362   3.150
  817TIP3    H2 2416   4.232   1.225   3.114
  818TIP3   OH2 2417   3.111   5.203   5.728
  818TIP3    H1 2418   3.040   5.265   5.743
  818TIP3    H2 2419   3.078   5.144   5.659
  819TIP3   OH2 2420   5.469   5.868   5.201
  819TIP3    H1 2421   5.379   5.900   5.191
  819TIP3    H2 2422   5.506   5.874   5.113
  820TIP3   OH2 2423   3.428   2.845   2.810
  820TIP3    H1 2424   3.378   2.778   2.857
  820TIP3    H2 2425   3.497   2.796   2.766
  821TIP3   OH2 2426   0.028   3.923   2.778
  821TIP3    H1 2427   0.116   3.960   2.785
  821TIP3    H2 2428   0.014   3.879   2.862
  822TIP3   OH2 2429   1.073   5.548   2.207
  822TIP3    H1 2430   1.104   5.531   2.117
  822TIP3    H2 2431   1.147   5.590   2.250
  823TIP3   OH2 2432   3.733   6.734   4.969
  823TIP3    H1 2433   3.747   6.773   4.882
  823TIP3    H2 2434   3.820   6.708   4.998
  824TIP3   OH2 2435   4.548   2.723   2.543
  824TIP3    H1 2436   4.520   2.812   2.559
  824TIP3    H2 2437   4.485   2.689   2.479
  825TIP3   OH2 2438   2.330   0.511   1.521
  825TIP3    H1 2439   2.361   0.504   1.431
  825TIP3    H2 2440   2.325   0.420   1.552
  826TIP3   OH2 2441   5.380   3.090   3.268
  826TIP3    H1 2442   5.319   3.158   3.294
  826TIP3    H2 2443   5.456   3.103   3.326
  827TIP3   OH2 2444   0.175   6.142   4.004
  827TIP3    H1 2445   0.139   6.154   3.916
  827TIP3    H2 2446   0.107   6.096   4.053
  828TIP3   OH2 2447   2.421   1.002   2.500
  828TIP3    H1 2448   2.349   0.950   2.463
  828TIP3    H2 2449   2.437   0.963   2.586
  829TIP3   OH2 2450   1.651   3.596   3.815
  829TIP3    H1 2451   1.635   3.581   3.722
  829TIP3    H2 2452   1.563   3.605   3.854
  830TIP3   OH2 2453   1.079   6.101   0.705
  830TIP3    H1 2454   1.121   6.097   0.791
  830TIP3    H2 2455   0.995   6.058   0.717
  831TIP3   OH2 2456   2.698   2.942   4.977
  831TIP3    H1 2457   2.753   3.011   5.015
  831TIP3    H2 2458   2.711   2.951   4.882
  832TIP3   OH2 2459   4.449   3.838   0.756
  832TIP3    H1 2460   4.396   3.830   0.836
  832TIP3    H2 2461   4.445   3.931   0.734
  833TIP3   OH2 2462   2.387   0.883   1.004
  833TIP3    H1 2463   2.338   0.940   0.945
  833TIP3    H2 2464   2.464   0.934   1.029
  834TIP3   OH2 2465   0.120   4.307   2.651
  834TIP3    H1 2466   0.123   4.340   2.741
  834TIP3    H2 2467   0.029   4.284   2.637
  835TIP3   OH2 2468   3.699   2.036   3.409
  835TIP3    H1 2469   3.728   1.958   3.455
  835TIP3    H2 2470   3.777   2.070   3.367
  836TIP3   OH2 2471   0.384   4.562   5.115
  836TIP3    H1 2472   0.383   4.470   5.086
  836TIP3    H2 2473   0.336   4.609   5.046
  837TIP3   OH2 2474   0.219   5.041   5.418
  837TIP3    H1 2475   0.195   5.084   5.500
  837TIP3    H2 2476   0.288   4.979   5.443
  838TIP3   OH2 2477   6.139   2.325   4.389
  838TIP3    H1 2478   6.200   2.384   4.434
  838TIP3    H2 2479   6.076   2.383   4.347
  839TIP3   OH2 2480   2.079   4.241   0.001
  839TIP3    H1 2481   2.142   4.184   0.045
  839TIP3    H2 2482   2.076   4.320   0.055
  840TIP3   OH2 2483   0.482   1.264   2.734
  840TIP3    H1 2484   0.552   1.316   2.773
  840TIP3    H2 2485   0.410   1.270   2.798
  841TIP3   OH2 2486   2.324   2.374   1.537
  841TIP3    H1 2487   2.245   2.391   1.485
  841TIP3    H2 2488   2.381   2.449   1.521
  842TIP3   OH2 2489   4.272   0.746   0.520
  842TIP3    H1 2490   4.243   0.778   0.435
  842TIP3    H2 2491   4.354   0.702   0.502
  843TIP3   OH2 2492   7.120   1.879   0.775
  843TIP3    H1 2493   7.077   1.795   0.794
  843TIP3    H2 2494   7.147   1.912   0.861
  844TIP3   OH2 2495   3.440   2.835   3.436
  844TIP3    H1 2496   3.508   2.902   3.439
  844TIP3    H2 2497   3.447   2.791   3.521
  845TIP3   OH2 2498   2.677   5.683   3.163
  845TIP3    H1 2499   2.682   5.732   3.080
  845TIP3    H2 2500   2.747   5.618   3.156
  846TIP3   OH2 2501   3.985   1.042   5.377
  846TIP3    H1 2502   4.057   1.084   5.424
  846TIP3    H2 2503   3.953   1.109   5.317
  847TIP3   OH2 2504   3.502   4.029   0.342
  847TIP3    H1 2505   3.449   4.086   0.398
  847TIP3    H2 2506   3.592   4.041   0.374
  848TIP3   OH2 2507   2.580   6.437   2.867
  848TIP3    H1 2508   2.524   6.499   2.915
  848TIP3    H2 2509   2.520   6.368   2.839
  849TIP3   OH2 2510   1.158   4.326   5.648
  849TIP3    H1 2511   1.104   4.368   5.715
  849TIP3    H2 2512   1.127   4.236   5.645
  850TIP3   OH2 2513   6.099   2.797   2.348
  850TIP3    H1 2514   6.172   2.823   2.404
  850TIP3    H2 2515   6.056   2.726   2.397
  851TIP3   OH2 2516   4.141   0.186   4.879
  851TIP3    H1 2517   4.054   0.189   4.917
  851TIP3    H2 2518   4.191   0.130   4.938
  852TIP3   OH2 2519   4.576   1.945   1.593
  852TIP3    H1 2520   4.529   2.029   1.587
  852TIP3    H2 2521   4.539   1.892   1.523
  853TIP3   OH2 2522   3.280   1.205   5.314
  853TIP3    H1 2523   3.264   1.111   5.308
  853TIP3    H2 2524   3.230   1.243   5.242
  854TIP3   OH2 2525   0.192   0.592   2.877
  854TIP3    H1 2526   0.126   0.522   2.871
  854TIP3    H2 2527   0.259   0.566   2.813
  855TIP3   OH2 2528   1.015   4.436   5.069
  855TIP3    H1 2529   0.959   4.470   5.139
  855TIP3    H2 2530   1.085   4.389   5.115
  856TIP3   OH2 2531   6.682   4.188   4.053
  856TIP3    H1 2532   6.647   4.218   4.136
  856TIP3    H2 2533   6.696   4.094   4.065
  857TIP3   OH2 2534   6.363   4.368   0.242
  857TIP3    H1 2535   6.420   4.325   0.179
  857TIP3    H2 2536   6.407   4.356   0.326
  858TIP3   OH2 2537   5.756   4.476   2.518
  858TIP3    H1 2538   5.699   4.426   2.459
  858TIP3    H2 2539   5.830   4.419   2.535
  859TIP3   OH2 2540   3.169   3.125   0.390
  859TIP3    H1 2541   3.110   3.095   0.460
  859TIP3    H2 2542   3.235   3.178   0.435
  860TIP3   OH2 2543   1.191   3.675   3.290
  860TIP3    H1 2544   1.216   3.584   3.272
  860TIP3    H2 2545   1.238   3.726   3.224
  861TIP3   OH2 2546   2.962   5.547   1.391
  861TIP3    H1 2547   2.951   5.452   1.397
  861TIP3    H2 2548   2.909   5.574   1.316
  862TIP3   OH2 2549   2.763   0.466   0.995
  862TIP3    H1 2550   2.858   0.472   0.988
  862TIP3    H2 2551   2.739   0.394   0.936
  863TIP3   OH2 2552   0.571   6.028   2.836
  863TIP3    H1 2553   0.507   6.027   2.907
  863TIP3    H2 2554   0.652   6.056   2.878
  864TIP3   OH2 2555   5.766   4.817   0.502
  864TIP3    H1 2556   5.675   4.831   0.525
  864TIP3    H2 2557   5.765   4.803   0.407
  865TIP3   OH2 2558   2.468   2.005   4.847
  865TIP3    H1 2559   2.483   1.978   4.757
  865TIP3    H2 2560   2.513   2.090   4.855
  866TIP3   OH2 2561   2.091   5.251   2.209
  866TIP3    H1 2562   2.171   5.211   2.244
  866TIP3    H2 2563   2.098   5.238   2.114
  867TIP3   OH2 2564   2.755   5.968   1.367
  867TIP3    H1 2565   2.727   5.955   1.458
  867TIP3    H2 2566   2.710   5.898   1.319
  868TIP3   OH2 2567   2.132   1.568   3.643
  868TIP3    H1 2568   2.066   1.511   3.604
  868TIP3    H2 2569   2.213   1.548   3.596
  869TIP3   OH2 2570   1.758   0.583   1.732
  869TIP3    H1 2571   1.798   0.603   1.647
  869TIP3    H2 2572   1.664   0.583   1.715
  870TIP3   OH2 2573   5.434   2.476   3.400
  870TIP3    H1 2574   5.528   2.493   3.398
  870TIP3    H2 2575   5.409   2.464   3.309
  871TIP3   OH2 2576   0.417   1.204   1.528
  871TIP3    H1 2577   0.350   1.243   1.472
  871TIP3    H2 2578   0.369   1.170   1.603
  872TIP3   OH2 2579   1.373   1.859   2.650
  872TIP3    H1 2580   1.374   1.923   2.578
  872TIP3    H2 2581   1.405   1.778   2.610
  873TIP3   OH2 2582   2.195   1.785   1.333
  873TIP3    H1 2583   2.145   1.715   1.376
  873TIP3    H2 2584   2.286   1.768   1.358
  874TIP3   OH2 2585   7.067   0.198   0.465
  874TIP3    H1 2586   7.052   0.114   0.507
  874TIP3    H2 2587   7.118   0.177   0.387
  875TIP3   OH2 2588   6.224   4.587   4.189
  875TIP3    H1 2589   6.213   4.674   4.227
  875TIP3    H2 2590   6.269   4.602   4.106
  876TIP3   OH2 2591   1.972   2.167   2.632
  876TIP3    H1 2592   1.916   2.217   2.572
  876TIP3    H2 2593   1.916   2.096   2.663
  877TIP3   OH2 2594   3.772   4.359   1.545
  877TIP3    H1 2595   3.703   4.379   1.608
  877TIP3    H2 2596   3.844   4.418   1.570
  878TIP3   OH2 2597   6.687   6.025   3.878
  878TIP3    H1 2598   6.719   5.973   3.952
  878TIP3    H2 2599   6.608   6.068   3.911
  879TIP3   OH2 2600   4.261   3.292   4.550
  879TIP3    H1 2601   4.229   3.364   4.496
  879TIP3    H2 2602   4.186   3.234   4.559
  880TIP3   OH2 2603   0.908   1.454   3.465
  880TIP3    H1 2604   0.960   1.533   3.479
  880TIP3    H2 2605   0.837   1.483   3.408
  881TIP3   OH2 2606   4.004   1.726   4.670
  881TIP3    H1 2607   4.009   1.777   4.589
  881TIP3    H2 2608   3.916   1.689   4.669
  882TIP3   OH2 2609   1.663   3.575   0.693
  882TIP3    H1 2610   1.641   3.489   0.657
  882TIP3    H2 2611   1.605   3.636   0.647
  883TIP3   OH2 2612   3.672   5.987   4.164
  883TIP3    H1 2613   3.727   5.922   4.208
  883TIP3    H2 2614   3.607   6.012   4.230
  884TIP3   OH2 2615   1.521   0.149   0.445
  884TIP3    H1 2616   1.485   0.066   0.474
  884TIP3    H2 2617   1.605   0.156   0.490
  885TIP3   OH2 2618   3.548   1.189   2.822
  885TIP3    H1 2619   3.456   1.215   2.822
  885TIP3    H2 2620   3.560   1.141   2.740
  886TIP3   OH2 2621   4.572   2.414   3.636
  886TIP3    H1 2622   4.596   2.449   3.551
  886TIP3    H2 2623   4.489   2.457   3.657
  887TIP3   OH2 2624   6.164   5.969   4.325
  887TIP3    H1 2625   6.091   5.959   4.385
  887TIP3    H2 2626   6.207   5.883   4.325
  888TIP3   OH2 2627   2.354   3.636   0.566
  888TIP3    H1 2628   2.379   3.627   0.474
  888TIP3    H2 2629   2.261   3.614   0.568
  889TIP3   OH2 2630   1.109   4.371   0.267
  889TIP3    H1 2631   1.133   4.400   0.355
  889TIP3    H2 2632   1.030   4.319   0.280
  890TIP3   OH2 2633   6.806   3.741   0.905
  890TIP3    H1 2634   6.822   3.649   0.925
  890TIP3    H2 2635   6.851   3.789   0.975
  891TIP3   OH2 2636   2.277   0.864   1.858
  891TIP3    H1 2637   2.307   0.813   1.783
  891TIP3    H2 2638   2.201   0.913   1.825
  892TIP3   OH2 2639   5.308   0.550   4.813
  892TIP3    H1 2640   5.290   0.475   4.870
  892TIP3    H2 2641   5.270   0.625   4.858
  893TIP3   OH2 2642   1.740   3.796   5.862
  893TIP3    H1 2643   1.647   3.798   5.839
  893TIP3    H2 2644   1.742   3.812   5.956
  894TIP3   OH2 2645   0.784   3.579   5.317
  894TIP3    H1 2646   0.822   3.666   5.308
  894TIP3    H2 2647   0.726   3.585   5.393
  895TIP3   OH2 2648   6.245   2.034   1.782
  895TIP3    H1 2649   6.152   2.034   1.758
  895TIP3    H2 2650   6.267   2.127   1.788
  896TIP3   OH2 2651   0.197   5.167   4.358
  896TIP3    H1 2652   0.235   5.082   4.382
  896TIP3    H2 2653   0.252   5.198   4.286
  897TIP3   OH2 2654   6.705   6.566   2.658
  897TIP3    H1 2655   6.621   6.541   2.617
  897TIP3    H2 2656   6.699   6.533   2.747
  898TIP3   OH2 2657   0.904   0.056   2.814
  898TIP3    H1 2658   0.908   0.040   2.908
  898TIP3    H2 2659   0.819   0.021   2.787
  899TIP3   OH2 2660   3.028   3.365   0.232
  899TIP3    H1 2661   3.075   3.337   0.311
  899TIP3    H2 2662   3.065   3.451   0.211
  900TIP3   OH2 2663   5.837   4.629   3.245
  900TIP3    H1 2664   5.839   4.571   3.321
  900TIP3    H2 2665   5.745   4.647   3.230
  901TIP3   OH2 2666   2.548   2.167   4.270
  901TIP3    H1 2667   2.573   2.241   4.325
  901TIP3    H2 2668   2.457   2.185   4.245
  902TIP3   OH2 2669   2.293   2.439   1.837
  902TIP3    H1 2670   2.221   2.384   1.808
  902TIP3    H2 2671   2.372   2.391   1.813
  903TIP3   OH2 2672   4.730   4.738   1.254
  903TIP3    H1 2673   4.821   4.769   1.248
  903TIP3    H2 2674   4.677   4.815   1.237
  904TIP3   OH2 2675   5.545   4.773   0.010
  904TIP3    H1 2676   5.490   4.735   0.078
  904TIP3    H2 2677   5.574   4.698  -0.042
  905TIP3   OH2 2678   2.040   6.783   4.830
  905TIP3    H1 2679   2.102   6.716   4.858
  905TIP3    H2 2680   2.010   6.754   4.744
  906TIP3   OH2 2681   4.087   4.089   4.043
  906TIP3    H1 2682   4.179   4.066   4.054
  906TIP3    H2 2683   4.045   4.058   4.123
  907TIP3   OH2 2684   1.322   5.044   4.714
  907TIP3    H1 2685   1.301   4.950   4.713
  907TIP3    H2 2686   1.417   5.048   4.725
  908TIP3   OH2 2687   4.621   5.588   4.692
  908TIP3    H1 2688   4.529   5.578   4.717
  908TIP3    H2 2689   4.627   5.676   4.656
  909TIP3   OH2 2690   7.181   3.560   0.936
  909TIP3    H1 2691   7.132   3.558   1.018
  909TIP3    H2 2692   7.258   3.612   0.956
  910TIP3   OH2 2693   5.202   0.575   2.196
  910TIP3    H1 2694   5.236   0.650   2.148
  910TIP3    H2 2695   5.241   0.582   2.284
  911TIP3   OH2 2696   7.038   5.625   5.388
  911TIP3    H1 2697   7.031   5.660   5.477
  911TIP3    H2 2698   7.049   5.531   5.399
  912TIP3   OH2 2699   5.466   6.193   3.387
  912TIP3    H1 2700   5.461   6.192   3.483
  912TIP3    H2 2701   5.471   6.101   3.362
  913TIP3   OH2 2702   3.310   6.364   1.147
  913TIP3    H1 2703   3.353   6.431   1.093
  913TIP3    H2 2704   3.225   6.352   1.105
  914TIP3   OH2 2705   4.346   5.258   4.276
  914TIP3    H1 2706   4.326   5.227   4.188
  914TIP3    H2 2707   4.431   5.218   4.297
  915TIP3   OH2 2708   4.246   4.016   5.048
  915TIP3    H1 2709   4.294   4.035   4.967
  915TIP3    H2 2710   4.174   4.078   5.049
  916TIP3   OH2 2711   0.339   6.731   2.580
  916TIP3    H1 2712   0.310   6.668   2.646
  916TIP3    H2 2713   0.372   6.678   2.508
  917TIP3   OH2 2714   2.285   1.742   4.437
  917TIP3    H1 2715   2.220   1.749   4.506
  917TIP3    H2 2716   2.239   1.701   4.364
  918TIP3   OH2 2717   4.459   2.544   1.842
  918TIP3    H1 2718   4.525   2.474   1.842
  918TIP3    H2 2719   4.484   2.600   1.769
  919TIP3   OH2 2720   5.084   6.096   4.135
  919TIP3    H1 2721   5.114   6.141   4.214
  919TIP3    H2 2722   5.035   6.021   4.167
  920TIP3   OH2 2723   1.507   1.690   3.274
  920TIP3    H1 2724   1.598   1.683   3.244
  920TIP3    H2 2725   1.484   1.602   3.303
  921TIP3   OH2 2726   2.589   0.134   2.209
  921TIP3    H1 2727   2.581   0.122   2.114
  921TIP3    H2 2728   2.590   0.045   2.244
  922TIP3   OH2 2729   0.108   2.258   1.607
  922TIP3    H1 2730   0.028   2.310   1.609
  922TIP3    H2 2731   0.101   2.200   1.683
  923TIP3   OH2 2732   1.426   3.254   2.413
  923TIP3    H1 2733   1.392   3.282   2.498
  923TIP3    H2 2734   1.493   3.319   2.392
  924TIP3   OH2 2735   6.119   0.507   0.757
  924TIP3    H1 2736   6.182   0.549   0.698
  924TIP3    H2 2737   6.144   0.415   0.758
  925TIP3   OH2 2738   2.121   1.304   4.913
  925TIP3    H1 2739   2.075   1.388   4.918
  925TIP3    H2 2740   2.180   1.314   4.837
  926TIP3   OH2 2741   5.901   2.363   0.128
  926TIP3    H1 2742   5.860   2.311   0.197
  926TIP3    H2 2743   5.836   2.368   0.058
  927TIP3   OH2 2744   0.679   5.772   3.195
  927TIP3    H1 2745   0.766   5.750   3.229
  927TIP3    H2 2746   0.628   5.692   3.208
  928TIP3   OH2 2747   2.697   4.662   5.762
  928TIP3    H1 2748   2.636   4.656   5.836
  928TIP3    H2 2749   2.698   4.575   5.723
  929TIP3   OH2 2750   4.009   5.083   1.273
  929TIP3    H1 2751   4.095   5.121   1.292
  929TIP3    H2 2752   3.954   5.111   1.347
  930TIP3   OH2 2753   2.298   5.853   4.555
  930TIP3    H1 2754   2.275   5.780   4.612
  930TIP3    H2 2755   2.385   5.832   4.522
  931TIP3   OH2 2756   3.497   1.666   3.273
  931TIP3    H1 2757   3.471   1.753   3.243
  931TIP3    H2 2758   3.510   1.676   3.367
  932TIP3   OH2 2759   2.867   0.289   4.516
  932TIP3    H1 2760   2.789   0.300   4.571
  932TIP3    H2 2761   2.855   0.202   4.476
  933TIP3   OH2 2762   1.779   2.143   5.811
  933TIP3    H1 2763   1.720   2.068   5.808
  933TIP3    H2 2764   1.731   2.213   5.767
  934TIP3   OH2 2765   0.552   1.122   3.263
  934TIP3    H1 2766   0.562   1.028   3.275
  934TIP3    H2 2767   0.461   1.133   3.235
  935TIP3   OH2 2768   4.483   3.381   5.494
  935TIP3    H1 2769   4.522   3.438   5.561
  935TIP3    H2 2770   4.505   3.422   5.411
  936TIP3   OH2 2771   4.748   4.991   2.193
  936TIP3    H1 2772   4.700   4.944   2.260
  936TIP3    H2 2773   4.698   5.072   2.179
  937TIP3   OH2 2774   6.657   2.516   2.402
  937TIP3    H1 2775   6.576   2.473   2.378
  937TIP3    H2 2776   6.633   2.575   2.473
  938TIP3   OH2 2777   0.414   0.938   3.493
  938TIP3    H1 2778   0.325   0.941   3.528
  938TIP3    H2 2779   0.403   0.940   3.398
  939TIP3   OH2 2780   6.134   1.174   2.571
  939TIP3    H1 2781   6.051   1.127   2.564
  939TIP3    H2 2782   6.109   1.263   2.595
  940TIP3   OH2 2783   7.064   5.437   1.616
  940TIP3    H1 2784   6.999   5.472   1.677
  940TIP3    H2 2785   7.128   5.393   1.672
  941TIP3   OH2 2786   2.120   0.523   4.323
  941TIP3    H1 2787   2.049   0.563   4.273
  941TIP3    H2 2788   2.141   0.443   4.276
  942TIP3   OH2 2789   2.072   3.118   5.170
  942TIP3    H1 2790   2.004   3.054   5.151
  942TIP3    H2 2791   2.039   3.167   5.245
  943TIP3   OH2 2792   4.385   5.333   0.380
  943TIP3    H1 2793   4.467   5.331   0.430
  943TIP3    H2 2794   4.365   5.426   0.371
  944TIP3   OH2 2795   4.915   1.001   2.972
  944TIP3    H1 2796   4.870   0.922   2.943
  944TIP3    H2 2797   4.994   1.004   2.918
  945TIP3   OH2 2798   0.526   2.501   1.482
  945TIP3    H1 2799   0.601   2.561   1.492
  945TIP3    H2 2800   0.565   2.421   1.447
  946TIP3   OH2 2801   0.682   1.859   4.499
  946TIP3    H1 2802   0.685   1.836   4.592
  946TIP3    H2 2803   0.772   1.846   4.468
  947TIP3   OH2 2804   6.546   6.306   2.336
  947TIP3    H1 2805   6.558   6.212   2.345
  947TIP3    H2 2806   6.551   6.321   2.241
  948TIP3   OH2 2807   7.135   0.875   1.573
  948TIP3    H1 2808   7.055   0.849   1.619
  948TIP3    H2 2809   7.199   0.890   1.643
  949TIP3   OH2 2810   3.513   5.200   5.696
  949TIP3    H1 2811   3.467   5.142   5.757
  949TIP3    H2 2812   3.603   5.203   5.730
  950TIP3   OH2 2813   0.991   0.047   5.465
  950TIP3    H1 2814   0.915   0.099   5.490
  950TIP3    H2 2815   1.028   0.016   5.548
  951TIP3   OH2 2816   4.310   0.787   2.778
  951TIP3    H1 2817   4.228   0.812   2.736
  951TIP3    H2 2818   4.359   0.740   2.711
  952TIP3   OH2 2819   7.273   3.545   0.641
  952TIP3    H1 2820   7.276   3.452   0.619
  952TIP3    H2 2821   7.269   3.547   0.737
  953TIP3   OH2 2822   7.057   2.815   3.203
  953TIP3    H1 2823   7.096   2.761   3.134
  953TIP3    H2 2824   7.067   2.764   3.283
  954TIP3   OH2 2825   2.572   1.546   2.472
  954TIP3    H1 2826   2.607   1.599   2.544
  954TIP3    H2 2827   2.627   1.567   2.397
  955TIP3   OH2 2828   2.589   0.633   2.520
  955TIP3    H1 2829   2.576   0.699   2.452
  955TIP3    H2 2830   2.501   0.614   2.552
  956TIP3   OH2 2831   5.685   4.445   3.790
  956TIP3    H1 2832   5.727   4.520   3.747
  956TIP3    H2 2833   5.754   4.379   3.797
  957TIP3   OH2 2834   6.052   4.020   0.067
  957TIP3    H1 2835   6.014   4.037   0.154
  957TIP3    H2 2836   5.984   3.972   0.020
  958TIP3   OH2 2837   1.823   5.456   4.099
  958TIP3    H1 2838   1.792   5.536   4.057
  958TIP3    H2 2839   1.840   5.481   4.190
  959TIP3   OH2 2840   0.132   6.419   1.115
  959TIP3    H1 2841   0.160   6.371   1.193
  959TIP3    H2 2842   0.214   6.440   1.069
  960TIP3   OH2 2843   5.288   6.672   0.374
  960TIP3    H1 2844   5.261   6.580   0.373
  960TIP3    H2 2845   5.381   6.670   0.352
  961TIP3   OH2 2846   1.935   2.310   1.633
  961TIP3    H1 2847   1.941   2.337   1.542
  961TIP3    H2 2848   1.850   2.266   1.639
  962TIP3   OH2 2849   1.894   4.938   5.537
  962TIP3    H1 2850   1.829   4.872   5.514
  962TIP3    H2 2851   1.977   4.890   5.544
  963TIP3   OH2 2852   0.180   1.334   1.389
  963TIP3    H1 2853   0.210   1.370   1.305
  963TIP3    H2 2854   0.122   1.402   1.424
  964TIP3   OH2 2855   6.929   1.705   0.900
  964TIP3    H1 2856   6.909   1.612   0.893
  964TIP3    H2 2857   6.873   1.747   0.834
  965TIP3   OH2 2858   4.255   0.722   0.804
  965TIP3    H1 2859   4.263   0.715   0.709
  965TIP3    H2 2860   4.209   0.642   0.830
  966TIP3   OH2 2861   0.894   4.653   2.608
  966TIP3    H1 2862   0.929   4.576   2.564
  966TIP3    H2 2863   0.899   4.723   2.543
  967TIP3   OH2 2864   5.809   2.647   4.625
  967TIP3    H1 2865   5.887   2.689   4.663
  967TIP3    H2 2866   5.766   2.605   4.699
  968TIP3   OH2 2867   3.181   3.874   5.661
  968TIP3    H1 2868   3.109   3.853   5.720
  968TIP3    H2 2869   3.257   3.829   5.699
  969TIP3   OH2 2870   5.434   5.556   3.503
  969TIP3    H1 2871   5.377   5.490   3.543
  969TIP3    H2 2872   5.521   5.518   3.505
  970TIP3   OH2 2873   4.433   1.242   4.069
  970TIP3    H1 2874   4.527   1.223   4.060
  970TIP3    H2 2875   4.399   1.236   3.980
  971TIP3   OH2 2876   3.843   4.000   1.943
  971TIP3    H1 2877   3.781   4.012   1.870
  971TIP3    H2 2878   3.788   4.002   2.021
  972TIP3   OH2 2879   0.213   2.920   0.770
  972TIP3    H1 2880   0.239   2.852   0.833
  972TIP3    H2 2881   0.263   2.898   0.691
  973TIP3   OH2 2882   2.178   1.471   5.544
  973TIP3    H1 2883   2.175   1.377   5.560
  973TIP3    H2 2884   2.180   1.479   5.448
  974TIP3   OH2 2885   6.318   3.476   3.430
  974TIP3    H1 2886   6.283   3.528   3.503
  974TIP3    H2 2887   6.367   3.539   3.377
  975TIP3   OH2 2888   6.955   5.009   3.879
  975TIP3    H1 2889   6.896   4.950   3.926
  975TIP3    H2 2890   7.035   4.958   3.866
  976TIP3   OH2 2891   6.524   6.832   5.435
  976TIP3    H1 2892   6.488   6.867   5.353
  976TIP3    H2 2893   6.562   6.748   5.410
  977TIP3   OH2 2894   5.788   6.644   2.276
  977TIP3    H1 2895   5.782   6.569   2.216
  977TIP3    H2 2896   5.876   6.678   2.263
  978TIP3   OH2 2897   2.789   5.314   3.021
  978TIP3    H1 2898   2.840   5.387   3.054
  978TIP3    H2 2899   2.853   5.257   2.977
  979TIP3   OH2 2900   1.722   3.262   1.368
  979TIP3    H1 2901   1.687   3.349   1.351
  979TIP3    H2 2902   1.723   3.254   1.464
  980TIP3   OH2 2903   2.505   3.471   3.433
  980TIP3    H1 2904   2.545   3.414   3.499
  980TIP3    H2 2905   2.556   3.552   3.438
  981TIP3   OH2 2906   7.020   0.348   5.736
  981TIP3    H1 2907   7.018   0.253   5.742
  981TIP3    H2 2908   6.928   0.373   5.723
  982TIP3   OH2 2909   4.021   3.123   0.507
  982TIP3    H1 2910   4.028   3.180   0.584
  982TIP3    H2 2911   4.105   3.136   0.461
  983TIP3   OH2 2912   0.749   5.155   0.810
  983TIP3    H1 2913   0.669   5.163   0.759
  983TIP3    H2 2914   0.792   5.076   0.775
  984TIP3   OH2 2915   1.166   0.556   5.445
  984TIP3    H1 2916   1.195   0.573   5.535
  984TIP3    H2 2917   1.130   0.467   5.448
  985TIP3   OH2 2918   2.732   5.368   0.503
  985TIP3    H1 2919   2.791   5.300   0.535
  985TIP3    H2 2920   2.730   5.356   0.408
  986TIP3   OH2 2921   3.048   0.708   4.312
  986TIP3    H1 2922   2.996   0.628   4.310
  986TIP3    H2 2923   3.090   0.713   4.226
  987TIP3   OH2 2924   5.269   2.498   0.373
  987TIP3    H1 2925   5.338   2.478   0.310
  987TIP3    H2 2926   5.188   2.483   0.325
  988TIP3   OH2 2927   3.467   3.455   0.309
  988TIP3    H1 2928   3.480   3.403   0.230
  988TIP3    H2 2929   3.498   3.542   0.286
  989TIP3   OH2 2930   5.316   4.877   2.939
  989TIP3    H1 2931   5.373   4.800   2.947
  989TIP3    H2 2932   5.275   4.867   2.853
  990TIP3   OH2 2933   5.743   1.870   1.074
  990TIP3    H1 2934   5.702   1.897   0.992
  990TIP3    H2 2935   5.785   1.950   1.107
  991TIP3   OH2 2936   5.243   5.189   4.939
  991TIP3    H1 2937   5.308   5.135   4.894
  991TIP3    H2 2938   5.295   5.247   4.996
  992TIP3   OH2 2939   4.695   3.739   0.623
  992TIP3    H1 2940   4.632   3.796   0.667
  992TIP3    H2 2941   4.683   3.757   0.530
  993TIP3   OH2 2942   1.541   5.977   0.266
  993TIP3    H1 2943   1.488   6.019   0.198
  993TIP3    H2 2944   1.593   6.048   0.304
  994TIP3   OH2 2945   5.273   1.276   3.027
  994TIP3    H1 2946   5.365   1.255   3.014
  994TIP3    H2 2947   5.233   1.192   3.050
  995TIP3   OH2 2948   0.789   6.553   0.056
  995TIP3    H1 2949   0.711   6.608   0.067
  995TIP3    H2 2950   0.794   6.537  -0.038
  996TIP3   OH2 2951   0.809   1.994   5.622
  996TIP3    H1 2952   0.774   2.038   5.544
  996TIP3    H2 2953   0.819   1.903   5.595
  997TIP3   OH2 2954   1.091   4.123   4.241
  997TIP3    H1 2955   1.006   4.165   4.247
  997TIP3    H2 2956   1.072   4.034   4.211
  998TIP3   OH2 2957   5.677   3.932   5.503
  998TIP3    H1 2958   5.660   3.954   5.412
  998TIP3    H2 2959   5.589   3.921   5.542
  999TIP3   OH2 2960   2.792   2.484   3.100
  999TIP3    H1 2961   2.700   2.479   3.073
  999TIP3    H2 2962   2.789   2.529   3.184
 1000TIP3   OH2 2963   0.683   2.082   3.957
 1000TIP3    H1 2964   0.688   2.155   3.895
 1000TIP3    H2 2965   0.751   2.021   3.928
 1001TIP3   OH2 2966   2.433   0.369   2.057
 1001TIP3    H1 2967   2.486   0.292   2.035
 1001TIP3    H2 2968   2.495   0.441   2.059
 1002TIP3   OH2 2969   1.985   2.364   0.505
 1002TIP3    H1 2970   1.955   2.446   0.465
 1002TIP3    H2 2971   2.067   2.344   0.460
 1003TIP3   OH2 2972   4.263   4.944   4.917
 1003TIP3    H1 2973   4.301   5.031   4.906
 1003TIP3    H2 2974   4.300   4.912   4.999
 1004TIP3   OH2 2975   2.779   5.272   4.319
 1004TIP3    H1 2976   2.695   5.243   4.355
 1004TIP3    H2 2977   2.794   5.358   4.360
 1005TIP3   OH2 2978   1.847   3.392   5.547
 1005TIP3    H1 2979   1.932   3.352   5.564
 1005TIP3    H2 2980   1.824   3.436   5.628
 1006TIP3   OH2 2981   5.306   6.082   1.864
 1006TIP3    H1 2982   5.320   6.087   1.958
 1006TIP3    H2 2983   5.295   6.173   1.836
 1007TIP3   OH2 2984   2.650   2.566   1.237
 1007TIP3    H1 2985   2.685   2.654   1.249
 1007TIP3    H2 2986   2.578   2.559   1.299
 1008TIP3   OH2 2987   4.698   5.623   0.732
 1008TIP3    H1 2988   4.737   5.535   0.726
 1008TIP3    H2 2989   4.680   5.634   0.826
 1009TIP3   OH2 2990   1.160   1.595   0.414
 1009TIP3    H1 2991   1.204   1.540   0.479
 1009TIP3    H2 2992   1.207   1.678   0.418
 1010TIP3   OH2 2993   0.865   0.081   2.352
 1010TIP3    H1 2994   0.785   0.049   2.392
 1010TIP3    H2 2995   0.906   0.004   2.314
 1011TIP3   OH2 2996   1.242   4.426   3.667
 1011TIP3    H1 2997   1.212   4.411   3.577
 1011TIP3    H2 2998   1.221   4.345   3.713
 1012TIP3   OH2 2999   6.675   5.133   0.895
 1012TIP3    H1 3000   6.636   5.182   0.968
 1012TIP3    H2 3001   6.762   5.170   0.885
 1013TIP3   OH2 3002   3.832   0.871   0.527
 1013TIP3    H1 3003   3.832   0.931   0.452
 1013TIP3    H2 3004   3.896   0.804   0.503
 1014TIP3   OH2 3005   6.424   2.924   4.681
 1014TIP3    H1 3006   6.377   2.841   4.692
 1014TIP3    H2 3007   6.408   2.948   4.589
 1015TIP3   OH2 3008   4.707   3.367   2.097
 1015TIP3    H1 3009   4.715   3.422   2.019
 1015TIP3    H2 3010   4.783   3.310   2.094
 1016TIP3   OH2 3011   4.677   2.196   0.985
 1016TIP3    H1 3012   4.588   2.228   0.998
 1016TIP3    H2 3013   4.666   2.115   0.935
 1017TIP3   OH2 3014   6.696   3.109   1.549
 1017TIP3    H1 3015   6.622   3.168   1.563
 1017TIP3    H2 3016   6.752   3.156   1.487
 1018TIP3   OH2 3017   1.533   6.844   0.593
 1018TIP3    H1 3018   1.508   6.758   0.629
 1018TIP3    H2 3019   1.450   6.886   0.571
 1019TIP3   OH2 3020   4.284   3.484   1.608
 1019TIP3    H1 3021   4.365   3.515   1.568
 1019TIP3    H2 3022   4.214   3.524   1.556
 1020TIP3   OH2 3023   0.925   2.944   1.060
 1020TIP3    H1 3024   0.997   3.006   1.065
 1020TIP3    H2 3025   0.936   2.887   1.136
 1021TIP3   OH2 3026   5.510   3.660   2.352
 1021TIP3    H1 3027   5.472   3.671   2.439
 1021TIP3    H2 3028   5.451   3.709   2.294
 1022TIP3   OH2 3029   6.751   6.026   4.142
 1022TIP3    H1 3030   6.826   6.028   4.202
 1022TIP3    H2 3031   6.721   6.117   4.138
 1023TIP3   OH2 3032   2.935   4.724   2.194
 1023TIP3    H1 3033   2.917   4.646   2.142
 1023TIP3    H2 3034   2.874   4.718   2.268
 1024TIP3   OH2 3035   3.874   4.699   1.842
 1024TIP3    H1 3036   3.925   4.772   1.877
 1024TIP3    H2 3037   3.843   4.652   1.919
 1025TIP3   OH2 3038   3.212   2.676   1.890
 1025TIP3    H1 3039   3.219   2.591   1.935
 1025TIP3    H2 3040   3.131   2.670   1.840
 1026TIP3   OH2 3041   4.954   6.204   1.387
 1026TIP3    H1 3042   5.010   6.280   1.367
 1026TIP3    H2 3043   5.000   6.159   1.458
 1027TIP3   OH2 3044   4.495   0.609   2.363
 1027TIP3    H1 3045   4.575   0.632   2.315
 1027TIP3    H2 3046   4.439   0.567   2.297
 1028TIP3   OH2 3047   4.050   0.688   4.391
 1028TIP3    H1 3048   4.142   0.665   4.391
 1028TIP3    H2 3049   4.041   0.756   4.457
 1029TIP3   OH2 3050   3.437   5.664   0.664
 1029TIP3    H1 3051   3.396   5.595   0.715
 1029TIP3    H2 3052   3.386   5.742   0.682
 1030TIP3   OH2 3053   5.928   3.021   2.321
 1030TIP3    H1 3054   6.000   2.958   2.311
 1030TIP3    H2 3055   5.871   2.982   2.388
 1031TIP3   OH2 3056   1.999   0.143   1.187
 1031TIP3    H1 3057   1.979   0.235   1.203
 1031TIP3    H2 3058   2.026   0.109   1.272
 1032TIP3   OH2 3059   3.134   3.928   2.408
 1032TIP3    H1 3060   3.058   3.951   2.354
 1032TIP3    H2 3061   3.209   3.946   2.351
 1033TIP3   OH2 3062   5.010   3.966   0.767
 1033TIP3    H1 3063   4.936   3.926   0.814
 1033TIP3    H2 3064   5.087   3.925   0.805
 1034TIP3   OH2 3065   4.506   1.784   2.252
 1034TIP3    H1 3066   4.542   1.721   2.315
 1034TIP3    H2 3067   4.499   1.735   2.170
 1035TIP3   OH2 3068   5.349   0.679   5.410
 1035TIP3    H1 3069   5.326   0.678   5.317
 1035TIP3    H2 3070   5.275   0.723   5.452
 1036TIP3   OH2 3071   0.116   0.017   1.635
 1036TIP3    H1 3072   0.166  -0.037   1.574
 1036TIP3    H2 3073   0.133  -0.022   1.721
 1037TIP3   OH2 3074   2.445   1.567   0.115
 1037TIP3    H1 3075   2.454   1.632   0.185
 1037TIP3    H2 3076   2.374   1.510   0.145
 1038TIP3   OH2 3077   3.052   6.227   0.053
 1038TIP3    H1 3078   3.029   6.319   0.067
 1038TIP3    H2 3079   3.003   6.202  -0.025
 1039TIP3   OH2 3080   4.833   2.803   3.351
 1039TIP3    H1 3081   4.911   2.753   3.329
 1039TIP3    H2 3082   4.861   2.894   3.349
 1040TIP3   OH2 3083   3.173   0.074   3.440
 1040TIP3    H1 3084   3.114   0.061   3.514
 1040TIP3    H2 3085   3.195   0.167   3.442
 1041TIP3   OH2 3086   5.799   3.361   1.322
 1041TIP3    H1 3087   5.843   3.293   1.374
 1041TIP3    H2 3088   5.819   3.443   1.368
 1042TIP3   OH2 3089   0.767   6.328   1.959
 1042TIP3    H1 3090   0.711   6.399   1.929
 1042TIP3    H2 3091   0.787   6.278   1.880
 1043TIP3   OH2 3092   1.377   1.519   4.536
 1043TIP3    H1 3093   1.287   1.520   4.504
 1043TIP3    H2 3094   1.387   1.431   4.573
 1044TIP3   OH2 3095   4.247   5.161   4.638
 1044TIP3    H1 3096   4.203   5.076   4.628
 1044TIP3    H2 3097   4.325   5.141   4.689
 1045TIP3   OH2 3098   0.680   6.302   5.537
 1045TIP3    H1 3099   0.664   6.308   5.631
 1045TIP3    H2 3100   0.688   6.393   5.509
 1046TIP3   OH2 3101   1.148   3.040   2.763
 1046TIP3    H1 3102   1.153   2.955   2.719
 1046TIP3    H2 3103   1.217   3.037   2.829
 1047TIP3   OH2 3104   6.135   3.559   2.949
 1047TIP3    H1 3105   6.107   3.537   3.038
 1047TIP3    H2 3106   6.180   3.644   2.959
 1048TIP3   OH2 3107   0.707   6.757   5.018
 1048TIP3    H1 3108   0.771   6.827   5.027
 1048TIP3    H2 3109   0.759   6.679   4.998
 1049TIP3   OH2 3110   7.115   0.230   1.206
 1049TIP3    H1 3111   7.197   0.220   1.256
 1049TIP3    H2 3112   7.109   0.150   1.154
 1050TIP3   OH2 3113   0.164   2.808   3.990
 1050TIP3    H1 3114   0.077   2.800   4.029
 1050TIP3    H2 3115   0.220   2.752   4.044
 1051TIP3   OH2 3116   2.401   6.338   0.774
 1051TIP3    H1 3117   2.387   6.248   0.743
 1051TIP3    H2 3118   2.487   6.335   0.816
 1052TIP3   OH2 3119   0.818   1.381   3.911
 1052TIP3    H1 3120   0.853   1.339   3.833
 1052TIP3    H2 3121   0.736   1.422   3.882
 1053TIP3   OH2 3122   6.921   4.663   0.416
 1053TIP3    H1 3123   6.840   4.676   0.467
 1053TIP3    H2 3124   6.985   4.721   0.457
 1054TIP3   OH2 3125   0.191   0.298   4.737
 1054TIP3    H1 3126   0.100   0.292   4.708
 1054TIP3    H2 3127   0.208   0.392   4.746
 1055TIP3   OH2 3128   2.507   3.487   4.911
 1055TIP3    H1 3129   2.506   3.577   4.946
 1055TIP3    H2 3130   2.421   3.452   4.934
 1056TIP3   OH2 3131   0.465   4.531   2.719
 1056TIP3    H1 3132   0.528   4.588   2.764
 1056TIP3    H2 3133   0.384   4.581   2.719
 1057TIP3   OH2 3134   0.902   0.641   3.029
 1057TIP3    H1 3135   0.996   0.649   3.014
 1057TIP3    H2 3136   0.864   0.636   2.941
 1058TIP3   OH2 3137   0.959   5.068   2.257
 1058TIP3    H1 3138   0.921   5.039   2.174
 1058TIP3    H2 3139   0.953   5.164   2.253
 1059TIP3   OH2 3140   1.167   1.505   1.276
 1059TIP3    H1 3141   1.124   1.429   1.237
 1059TIP3    H2 3142   1.112   1.579   1.251
 1060TIP3   OH2 3143   7.004   2.405   5.612
 1060TIP3    H1 3144   7.027   2.394   5.704
 1060TIP3    H2 3145   7.053   2.337   5.566
 1061TIP3   OH2 3146   4.672   0.141   1.095
 1061TIP3    H1 3147   4.669   0.051   1.061
 1061TIP3    H2 3148   4.746   0.181   1.050
 1062TIP3   OH2 3149   2.117   0.857   0.436
 1062TIP3    H1 3150   2.206   0.871   0.405
 1062TIP3    H2 3151   2.091   0.941   0.473
 1063TIP3   OH2 3152   7.149   2.660   2.978
 1063TIP3    H1 3153   7.114   2.592   3.035
 1063TIP3    H2 3154   7.161   2.617   2.893
 1064TIP3   OH2 3155   6.841   2.675   5.761
 1064TIP3    H1 3156   6.919   2.620   5.752
 1064TIP3    H2 3157   6.768   2.613   5.765
 1065TIP3   OH2 3158   1.459   6.196   3.800
 1065TIP3    H1 3159   1.495   6.285   3.793
 1065TIP3    H2 3160   1.458   6.164   3.710
 1066TIP3   OH2 3161   1.274   4.618   5.643
 1066TIP3    H1 3162   1.193   4.629   5.592
 1066TIP3    H2 3163   1.340   4.592   5.579
 1067TIP3   OH2 3164   0.182   1.562   5.142
 1067TIP3    H1 3165   0.171   1.639   5.197
 1067TIP3    H2 3166   0.218   1.495   5.201
 1068TIP3   OH2 3167   6.676   5.632   2.142
 1068TIP3    H1 3168   6.705   5.669   2.226
 1068TIP3    H2 3169   6.625   5.702   2.102
 1069TIP3   OH2 3170   7.242   5.645   2.853
 1069TIP3    H1 3171   7.173   5.613   2.795
 1069TIP3    H2 3172   7.291   5.567   2.879
 1070TIP3   OH2 3173   2.941   0.897   4.778
 1070TIP3    H1 3174   2.853   0.911   4.812
 1070TIP3    H2 3175   2.991   0.974   4.806
 1071TIP3   OH2 3176   4.602   3.826   2.750
 1071TIP3    H1 3177   4.540   3.777   2.696
 1071TIP3    H2 3178   4.623   3.766   2.822
 1072TIP3   OH2 3179   6.313   0.894   2.442
 1072TIP3    H1 3180   6.406   0.914   2.446
 1072TIP3    H2 3181   6.280   0.915   2.529
 1073TIP3   OH2 3182   6.387   6.496   5.794
 1073TIP3    H1 3183   6.372   6.589   5.811
 1073TIP3    H2 3184   6.380   6.455   5.880
 1074TIP3   OH2 3185   3.883   2.367   5.492
 1074TIP3    H1 3186   3.956   2.314   5.525
 1074TIP3    H2 3187   3.829   2.384   5.569
 1075TIP3   OH2 3188   1.266   5.514   3.534
 1075TIP3    H1 3189   1.233   5.603   3.542
 1075TIP3    H2 3190   1.359   5.524   3.517
 1076TIP3   OH2 3191   0.063   5.951   0.643
 1076TIP3    H1 3192  -0.029   5.976   0.630
 1076TIP3    H2 3193   0.084   5.984   0.730
 1077TIP3   OH2 3194   5.355   6.446   1.030
 1077TIP3    H1 3195   5.390   6.387   1.097
 1077TIP3    H2 3196   5.425   6.455   0.967
 1078TIP3   OH2 3197   3.756   0.361   2.936
 1078TIP3    H1 3198   3.740   0.399   2.850
 1078TIP3    H2 3199   3.688   0.398   2.992
 1079TIP3   OH2 3200   5.952   5.272   1.180
 1079TIP3    H1 3201   5.945   5.187   1.137
 1079TIP3    H2 3202   5.890   5.327   1.133
 1080TIP3   OH2 3203   0.510   1.865   2.189
 1080TIP3    H1 3204   0.581   1.866   2.254
 1080TIP3    H2 3205   0.457   1.789   2.213
 1081TIP3   OH2 3206   5.175   5.841   5.461
 1081TIP3    H1 3207   5.135   5.884   5.386
 1081TIP3    H2 3208   5.208   5.758   5.427
 1082TIP3   OH2 3209   3.480   0.428   2.962
 1082TIP3    H1 3210   3.491   0.333   2.970
 1082TIP3    H2 3211   3.394   0.445   3.000
 1083TIP3   OH2 3212   1.149   3.608   2.534
 1083TIP3    H1 3213   1.072   3.564   2.497
 1083TIP3    H2 3214   1.196   3.641   2.458
 1084TIP3   OH2 3215   6.396   6.433   2.855
 1084TIP3    H1 3216   6.319   6.490   2.859
 1084TIP3    H2 3217   6.365   6.349   2.890
 1085TIP3   OH2 3218   3.427   3.716   4.294
 1085TIP3    H1 3219   3.370   3.770   4.348
 1085TIP3    H2 3220   3.384   3.630   4.292
 1086TIP3   OH2 3221   6.083   6.044   1.778
 1086TIP3    H1 3222   6.024   6.008   1.844
 1086TIP3    H2 3223   6.117   5.967   1.732
 1087TIP3   OH2 3224   0.122   3.671   5.053
 1087TIP3    H1 3225   0.029   3.692   5.046
 1087TIP3    H2 3226   0.167   3.755   5.050
 1088TIP3   OH2 3227   3.033   6.669   0.637
 1088TIP3    H1 3228   2.945   6.669   0.599
 1088TIP3    H2 3229   3.066   6.580   0.623
 1089TIP3   OH2 3230   0.717   1.985   3.146
 1089TIP3    H1 3231   0.792   2.041   3.168
 1089TIP3    H2 3232   0.756   1.902   3.119
 1090TIP3   OH2 3233   4.588   2.270   2.576
 1090TIP3    H1 3234   4.677   2.294   2.601
 1090TIP3    H2 3235   4.598   2.187   2.528
 1091TIP3   OH2 3236   6.224   0.020   1.232
 1091TIP3    H1 3237   6.297   0.075   1.205
 1091TIP3    H2 3238   6.263  -0.064   1.253
 1092TIP3   OH2 3239   0.365   2.338   3.524
 1092TIP3    H1 3240   0.331   2.280   3.455
 1092TIP3    H2 3241   0.389   2.279   3.595
 1093TIP3   OH2 3242   0.092   0.845   2.922
 1093TIP3    H1 3243   0.131   0.757   2.926
 1093TIP3    H2 3244   0.016   0.834   2.866
 1094TIP3   OH2 3245   4.369   0.983   4.146
 1094TIP3    H1 3246   4.462   0.984   4.168
 1094TIP3    H2 3247   4.355   1.065   4.097
 1095TIP3   OH2 3248   7.042   2.386   4.440
 1095TIP3    H1 3249   7.101   2.330   4.391
 1095TIP3    H2 3250   7.083   2.472   4.439
 1096TIP3   OH2 3251   0.719   5.879   3.620
 1096TIP3    H1 3252   0.692   5.841   3.536
 1096TIP3    H2 3253   0.637   5.903   3.663
 1097TIP3   OH2 3254   2.788   1.379   1.512
 1097TIP3    H1 3255   2.849   1.427   1.569
 1097TIP3    H2 3256   2.748   1.314   1.569
 1098TIP3   OH2 3257   2.105   0.255   2.919
 1098TIP3    H1 3258   2.136   0.165   2.926
 1098TIP3    H2 3259   2.018   0.247   2.878
 1099TIP3   OH2 3260   2.774   6.259   5.199
 1099TIP3    H1 3261   2.697   6.213   5.231
 1099TIP3    H2 3262   2.845   6.231   5.257
 1100TIP3   OH2 3263   6.795   4.679   5.570
 1100TIP3    H1 3264   6.853   4.610   5.603
 1100TIP3    H2 3265   6.826   4.759   5.613
 1101TIP3   OH2 3266   2.571   1.161   0.311
 1101TIP3    H1 3267   2.640   1.120   0.363
 1101TIP3    H2 3268   2.611   1.177   0.226
 1102TIP3   OH2 3269   3.223   0.384   2.453
 1102TIP3    H1 3270   3.246   0.391   2.360
 1102TIP3    H2 3271   3.216   0.290   2.469
 1103TIP3   OH2 3272   1.888   3.054   4.568
 1103TIP3    H1 3273   1.907   3.039   4.661
 1103TIP3    H2 3274   1.922   3.142   4.551
 1104TIP3   OH2 3275   1.969   2.128   4.283
 1104TIP3    H1 3276   2.049   2.129   4.335
 1104TIP3    H2 3277   1.979   2.201   4.222
 1105TIP3   OH2 3278   1.884   4.971   3.703
 1105TIP3    H1 3279   1.794   4.969   3.671
 1105TIP3    H2 3280   1.924   4.892   3.668
 1106TIP3   OH2 3281   1.208   0.559   3.920
 1106TIP3    H1 3282   1.299   0.534   3.935
 1106TIP3    H2 3283   1.164   0.544   4.003
 1107TIP3   OH2 3284   4.440   3.931   5.514
 1107TIP3    H1 3285   4.421   3.837   5.518
 1107TIP3    H2 3286   4.428   3.954   5.422
 1108TIP3   OH2 3287   5.559   5.473   4.273
 1108TIP3    H1 3288   5.499   5.530   4.225
 1108TIP3    H2 3289   5.584   5.406   4.210
 1109TIP3   OH2 3290   1.544   3.810   1.771
 1109TIP3    H1 3291   1.563   3.718   1.754
 1109TIP3    H2 3292   1.578   3.857   1.695
 1110TIP3   OH2 3293   3.182   4.809   0.794
 1110TIP3    H1 3294   3.234   4.799   0.715
 1110TIP3    H2 3295   3.131   4.729   0.801
 1111TIP3   OH2 3296   2.817   0.336   2.004
 1111TIP3    H1 3297   2.861   0.406   1.957
 1111TIP3    H2 3298   2.760   0.381   2.067
 1112TIP3   OH2 3299   0.972   5.112   3.532
 1112TIP3    H1 3300   0.996   5.034   3.481
 1112TIP3    H2 3301   1.044   5.123   3.595
 1113TIP3   OH2 3302   3.121   2.492   3.235
 1113TIP3    H1 3303   3.187   2.558   3.256
 1113TIP3    H2 3304   3.039   2.530   3.265
 1114TIP3   OH2 3305   2.548   0.017   5.554
 1114TIP3    H1 3306   2.463   0.039   5.592
 1114TIP3    H2 3307   2.583  -0.051   5.612
 1115TIP3   OH2 3308   4.256   6.530   1.285
 1115TIP3    H1 3309   4.260   6.441   1.250
 1115TIP3    H2 3310   4.340   6.569   1.261
 1116TIP3   OH2 3311   2.224   3.865   0.324
 1116TIP3    H1 3312   2.294   3.910   0.372
 1116TIP3    H2 3313   2.204   3.922   0.251
 1117TIP3   OH2 3314   4.529   4.813   5.485
 1117TIP3    H1 3315   4.475   4.816   5.565
 1117TIP3    H2 3316   4.579   4.895   5.487
 1118TIP3   OH2 3317   3.097   2.041   4.325
 1118TIP3    H1 3318   3.045   2.113   4.292
 1118TIP3    H2 3319   3.126   2.070   4.412
 1119TIP3   OH2 3320   3.216   4.767   2.275
 1119TIP3    H1 3321   3.128   4.751   2.241
 1119TIP3    H2 3322   3.205   4.771   2.370
 1120TIP3   OH2 3323   4.692   1.436   4.978
 1120TIP3    H1 3324   4.737   1.518   4.955
 1120TIP3    H2 3325   4.721   1.373   4.912
 1121TIP3   OH2 3326   1.940   1.322   3.274
 1121TIP3    H1 3327   1.851   1.347   3.248
 1121TIP3    H2 3328   1.994   1.398   3.252
 1122TIP3   OH2 3329   6.485   5.162   5.598
 1122TIP3    H1 3330   6.555   5.144   5.535
 1122TIP3    H2 3331   6.404   5.149   5.548
 1123TIP3   OH2 3332   1.416   1.111   1.063
 1123TIP3    H1 3333   1.432   1.205   1.054
 1123TIP3    H2 3334   1.327   1.099   1.030
 1124TIP3   OH2 3335   6.482   3.338   1.018
 1124TIP3    H1 3336   6.507   3.308   1.105
 1124TIP3    H2 3337   6.466   3.257   0.969
 1125TIP3   OH2 3338   0.657   5.712   2.082
 1125TIP3    H1 3339   0.644   5.703   1.987
 1125TIP3    H2 3340   0.644   5.624   2.117
 1126TIP3   OH2 3341   1.294   4.804   2.478
 1126TIP3    H1 3342   1.254   4.890   2.462
 1126TIP3    H2 3343   1.297   4.796   2.573
 1127TIP3   OH2 3344   0.149   2.601   3.191
 1127TIP3    H1 3345   0.131   2.509   3.171
 1127TIP3    H2 3346   0.086   2.624   3.259
 1128TIP3   OH2 3347   5.694   6.257   2.413
 1128TIP3    H1 3348   5.724   6.252   2.323
 1128TIP3    H2 3349   5.619   6.317   2.410
 1129TIP3   OH2 3350   4.401   2.569   5.079
 1129TIP3    H1 3351   4.442   2.539   4.998
 1129TIP3    H2 3352   4.387   2.662   5.065
 1130TIP3   OH2 3353   1.023   3.623   4.595
 1130TIP3    H1 3354   1.113   3.597   4.576
 1130TIP3    H2 3355   0.978   3.617   4.510
 1131TIP3   OH2 3356   4.902   5.458   5.342
 1131TIP3    H1 3357   4.818   5.449   5.297
 1131TIP3    H2 3358   4.879   5.489   5.430
 1132TIP3   OH2 3359   6.760   4.891   2.455
 1132TIP3    H1 3360   6.854   4.888   2.470
 1132TIP3    H2 3361   6.729   4.960   2.513
 1133TIP3   OH2 3362   5.512   3.896   1.732
 1133TIP3    H1 3363   5.535   3.921   1.822
 1133TIP3    H2 3364   5.488   3.804   1.738
 1134TIP3   OH2 3365   5.102   1.524   3.742
 1134TIP3    H1 3366   5.184   1.485   3.711
 1134TIP3    H2 3367   5.034   1.473   3.698
 1135TIP3   OH2 3368   7.097   6.083   3.232
 1135TIP3    H1 3369   7.042   6.060   3.157
 1135TIP3    H2 3370   7.049   6.151   3.278
 1136TIP3   OH2 3371   1.196   0.723   4.816
 1136TIP3    H1 3372   1.162   0.784   4.882
 1136TIP3    H2 3373   1.152   0.640   4.834
 1137TIP3   OH2 3374   0.441   0.593   5.082
 1137TIP3    H1 3375   0.510   0.620   5.143
 1137TIP3    H2 3376   0.401   0.517   5.124
 1138TIP3   OH2 3377   3.998   2.327   1.951
 1138TIP3    H1 3378   4.058   2.368   2.013
 1138TIP3    H2 3379   4.042   2.245   1.927
 1139TIP3   OH2 3380   2.209   6.363   5.028
 1139TIP3    H1 3381   2.293   6.334   5.064
 1139TIP3    H2 3382   2.231   6.398   4.942
 1140TIP3   OH2 3383   1.346   3.910   0.846
 1140TIP3    H1 3384   1.417   3.919   0.781
 1140TIP3    H2 3385   1.277   3.862   0.799
 1141TIP3   OH2 3386   0.563   0.339   1.452
 1141TIP3    H1 3387   0.529   0.421   1.416
 1141TIP3    H2 3388   0.561   0.352   1.547
 1142TIP3   OH2 3389   4.415   0.253   4.779
 1142TIP3    H1 3390   4.488   0.237   4.719
 1142TIP3    H2 3391   4.403   0.170   4.825
 1143TIP3   OH2 3392   2.046   6.254   0.338
 1143TIP3    H1 3393   2.077   6.225   0.424
 1143TIP3    H2 3394   1.966   6.202   0.323
 1144TIP3   OH2 3395   3.964   0.660   0.410
 1144TIP3    H1 3396   4.043   0.679   0.360
 1144TIP3    H2 3397   3.983   0.580   0.458
 1145TIP3   OH2 3398   3.784   5.132   4.303
 1145TIP3    H1 3399   3.737   5.082   4.236
 1145TIP3    H2 3400   3.871   5.092   4.306
 1146TIP3   OH2 3401   1.017   0.696   3.641
 1146TIP3    H1 3402   0.924   0.676   3.632
 1146TIP3    H2 3403   1.022   0.753   3.717
 1147TIP3   OH2 3404   3.202   0.105   5.872
 1147TIP3    H1 3405   3.244   0.019   5.873
 1147TIP3    H2 3406   3.198   0.129   5.779
 1148TIP3   OH2 3407   3.085   4.582   3.584
 1148TIP3    H1 3408   3.094   4.517   3.514
 1148TIP3    H2 3409   3.124   4.661   3.548
 1149TIP3   OH2 3410   1.116   4.108   5.810
 1149TIP3    H1 3411   1.058   4.167   5.858
 1149TIP3    H2 3412   1.082   4.020   5.827
 1150TIP3   OH2 3413   6.672   0.375   4.602
 1150TIP3    H1 3414   6.742   0.432   4.635
 1150TIP3    H2 3415   6.594   0.431   4.601
 1151TIP3   OH2 3416   4.875   2.464   1.504
 1151TIP3    H1 3417   4.867   2.526   1.577
 1151TIP3    H2 3418   4.883   2.520   1.426
 1152TIP3   OH2 3419   6.546   0.942   1.641
 1152TIP3    H1 3420   6.537   0.878   1.712
 1152TIP3    H2 3421   6.469   0.926   1.586
 1153TIP3   OH2 3422   3.088   1.317   0.113
 1153TIP3    H1 3423   3.010   1.280   0.155
 1153TIP3    H2 3424   3.115   1.250   0.049
 1154TIP3   OH2 3425   2.213   2.866   4.861
 1154TIP3    H1 3426   2.302   2.897   4.844
 1154TIP3    H2 3427   2.158   2.944   4.852
 1155TIP3   OH2 3428   4.594   3.028   5.573
 1155TIP3    H1 3429   4.575   2.981   5.654
 1155TIP3    H2 3430   4.509   3.060   5.543
 1156TIP3   OH2 3431   3.119   1.231   1.473
 1156TIP3    H1 3432   3.172   1.266   1.545
 1156TIP3    H2 3433   3.098   1.307   1.419
 1157TIP3   OH2 3434   3.376   2.366   4.131
 1157TIP3    H1 3435   3.343   2.333   4.047
 1157TIP3    H2 3436   3.471   2.354   4.126
 1158TIP3   OH2 3437   2.577   2.913   4.031
 1158TIP3    H1 3438   2.491   2.955   4.025
 1158TIP3    H2 3439   2.614   2.947   4.113
 1159TIP3   OH2 3440   6.551   5.120   5.860
 1159TIP3    H1 3441   6.502   5.151   5.784
 1159TIP3    H2 3442   6.507   5.158   5.935
 1160TIP3   OH2 3443   0.994   5.957   1.333
 1160TIP3    H1 3444   1.073   5.909   1.310
 1160TIP3    H2 3445   1.021   6.049   1.333
 1161TIP3   OH2 3446   6.723   3.460   0.999
 1161TIP3    H1 3447   6.709   3.533   1.058
 1161TIP3    H2 3448   6.637   3.419   0.989
 1162TIP3   OH2 3449   5.784   2.369   0.805
 1162TIP3    H1 3450   5.826   2.450   0.776
 1162TIP3    H2 3451   5.782   2.375   0.900
 1163TIP3   OH2 3452   3.088   2.932   1.633
 1163TIP3    H1 3453   3.053   2.868   1.695
 1163TIP3    H2 3454   3.175   2.952   1.667
 1164TIP3   OH2 3455   3.151   6.449   2.113
 1164TIP3    H1 3456   3.093   6.478   2.183
 1164TIP3    H2 3457   3.154   6.522   2.052
 1165TIP3   OH2 3458   1.163   3.657   0.705
 1165TIP3    H1 3459   1.106   3.733   0.720
 1165TIP3    H2 3460   1.108   3.594   0.659
 1166TIP3   OH2 3461   3.408   3.937   5.265
 1166TIP3    H1 3462   3.429   3.843   5.266
 1166TIP3    H2 3463   3.315   3.941   5.285
 1167TIP3   OH2 3464   4.353   1.572   4.712
 1167TIP3    H1 3465   4.292   1.617   4.771
 1167TIP3    H2 3466   4.368   1.635   4.642
 1168TIP3   OH2 3467   6.938   0.807   3.475
 1168TIP3    H1 3468   6.874   0.863   3.518
 1168TIP3    H2 3469   6.896   0.781   3.393
 1169TIP3   OH2 3470   6.757   3.762   4.164
 1169TIP3    H1 3471   6.744   3.690   4.102
 1169TIP3    H2 3472   6.835   3.738   4.213
 1170TIP3   OH2 3473   3.084   3.587   1.706
 1170TIP3    H1 3474   3.084   3.580   1.801
 1170TIP3    H2 3475   3.174   3.608   1.683
 1171TIP3   OH2 3476   2.238   0.280   2.208
 1171TIP3    H1 3477   2.157   0.279   2.156
 1171TIP3    H2 3478   2.307   0.303   2.146
 1172TIP3   OH2 3479   5.356   5.841   1.760
 1172TIP3    H1 3480   5.295   5.790   1.813
 1172TIP3    H2 3481   5.346   5.931   1.792
 1173TIP3   OH2 3482   5.886   0.926   0.571
 1173TIP3    H1 3483   5.938   0.876   0.634
 1173TIP3    H2 3484   5.849   0.998   0.622
 1174TIP3   OH2 3485   3.223   0.960   1.518
 1174TIP3    H1 3486   3.199   1.049   1.493
 1174TIP3    H2 3487   3.152   0.931   1.576
 1175TIP3   OH2 3488   0.850   1.322   4.802
 1175TIP3    H1 3489   0.861   1.231   4.777
 1175TIP3    H2 3490   0.777   1.322   4.864
 1176TIP3   OH2 3491   2.507   2.742   0.868
 1176TIP3    H1 3492   2.477   2.794   0.793
 1176TIP3    H2 3493   2.496   2.800   0.943
 1177TIP3   OH2 3494   3.878   0.196   4.945
 1177TIP3    H1 3495   3.855   0.103   4.951
 1177TIP3    H2 3496   3.829   0.228   4.869
 1178TIP3   OH2 3497   7.076   3.391   4.361
 1178TIP3    H1 3498   7.127   3.377   4.441
 1178TIP3    H2 3499   6.988   3.361   4.383
 1179TIP3   OH2 3500   0.719   2.772   4.822
 1179TIP3    H1 3501   0.683   2.848   4.776
 1179TIP3    H2 3502   0.642   2.717   4.839
 1180TIP3   OH2 3503   5.953   3.088   4.927
 1180TIP3    H1 3504   5.952   3.173   4.882
 1180TIP3    H2 3505   5.971   3.024   4.859
 1181TIP3   OH2 3506   3.105   1.951   1.543
 1181TIP3    H1 3507   3.153   2.022   1.500
 1181TIP3    H2 3508   3.144   1.944   1.630
 1182TIP3   OH2 3509   5.400   6.279   1.250
 1182TIP3    H1 3510   5.485   6.235   1.256
 1182TIP3    H2 3511   5.336   6.210   1.269
 1183TIP3   OH2 3512   2.410   2.375   2.266
 1183TIP3    H1 3513   2.490   2.346   2.222
 1183TIP3    H2 3514   2.349   2.303   2.255
 1184TIP3   OH2 3515   1.048   3.880   1.860
 1184TIP3    H1 3516   1.063   3.936   1.785
 1184TIP3    H2 3517   1.136   3.857   1.890
 1185TIP3   OH2 3518   6.946   6.424   0.898
 1185TIP3    H1 3519   6.943   6.462   0.810
 1185TIP3    H2 3520   7.018   6.470   0.941
 1186TIP3   OH2 3521   7.030   4.072   5.265
 1186TIP3    H1 3522   6.962   4.007   5.282
 1186TIP3    H2 3523   7.089   4.029   5.204
 1187TIP3   OH2 3524   0.229   4.871   3.261
 1187TIP3    H1 3525   0.246   4.965   3.263
 1187TIP3    H2 3526   0.141   4.863   3.223
 1188TIP3   OH2 3527   5.129   4.974   5.614
 1188TIP3    H1 3528   5.044   4.937   5.638
 1188TIP3    H2 3529   5.165   4.912   5.551
 1189TIP3   OH2 3530   0.864   6.678   2.009
 1189TIP3    H1 3531   0.816   6.630   2.077
 1189TIP3    H2 3532   0.870   6.617   1.936
 1190TIP3   OH2 3533   3.172   1.717   0.921
 1190TIP3    H1 3534   3.119   1.709   1.000
 1190TIP3    H2 3535   3.223   1.636   0.917
 1191TIP3   OH2 3536   3.577   6.317   0.195
 1191TIP3    H1 3537   3.498   6.282   0.155
 1191TIP3    H2 3538   3.597   6.257   0.266
 1192TIP3   OH2 3539   7.089   2.412   1.230
 1192TIP3    H1 3540   7.156   2.378   1.289
 1192TIP3    H2 3541   7.117   2.501   1.210
 1193TIP3   OH2 3542   5.821   5.745   0.922
 1193TIP3    H1 3543   5.736   5.728   0.962
 1193TIP3    H2 3544   5.803   5.811   0.855
 1194TIP3   OH2 3545   4.909   5.322   1.085
 1194TIP3    H1 3546   4.970   5.249   1.098
 1194TIP3    H2 3547   4.952   5.397   1.125
 1195TIP3   OH2 3548   6.561   3.172   2.562
 1195TIP3    H1 3549   6.473   3.140   2.542
 1195TIP3    H2 3550   6.587   3.219   2.483
 1196TIP3   OH2 3551   5.800   3.679   2.422
 1196TIP3    H1 3552   5.724   3.705   2.370
 1196TIP3    H2 3553   5.860   3.638   2.359
 1197TIP3   OH2 3554   2.650   2.002   3.097
 1197TIP3    H1 3555   2.604   1.918   3.096
 1197TIP3    H2 3556   2.690   2.009   3.011
 1198TIP3   OH2 3557   0.995   2.572   0.955
 1198TIP3    H1 3558   1.035   2.561   0.869
 1198TIP3    H2 3559   1.042   2.646   0.994
 1199TIP3   OH2 3560   3.843   5.135   0.990
 1199TIP3    H1 3561   3.790   5.084   1.051
 1199TIP3    H2 3562   3.824   5.226   1.011
 1200TIP3   OH2 3563   5.914   4.766   3.038
 1200TIP3    H1 3564   5.877   4.715   3.110
 1200TIP3    H2 3565   5.963   4.836   3.081
 1201TIP3   OH2 3566   6.433   1.711   0.632
 1201TIP3    H1 3567   6.500   1.761   0.585
 1201TIP3    H2 3568   6.386   1.663   0.564
 1202TIP3   OH2 3569   0.625   3.354   5.475
 1202TIP3    H1 3570   0.655   3.266   5.500
 1202TIP3    H2 3571   0.687   3.413   5.516
 1203TIP3   OH2 3572   0.726   4.759   5.028
 1203TIP3    H1 3573   0.640   4.799   5.039
 1203TIP3    H2 3574   0.760   4.798   4.948
 1204TIP3   OH2 3575   6.108   2.914   1.485
 1204TIP3    H1 3576   6.038   2.850   1.494
 1204TIP3    H2 3577   6.178   2.881   1.541
 1205TIP3   OH2 3578   4.598   4.534   2.591
 1205TIP3    H1 3579   4.625   4.565   2.505
 1205TIP3    H2 3580   4.618   4.440   2.590
 1206TIP3   OH2 3581   3.147   4.183   2.710
 1206TIP3    H1 3582   3.196   4.237   2.771
 1206TIP3    H2 3583   3.160   4.094   2.741
 1207TIP3   OH2 3584   4.402   3.915   3.096
 1207TIP3    H1 3585   4.395   3.987   3.158
 1207TIP3    H2 3586   4.494   3.917   3.067
 1208TIP3   OH2 3587   1.411   2.728   5.637
 1208TIP3    H1 3588   1.317   2.746   5.628
 1208TIP3    H2 3589   1.450   2.814   5.652
 1209TIP3   OH2 3590   5.991   3.671   0.980
 1209TIP3    H1 3591   6.050   3.737   0.943
 1209TIP3    H2 3592   5.904   3.702   0.957
 1210TIP3   OH2 3593   3.378   3.429   4.246
 1210TIP3    H1 3594   3.434   3.357   4.216
 1210TIP3    H2 3595   3.396   3.436   4.340
 1211TIP3   OH2 3596   1.167   5.560   1.301
 1211TIP3    H1 3597   1.194   5.544   1.391
 1211TIP3    H2 3598   1.110   5.486   1.280
 1212TIP3   OH2 3599   4.124   5.880   4.005
 1212TIP3    H1 3600   4.037   5.908   3.979
 1212TIP3    H2 3601   4.169   5.860   3.922
 1213TIP3   OH2 3602   1.748   0.199   2.012
 1213TIP3    H1 3603   1.785   0.139   2.077
 1213TIP3    H2 3604   1.719   0.275   2.063
 1214TIP3   OH2 3605   3.969   6.165   4.795
 1214TIP3    H1 3606   3.963   6.078   4.835
 1214TIP3    H2 3607   3.913   6.220   4.850
 1215TIP3   OH2 3608   0.216   2.929   2.372
 1215TIP3    H1 3609   0.244   2.857   2.428
 1215TIP3    H2 3610   0.158   2.889   2.307
 1216TIP3   OH2 3611   2.933   6.815   1.439
 1216TIP3    H1 3612   2.955   6.768   1.359
 1216TIP3    H2 3613   2.920   6.747   1.504
 1217TIP3   OH2 3614   3.572   0.794   1.897
 1217TIP3    H1 3615   3.575   0.885   1.928
 1217TIP3    H2 3616   3.598   0.742   1.973
 1218TIP3   OH2 3617   6.466   1.219   2.428
 1218TIP3    H1 3618   6.393   1.244   2.371
 1218TIP3    H2 3619   6.475   1.292   2.490
 1219TIP3   OH2 3620   0.508   4.836   2.844
 1219TIP3    H1 3621   0.594   4.797   2.827
 1219TIP3    H2 3622   0.519   4.885   2.925
 1220TIP3   OH2 3623   1.743   6.171   1.016
 1220TIP3    H1 3624   1.648   6.172   1.025
 1220TIP3    H2 3625   1.769   6.083   1.041
 1221TIP3   OH2 3626   0.173   3.272   2.996
 1221TIP3    H1 3627   0.215   3.296   3.079
 1221TIP3    H2 3628   0.129   3.189   3.015
 1222TIP3   OH2 3629   5.506   5.047   5.689
 1222TIP3    H1 3630   5.576   5.091   5.736
 1222TIP3    H2 3631   5.446   5.017   5.757
 1223TIP3   OH2 3632   4.614   2.771   3.571
 1223TIP3    H1 3633   4.700   2.754   3.533
 1223TIP3    H2 3634   4.630   2.838   3.638
 1224TIP3   OH2 3635   3.855   3.260   1.143
 1224TIP3    H1 3636   3.879   3.193   1.079
 1224TIP3    H2 3637   3.830   3.336   1.090
 1225TIP3   OH2 3638   0.676   3.598   3.281
 1225TIP3    H1 3639   0.625   3.523   3.249
 1225TIP3    H2 3640   0.760   3.590   3.235
 1226TIP3   OH2 3641   1.072   4.286   2.534
 1226TIP3    H1 3642   1.035   4.332   2.458
 1226TIP3    H2 3643   0.998   4.240   2.573
 1227TIP3   OH2 3644   4.982   4.831   1.241
 1227TIP3    H1 3645   5.043   4.766   1.274
 1227TIP3    H2 3646   5.035   4.884   1.180
 1228TIP3   OH2 3647   3.677   5.753   5.558
 1228TIP3    H1 3648   3.617   5.751   5.632
 1228TIP3    H2 3649   3.643   5.688   5.497
 1229TIP3   OH2 3650   0.497   4.826   2.539
 1229TIP3    H1 3651   0.572   4.878   2.565
 1229TIP3    H2 3652   0.422   4.867   2.583
 1230TIP3   OH2 3653   3.476   1.244   5.633
 1230TIP3    H1 3654   3.529   1.320   5.654
 1230TIP3    H2 3655   3.396   1.281   5.594
 1231TIP3   OH2 3656   6.859   2.372   4.231
 1231TIP3    H1 3657   6.911   2.370   4.312
 1231TIP3    H2 3658   6.904   2.435   4.175
 1232TIP3   OH2 3659   3.908   6.163   1.776
 1232TIP3    H1 3660   3.905   6.188   1.868
 1232TIP3    H2 3661   3.997   6.134   1.761
 1233TIP3   OH2 3662   0.863   3.402   2.189
 1233TIP3    H1 3663   0.768   3.388   2.190
 1233TIP3    H2 3664   0.895   3.345   2.119
 1234TIP3   OH2 3665   1.873   5.432   0.063
 1234TIP3    H1 3666   1.930   5.359   0.086
 1234TIP3    H2 3667   1.794   5.391   0.028
 1235TIP3   OH2 3668   1.103   1.399   3.889
 1235TIP3    H1 3669   1.024   1.451   3.906
 1235TIP3    H2 3670   1.072   1.326   3.836
 1236TIP3   OH2 3671   2.686   1.848   0.902
 1236TIP3    H1 3672   2.768   1.893   0.924
 1236TIP3    H2 3673   2.708   1.755   0.904
 1237TIP3   OH2 3674   4.600   0.270   2.648
 1237TIP3    H1 3675   4.677   0.256   2.703
 1237TIP3    H2 3676   4.630   0.252   2.559
 1238TIP3   OH2 3677   1.974   4.880   1.964
 1238TIP3    H1 3678   2.060   4.849   1.992
 1238TIP3    H2 3679   1.920   4.877   2.043
 1239TIP3   OH2 3680   4.297   4.956   1.347
 1239TIP3    H1 3681   4.332   4.995   1.427
 1239TIP3    H2 3682   4.360   4.979   1.279
 1240TIP3   OH2 3683   4.431   3.223   1.108
 1240TIP3    H1 3684   4.522   3.246   1.126
 1240TIP3    H2 3685   4.430   3.127   1.107
 1241TIP3   OH2 3686   1.817   6.039   5.901
 1241TIP3    H1 3687   1.839   5.952   5.936
 1241TIP3    H2 3688   1.740   6.066   5.952
 1242TIP3   OH2 3689   0.464   6.609   2.362
 1242TIP3    H1 3690   0.468   6.522   2.321
 1242TIP3    H2 3691   0.527   6.661   2.312
 1243TIP3   OH2 3692   3.111   0.650   0.091
 1243TIP3    H1 3693   3.117   0.562   0.129
 1243TIP3    H2 3694   3.040   0.644   0.027
 1244TIP3   OH2 3695   5.702   1.811   0.687
 1244TIP3    H1 3696   5.640   1.825   0.616
 1244TIP3    H2 3697   5.673   1.871   0.756
 1245TIP3   OH2 3698   2.275   2.990   0.278
 1245TIP3    H1 3699   2.290   3.010   0.185
 1245TIP3    H2 3700   2.341   3.041   0.324
 1246TIP3   OH2 3701   3.061   2.888   2.116
 1246TIP3    H1 3702   3.120   2.862   2.187
 1246TIP3    H2 3703   3.075   2.982   2.105
 1247TIP3   OH2 3704   4.668   5.208   3.384
 1247TIP3    H1 3705   4.639   5.276   3.323
 1247TIP3    H2 3706   4.710   5.255   3.455
 1248TIP3   OH2 3707   5.442   4.109   1.154
 1248TIP3    H1 3708   5.510   4.157   1.107
 1248TIP3    H2 3709   5.361   4.130   1.108
 1249TIP3   OH2 3710   5.002   6.348   2.376
 1249TIP3    H1 3711   4.930   6.410   2.386
 1249TIP3    H2 3712   5.016   6.342   2.282
 1250TIP3   OH2 3713   1.357   0.246   4.932
 1250TIP3    H1 3714   1.382   0.297   5.009
 1250TIP3    H2 3715   1.281   0.195   4.960
 1251TIP3   OH2 3716   5.023   6.393   2.897
 1251TIP3    H1 3717   5.057   6.374   2.809
 1251TIP3    H2 3718   5.084   6.458   2.933
 1252TIP3   OH2 3719   5.254   4.960   0.469
 1252TIP3    H1 3720   5.187   4.986   0.531
 1252TIP3    H2 3721   5.263   4.866   0.481
 1253TIP3   OH2 3722   1.725   4.280   1.013
 1253TIP3    H1 3723   1.631   4.287   1.028
 1253TIP3    H2 3724   1.747   4.190   1.035
 1254TIP3   OH2 3725   5.352   4.941   1.197
 1254TIP3    H1 3726   5.398   4.934   1.281
 1254TIP3    H2 3727   5.269   4.894   1.210
 1255TIP3   OH2 3728   2.995   0.415   5.415
 1255TIP3    H1 3729   2.925   0.351   5.433
 1255TIP3    H2 3730   3.069   0.384   5.468
 1256TIP3   OH2 3731   0.883   6.508   0.577
 1256TIP3    H1 3732   0.840   6.445   0.635
 1256TIP3    H2 3733   0.924   6.454   0.510
 1257TIP3   OH2 3734   4.894   4.503   1.242
 1257TIP3    H1 3735   4.849   4.426   1.277
 1257TIP3    H2 3736   4.834   4.575   1.260
 1258TIP3   OH2 3737   6.951   5.680   4.575
 1258TIP3    H1 3738   6.871   5.630   4.564
 1258TIP3    H2 3739   6.991   5.644   4.655
 1259TIP3   OH2 3740   6.429   0.256   3.906
 1259TIP3    H1 3741   6.409   0.325   3.843
 1259TIP3    H2 3742   6.502   0.209   3.866
 1260TIP3   OH2 3743   4.682   5.829   4.587
 1260TIP3    H1 3744   4.610   5.879   4.549
 1260TIP3    H2 3745   4.747   5.894   4.613
 1261TIP3   OH2 3746   4.260   1.465   2.888
 1261TIP3    H1 3747   4.176   1.441   2.849
 1261TIP3    H2 3748   4.238   1.498   2.975
 1262TIP3   OH2 3749   3.505   5.863   0.233
 1262TIP3    H1 3750   3.542   5.932   0.288
 1262TIP3    H2 3751   3.580   5.827   0.186
 1263TIP3   OH2 3752   2.418   0.496   5.021
 1263TIP3    H1 3753   2.494   0.437   5.020
 1263TIP3    H2 3754   2.345   0.440   5.049
 1264TIP3   OH2 3755   3.713   3.837   5.297
 1264TIP3    H1 3756   3.804   3.853   5.323
 1264TIP3    H2 3757   3.711   3.860   5.204
 1265TIP3   OH2 3758   2.144   4.415   1.652
 1265TIP3    H1 3759   2.142   4.441   1.744
 1265TIP3    H2 3760   2.182   4.327   1.653
 1266TIP3   OH2 3761   4.466   0.915   5.209
 1266TIP3    H1 3762   4.417   0.832   5.216
 1266TIP3    H2 3763   4.554   0.888   5.184
 1267TIP3   OH2 3764   6.534   4.929   0.992
 1267TIP3    H1 3765   6.591   5.001   0.965
 1267TIP3    H2 3766   6.529   4.937   1.087
 1268TIP3   OH2 3767   7.117   1.322   0.224
 1268TIP3    H1 3768   7.087   1.333   0.314
 1268TIP3    H2 3769   7.059   1.377   0.172
 1269TIP3   OH2 3770   0.212   0.862   4.501
 1269TIP3    H1 3771   0.307   0.857   4.512
 1269TIP3    H2 3772   0.178   0.871   4.590
 1270TIP3   OH2 3773   0.895   0.809   1.921
 1270TIP3    H1 3774   0.875   0.739   1.984
 1270TIP3    H2 3775   0.869   0.889   1.966
 1271TIP3   OH2 3776   2.994   2.882   0.148
 1271TIP3    H1 3777   3.082   2.911   0.173
 1271TIP3    H2 3778   2.942   2.893   0.228
 1272TIP3   OH2 3779   3.588   1.999   0.594
 1272TIP3    H1 3780   3.552   2.081   0.561
 1272TIP3    H2 3781   3.625   2.022   0.680
 1273TIP3   OH2 3782   0.484   3.136   2.858
 1273TIP3    H1 3783   0.559   3.099   2.811
 1273TIP3    H2 3784   0.410   3.080   2.832
 1274TIP3   OH2 3785   0.127   2.346   5.685
 1274TIP3    H1 3786   0.174   2.392   5.754
 1274TIP3    H2 3787   0.077   2.278   5.731
 1275TIP3   OH2 3788   5.250   2.358   4.044
 1275TIP3    H1 3789   5.246   2.442   4.090
 1275TIP3    H2 3790   5.239   2.292   4.112
 1276TIP3   OH2 3791   3.657   1.964   4.199
 1276TIP3    H1 3792   3.616   2.045   4.229
 1276TIP3    H2 3793   3.639   1.962   4.105
 1277TIP3   OH2 3794   5.075   4.308   1.179
 1277TIP3    H1 3795   5.169   4.322   1.172
 1277TIP3    H2 3796   5.038   4.396   1.190
 1278TIP3   OH2 3797   4.940   0.557   4.359
 1278TIP3    H1 3798   4.979   0.632   4.315
 1278TIP3    H2 3799   4.957   0.483   4.301
 1279TIP3   OH2 3800   6.309   0.921   4.336
 1279TIP3    H1 3801   6.217   0.942   4.320
 1279TIP3    H2 3802   6.329   0.851   4.274
 1280TIP3   OH2 3803   3.319   4.810   5.763
 1280TIP3    H1 3804   3.327   4.902   5.788
 1280TIP3    H2 3805   3.297   4.765   5.844
 1281TIP3   OH2 3806   5.513   1.604   4.356
 1281TIP3    H1 3807   5.489   1.646   4.438
 1281TIP3    H2 3808   5.475   1.660   4.288
 1282TIP3   OH2 3809   3.719   1.164   3.446
 1282TIP3    H1 3810   3.685   1.187   3.360
 1282TIP3    H2 3811   3.641   1.159   3.502
 1283TIP3   OH2 3812   5.381   1.875   5.728
 1283TIP3    H1 3813   5.358   1.879   5.636
 1283TIP3    H2 3814   5.320   1.811   5.765
 1284TIP3   OH2 3815   0.073   4.142   2.371
 1284TIP3    H1 3816   0.102   4.120   2.460
 1284TIP3    H2 3817  -0.021   4.124   2.371
 1285TIP3   OH2 3818   4.650   2.034   2.951
 1285TIP3    H1 3819   4.681   2.005   2.865
 1285TIP3    H2 3820   4.659   2.129   2.948
 1286TIP3   OH2 3821   2.464   3.731   0.987
 1286TIP3    H1 3822   2.462   3.690   0.900
 1286TIP3    H2 3823   2.555   3.757   0.999
 1287TIP3   OH2 3824   4.396   4.430   3.493
 1287TIP3    H1 3825   4.485   4.429   3.527
 1287TIP3    H2 3826   4.401   4.481   3.413
 1288TIP3   OH2 3827   6.758   4.401   1.414
 1288TIP3    H1 3828   6.693   4.345   1.455
 1288TIP3    H2 3829   6.710   4.450   1.347
 1289TIP3   OH2 3830   1.815   1.830   1.294
 1289TIP3    H1 3831   1.821   1.743   1.333
 1289TIP3    H2 3832   1.881   1.881   1.339
 1290TIP3   OH2 3833   5.507   3.401   3.676
 1290TIP3    H1 3834   5.534   3.319   3.635
 1290TIP3    H2 3835   5.487   3.377   3.767
 1291TIP3   OH2 3836   6.597   0.312   0.714
 1291TIP3    H1 3837   6.546   0.301   0.634
 1291TIP3    H2 3838   6.533   0.313   0.784
 1292TIP3   OH2 3839   0.696   1.424   5.382
 1292TIP3    H1 3840   0.624   1.485   5.366
 1292TIP3    H2 3841   0.739   1.459   5.460
 1293TIP3   OH2 3842   5.479   0.378   0.595
 1293TIP3    H1 3843   5.525   0.297   0.614
 1293TIP3    H2 3844   5.506   0.438   0.665
 1294TIP3   OH2 3845   3.962   5.813   5.486
 1294TIP3    H1 3846   3.873   5.779   5.498
 1294TIP3    H2 3847   4.019   5.738   5.499
 1295TIP3   OH2 3848   4.577   2.616   0.531
 1295TIP3    H1 3849   4.651   2.673   0.548
 1295TIP3    H2 3850   4.584   2.546   0.596
 1296TIP3   OH2 3851   6.794   5.143   0.078
 1296TIP3    H1 3852   6.823   5.055   0.104
 1296TIP3    H2 3853   6.799   5.195   0.158
 1297TIP3   OH2 3854   0.819   0.506   1.373
 1297TIP3    H1 3855   0.800   0.525   1.464
 1297TIP3    H2 3856   0.848   0.590   1.336
 1298TIP3   OH2 3857   5.591   2.988   4.318
 1298TIP3    H1 3858   5.609   2.983   4.412
 1298TIP3    H2 3859   5.644   2.919   4.279
 1299TIP3   OH2 3860   0.948   1.272   2.055
 1299TIP3    H1 3861   0.945   1.265   2.150
 1299TIP3    H2 3862   0.977   1.186   2.026
 1300TIP3   OH2 3863   1.142   6.636   1.660
 1300TIP3    H1 3864   1.237   6.622   1.661
 1300TIP3    H2 3865   1.110   6.592   1.738
 1301TIP3   OH2 3866   2.665   5.181   3.262
 1301TIP3    H1 3867   2.651   5.258   3.316
 1301TIP3    H2 3868   2.729   5.209   3.196
 1302TIP3   OH2 3869   2.860   1.203   0.195
 1302TIP3    H1 3870   2.846   1.111   0.216
 1302TIP3    H2 3871   2.821   1.214   0.108
 1303TIP3   OH2 3872   1.778   0.622   0.318
 1303TIP3    H1 3873   1.692   0.654   0.345
 1303TIP3    H2 3874   1.826   0.610   0.399
 1304TIP3   OH2 3875   0.669   5.113   1.549
 1304TIP3    H1 3876   0.752   5.080   1.585
 1304TIP3    H2 3877   0.601   5.070   1.600
 1305TIP3   OH2 3878   0.549   1.475   3.456
 1305TIP3    H1 3879   0.553   1.472   3.360
 1305TIP3    H2 3880   0.545   1.384   3.483
 1306TIP3   OH2 3881   3.887   3.861   2.771
 1306TIP3    H1 3882   3.811   3.838   2.824
 1306TIP3    H2 3883   3.925   3.776   2.746
 1307TIP3   OH2 3884   2.054   5.695   5.770
 1307TIP3    H1 3885   2.005   5.731   5.844
 1307TIP3    H2 3886   2.050   5.763   5.703
 1308TIP3   OH2 3887   3.375   1.314   1.910
 1308TIP3    H1 3888   3.305   1.330   1.846
 1308TIP3    H2 3889   3.337   1.250   1.971
 1309TIP3   OH2 3890   4.624   4.255   2.901
 1309TIP3    H1 3891   4.623   4.171   2.855
 1309TIP3    H2 3892   4.533   4.285   2.901
 1310TIP3   OH2 3893   7.105   4.141   2.663
 1310TIP3    H1 3894   7.145   4.065   2.705
 1310TIP3    H2 3895   7.032   4.164   2.721
 1311TIP3   OH2 3896   5.656   6.382   2.112
 1311TIP3    H1 3897   5.681   6.459   2.060
 1311TIP3    H2 3898   5.722   6.316   2.090
 1312TIP3   OH2 3899   4.458   0.626   4.818
 1312TIP3    H1 3900   4.388   0.565   4.794
 1312TIP3    H2 3901   4.533   0.570   4.836
 1313TIP3   OH2 3902   3.995   0.140   4.229
 1313TIP3    H1 3903   3.933   0.193   4.278
 1313TIP3    H2 3904   3.943   0.067   4.196
 1314TIP3   OH2 3905   1.979   6.643   2.122
 1314TIP3    H1 3906   2.048   6.586   2.155
 1314TIP3    H2 3907   1.961   6.610   2.033
 1315TIP3   OH2 3908   0.693   6.725   2.775
 1315TIP3    H1 3909   0.617   6.783   2.783
 1315TIP3    H2 3910   0.677   6.657   2.840
 1316TIP3   OH2 3911   1.445   4.358   1.411
 1316TIP3    H1 3912   1.370   4.402   1.450
 1316TIP3    H2 3913   1.521   4.408   1.441
 1317TIP3   OH2 3914   1.253   5.217   1.077
 1317TIP3    H1 3915   1.258   5.166   0.996
 1317TIP3    H2 3916   1.202   5.295   1.053
 1318TIP3   OH2 3917   6.268   0.561   5.585
 1318TIP3    H1 3918   6.331   0.623   5.622
 1318TIP3    H2 3919   6.320   0.504   5.529
 1319TIP3   OH2 3920   6.646   3.657   1.183
 1319TIP3    H1 3921   6.617   3.748   1.188
 1319TIP3    H2 3922   6.609   3.615   1.260
 1320TIP3   OH2 3923   1.815   0.743   1.488
 1320TIP3    H1 3924   1.884   0.677   1.488
 1320TIP3    H2 3925   1.861   0.826   1.504
 1321TIP3   OH2 3926   3.473   3.065   3.701
 1321TIP3    H1 3927   3.386   3.102   3.690
 1321TIP3    H2 3928   3.526   3.109   3.634
 1322TIP3   OH2 3929   5.172   4.602   5.815
 1322TIP3    H1 3930   5.260   4.612   5.777
 1322TIP3    H2 3931   5.134   4.529   5.767
 1323TIP3   OH2 3932   6.711   3.569   2.676
 1323TIP3    H1 3933   6.626   3.542   2.712
 1323TIP3    H2 3934   6.697   3.570   2.581
 1324TIP3   OH2 3935   6.207   1.066   3.535
 1324TIP3    H1 3936   6.280   1.116   3.496
 1324TIP3    H2 3937   6.135   1.076   3.473
 1325TIP3   OH2 3938   4.594   6.098   5.431
 1325TIP3    H1 3939   4.520   6.055   5.475
 1325TIP3    H2 3940   4.601   6.052   5.347
 1326TIP3   OH2 3941   0.125   3.863   3.221
 1326TIP3    H1 3942   0.059   3.898   3.280
 1326TIP3    H2 3943   0.209   3.890   3.259
 1327TIP3   OH2 3944   2.171   1.781   4.752
 1327TIP3    H1 3945   2.191   1.791   4.845
 1327TIP3    H2 3946   2.128   1.863   4.727
 1328TIP3   OH2 3947  -0.006   0.279   3.120
 1328TIP3    H1 3948   0.065   0.295   3.182
 1328TIP3    H2 3949  -0.082   0.322   3.159
 1329TIP3   OH2 3950   6.848   0.818   2.779
 1329TIP3    H1 3951   6.874   0.881   2.711
 1329TIP3    H2 3952   6.925   0.811   2.835
 1330TIP3   OH2 3953   0.182   4.639   2.776
 1330TIP3    H1 3954   0.131   4.569   2.815
 1330TIP3    H2 3955   0.154   4.718   2.822
 1331TIP3   OH2 3956   1.153   3.757   1.588
 1331TIP3    H1 3957   1.096   3.809   1.531
 1331TIP3    H2 3958   1.093   3.701   1.638
 1332TIP3   OH2 3959   0.953   0.517   1.844
 1332TIP3    H1 3960   1.046   0.539   1.847
 1332TIP3    H2 3961   0.924   0.522   1.935
 1333TIP3   OH2 3962   0.919   5.234   0.468
 1333TIP3    H1 3963   1.010   5.212   0.487
 1333TIP3    H2 3964   0.878   5.150   0.448
 1334TIP3   OH2 3965   1.283   2.380   4.999
 1334TIP3    H1 3966   1.286   2.355   4.907
 1334TIP3    H2 3967   1.318   2.469   5.001
 1335TIP3   OH2 3968   4.124   3.968   3.526
 1335TIP3    H1 3969   4.064   4.016   3.468
 1335TIP3    H2 3970   4.143   4.029   3.597
 1336TIP3   OH2 3971   4.563   3.149   4.122
 1336TIP3    H1 3972   4.552   3.088   4.049
 1336TIP3    H2 3973   4.475   3.183   4.139
 1337TIP3   OH2 3974   7.095   2.570   3.337
 1337TIP3    H1 3975   7.033   2.556   3.265
 1337TIP3    H2 3976   7.084   2.493   3.393
 1338TIP3   OH2 3977   0.822   2.743   4.142
 1338TIP3    H1 3978   0.739   2.697   4.154
 1338TIP3    H2 3979   0.827   2.802   4.217
 1339TIP3   OH2 3980   1.520   6.167   4.170
 1339TIP3    H1 3981   1.568   6.234   4.121
 1339TIP3    H2 3982   1.428   6.195   4.165
 1340TIP3   OH2 3983   0.581   6.484   1.664
 1340TIP3    H1 3984   0.589   6.541   1.587
 1340TIP3    H2 3985   0.518   6.417   1.637
 1341TIP3   OH2 3986   4.331   5.971   5.229
 1341TIP3    H1 3987   4.424   5.961   5.251
 1341TIP3    H2 3988   4.290   5.994   5.312
 1342TIP3   OH2 3989   1.710   0.483   4.164
 1342TIP3    H1 3990   1.664   0.504   4.245
 1342TIP3    H2 3991   1.779   0.550   4.157
 1343TIP3   OH2 3992   5.538   0.416   0.887
 1343TIP3    H1 3993   5.481   0.493   0.895
 1343TIP3    H2 3994   5.570   0.402   0.976
 1344TIP3   OH2 3995   5.607   2.079   2.215
 1344TIP3    H1 3996   5.638   2.068   2.125
 1344TIP3    H2 3997   5.512   2.078   2.208
 1345TIP3   OH2 3998   3.464   3.245   2.060
 1345TIP3    H1 3999   3.508   3.263   1.977
 1345TIP3    H2 4000   3.420   3.327   2.082
 1346TIP3   OH2 4001   0.479   2.061   4.145
 1346TIP3    H1 4002   0.549   2.082   4.082
 1346TIP3    H2 4003   0.513   2.092   4.229
 1347TIP3   OH2 4004   1.497   6.540   5.374
 1347TIP3    H1 4005   1.547   6.528   5.293
 1347TIP3    H2 4006   1.503   6.634   5.392
 1348TIP3   OH2 4007   2.124   2.524   3.106
 1348TIP3    H1 4008   2.183   2.465   3.152
 1348TIP3    H2 4009   2.053   2.468   3.075
 1349TIP3   OH2 4010   2.771   2.224   3.680
 1349TIP3    H1 4011   2.711   2.297   3.668
 1349TIP3    H2 4012   2.852   2.264   3.709
 1350TIP3   OH2 4013   2.412   4.709   5.252
 1350TIP3    H1 4014   2.414   4.676   5.162
 1350TIP3    H2 4015   2.322   4.739   5.265
 1351TIP3   OH2 4016   5.087   2.837   0.138
 1351TIP3    H1 4017   5.049   2.912   0.093
 1351TIP3    H2 4018   5.098   2.771   0.070
 1352TIP3   OH2 4019   5.466   1.293   1.895
 1352TIP3    H1 4020   5.537   1.282   1.832
 1352TIP3    H2 4021   5.386   1.272   1.846
 1353TIP3   OH2 4022   4.283   1.066   4.893
 1353TIP3    H1 4023   4.228   1.098   4.964
 1353TIP3    H2 4024   4.279   0.971   4.900
 1354TIP3   OH2 4025   2.492   4.176   5.384
 1354TIP3    H1 4026   2.514   4.083   5.386
 1354TIP3    H2 4027   2.527   4.211   5.465
 1355TIP3   OH2 4028   3.602   2.915   1.617
 1355TIP3    H1 4029   3.668   2.953   1.559
 1355TIP3    H2 4030   3.647   2.905   1.701
 1356TIP3   OH2 4031   1.623   4.525   3.367
 1356TIP3    H1 4032   1.682   4.492   3.435
 1356TIP3    H2 4033   1.554   4.570   3.416
 1357TIP3   OH2 4034   6.905   2.087   5.660
 1357TIP3    H1 4035   6.915   2.091   5.755
 1357TIP3    H2 4036   6.995   2.076   5.627
 1358TIP3   OH2 4037   3.243   4.378   3.728
 1358TIP3    H1 4038   3.317   4.439   3.723
 1358TIP3    H2 4039   3.166   4.433   3.718
 1359TIP3   OH2 4040   1.867   3.073   4.036
 1359TIP3    H1 4041   1.820   3.147   3.998
 1359TIP3    H2 4042   1.893   3.103   4.123
 1360TIP3   OH2 4043   3.266   6.114   2.429
 1360TIP3    H1 4044   3.180   6.145   2.456
 1360TIP3    H2 4045   3.266   6.124   2.333
 1361TIP3   OH2 4046   5.730   2.613   2.676
 1361TIP3    H1 4047   5.755   2.701   2.704
 1361TIP3    H2 4048   5.663   2.586   2.740
 1362TIP3   OH2 4049   6.422   2.053   0.565
 1362TIP3    H1 4050   6.392   2.022   0.479
 1362TIP3    H2 4051   6.504   2.007   0.580
 1363TIP3   OH2 4052   6.584   2.089   4.207
 1363TIP3    H1 4053   6.579   2.105   4.112
 1363TIP3    H2 4054   6.517   2.023   4.224
 1364TIP3   OH2 4055   1.917   6.587   0.302
 1364TIP3    H1 4056   1.861   6.642   0.356
 1364TIP3    H2 4057   1.917   6.502   0.346
 1365TIP3   OH2 4058   0.725   2.585   0.986
 1365TIP3    H1 4059   0.820   2.571   0.995
 1365TIP3    H2 4060   0.708   2.661   1.042
 1366TIP3   OH2 4061   2.851   1.867   1.229
 1366TIP3    H1 4062   2.915   1.803   1.259
 1366TIP3    H2 4063   2.859   1.866   1.134
 1367TIP3   OH2 4064   2.319   6.478   2.530
 1367TIP3    H1 4065   2.410   6.448   2.523
 1367TIP3    H2 4066   2.267   6.399   2.524
 1368TIP3   OH2 4067   6.129   2.647   5.208
 1368TIP3    H1 4068   6.159   2.621   5.295
 1368TIP3    H2 4069   6.074   2.574   5.179
 1369TIP3   OH2 4070   4.543   3.219   3.575
 1369TIP3    H1 4071   4.534   3.314   3.564
 1369TIP3    H2 4072   4.476   3.195   3.639
 1370TIP3   OH2 4073   4.448   5.986   3.858
 1370TIP3    H1 4074   4.466   6.078   3.878
 1370TIP3    H2 4075   4.531   5.942   3.873
 1371TIP3   OH2 4076   2.784   5.512   4.457
 1371TIP3    H1 4077   2.822   5.593   4.424
 1371TIP3    H2 4078   2.702   5.539   4.498
 1372TIP3   OH2 4079   3.882   1.176   3.150
 1372TIP3    H1 4080   3.813   1.202   3.088
 1372TIP3    H2 4081   3.962   1.214   3.113
 1373TIP3   OH2 4082   6.984   4.322   5.098
 1373TIP3    H1 4083   6.979   4.251   5.161
 1373TIP3    H2 4084   7.026   4.394   5.146
 1374TIP3   OH2 4085   5.688   4.041   4.597
 1374TIP3    H1 4086   5.668   3.974   4.531
 1374TIP3    H2 4087   5.771   4.012   4.635
 1375TIP3   OH2 4088   4.688   2.129   0.026
 1375TIP3    H1 4089   4.697   2.138   0.121
 1375TIP3    H2 4090   4.597   2.152   0.009
 1376TIP3   OH2 4091   4.795   5.985   2.867
 1376TIP3    H1 4092   4.882   5.993   2.906
 1376TIP3    H2 4093   4.767   5.897   2.889
 1377TIP3   OH2 4094   2.377   4.594   3.075
 1377TIP3    H1 4095   2.320   4.520   3.096
 1377TIP3    H2 4096   2.345   4.626   2.991
 1378TIP3   OH2 4097   5.119   6.115   2.246
 1378TIP3    H1 4098   5.168   6.149   2.321
 1378TIP3    H2 4099   5.027   6.126   2.270
 1379TIP3   OH2 4100   3.742   3.749   3.564
 1379TIP3    H1 4101   3.830   3.732   3.598
 1379TIP3    H2 4102   3.683   3.715   3.631
 1380TIP3   OH2 4103   1.909   1.170   1.298
 1380TIP3    H1 4104   1.977   1.230   1.327
 1380TIP3    H2 4105   1.934   1.086   1.337
 1381TIP3   OH2 4106   5.802   4.791   4.435
 1381TIP3    H1 4107   5.896   4.778   4.421
 1381TIP3    H2 4108   5.779   4.865   4.379
 1382TIP3   OH2 4109   4.694   1.607   1.622
 1382TIP3    H1 4110   4.687   1.636   1.531
 1382TIP3    H2 4111   4.643   1.671   1.672
 1383TIP3   OH2 4112   1.549   6.173   1.807
 1383TIP3    H1 4113   1.565   6.117   1.731
 1383TIP3    H2 4114   1.501   6.248   1.772
 1384TIP3   OH2 4115   2.537   0.438   0.566
 1384TIP3    H1 4116   2.614   0.488   0.592
 1384TIP3    H2 4117   2.509   0.393   0.646
 1385TIP3   OH2 4118   2.779   1.384   1.080
 1385TIP3    H1 4119   2.750   1.329   1.153
 1385TIP3    H2 4120   2.838   1.329   1.029
 1386TIP3   OH2 4121   2.969   3.152   0.076
 1386TIP3    H1 4122   2.995   3.208   0.149
 1386TIP3    H2 4123   2.941   3.071   0.118
 1387TIP3   OH2 4124   4.207   6.191   3.303
 1387TIP3    H1 4125   4.170   6.152   3.382
 1387TIP3    H2 4126   4.198   6.285   3.317
 1388TIP3   OH2 4127   1.990   0.056   5.306
 1388TIP3    H1 4128   1.942  -0.027   5.305
 1388TIP3    H2 4129   1.987   0.087   5.215
 1389TIP3   OH2 4130   1.834   2.001   0.969
 1389TIP3    H1 4131   1.778   2.031   1.040
 1389TIP3    H2 4132   1.924   2.014   1.001
 1390TIP3   OH2 4133   3.602   3.370   5.511
 1390TIP3    H1 4134   3.529   3.308   5.514
 1390TIP3    H2 4135   3.561   3.455   5.528
 1391TIP3   OH2 4136   2.507   0.483   0.111
 1391TIP3    H1 4137   2.478   0.431   0.186
 1391TIP3    H2 4138   2.587   0.526   0.141
 1392TIP3   OH2 4139   5.329   1.874   4.943
 1392TIP3    H1 4140   5.328   1.925   4.862
 1392TIP3    H2 4141   5.392   1.804   4.927
 1393TIP3   OH2 4142   2.950   2.560   0.435
 1393TIP3    H1 4143   2.888   2.620   0.475
 1393TIP3    H2 4144   3.033   2.607   0.435
 1394TIP3   OH2 4145   3.008   5.913   3.008
 1394TIP3    H1 4146   3.091   5.868   2.992
 1394TIP3    H2 4147   3.009   5.934   3.101
 1395TIP3   OH2 4148   4.884   4.096   1.751
 1395TIP3    H1 4149   4.861   4.055   1.835
 1395TIP3    H2 4150   4.887   4.189   1.771
 1396TIP3   OH2 4151   2.125   1.819   3.953
 1396TIP3    H1 4152   2.041   1.853   3.921
 1396TIP3    H2 4153   2.182   1.896   3.959
 1397TIP3   OH2 4154   3.464   6.730   0.664
 1397TIP3    H1 4155   3.416   6.682   0.732
 1397TIP3    H2 4156   3.460   6.673   0.587
 1398TIP3   OH2 4157   0.638   1.955   0.336
 1398TIP3    H1 4158   0.595   2.026   0.383
 1398TIP3    H2 4159   0.571   1.923   0.275
 1399TIP3   OH2 4160   1.902   5.590   5.002
 1399TIP3    H1 4161   1.895   5.652   5.075
 1399TIP3    H2 4162   1.935   5.510   5.042
 1400TIP3   OH2 4163   4.419   3.998   2.185
 1400TIP3    H1 4164   4.389   4.005   2.094
 1400TIP3    H2 4165   4.499   4.050   2.188
 1401TIP3   OH2 4166   1.701   5.465   3.012
 1401TIP3    H1 4167   1.686   5.430   2.925
 1401TIP3    H2 4168   1.684   5.559   3.003
 1402TIP3   OH2 4169   2.718   0.731   4.132
 1402TIP3    H1 4170   2.642   0.677   4.113
 1402TIP3    H2 4171   2.781   0.708   4.064
 1403TIP3   OH2 4172   0.675   5.100   1.277
 1403TIP3    H1 4173   0.688   5.130   1.367
 1403TIP3    H2 4174   0.674   5.005   1.282
 1404TIP3   OH2 4175   6.808   0.146   2.167
 1404TIP3    H1 4176   6.751   0.220   2.187
 1404TIP3    H2 4177   6.877   0.183   2.113
 1405TIP3   OH2 4178   2.918   6.047   4.640
 1405TIP3    H1 4179   2.826   6.040   4.615
 1405TIP3    H2 4180   2.938   6.141   4.631
 1406TIP3   OH2 4181   6.392   0.528   3.263
 1406TIP3    H1 4182   6.372   0.572   3.181
 1406TIP3    H2 4183   6.307   0.505   3.300
 1407TIP3   OH2 4184   1.302   3.228   1.131
 1407TIP3    H1 4185   1.373   3.165   1.145
 1407TIP3    H2 4186   1.336   3.310   1.168
 1408TIP3   OH2 4187   5.795   3.419   5.724
 1408TIP3    H1 4188   5.848   3.360   5.778
 1408TIP3    H2 4189   5.768   3.489   5.784
 1409TIP3   OH2 4190   3.936   4.745   4.019
 1409TIP3    H1 4191   4.031   4.738   4.013
 1409TIP3    H2 4192   3.915   4.716   4.108
 1410TIP3   OH2 4193   5.192   1.911   4.028
 1410TIP3    H1 4194   5.264   1.965   4.061
 1410TIP3    H2 4195   5.143   1.969   3.971
 1411TIP3   OH2 4196   5.582   3.555   4.661
 1411TIP3    H1 4197   5.619   3.638   4.692
 1411TIP3    H2 4198   5.653   3.513   4.613
 1412TIP3   OH2 4199   5.917   0.204   5.260
 1412TIP3    H1 4200   5.951   0.136   5.319
 1412TIP3    H2 4201   5.822   0.193   5.262
 1413TIP3   OH2 4202   2.550   1.060   5.698
 1413TIP3    H1 4203   2.551   0.970   5.733
 1413TIP3    H2 4204   2.627   1.101   5.737
 1414TIP3   OH2 4205   0.915   3.344   5.283
 1414TIP3    H1 4206   0.867   3.424   5.306
 1414TIP3    H2 4207   0.932   3.302   5.367
 1415TIP3   OH2 4208   0.183   0.365   2.179
 1415TIP3    H1 4209   0.194   0.394   2.270
 1415TIP3    H2 4210   0.114   0.299   2.183
 1416TIP3   OH2 4211   5.416   3.547   4.027
 1416TIP3    H1 4212   5.415   3.604   3.950
 1416TIP3    H2 4213   5.339   3.575   4.077
 1417TIP3   OH2 4214   3.756   1.237   2.306
 1417TIP3    H1 4215   3.670   1.201   2.282
 1417TIP3    H2 4216   3.799   1.166   2.353
 1418TIP3   OH2 4217   4.705   5.302   4.712
 1418TIP3    H1 4218   4.676   5.391   4.694
 1418TIP3    H2 4219   4.738   5.305   4.802
 1419TIP3   OH2 4220   7.110   1.656   5.427
 1419TIP3    H1 4221   7.094   1.596   5.354
 1419TIP3    H2 4222   7.087   1.742   5.392
 1420TIP3   OH2 4223   5.138   0.238   5.765
 1420TIP3    H1 4224   5.170   0.198   5.847
 1420TIP3    H2 4225   5.181   0.188   5.696
 1421TIP3   OH2 4226   1.403   5.890   0.976
 1421TIP3    H1 4227   1.399   5.821   1.042
 1421TIP3    H2 4228   1.411   5.844   0.893
 1422TIP3   OH2 4229   1.472   6.155   3.519
 1422TIP3    H1 4230   1.545   6.216   3.518
 1422TIP3    H2 4231   1.511   6.070   3.498
 1423TIP3   OH2 4232   4.811   1.472   0.027
 1423TIP3    H1 4233   4.867   1.491   0.103
 1423TIP3    H2 4234   4.801   1.377   0.028
 1424TIP3   OH2 4235   5.901   3.233   0.685
 1424TIP3    H1 4236   5.956   3.301   0.723
 1424TIP3    H2 4237   5.962   3.170   0.648
 1425TIP3   OH2 4238   6.694   1.661   0.760
 1425TIP3    H1 4239   6.631   1.693   0.825
 1425TIP3    H2 4240   6.697   1.730   0.693
 1426TIP3   OH2 4241   0.242   6.316   2.927
 1426TIP3    H1 4242   0.281   6.232   2.949
 1426TIP3    H2 4243   0.151   6.309   2.957
 1427TIP3   OH2 4244   6.185   0.462   3.429
 1427TIP3    H1 4245   6.218   0.378   3.463
 1427TIP3    H2 4246   6.172   0.516   3.507
 1428TIP3   OH2 4247   5.219   5.459   3.208
 1428TIP3    H1 4248   5.190   5.390   3.148
 1428TIP3    H2 4249   5.259   5.524   3.151
 1429TIP3   OH2 4250   3.486   1.882   5.099
 1429TIP3    H1 4251   3.421   1.949   5.118
 1429TIP3    H2 4252   3.567   1.914   5.138
 1430TIP3   OH2 4253   2.111   5.249   4.948
 1430TIP3    H1 4254   2.039   5.189   4.961
 1430TIP3    H2 4255   2.102   5.278   4.857
 1431TIP3   OH2 4256   4.837   1.532   0.460
 1431TIP3    H1 4257   4.835   1.495   0.372
 1431TIP3    H2 4258   4.763   1.592   0.463
 1432TIP3   OH2 4259   2.969   6.385   1.270
 1432TIP3    H1 4260   3.053   6.383   1.316
 1432TIP3    H2 4261   2.905   6.354   1.335
 1433TIP3   OH2 4262   0.170   3.822   0.697
 1433TIP3    H1 4263   0.138   3.740   0.659
 1433TIP3    H2 4264   0.191   3.799   0.788
 1434TIP3   OH2 4265   1.376   3.523   5.147
 1434TIP3    H1 4266   1.382   3.462   5.074
 1434TIP3    H2 4267   1.282   3.529   5.166
 1435TIP3   OH2 4268   2.499   0.605   4.710
 1435TIP3    H1 4269   2.457   0.688   4.689
 1435TIP3    H2 4270   2.430   0.553   4.752
 1436TIP3   OH2 4271   6.007   0.455   5.603
 1436TIP3    H1 4272   6.022   0.361   5.618
 1436TIP3    H2 4273   6.085   0.497   5.638
 1437TIP3   OH2 4274   3.015   2.177   0.257
 1437TIP3    H1 4275   3.093   2.171   0.202
 1437TIP3    H2 4276   3.005   2.270   0.275
 1438TIP3   OH2 4277   7.047   6.645   5.261
 1438TIP3    H1 4278   7.011   6.734   5.261
 1438TIP3    H2 4279   7.000   6.600   5.191
 1439TIP3   OH2 4280   0.832   2.254   2.455
 1439TIP3    H1 4281   0.797   2.222   2.538
 1439TIP3    H2 4282   0.920   2.284   2.475
 1440TIP3   OH2 4283   6.660   3.994   4.282
 1440TIP3    H1 4284   6.742   4.042   4.295
 1440TIP3    H2 4285   6.687   3.906   4.255
 1441TIP3   OH2 4286   0.576   4.774   1.574
 1441TIP3    H1 4287   0.548   4.701   1.630
 1441TIP3    H2 4288   0.527   4.849   1.607
 1442TIP3   OH2 4289   4.692   1.921   5.618
 1442TIP3    H1 4290   4.642   1.841   5.628
 1442TIP3    H2 4291   4.722   1.943   5.706
 1443TIP3   OH2 4292   1.906   6.428   1.957
 1443TIP3    H1 4293   1.869   6.483   1.889
 1443TIP3    H2 4294   1.941   6.352   1.910
 1444TIP3   OH2 4295   3.828   0.090   2.995
 1444TIP3    H1 4296   3.798   0.179   2.977
 1444TIP3    H2 4297   3.778   0.035   2.934
 1445TIP3   OH2 4298   1.956   6.731   4.026
 1445TIP3    H1 4299   1.957   6.814   3.977
 1445TIP3    H2 4300   1.964   6.758   4.117
 1446TIP3   OH2 4301   6.531   4.135   2.696
 1446TIP3    H1 4302   6.452   4.096   2.735
 1446TIP3    H2 4303   6.529   4.226   2.725
 1447TIP3   OH2 4304   4.865   6.148   5.611
 1447TIP3    H1 4305   4.814   6.140   5.692
 1447TIP3    H2 4306   4.807   6.112   5.544
 1448TIP3   OH2 4307   4.777   1.862  -0.043
 1448TIP3    H1 4308   4.733   1.790   0.000
 1448TIP3    H2 4309   4.744   1.941   0.000
 1449TIP3   OH2 4310   0.993   0.683   1.216
 1449TIP3    H1 4311   1.065   0.689   1.154
 1449TIP3    H2 4312   0.969   0.774   1.233
 1450TIP3   OH2 4313   4.755   6.478   1.459
 1450TIP3    H1 4314   4.714   6.474   1.373
 1450TIP3    H2 4315   4.721   6.401   1.505
 1451TIP3   OH2 4316   2.065   3.270   2.933
 1451TIP3    H1 4317   2.161   3.265   2.938
 1451TIP3    H2 4318   2.048   3.327   2.858
 1452TIP3   OH2 4319   5.955   5.772   3.273
 1452TIP3    H1 4320   5.999   5.697   3.234
 1452TIP3    H2 4321   5.895   5.734   3.338
 1453TIP3   OH2 4322   6.442   0.123   1.062
 1453TIP3    H1 4323   6.516   0.135   1.121
 1453TIP3    H2 4324   6.460   0.041   1.016
 1454TIP3   OH2 4325   5.212   3.563   5.627
 1454TIP3    H1 4326   5.192   3.553   5.534
 1454TIP3    H2 4327   5.308   3.555   5.632
 1455TIP3   OH2 4328   6.339   4.730   1.478
 1455TIP3    H1 4329   6.257   4.736   1.429
 1455TIP3    H2 4330   6.405   4.711   1.412
 1456TIP3   OH2 4331   3.641   5.138   2.847
 1456TIP3    H1 4332   3.698   5.062   2.837
 1456TIP3    H2 4333   3.577   5.130   2.775
 1457TIP3   OH2 4334   0.499   1.246   0.371
 1457TIP3    H1 4335   0.449   1.166   0.382
 1457TIP3    H2 4336   0.470   1.282   0.288
 1458TIP3   OH2 4337   0.954   5.900   4.589
 1458TIP3    H1 4338   1.019   5.936   4.529
 1458TIP3    H2 4339   0.976   5.806   4.594
 1459TIP3   OH2 4340   6.362   3.311   4.753
 1459TIP3    H1 4341   6.420   3.370   4.705
 1459TIP3    H2 4342   6.306   3.272   4.686
 1460TIP3   OH2 4343   6.534   5.090   1.815
 1460TIP3    H1 4344   6.614   5.142   1.820
 1460TIP3    H2 4345   6.523   5.053   1.902
 1461TIP3   OH2 4346   0.282   2.016   4.860
 1461TIP3    H1 4347   0.260   2.097   4.907
 1461TIP3    H2 4348   0.205   1.960   4.874
 1462TIP3   OH2 4349   5.475   3.991   3.971
 1462TIP3    H1 4350   5.477   4.082   3.942
 1462TIP3    H2 4351   5.484   3.940   3.891
 1463TIP3   OH2 4352  -0.015   2.760   3.572
 1463TIP3    H1 4353  -0.036   2.677   3.614
 1463TIP3    H2 4354   0.042   2.805   3.635
 1464TIP3   OH2 4355  -0.025   5.590   1.154
 1464TIP3    H1 4356  -0.024   5.673   1.106
 1464TIP3    H2 4357  -0.009   5.615   1.245
 1465TIP3   OH2 4358   3.466   3.591   3.259
 1465TIP3    H1 4359   3.471   3.496   3.246
 1465TIP3    H2 4360   3.557   3.620   3.263
 1466TIP3   OH2 4361   2.994   1.849   3.380
 1466TIP3    H1 4362   3.040   1.809   3.454
 1466TIP3    H2 4363   2.916   1.889   3.419
 1467TIP3   OH2 4364   1.830   1.396   2.197
 1467TIP3    H1 4365   1.836   1.466   2.131
 1467TIP3    H2 4366   1.766   1.335   2.160
 1468TIP3   OH2 4367   6.715   0.224   0.247
 1468TIP3    H1 4368   6.721   0.135   0.210
 1468TIP3    H2 4369   6.624   0.249   0.232
 1469TIP3   OH2 4370   0.182   1.234   4.176
 1469TIP3    H1 4371   0.195   1.201   4.088
 1469TIP3    H2 4372   0.270   1.261   4.205
 1470TIP3   OH2 4373   6.628   0.574   0.501
 1470TIP3    H1 4374   6.556   0.526   0.543
 1470TIP3    H2 4375   6.701   0.513   0.502
 1471TIP3   OH2 4376   5.076   5.154   1.285
 1471TIP3    H1 4377   5.088   5.115   1.372
 1471TIP3    H2 4378   5.113   5.089   1.225
 1472TIP3   OH2 4379   2.246   0.302   4.520
 1472TIP3    H1 4380   2.247   0.301   4.616
 1472TIP3    H2 4381   2.339   0.310   4.496
 1473TIP3   OH2 4382   5.768   4.679   3.650
 1473TIP3    H1 4383   5.830   4.700   3.581
 1473TIP3    H2 4384   5.708   4.753   3.652
 1474TIP3   OH2 4385   1.561   1.794   0.349
 1474TIP3    H1 4386   1.615   1.836   0.416
 1474TIP3    H2 4387   1.550   1.704   0.380
 1475TIP3   OH2 4388   1.551   1.206   5.101
 1475TIP3    H1 4389   1.635   1.251   5.111
 1475TIP3    H2 4390   1.574   1.122   5.062
 1476TIP3   OH2 4391   2.403   3.799   5.031
 1476TIP3    H1 4392   2.479   3.851   5.005
 1476TIP3    H2 4393   2.347   3.798   4.954
 1477TIP3   OH2 4394   2.443   4.806   2.752
 1477TIP3    H1 4395   2.409   4.894   2.736
 1477TIP3    H2 4396   2.368   4.758   2.786
 1478TIP3   OH2 4397   6.247   5.984   3.037
 1478TIP3    H1 4398   6.327   5.941   3.066
 1478TIP3    H2 4399   6.194   5.914   2.999
 1479TIP3   OH2 4400   3.977   2.536   3.638
 1479TIP3    H1 4401   4.037   2.475   3.594
 1479TIP3    H2 4402   4.025   2.619   3.639
 1480TIP3   OH2 4403   6.357   0.235   0.202
 1480TIP3    H1 4404   6.340   0.241   0.108
 1480TIP3    H2 4405   6.290   0.289   0.243
 1481TIP3   OH2 4406   6.598   6.551   2.396
 1481TIP3    H1 4407   6.642   6.553   2.311
 1481TIP3    H2 4408   6.544   6.473   2.393
 1482TIP3   OH2 4409   3.059   2.286   2.201
 1482TIP3    H1 4410   3.071   2.381   2.207
 1482TIP3    H2 4411   2.996   2.265   2.269
 1483TIP3   OH2 4412   5.772   2.281   5.580
 1483TIP3    H1 4413   5.857   2.239   5.568
 1483TIP3    H2 4414   5.711   2.209   5.592
 1484TIP3   OH2 4415   4.825   4.576   4.848
 1484TIP3    H1 4416   4.810   4.496   4.798
 1484TIP3    H2 4417   4.916   4.599   4.830
 1485TIP3   OH2 4418   0.514   4.078   5.042
 1485TIP3    H1 4419   0.422   4.105   5.043
 1485TIP3    H2 4420   0.510   3.984   5.063
 1486TIP3   OH2 4421   7.092   5.665   3.127
 1486TIP3    H1 4422   6.998   5.677   3.116
 1486TIP3    H2 4423   7.126   5.661   3.037
 1487TIP3   OH2 4424   3.147   5.887   4.939
 1487TIP3    H1 4425   3.115   5.844   5.018
 1487TIP3    H2 4426   3.157   5.979   4.964
 1488TIP3   OH2 4427   4.143   6.412   1.538
 1488TIP3    H1 4428   4.186   6.408   1.452
 1488TIP3    H2 4429   4.051   6.392   1.520
 1489TIP3   OH2 4430   2.145   2.999   3.420
 1489TIP3    H1 4431   2.095   2.984   3.340
 1489TIP3    H2 4432   2.116   2.930   3.480
 1490TIP3   OH2 4433   6.713   3.047   4.973
 1490TIP3    H1 4434   6.619   3.053   4.953
 1490TIP3    H2 4435   6.719   2.971   5.032
 1491TIP3   OH2 4436   0.187   2.859   3.412
 1491TIP3    H1 4437   0.125   2.837   3.481
 1491TIP3    H2 4438   0.258   2.905   3.457
 1492TIP3   OH2 4439   1.154   3.240   3.645
 1492TIP3    H1 4440   1.060   3.245   3.628
 1492TIP3    H2 4441   1.161   3.231   3.740
 1493TIP3   OH2 4442   6.207   3.159   0.796
 1493TIP3    H1 4443   6.227   3.242   0.754
 1493TIP3    H2 4444   6.293   3.124   0.821
 1494TIP3   OH2 4445   0.745   3.263   3.042
 1494TIP3    H1 4446   0.797   3.261   3.122
 1494TIP3    H2 4447   0.658   3.291   3.070
 1495TIP3   OH2 4448   3.821   5.120   4.766
 1495TIP3    H1 4449   3.844   5.064   4.692
 1495TIP3    H2 4450   3.866   5.203   4.747
 1496TIP3   OH2 4451   6.206   4.250  -0.014
 1496TIP3    H1 4452   6.144   4.183   0.013
 1496TIP3    H2 4453   6.155   4.312  -0.066
 1497TIP3   OH2 4454   2.820   4.116   0.329
 1497TIP3    H1 4455   2.871   4.094   0.251
 1497TIP3    H2 4456   2.815   4.212   0.327
 1498TIP3   OH2 4457   1.082   1.959   4.608
 1498TIP3    H1 4458   1.075   2.053   4.629
 1498TIP3    H2 4459   0.992   1.933   4.586
 1499TIP3   OH2 4460   3.700   1.378   1.286
 1499TIP3    H1 4461   3.738   1.453   1.332
 1499TIP3    H2 4462   3.774   1.321   1.267
 1500TIP3   OH2 4463   3.235   3.974   0.256
 1500TIP3    H1 4464   3.201   3.920   0.328
 1500TIP3    H2 4465   3.320   4.004   0.286
 1501TIP3   OH2 4466   7.090   1.872   4.802
 1501TIP3    H1 4467   7.165   1.812   4.799
 1501TIP3    H2 4468   7.102   1.930   4.727
 1502TIP3   OH2 4469   3.118   3.740   0.815
 1502TIP3    H1 4470   3.121   3.668   0.878
 1502TIP3    H2 4471   3.031   3.737   0.777
 1503TIP3   OH2 4472   0.527   6.149   2.378
 1503TIP3    H1 4473   0.501   6.122   2.466
 1503TIP3    H2 4474   0.552   6.068   2.334
 1504TIP3   OH2 4475   6.583   2.402   4.974
 1504TIP3    H1 4476   6.503   2.435   5.016
 1504TIP3    H2 4477   6.593   2.457   4.895
 1505TIP3   OH2 4478   3.336   1.527   2.635
 1505TIP3    H1 4479   3.421   1.538   2.677
 1505TIP3    H2 4480   3.356   1.497   2.547
 1506TIP3   OH2 4481   6.781   1.159   4.944
 1506TIP3    H1 4482   6.846   1.207   4.892
 1506TIP3    H2 4483   6.833   1.094   4.992
 1507TIP3   OH2 4484   5.417   4.429   1.615
 1507TIP3    H1 4485   5.347   4.493   1.617
 1507TIP3    H2 4486   5.373   4.344   1.619
 1508TIP3   OH2 4487   4.050   5.260   3.210
 1508TIP3    H1 4488   3.990   5.227   3.143
 1508TIP3    H2 4489   4.003   5.331   3.253
 1509TIP3   OH2 4490   2.529   5.949   3.298
 1509TIP3    H1 4491   2.446   5.914   3.269
 1509TIP3    H2 4492   2.540   5.916   3.387
 1510TIP3   OH2 4493   0.884   4.822   4.774
 1510TIP3    H1 4494   0.932   4.742   4.795
 1510TIP3    H2 4495   0.853   4.809   4.684
 1511TIP3   OH2 4496   5.106   5.978   5.971
 1511TIP3    H1 4497   5.171   6.037   5.933
 1511TIP3    H2 4498   5.061   5.939   5.896
 1512TIP3   OH2 4499   6.063   5.592   2.312
 1512TIP3    H1 4500   6.092   5.501   2.309
 1512TIP3    H2 4501   6.143   5.643   2.324
 1513TIP3   OH2 4502   0.641   1.466   2.024
 1513TIP3    H1 4503   0.707   1.526   2.058
 1513TIP3    H2 4504   0.650   1.387   2.077
 1514TIP3   OH2 4505   1.277   2.329   5.899
 1514TIP3    H1 4506   1.312   2.416   5.877
 1514TIP3    H2 4507   1.206   2.316   5.837
 1515TIP3   OH2 4508   4.379   0.852   2.425
 1515TIP3    H1 4509   4.301   0.810   2.461
 1515TIP3    H2 4510   4.434   0.780   2.395
 1516TIP3   OH2 4511   4.722   3.550   1.104
 1516TIP3    H1 4512   4.634   3.584   1.119
 1516TIP3    H2 4513   4.780   3.618   1.138
 1517TIP3   OH2 4514   5.488   4.362   4.781
 1517TIP3    H1 4515   5.479   4.292   4.846
 1517TIP3    H2 4516   5.510   4.439   4.832
 1518TIP3   OH2 4517   3.104   3.756   4.578
 1518TIP3    H1 4518   3.157   3.748   4.657
 1518TIP3    H2 4519   3.157   3.809   4.519
 1519TIP3   OH2 4520   6.385   0.568   4.996
 1519TIP3    H1 4521   6.390   0.663   4.986
 1519TIP3    H2 4522   6.291   0.549   4.998
 1520TIP3   OH2 4523   3.818   6.616   3.910
 1520TIP3    H1 4524   3.790   6.631   3.819
 1520TIP3    H2 4525   3.739   6.588   3.955
 1521TIP3   OH2 4526   5.202   5.845   5.169
 1521TIP3    H1 4527   5.247   5.767   5.135
 1521TIP3    H2 4528   5.113   5.837   5.135
 1522TIP3   OH2 4529   4.956   6.372   4.385
 1522TIP3    H1 4530   4.888   6.305   4.393
 1522TIP3    H2 4531   5.038   6.324   4.395
 1523TIP3   OH2 4532   2.151   3.013   5.636
 1523TIP3    H1 4533   2.172   3.067   5.561
 1523TIP3    H2 4534   2.172   2.924   5.609
 1524TIP3   OH2 4535   3.517   3.511   2.880
 1524TIP3    H1 4536   3.523   3.445   2.949
 1524TIP3    H2 4537   3.432   3.553   2.895
 1525TIP3   OH2 4538   2.336   5.255   1.510
 1525TIP3    H1 4539   2.284   5.329   1.479
 1525TIP3    H2 4540   2.374   5.218   1.431
 1526TIP3   OH2 4541   5.811   3.270   2.308
 1526TIP3    H1 4542   5.852   3.327   2.243
 1526TIP3    H2 4543   5.869   3.194   2.312
 1527TIP3   OH2 4544   5.745   2.193  -0.015
 1527TIP3    H1 4545   5.659   2.160  -0.043
 1527TIP3    H2 4546   5.737   2.201   0.080
 1528TIP3   OH2 4547   0.059   1.421   4.907
 1528TIP3    H1 4548   0.080   1.431   4.814
 1528TIP3    H2 4549   0.143   1.431   4.952
 1529TIP3   OH2 4550   6.826   2.044   5.393
 1529TIP3    H1 4551   6.825   2.049   5.489
 1529TIP3    H2 4552   6.741   2.008   5.370
 1530TIP3   OH2 4553   4.922   5.812   3.461
 1530TIP3    H1 4554   4.994   5.875   3.462
 1530TIP3    H2 4555   4.882   5.823   3.375
 1531TIP3   OH2 4556   0.253   5.848   1.608
 1531TIP3    H1 4557   0.324   5.903   1.644
 1531TIP3    H2 4558   0.216   5.804   1.684
 1532TIP3   OH2 4559   2.571   3.781   4.503
 1532TIP3    H1 4560   2.643   3.809   4.559
 1532TIP3    H2 4561   2.541   3.860   4.460
 1533TIP3   OH2 4562   6.508   0.846   3.679
 1533TIP3    H1 4563   6.545   0.792   3.608
 1533TIP3    H2 4564   6.435   0.794   3.713
 1534TIP3   OH2 4565   3.655   6.568   3.374
 1534TIP3    H1 4566   3.580   6.509   3.380
 1534TIP3    H2 4567   3.617   6.653   3.352
 1535TIP3   OH2 4568   5.408   2.686   0.874
 1535TIP3    H1 4569   5.457   2.762   0.844
 1535TIP3    H2 4570   5.361   2.716   0.952
 1536TIP3   OH2 4571   2.650   4.296   3.182
 1536TIP3    H1 4572   2.640   4.314   3.089
 1536TIP3    H2 4573   2.576   4.339   3.224
 1537TIP3   OH2 4574   6.919   0.549   3.015
 1537TIP3    H1 4575   6.974   0.559   3.093
 1537TIP3    H2 4576   6.847   0.492   3.044
 1538TIP3   OH2 4577   4.789   6.605   2.978
 1538TIP3    H1 4578   4.874   6.567   2.957
 1538TIP3    H2 4579   4.798   6.698   2.955
 1539TIP3   OH2 4580   0.682   6.182   0.542
 1539TIP3    H1 4581   0.645   6.268   0.522
 1539TIP3    H2 4582   0.703   6.186   0.636
 1540TIP3   OH2 4583   0.280   5.222   0.877
 1540TIP3    H1 4584   0.354   5.208   0.935
 1540TIP3    H2 4585   0.303   5.299   0.825
 1541TIP3   OH2 4586   3.528   4.363   4.950
 1541TIP3    H1 4587   3.597   4.364   4.884
 1541TIP3    H2 4588   3.510   4.270   4.965
 1542TIP3   OH2 4589   4.455   5.649   0.612
 1542TIP3    H1 4590   4.535   5.652   0.666
 1542TIP3    H2 4591   4.472   5.582   0.547
 1543TIP3   OH2 4592   1.713   4.530   1.758
 1543TIP3    H1 4593   1.702   4.618   1.796
 1543TIP3    H2 4594   1.646   4.477   1.801
 1544TIP3   OH2 4595   6.110   6.503   2.844
 1544TIP3    H1 4596   6.060   6.508   2.762
 1544TIP3    H2 4597   6.064   6.562   2.903
 1545TIP3   OH2 4598   6.763   4.295   0.587
 1545TIP3    H1 4599   6.804   4.226   0.534
 1545TIP3    H2 4600   6.836   4.335   0.635
 1546TIP3   OH2 4601   4.483   0.171   5.109
 1546TIP3    H1 4602   4.479   0.264   5.132
 1546TIP3    H2 4603   4.391   0.145   5.102
 1547TIP3   OH2 4604   2.728   0.446   4.705
 1547TIP3    H1 4605   2.659   0.512   4.713
 1547TIP3    H2 4606   2.809   0.497   4.702
 1548TIP3   OH2 4607   4.782   6.565   2.415
 1548TIP3    H1 4608   4.717   6.634   2.409
 1548TIP3    H2 4609   4.733   6.484   2.404
 1549TIP3   OH2 4610   4.625   1.745   4.400
 1549TIP3    H1 4611   4.699   1.802   4.381
 1549TIP3    H2 4612   4.556   1.774   4.340
 1550TIP3   OH2 4613   5.982   4.672   0.619
 1550TIP3    H1 4614   6.072   4.680   0.589
 1550TIP3    H2 4615   5.933   4.733   0.564
 1551TIP3   OH2 4616   0.586   5.609   5.301
 1551TIP3    H1 4617   0.609   5.661   5.378
 1551TIP3    H2 4618   0.499   5.573   5.321
 1552TIP3   OH2 4619   2.448   6.157   1.905
 1552TIP3    H1 4620   2.400   6.084   1.865
 1552TIP3    H2 4621   2.488   6.120   1.983
 1553TIP3   OH2 4622   3.775   1.477   1.663
 1553TIP3    H1 4623   3.726   1.400   1.691
 1553TIP3    H2 4624   3.755   1.543   1.729
 1554TIP3   OH2 4625   4.719   0.884   3.350
 1554TIP3    H1 4626   4.629   0.888   3.320
 1554TIP3    H2 4627   4.729   0.795   3.385
 1555TIP3   OH2 4628   4.285   4.422   1.152
 1555TIP3    H1 4629   4.210   4.405   1.209
 1555TIP3    H2 4630   4.305   4.514   1.166
 1556TIP3   OH2 4631   3.910   2.680   4.177
 1556TIP3    H1 4632   3.964   2.611   4.139
 1556TIP3    H2 4633   3.820   2.656   4.154
 1557TIP3   OH2 4634   3.161   4.781   0.514
 1557TIP3    H1 4635   3.217   4.837   0.460
 1557TIP3    H2 4636   3.113   4.728   0.451
 1558TIP3   OH2 4637   4.984   1.840   2.369
 1558TIP3    H1 4638   4.957   1.792   2.447
 1558TIP3    H2 4639   4.936   1.923   2.374
 1559TIP3   OH2 4640   4.866   0.220   5.913
 1559TIP3    H1 4641   4.790   0.262   5.872
 1559TIP3    H2 4642   4.937   0.234   5.851
 1560TIP3   OH2 4643   5.054   1.999   2.903
 1560TIP3    H1 4644   5.100   1.987   2.819
 1560TIP3    H2 4645   5.054   2.093   2.916
 1561TIP3   OH2 4646   1.821   5.681   3.743
 1561TIP3    H1 4647   1.834   5.690   3.837
 1561TIP3    H2 4648   1.728   5.660   3.733
 1562TIP3   OH2 4649   5.236   2.095   1.959
 1562TIP3    H1 4650   5.153   2.143   1.959
 1562TIP3    H2 4651   5.273   2.112   1.873
 1563TIP3   OH2 4652   2.064   4.665   1.242
 1563TIP3    H1 4653   2.033   4.682   1.332
 1563TIP3    H2 4654   2.056   4.571   1.232
 1564TIP3   OH2 4655   6.530   2.992   0.352
 1564TIP3    H1 4656   6.574   2.995   0.437
 1564TIP3    H2 4657   6.601   2.973   0.290
 1565TIP3   OH2 4658   6.684   6.159   1.867
 1565TIP3    H1 4659   6.589   6.169   1.857
 1565TIP3    H2 4660   6.706   6.086   1.810
 1566TIP3   OH2 4661   6.621   4.556   3.133
 1566TIP3    H1 4662   6.540   4.604   3.153
 1566TIP3    H2 4663   6.592   4.466   3.120
 1567TIP3   OH2 4664   4.331   4.283   2.803
 1567TIP3    H1 4665   4.237   4.288   2.818
 1567TIP3    H2 4666   4.351   4.189   2.805
 1568TIP3   OH2 4667   1.665   3.499   3.544
 1568TIP3    H1 4668   1.756   3.521   3.563
 1568TIP3    H2 4669   1.661   3.404   3.556
 1569TIP3   OH2 4670   4.725   0.230   3.234
 1569TIP3    H1 4671   4.755   0.274   3.313
 1569TIP3    H2 4672   4.802   0.225   3.177
 1570TIP3   OH2 4673   3.508   6.359   3.120
 1570TIP3    H1 4674   3.538   6.447   3.097
 1570TIP3    H2 4675   3.507   6.358   3.215
 1571TIP3   OH2 4676   2.558   3.896   2.861
 1571TIP3    H1 4677   2.589   3.972   2.813
 1571TIP3    H2 4678   2.467   3.886   2.834
 1572TIP3   OH2 4679   1.392   1.090   3.572
 1572TIP3    H1 4680   1.470   1.118   3.525
 1572TIP3    H2 4681   1.414   1.002   3.604
 1573TIP3   OH2 4682   1.868   0.541   2.316
 1573TIP3    H1 4683   1.933   0.606   2.343
 1573TIP3    H2 4684   1.816   0.586   2.249
 1574TIP3   OH2 4685   6.536   2.244   5.883
 1574TIP3    H1 4686   6.593   2.168   5.895
 1574TIP3    H2 4687   6.489   2.226   5.802
 1575TIP3   OH2 4688   1.857   3.907   0.606
 1575TIP3    H1 4689   1.867   3.975   0.539
 1575TIP3    H2 4690   1.897   3.829   0.568
 1576TIP3   OH2 4691   4.596   3.141   0.087
 1576TIP3    H1 4692   4.645   3.081   0.144
 1576TIP3    H2 4693   4.630   3.122  -0.001
 1577TIP3   OH2 4694   0.602   0.782   1.502
 1577TIP3    H1 4695   0.678   0.776   1.561
 1577TIP3    H2 4696   0.594   0.695   1.464
 1578TIP3   OH2 4697   4.299   0.245   1.354
 1578TIP3    H1 4698   4.296   0.259   1.260
 1578TIP3    H2 4699   4.214   0.206   1.375
 1579TIP3   OH2 4700   3.838   3.579   4.259
 1579TIP3    H1 4701   3.799   3.663   4.285
 1579TIP3    H2 4702   3.798   3.515   4.318
 1580TIP3   OH2 4703   5.041   3.378   1.086
 1580TIP3    H1 4704   5.041   3.368   1.181
 1580TIP3    H2 4705   5.129   3.351   1.059
 1581TIP3   OH2 4706   1.352   3.044   3.555
 1581TIP3    H1 4707   1.318   3.015   3.640
 1581TIP3    H2 4708   1.333   3.138   3.553
 1582TIP3   OH2 4709   3.305   4.275   2.040
 1582TIP3    H1 4710   3.240   4.285   2.110
 1582TIP3    H2 4711   3.307   4.361   1.998
 1583TIP3   OH2 4712   0.423   6.187   4.140
 1583TIP3    H1 4713   0.462   6.270   4.114
 1583TIP3    H2 4714   0.355   6.171   4.074
 1584TIP3   OH2 4715   6.571   3.076   3.707
 1584TIP3    H1 4716   6.626   3.040   3.637
 1584TIP3    H2 4717   6.499   3.120   3.661
 1585TIP3   OH2 4718   2.416   5.062   4.721
 1585TIP3    H1 4719   2.334   5.059   4.672
 1585TIP3    H2 4720   2.398   5.015   4.802
 1586TIP3   OH2 4721   5.531   3.972   1.360
 1586TIP3    H1 4722   5.504   4.000   1.272
 1586TIP3    H2 4723   5.585   3.895   1.344
 1587TIP3   OH2 4724   5.483   1.953   0.241
 1587TIP3    H1 4725   5.392   1.973   0.219
 1587TIP3    H2 4726   5.525   2.039   0.247
 1588TIP3   OH2 4727   0.334   6.031   3.022
 1588TIP3    H1 4728   0.359   5.943   3.050
 1588TIP3    H2 4729   0.378   6.089   3.084
 1589TIP3   OH2 4730   0.928   5.970   1.869
 1589TIP3    H1 4731   0.898   5.901   1.928
 1589TIP3    H2 4732   1.018   5.988   1.897
 1590TIP3   OH2 4733   6.420   4.914   2.093
 1590TIP3    H1 4734   6.357   4.919   2.165
 1590TIP3    H2 4735   6.367   4.918   2.014
 1591TIP3   OH2 4736   7.015   6.443   3.180
 1591TIP3    H1 4737   6.987   6.511   3.242
 1591TIP3    H2 4738   6.939   6.384   3.173
 1592TIP3   OH2 4739   1.310   3.956   2.875
 1592TIP3    H1 4740   1.343   3.897   2.807
 1592TIP3    H2 4741   1.249   4.014   2.828
 1593TIP3   OH2 4742   4.638   6.267   1.574
 1593TIP3    H1 4743   4.608   6.325   1.644
 1593TIP3    H2 4744   4.675   6.192   1.620
 1594TIP3   OH2 4745   1.062   6.786   5.693
 1594TIP3    H1 4746   1.104   6.717   5.643
 1594TIP3    H2 4747   1.060   6.861   5.634
 1595TIP3   OH2 4748   0.838   4.546   4.701
 1595TIP3    H1 4749   0.906   4.487   4.669
 1595TIP3    H2 4750   0.788   4.570   4.623
 1596TIP3   OH2 4751   1.558   5.733   0.367
 1596TIP3    H1 4752   1.520   5.812   0.329
 1596TIP3    H2 4753   1.559   5.670   0.295
 1597TIP3   OH2 4754   1.029   0.631   0.151
 1597TIP3    H1 4755   1.096   0.632   0.082
 1597TIP3    H2 4756   1.035   0.718   0.190
 1598TIP3   OH2 4757   4.121   5.318   4.380
 1598TIP3    H1 4758   4.133   5.252   4.448
 1598TIP3    H2 4759   4.201   5.315   4.328
 1599TIP3   OH2 4760   0.640   4.397   2.501
 1599TIP3    H1 4761   0.576   4.446   2.552
 1599TIP3    H2 4762   0.685   4.342   2.565
 1600TIP3   OH2 4763   3.465   4.852   1.823
 1600TIP3    H1 4764   3.389   4.825   1.875
 1600TIP3    H2 4765   3.522   4.896   1.886
 1601TIP3   OH2 4766   2.229   2.763   5.746
 1601TIP3    H1 4767   2.163   2.760   5.816
 1601TIP3    H2 4768   2.178   2.751   5.665
 1602TIP3   OH2 4769   3.104   5.741   0.924
 1602TIP3    H1 4770   3.096   5.805   0.995
 1602TIP3    H2 4771   3.023   5.749   0.875
 1603TIP3   OH2 4772   6.916   5.376   4.468
 1603TIP3    H1 4773   6.927   5.352   4.376
 1603TIP3    H2 4774   6.855   5.450   4.466
 1604TIP3   OH2 4775   1.323   1.905   5.302
 1604TIP3    H1 4776   1.390   1.919   5.235
 1604TIP3    H2 4777   1.315   1.810   5.309
 1605TIP3   OH2 4778   4.108   2.146   0.263
 1605TIP3    H1 4779   4.031   2.139   0.318
 1605TIP3    H2 4780   4.092   2.223   0.208
 1606TIP3   OH2 4781   4.646   3.743   4.097
 1606TIP3    H1 4782   4.735   3.775   4.100
 1606TIP3    H2 4783   4.607   3.785   4.021
 1607TIP3   OH2 4784   2.883   5.333   1.667
 1607TIP3    H1 4785   2.921   5.375   1.744
 1607TIP3    H2 4786   2.948   5.346   1.598
 1608TIP3   OH2 4787   6.484   3.195   2.841
 1608TIP3    H1 4788   6.436   3.273   2.816
 1608TIP3    H2 4789   6.547   3.182   2.769
 1609TIP3   OH2 4790   0.521   0.720   3.989
 1609TIP3    H1 4791   0.483   0.738   4.075
 1609TIP3    H2 4792   0.460   0.660   3.947
 1610TIP3   OH2 4793   4.545   0.298   3.871
 1610TIP3    H1 4794   4.639   0.310   3.862
 1610TIP3    H2 4795   4.511   0.385   3.891
 1611TIP3   OH2 4796   4.591   1.717   2.953
 1611TIP3    H1 4797   4.641   1.648   2.995
 1611TIP3    H2 4798   4.621   1.797   2.996
 1612TIP3   OH2 4799   7.002   3.241   3.299
 1612TIP3    H1 4800   7.025   3.275   3.213
 1612TIP3    H2 4801   7.080   3.193   3.328
 1613TIP3   OH2 4802   0.476   0.634   1.758
 1613TIP3    H1 4803   0.503   0.661   1.846
 1613TIP3    H2 4804   0.527   0.690   1.700
 1614TIP3   OH2 4805   0.534   4.861   4.226
 1614TIP3    H1 4806   0.496   4.945   4.201
 1614TIP3    H2 4807   0.592   4.837   4.154
 1615TIP3   OH2 4808   3.228   0.126   0.209
 1615TIP3    H1 4809   3.176   0.073   0.149
 1615TIP3    H2 4810   3.263   0.063   0.273
 1616TIP3   OH2 4811   5.252   1.066   5.725
 1616TIP3    H1 4812   5.347   1.067   5.736
 1616TIP3    H2 4813   5.225   1.155   5.744
 1617TIP3   OH2 4814   1.820   5.118   4.628
 1617TIP3    H1 4815   1.761   5.156   4.564
 1617TIP3    H2 4816   1.883   5.068   4.576
 1618TIP3   OH2 4817   5.672   0.136   2.504
 1618TIP3    H1 4818   5.611   0.091   2.445
 1618TIP3    H2 4819   5.736   0.176   2.445
 1619TIP3   OH2 4820   3.309   1.456   1.404
 1619TIP3    H1 4821   3.346   1.493   1.484
 1619TIP3    H2 4822   3.239   1.517   1.380
 1620TIP3   OH2 4823   4.662   5.053   5.513
 1620TIP3    H1 4824   4.719   5.037   5.588
 1620TIP3    H2 4825   4.620   5.137   5.533
 1621TIP3   OH2 4826   2.895   6.465   4.166
 1621TIP3    H1 4827   2.942   6.513   4.234
 1621TIP3    H2 4828   2.961   6.406   4.128
 1622TIP3   OH2 4829   1.827   0.544   3.120
 1622TIP3    H1 4830   1.831   0.637   3.140
 1622TIP3    H2 4831   1.917   0.513   3.134
 1623TIP3   OH2 4832   0.666   0.183   3.263
 1623TIP3    H1 4833   0.755   0.212   3.282
 1623TIP3    H2 4834   0.610   0.251   3.301
 1624TIP3   OH2 4835   4.467   1.479   3.297
 1624TIP3    H1 4836   4.561   1.458   3.289
 1624TIP3    H2 4837   4.424   1.415   3.240
 1625TIP3   OH2 4838   5.111   6.114   4.631
 1625TIP3    H1 4839   5.073   6.155   4.709
 1625TIP3    H2 4840   5.190   6.071   4.663
 1626TIP3   OH2 4841   2.855   1.398   0.693
 1626TIP3    H1 4842   2.858   1.416   0.599
 1626TIP3    H2 4843   2.770   1.357   0.708
 1627TIP3   OH2 4844   3.673   5.292   0.689
 1627TIP3    H1 4845   3.642   5.294   0.779
 1627TIP3    H2 4846   3.724   5.372   0.679
 1628TIP3   OH2 4847   3.760   3.206   3.941
 1628TIP3    H1 4848   3.708   3.214   4.021
 1628TIP3    H2 4849   3.699   3.222   3.870
 1629TIP3   OH2 4850   6.880   2.239   4.825
 1629TIP3    H1 4851   6.890   2.225   4.920
 1629TIP3    H2 4852   6.961   2.283   4.799
 1630TIP3   OH2 4853   5.076   2.313   2.968
 1630TIP3    H1 4854   5.021   2.326   2.890
 1630TIP3    H2 4855   5.026   2.354   3.039
 1631TIP3   OH2 4856   5.187   4.021   2.920
 1631TIP3    H1 4857   5.228   4.089   2.867
 1631TIP3    H2 4858   5.093   4.036   2.911
 1632TIP3   OH2 4859   6.575   0.459   2.874
 1632TIP3    H1 4860   6.564   0.499   2.788
 1632TIP3    H2 4861   6.614   0.528   2.928
 1633TIP3   OH2 4862   1.667   1.870   4.317
 1633TIP3    H1 4863   1.667   1.903   4.407
 1633TIP3    H2 4864   1.758   1.877   4.289
 1634TIP3   OH2 4865   3.977   5.050   0.777
 1634TIP3    H1 4866   3.926   5.088   0.848
 1634TIP3    H2 4867   3.917   4.988   0.735
 1635TIP3   OH2 4868   1.535   6.285   2.784
 1635TIP3    H1 4869   1.505   6.375   2.794
 1635TIP3    H2 4870   1.552   6.275   2.691
 1636TIP3   OH2 4871   4.882   3.035   4.535
 1636TIP3    H1 4872   4.956   2.995   4.489
 1636TIP3    H2 4873   4.857   3.109   4.480
 1637TIP3   OH2 4874   2.297   2.377   3.251
 1637TIP3    H1 4875   2.230   2.356   3.317
 1637TIP3    H2 4876   2.357   2.302   3.254
 1638TIP3   OH2 4877   5.991   4.279   5.378
 1638TIP3    H1 4878   6.083   4.272   5.404
 1638TIP3    H2 4879   5.943   4.245   5.453
 1639TIP3   OH2 4880   2.821   1.412   2.966
 1639TIP3    H1 4881   2.838   1.457   3.048
 1639TIP3    H2 4882   2.788   1.326   2.992
 1640TIP3   OH2 4883   1.043   0.585   2.495
 1640TIP3    H1 4884   1.084   0.579   2.408
 1640TIP3    H2 4885   0.974   0.650   2.484
 1641TIP3   OH2 4886   2.466   3.587   1.727
 1641TIP3    H1 4887   2.401   3.650   1.758
 1641TIP3    H2 4888   2.461   3.592   1.632
 1642TIP3   OH2 4889   0.319   0.627   5.461
 1642TIP3    H1 4890   0.256   0.643   5.531
 1642TIP3    H2 4891   0.396   0.678   5.486
 1643TIP3   OH2 4892   6.363   1.888   5.343
 1643TIP3    H1 4893   6.430   1.893   5.275
 1643TIP3    H2 4894   6.314   1.808   5.322
 1644TIP3   OH2 4895   1.114   5.730   2.926
 1644TIP3    H1 4896   1.052   5.803   2.934
 1644TIP3    H2 4897   1.167   5.752   2.850
 1645TIP3   OH2 4898   3.161   3.221   2.336
 1645TIP3    H1 4899   3.104   3.223   2.413
 1645TIP3    H2 4900   3.226   3.154   2.356
 1646TIP3   OH2 4901   3.049   4.341   4.360
 1646TIP3    H1 4902   2.975   4.400   4.349
 1646TIP3    H2 4903   3.026   4.286   4.436
 1647TIP3   OH2 4904   1.508   0.453   2.546
 1647TIP3    H1 4905   1.473   0.387   2.606
 1647TIP3    H2 4906   1.599   0.426   2.532
 1648TIP3   OH2 4907   6.354   3.592   3.983
 1648TIP3    H1 4908   6.324   3.683   3.976
 1648TIP3    H2 4909   6.385   3.570   3.896
 1649TIP3   OH2 4910   6.911   3.752   2.177
 1649TIP3    H1 4911   6.903   3.839   2.218
 1649TIP3    H2 4912   6.977   3.707   2.229
 1650TIP3   OH2 4913   3.373   4.007   2.899
 1650TIP3    H1 4914   3.285   3.972   2.885
 1650TIP3    H2 4915   3.423   3.977   2.823
 1651TIP3   OH2 4916   5.768   0.831   1.517
 1651TIP3    H1 4917   5.827   0.895   1.558
 1651TIP3    H2 4918   5.698   0.884   1.479
 1652TIP3   OH2 4919   3.775   1.886   0.410
 1652TIP3    H1 4920   3.760   1.797   0.377
 1652TIP3    H2 4921   3.712   1.895   0.482
 1653TIP3   OH2 4922   5.693   5.963   3.087
 1653TIP3    H1 4923   5.639   6.025   3.137
 1653TIP3    H2 4924   5.783   5.984   3.112
 1654TIP3   OH2 4925   3.132   2.578   5.054
 1654TIP3    H1 4926   3.135   2.484   5.035
 1654TIP3    H2 4927   3.039   2.596   5.066
 1655TIP3   OH2 4928   3.784   3.440   1.844
 1655TIP3    H1 4929   3.772   3.345   1.838
 1655TIP3    H2 4930   3.695   3.475   1.840
 1656TIP3   OH2 4931   0.380   5.787   4.231
 1656TIP3    H1 4932   0.460   5.760   4.277
 1656TIP3    H2 4933   0.376   5.882   4.244
 1657TIP3   OH2 4934   5.731   1.557   3.558
 1657TIP3    H1 4935   5.716   1.538   3.651
 1657TIP3    H2 4936   5.684   1.639   3.543
 1658TIP3   OH2 4937   0.168   2.854   3.737
 1658TIP3    H1 4938   0.258   2.826   3.724
 1658TIP3    H2 4939   0.151   2.840   3.830
 1659TIP3   OH2 4940   1.963   1.212   2.323
 1659TIP3    H1 4941   2.006   1.161   2.254
 1659TIP3    H2 4942   1.914   1.279   2.276
 1660TIP3   OH2 4943   5.585   4.656   1.547
 1660TIP3    H1 4944   5.671   4.619   1.567
 1660TIP3    H2 4945   5.523   4.587   1.570
 1661TIP3   OH2 4946   5.502   1.938   3.073
 1661TIP3    H1 4947   5.529   2.027   3.097
 1661TIP3    H2 4948   5.497   1.891   3.157
 1662TIP3   OH2 4949   6.484   4.597   0.548
 1662TIP3    H1 4950   6.497   4.507   0.517
 1662TIP3    H2 4951   6.445   4.586   0.635
 1663TIP3   OH2 4952   3.275   4.207   0.098
 1663TIP3    H1 4953   3.233   4.135   0.146
 1663TIP3    H2 4954   3.369   4.194   0.113
 1664TIP3   OH2 4955   4.079   3.466   1.872
 1664TIP3    H1 4956   3.984   3.474   1.862
 1664TIP3    H2 4957   4.108   3.552   1.903
 1665TIP3   OH2 4958   4.300   2.767   3.821
 1665TIP3    H1 4959   4.362   2.837   3.840
 1665TIP3    H2 4960   4.254   2.753   3.903
 1666TIP3   OH2 4961   2.235   0.981   3.103
 1666TIP3    H1 4962   2.156   0.936   3.136
 1666TIP3    H2 4963   2.210   1.073   3.098
 1667TIP3   OH2 4964   4.136   0.593   5.035
 1667TIP3    H1 4965   4.174   0.542   4.963
 1667TIP3    H2 4966   4.067   0.537   5.070
 1668TIP3   OH2 4967   1.662   0.162   5.165
 1668TIP3    H1 4968   1.731   0.213   5.206
 1668TIP3    H2 4969   1.705   0.119   5.091
 1669TIP3   OH2 4970   2.906   0.687   1.261
 1669TIP3    H1 4971   2.872   0.623   1.323
 1669TIP3    H2 4972   2.996   0.657   1.243
 1670TIP3   OH2 4973   4.647   1.319   3.821
 1670TIP3    H1 4974   4.647   1.296   3.728
 1670TIP3    H2 4975   4.637   1.236   3.866
 1671TIP3   OH2 4976   0.112   2.570   2.027
 1671TIP3    H1 4977   0.042   2.505   2.035
 1671TIP3    H2 4978   0.192   2.518   2.023
 1672TIP3   OH2 4979   1.292   2.920   0.967
 1672TIP3    H1 4980   1.260   2.886   0.883
 1672TIP3    H2 4981   1.357   2.986   0.943
 1673TIP3   OH2 4982   2.920   5.329   2.114
 1673TIP3    H1 4983   2.894   5.420   2.125
 1673TIP3    H2 4984   2.924   5.294   2.203
 1674TIP3   OH2 4985   7.188   2.731   5.730
 1674TIP3    H1 4986   7.194   2.707   5.822
 1674TIP3    H2 4987   7.192   2.647   5.684
 1675TIP3   OH2 4988   1.878   2.402   0.160
 1675TIP3    H1 4989   1.912   2.440   0.241
 1675TIP3    H2 4990   1.915   2.314   0.157
 1676TIP3   OH2 4991   2.760   2.810   1.306
 1676TIP3    H1 4992   2.739   2.812   1.399
 1676TIP3    H2 4993   2.845   2.854   1.299
 1677TIP3   OH2 4994   3.011   1.309   5.210
 1677TIP3    H1 4995   3.041   1.387   5.164
 1677TIP3    H2 4996   2.989   1.340   5.298
 1678TIP3   OH2 4997   7.067   6.500   2.398
 1678TIP3    H1 4998   7.098   6.411   2.379
 1678TIP3    H2 4999   7.046   6.499   2.492
 1679TIP3   OH2 5000   3.590   4.117   5.817
 1679TIP3    H1 5001   3.634   4.125   5.733
 1679TIP3    H2 5002   3.591   4.205   5.854
 1680TIP3   OH2 5003   1.329   3.483   4.871
 1680TIP3    H1 5004   1.342   3.575   4.895
 1680TIP3    H2 5005   1.353   3.479   4.779
 1681TIP3   OH2 5006   5.884   6.813   2.607
 1681TIP3    H1 5007   5.852   6.847   2.524
 1681TIP3    H2 5008   5.810   6.822   2.667
 1682TIP3   OH2 5009   1.169   2.986   1.233
 1682TIP3    H1 5010   1.219   2.939   1.166
 1682TIP3    H2 5011   1.205   3.075   1.232
 1683TIP3   OH2 5012   5.374   1.357   4.652
 1683TIP3    H1 5013   5.464   1.389   4.660
 1683TIP3    H2 5014   5.326   1.431   4.615
 1684TIP3   OH2 5015   0.712   1.260   4.382
 1684TIP3    H1 5016   0.718   1.192   4.315
 1684TIP3    H2 5017   0.697   1.341   4.333
 1685TIP3   OH2 5018   5.953   0.834   2.863
 1685TIP3    H1 5019   5.862   0.861   2.876
 1685TIP3    H2 5020   5.951   0.772   2.791
 1686TIP3   OH2 5021   2.071   1.297   0.728
 1686TIP3    H1 5022   1.985   1.339   0.733
 1686TIP3    H2 5023   2.100   1.293   0.819
 1687TIP3   OH2 5024   2.615   5.646   2.751
 1687TIP3    H1 5025   2.694   5.595   2.733
 1687TIP3    H2 5026   2.634   5.691   2.833
 1688TIP3   OH2 5027   6.462   4.329   3.834
 1688TIP3    H1 5028   6.442   4.418   3.805
 1688TIP3    H2 5029   6.553   4.314   3.808
 1689TIP3   OH2 5030   2.399   0.343   0.814
 1689TIP3    H1 5031   2.363   0.295   0.740
 1689TIP3    H2 5032   2.360   0.430   0.807
 1690TIP3   OH2 5033   2.300   6.204   2.195
 1690TIP3    H1 5034   2.298   6.117   2.155
 1690TIP3    H2 5035   2.210   6.221   2.221
 1691TIP3   OH2 5036   1.324   3.774   3.089
 1691TIP3    H1 5037   1.401   3.782   3.033
 1691TIP3    H2 5038   1.250   3.771   3.028
 1692TIP3   OH2 5039   7.085   6.403   5.723
 1692TIP3    H1 5040   7.171   6.379   5.756
 1692TIP3    H2 5041   7.103   6.456   5.645
 1693TIP3   OH2 5042   4.909   6.788   3.403
 1693TIP3    H1 5043   4.980   6.851   3.403
 1693TIP3    H2 5044   4.952   6.703   3.395
 1694TIP3   OH2 5045   4.409   3.341   2.204
 1694TIP3    H1 5046   4.390   3.431   2.177
 1694TIP3    H2 5047   4.504   3.336   2.207
 1695TIP3   OH2 5048   2.912   5.407   5.713
 1695TIP3    H1 5049   2.890   5.451   5.632
 1695TIP3    H2 5050   2.829   5.370   5.745
 1696TIP3   OH2 5051   6.527   5.606   5.026
 1696TIP3    H1 5052   6.447   5.646   5.059
 1696TIP3    H2 5053   6.509   5.512   5.029
 1697TIP3   OH2 5054   3.210   5.632   5.552
 1697TIP3    H1 5055   3.245   5.549   5.584
 1697TIP3    H2 5056   3.278   5.667   5.495
 1698TIP3   OH2 5057   6.185   3.072   3.636
 1698TIP3    H1 5058   6.188   3.085   3.542
 1698TIP3    H2 5059   6.098   3.034   3.653
 1699TIP3   OH2 5060   3.733   6.752   4.294
 1699TIP3    H1 5061   3.743   6.831   4.241
 1699TIP3    H2 5062   3.734   6.784   4.384
 1700TIP3   OH2 5063   1.905   5.594   0.309
 1700TIP3    H1 5064   1.878   5.548   0.229
 1700TIP3    H2 5065   1.901   5.687   0.286
 1701TIP3   OH2 5066   1.916   2.339   0.780
 1701TIP3    H1 5067   1.920   2.307   0.690
 1701TIP3    H2 5068   2.008   2.351   0.805
 1702TIP3   OH2 5069   4.422   3.523   2.447
 1702TIP3    H1 5070   4.336   3.521   2.405
 1702TIP3    H2 5071   4.408   3.571   2.528
 1703TIP3   OH2 5072   0.344   4.327   0.037
 1703TIP3    H1 5073   0.352   4.360  -0.052
 1703TIP3    H2 5074   0.309   4.401   0.087
 1704TIP3   OH2 5075   4.354   4.205   4.853
 1704TIP3    H1 5076   4.374   4.138   4.788
 1704TIP3    H2 5077   4.259   4.211   4.854
 1705TIP3   OH2 5078   4.532   4.289   0.915
 1705TIP3    H1 5079   4.581   4.215   0.949
 1705TIP3    H2 5080   4.552   4.361   0.975
 1706TIP3   OH2 5081   0.474   6.588   0.572
 1706TIP3    H1 5082   0.385   6.584   0.536
 1706TIP3    H2 5083   0.527   6.537   0.511
 1707TIP3   OH2 5084   1.696   4.291   4.428
 1707TIP3    H1 5085   1.791   4.296   4.418
 1707TIP3    H2 5086   1.662   4.354   4.365
 1708TIP3   OH2 5087   5.885   4.255   4.526
 1708TIP3    H1 5088   5.847   4.342   4.541
 1708TIP3    H2 5089   5.808   4.198   4.518
 1709TIP3   OH2 5090   6.059   4.038   1.460
 1709TIP3    H1 5091   6.107   4.030   1.377
 1709TIP3    H2 5092   5.986   3.978   1.451
 1710TIP3   OH2 5093   2.126   3.827   0.762
 1710TIP3    H1 5094   2.039   3.785   0.762
 1710TIP3    H2 5095   2.116   3.901   0.821
 1711TIP3   OH2 5096   4.602   5.856   1.023
 1711TIP3    H1 5097   4.513   5.828   1.002
 1711TIP3    H2 5098   4.602   5.951   1.008
 1712TIP3   OH2 5099   5.607   5.514   5.120
 1712TIP3    H1 5100   5.611   5.568   5.200
 1712TIP3    H2 5101   5.689   5.534   5.075
 1713TIP3   OH2 5102   2.678   5.776   2.151
 1713TIP3    H1 5103   2.666   5.776   2.246
 1713TIP3    H2 5104   2.595   5.742   2.117
 1714TIP3   OH2 5105   1.266   2.439   1.331
 1714TIP3    H1 5106   1.296   2.489   1.256
 1714TIP3    H2 5107   1.337   2.446   1.395
 1715TIP3   OH2 5108   2.794   1.695   2.896
 1715TIP3    H1 5109   2.799   1.718   2.804
 1715TIP3    H2 5110   2.787   1.599   2.897
 1716TIP3   OH2 5111   6.340   1.436   4.521
 1716TIP3    H1 5112   6.346   1.531   4.525
 1716TIP3    H2 5113   6.253   1.419   4.486
 1717TIP3   OH2 5114   2.971   4.216   5.395
 1717TIP3    H1 5115   3.029   4.141   5.383
 1717TIP3    H2 5116   3.030   4.292   5.394
 1718TIP3   OH2 5117   6.070   2.892   2.701
 1718TIP3    H1 5118   6.042   2.802   2.718
 1718TIP3    H2 5119   6.114   2.887   2.615
 1719TIP3   OH2 5120   5.781   6.701   0.571
 1719TIP3    H1 5121   5.693   6.707   0.608
 1719TIP3    H2 5122   5.817   6.790   0.581
 1720TIP3   OH2 5123   4.966   5.685   5.192
 1720TIP3    H1 5124   5.032   5.654   5.130
 1720TIP3    H2 5125   4.954   5.612   5.252
 1721TIP3   OH2 5126   2.428   4.757   2.244
 1721TIP3    H1 5127   2.512   4.741   2.201
 1721TIP3    H2 5128   2.439   4.721   2.332
 1722TIP3   OH2 5129   6.961   3.231   2.515
 1722TIP3    H1 5130   6.958   3.149   2.465
 1722TIP3    H2 5131   6.960   3.204   2.606
 1723TIP3   OH2 5132   3.752   3.648   3.301
 1723TIP3    H1 5133   3.833   3.682   3.265
 1723TIP3    H2 5134   3.738   3.699   3.381
 1724TIP3   OH2 5135   3.884   1.680   5.282
 1724TIP3    H1 5136   3.908   1.699   5.372
 1724TIP3    H2 5137   3.911   1.758   5.233
 1725TIP3   OH2 5138   3.659   2.691   0.844
 1725TIP3    H1 5139   3.710   2.714   0.922
 1725TIP3    H2 5140   3.655   2.596   0.845
 1726TIP3   OH2 5141   5.548   4.284   0.701
 1726TIP3    H1 5142   5.534   4.231   0.623
 1726TIP3    H2 5143   5.621   4.341   0.679
 1727TIP3   OH2 5144   1.910   6.486   1.166
 1727TIP3    H1 5145   1.930   6.574   1.197
 1727TIP3    H2 5146   1.962   6.476   1.086
 1728TIP3   OH2 5147   6.785   3.131   3.863
 1728TIP3    H1 5148   6.842   3.186   3.810
 1728TIP3    H2 5149   6.705   3.122   3.811
 1729TIP3   OH2 5150   5.989   2.208   2.552
 1729TIP3    H1 5151   5.935   2.194   2.630
 1729TIP3    H2 5152   6.005   2.121   2.518
 1730TIP3   OH2 5153   0.451   6.262   2.725
 1730TIP3    H1 5154   0.498   6.184   2.756
 1730TIP3    H2 5155   0.362   6.252   2.758
 1731TIP3   OH2 5156   5.027   5.187   5.334
 1731TIP3    H1 5157   4.971   5.265   5.324
 1731TIP3    H2 5158   5.080   5.204   5.411
 1732TIP3   OH2 5159   6.072   0.627   0.219
 1732TIP3    H1 5160   6.060   0.684   0.295
 1732TIP3    H2 5161   6.096   0.687   0.148
 1733TIP3   OH2 5162   1.140   0.129   0.564
 1733TIP3    H1 5163   1.215   0.178   0.532
 1733TIP3    H2 5164   1.115   0.174   0.645
 1734TIP3   OH2 5165   5.868   3.021   4.634
 1734TIP3    H1 5166   5.789   2.975   4.606
 1734TIP3    H2 5167   5.917   3.036   4.553
 1735TIP3   OH2 5168   1.301   3.106   4.041
 1735TIP3    H1 5169   1.256   3.097   4.125
 1735TIP3    H2 5170   1.391   3.130   4.064
 1736TIP3   OH2 5171   6.836   4.693   4.986
 1736TIP3    H1 5172   6.830   4.669   4.893
 1736TIP3    H2 5173   6.771   4.639   5.029
 1737TIP3   OH2 5174   3.375   6.109   2.860
 1737TIP3    H1 5175   3.286   6.076   2.852
 1737TIP3    H2 5176   3.412   6.103   2.772
 1738TIP3   OH2 5177   0.615   6.751   0.105
 1738TIP3    H1 5178   0.568   6.813   0.160
 1738TIP3    H2 5179   0.557   6.736   0.031
 1739TIP3   OH2 5180   6.005   1.687   1.030
 1739TIP3    H1 5181   6.044   1.662   1.114
 1739TIP3    H2 5182   5.911   1.689   1.046
 1740TIP3   OH2 5183   6.457   6.471   3.512
 1740TIP3    H1 5184   6.373   6.464   3.558
 1740TIP3    H2 5185   6.433   6.478   3.420
 1741TIP3   OH2 5186   5.403   6.214   3.662
 1741TIP3    H1 5187   5.317   6.255   3.674
 1741TIP3    H2 5188   5.448   6.230   3.745
 1742TIP3   OH2 5189   1.127   2.223   3.296
 1742TIP3    H1 5190   1.148   2.315   3.278
 1742TIP3    H2 5191   1.166   2.206   3.382
 1743TIP3   OH2 5192   0.478   5.273   2.768
 1743TIP3    H1 5193   0.561   5.236   2.738
 1743TIP3    H2 5194   0.419   5.262   2.694
 1744TIP3   OH2 5195   0.062   4.436   1.688
 1744TIP3    H1 5196   0.044   4.484   1.608
 1744TIP3    H2 5197  -0.018   4.387   1.706
 1745TIP3   OH2 5198   5.990   5.178   1.953
 1745TIP3    H1 5199   5.950   5.161   1.868
 1745TIP3    H2 5200   6.045   5.255   1.939
 1746TIP3   OH2 5201   7.165   3.953   0.591
 1746TIP3    H1 5202   7.178   4.040   0.554
 1746TIP3    H2 5203   7.242   3.940   0.647
 1747TIP3   OH2 5204   2.379   5.831   4.916
 1747TIP3    H1 5205   2.334   5.759   4.871
 1747TIP3    H2 5206   2.309   5.889   4.945
 1748TIP3   OH2 5207   5.001   1.297   1.036
 1748TIP3    H1 5208   5.071   1.237   1.061
 1748TIP3    H2 5209   5.038   1.384   1.051
 1749TIP3   OH2 5210   0.059   2.786   2.181
 1749TIP3    H1 5211   0.103   2.711   2.141
 1749TIP3    H2 5212  -0.033   2.758   2.189
 1750TIP3   OH2 5213   1.975   4.761   0.222
 1750TIP3    H1 5214   2.014   4.698   0.162
 1750TIP3    H2 5215   2.027   4.841   0.211
 1751TIP3   OH2 5216   1.609   1.550   0.113
 1751TIP3    H1 5217   1.515   1.565   0.103
 1751TIP3    H2 5218   1.642   1.631   0.151
 1752TIP3   OH2 5219   1.556   1.551   0.494
 1752TIP3    H1 5220   1.609   1.588   0.564
 1752TIP3    H2 5221   1.474   1.524   0.537
 1753TIP3   OH2 5222   1.399   0.944   5.733
 1753TIP3    H1 5223   1.466   0.997   5.777
 1753TIP3    H2 5224   1.427   0.941   5.642
 1754TIP3   OH2 5225   0.140   1.773   0.193
 1754TIP3    H1 5226   0.181   1.693   0.162
 1754TIP3    H2 5227   0.069   1.790   0.131
 1755TIP3   OH2 5228   4.200   0.728   0.236
 1755TIP3    H1 5229   4.257   0.805   0.243
 1755TIP3    H2 5230   4.194   0.710   0.142
 1756TIP3   OH2 5231   1.356   4.355   3.215
 1756TIP3    H1 5232   1.447   4.325   3.214
 1756TIP3    H2 5233   1.347   4.405   3.134
 1757TIP3   OH2 5234   0.292   4.814   1.999
 1757TIP3    H1 5235   0.322   4.900   1.968
 1757TIP3    H2 5236   0.235   4.782   1.929
 1758TIP3   OH2 5237   4.553   6.421   4.256
 1758TIP3    H1 5238   4.522   6.367   4.183
 1758TIP3    H2 5239   4.648   6.411   4.254
 1759TIP3   OH2 5240   4.973   5.956   0.481
 1759TIP3    H1 5241   5.036   5.889   0.454
 1759TIP3    H2 5242   4.888   5.913   0.474
 1760TIP3   OH2 5243   2.680   1.564   5.570
 1760TIP3    H1 5244   2.664   1.610   5.652
 1760TIP3    H2 5245   2.592   1.543   5.537
 1761TIP3   OH2 5246   5.602   5.204   1.136
 1761TIP3    H1 5247   5.632   5.115   1.154
 1761TIP3    H2 5248   5.507   5.196   1.126
 1762TIP3   OH2 5249   6.491   3.600   4.216
 1762TIP3    H1 5250   6.458   3.587   4.127
 1762TIP3    H2 5251   6.520   3.691   4.218
 1763TIP3   OH2 5252   0.502   1.742   5.709
 1763TIP3    H1 5253   0.570   1.791   5.756
 1763TIP3    H2 5254   0.498   1.783   5.622
 1764TIP3   OH2 5255   1.210   5.467   4.945
 1764TIP3    H1 5256   1.252   5.381   4.940
 1764TIP3    H2 5257   1.117   5.448   4.956
 1765TIP3   OH2 5258   2.990   5.527   5.063
 1765TIP3    H1 5259   3.014   5.584   5.136
 1765TIP3    H2 5260   2.920   5.575   5.018
 1766TIP3   OH2 5261   6.097   1.649   4.778
 1766TIP3    H1 5262   6.130   1.738   4.790
 1766TIP3    H2 5263   6.035   1.637   4.850
 1767TIP3   OH2 5264   4.509   5.583   3.895
 1767TIP3    H1 5265   4.448   5.595   3.967
 1767TIP3    H2 5266   4.519   5.488   3.888
 1768TIP3   OH2 5267   0.829   5.941   1.046
 1768TIP3    H1 5268   0.786   5.922   1.129
 1768TIP3    H2 5269   0.893   6.009   1.067
 1769TIP3   OH2 5270   6.686   5.113   2.606
 1769TIP3    H1 5271   6.594   5.139   2.602
 1769TIP3    H2 5272   6.734   5.195   2.599
 1770TIP3   OH2 5273   2.577   5.622   5.609
 1770TIP3    H1 5274   2.504   5.675   5.578
 1770TIP3    H2 5275   2.637   5.684   5.650
 1771TIP3   OH2 5276   4.272   4.028   5.773
 1771TIP3    H1 5277   4.363   4.002   5.790
 1771TIP3    H2 5278   4.252   4.091   5.842
 1772TIP3   OH2 5279   0.685   0.100   1.422
 1772TIP3    H1 5280   0.651   0.189   1.426
 1772TIP3    H2 5281   0.618   0.046   1.464
 1773TIP3   OH2 5282   4.454   1.443   2.681
 1773TIP3    H1 5283   4.526   1.421   2.740
 1773TIP3    H2 5284   4.380   1.460   2.739
 1774TIP3   OH2 5285   4.819   6.065   4.580
 1774TIP3    H1 5286   4.884   6.026   4.521
 1774TIP3    H2 5287   4.870   6.119   4.640
 1775TIP3   OH2 5288   5.253   5.556   1.400
 1775TIP3    H1 5289   5.261   5.609   1.321
 1775TIP3    H2 5290   5.175   5.502   1.385
 1776TIP3   OH2 5291   6.398   2.984   1.299
 1776TIP3    H1 5292   6.347   3.028   1.231
 1776TIP3    H2 5293   6.333   2.934   1.348
 1777TIP3   OH2 5294   5.495   2.725   0.217
 1777TIP3    H1 5295   5.426   2.758   0.275
 1777TIP3    H2 5296   5.494   2.630   0.230
 1778TIP3   OH2 5297   3.159   4.046   1.127
 1778TIP3    H1 5298   3.084   3.987   1.139
 1778TIP3    H2 5299   3.227   4.009   1.183
 1779TIP3   OH2 5300   6.001   5.164   3.051
 1779TIP3    H1 5301   6.083   5.159   3.099
 1779TIP3    H2 5302   5.933   5.160   3.118
 1780TIP3   OH2 5303   2.672   0.237   3.153
 1780TIP3    H1 5304   2.639   0.157   3.113
 1780TIP3    H2 5305   2.765   0.223   3.165
 1781TIP3   OH2 5306   5.746   1.851   1.759
 1781TIP3    H1 5307   5.687   1.875   1.688
 1781TIP3    H2 5308   5.700   1.781   1.806
 1782TIP3   OH2 5309   5.612   3.003   0.829
 1782TIP3    H1 5310   5.598   3.080   0.774
 1782TIP3    H2 5311   5.579   3.029   0.915
 1783TIP3   OH2 5312   3.315   2.338   3.780
 1783TIP3    H1 5313   3.344   2.248   3.795
 1783TIP3    H2 5314   3.308   2.345   3.685
 1784TIP3   OH2 5315   0.669   6.018   5.562
 1784TIP3    H1 5316   0.584   5.984   5.533
 1784TIP3    H2 5317   0.663   6.112   5.549
 1785TIP3   OH2 5318   6.958   0.267   1.468
 1785TIP3    H1 5319   6.976   0.182   1.509
 1785TIP3    H2 5320   7.042   0.292   1.428
 1786TIP3   OH2 5321   5.022   4.797   5.195
 1786TIP3    H1 5322   5.019   4.779   5.289
 1786TIP3    H2 5323   5.086   4.868   5.186
 1787TIP3   OH2 5324   2.677   6.210   0.555
 1787TIP3    H1 5325   2.678   6.258   0.638
 1787TIP3    H2 5326   2.667   6.278   0.488
 1788TIP3   OH2 5327   6.645   5.520   1.568
 1788TIP3    H1 5328   6.582   5.587   1.541
 1788TIP3    H2 5329   6.690   5.559   1.643
 1789TIP3   OH2 5330   6.008   6.216   2.901
 1789TIP3    H1 5331   5.925   6.223   2.854
 1789TIP3    H2 5332   6.033   6.306   2.920
 1790TIP3   OH2 5333   6.663   5.795   4.198
 1790TIP3    H1 5334   6.655   5.880   4.154
 1790TIP3    H2 5335   6.752   5.796   4.232
 1791TIP3   OH2 5336   2.151   5.396   4.104
 1791TIP3    H1 5337   2.078   5.384   4.164
 1791TIP3    H2 5338   2.208   5.321   4.122
 1792TIP3   OH2 5339   7.232   4.953   5.650
 1792TIP3    H1 5340   7.167   5.022   5.666
 1792TIP3    H2 5341   7.245   4.912   5.736
 1793TIP3   OH2 5342   3.195   1.107   0.566
 1793TIP3    H1 5343   3.185   1.190   0.520
 1793TIP3    H2 5344   3.248   1.053   0.507
 1794TIP3   OH2 5345   7.101   0.752   0.853
 1794TIP3    H1 5346   7.149   0.830   0.827
 1794TIP3    H2 5347   7.078   0.709   0.771
 1795TIP3   OH2 5348   2.915   0.181   1.537
 1795TIP3    H1 5349   2.992   0.124   1.548
 1795TIP3    H2 5350   2.948   0.269   1.553
 1796TIP3   OH2 5351   6.790   1.021   1.549
 1796TIP3    H1 5352   6.700   1.049   1.568
 1796TIP3    H2 5353   6.844   1.065   1.614
 1797TIP3   OH2 5354   6.065   6.358   1.119
 1797TIP3    H1 5355   6.058   6.334   1.211
 1797TIP3    H2 5356   6.111   6.442   1.119
 1798TIP3   OH2 5357   7.230   5.227   5.152
 1798TIP3    H1 5358   7.212   5.150   5.098
 1798TIP3    H2 5359   7.167   5.292   5.122
 1799TIP3   OH2 5360   5.952   0.934   4.504
 1799TIP3    H1 5361   5.879   0.994   4.487
 1799TIP3    H2 5362   6.011   0.947   4.431
 1800TIP3   OH2 5363   6.865   1.316   1.364
 1800TIP3    H1 5364   6.797   1.248   1.370
 1800TIP3    H2 5365   6.859   1.347   1.274
 1801TIP3   OH2 5366   2.942   3.758   5.297
 1801TIP3    H1 5367   2.866   3.778   5.351
 1801TIP3    H2 5368   2.906   3.711   5.222
 1802TIP3   OH2 5369   2.480   4.158   4.137
 1802TIP3    H1 5370   2.443   4.083   4.184
 1802TIP3    H2 5371   2.568   4.130   4.112
 1803TIP3   OH2 5372   3.709   5.003   2.303
 1803TIP3    H1 5373   3.622   4.964   2.311
 1803TIP3    H2 5374   3.698   5.093   2.334
 1804TIP3   OH2 5375   6.720   5.238   4.866
 1804TIP3    H1 5376   6.762   5.153   4.878
 1804TIP3    H2 5377   6.789   5.295   4.834
 1805TIP3   OH2 5378   4.559   5.405   1.275
 1805TIP3    H1 5379   4.484   5.366   1.321
 1805TIP3    H2 5380   4.611   5.446   1.343
 1806TIP3   OH2 5381   0.933   5.011   1.591
 1806TIP3    H1 5382   0.949   5.105   1.596
 1806TIP3    H2 5383   1.020   4.972   1.583
 1807TIP3   OH2 5384   1.342   6.458   1.406
 1807TIP3    H1 5385   1.325   6.441   1.313
 1807TIP3    H2 5386   1.263   6.427   1.450
 1808TIP3   OH2 5387   5.371   6.493   4.556
 1808TIP3    H1 5388   5.449   6.473   4.504
 1808TIP3    H2 5389   5.382   6.441   4.636
 1809TIP3   OH2 5390   6.560   4.022   2.957
 1809TIP3    H1 5391   6.468   4.046   2.970
 1809TIP3    H2 5392   6.582   4.057   2.871
 1810TIP3   OH2 5393   2.227   3.143   5.888
 1810TIP3    H1 5394   2.163   3.185   5.945
 1810TIP3    H2 5395   2.177   3.115   5.811
 1811TIP3   OH2 5396   2.419   3.945   5.730
 1811TIP3    H1 5397   2.354   4.015   5.728
 1811TIP3    H2 5398   2.371   3.867   5.759
 1812TIP3   OH2 5399   1.921   0.886   4.793
 1812TIP3    H1 5400   1.836   0.866   4.754
 1812TIP3    H2 5401   1.902   0.898   4.886
 1813TIP3   OH2 5402   1.552  -0.018   3.281
 1813TIP3    H1 5403   1.513  -0.082   3.222
 1813TIP3    H2 5404   1.531   0.067   3.242
 1814TIP3   OH2 5405   2.804   4.737   3.670
 1814TIP3    H1 5406   2.829   4.794   3.598
 1814TIP3    H2 5407   2.827   4.786   3.749
 1815TIP3   OH2 5408   5.048   4.016   5.130
 1815TIP3    H1 5409   5.128   4.069   5.137
 1815TIP3    H2 5410   5.001   4.054   5.056
 1816TIP3   OH2 5411   2.742   5.846   2.931
 1816TIP3    H1 5412   2.735   5.875   2.840
 1816TIP3    H2 5413   2.829   5.874   2.958
 1817TIP3   OH2 5414   2.652   2.764   0.311
 1817TIP3    H1 5415   2.649   2.709   0.233
 1817TIP3    H2 5416   2.566   2.754   0.351
 1818TIP3   OH2 5417   4.093   2.762   5.368
 1818TIP3    H1 5418   4.009   2.730   5.400
 1818TIP3    H2 5419   4.115   2.704   5.296
 1819TIP3   OH2 5420   4.473   0.121   1.540
 1819TIP3    H1 5421   4.427   0.184   1.485
 1819TIP3    H2 5422   4.414   0.105   1.614
 1820TIP3   OH2 5423   0.102   1.959   2.479
 1820TIP3    H1 5424   0.008   1.944   2.479
 1820TIP3    H2 5425   0.140   1.872   2.471
 1821TIP3   OH2 5426   0.233   1.415   2.013
 1821TIP3    H1 5427   0.295   1.353   2.050
 1821TIP3    H2 5428   0.280   1.498   2.010
 1822TIP3   OH2 5429   5.827   1.585   2.413
 1822TIP3    H1 5430   5.871   1.666   2.436
 1822TIP3    H2 5431   5.777   1.606   2.334
 1823TIP3   OH2 5432   4.802   6.510   3.957
 1823TIP3    H1 5433   4.714   6.540   3.936
 1823TIP3    H2 5434   4.831   6.464   3.878
 1824TIP3   OH2 5435   1.998   5.503   2.292
 1824TIP3    H1 5436   2.009   5.508   2.387
 1824TIP3    H2 5437   2.030   5.416   2.269
 1825TIP3   OH2 5438   3.860   5.973   3.468
 1825TIP3    H1 5439   3.899   5.891   3.438
 1825TIP3    H2 5440   3.926   6.011   3.526
 1826TIP3   OH2 5441   5.575   2.520   3.948
 1826TIP3    H1 5442   5.565   2.566   4.031
 1826TIP3    H2 5443   5.488   2.525   3.907
 1827TIP3   OH2 5444   5.069   0.621   0.674
 1827TIP3    H1 5445   5.010   0.695   0.687
 1827TIP3    H2 5446   5.112   0.638   0.591
 1828TIP3   OH2 5447   2.051   1.015   4.115
 1828TIP3    H1 5448   2.007   0.966   4.045
 1828TIP3    H2 5449   2.011   1.102   4.112
 1829TIP3   OH2 5450   6.514   2.025   2.819
 1829TIP3    H1 5451   6.458   1.964   2.867
 1829TIP3    H2 5452   6.571   1.968   2.767
 1830TIP3   OH2 5453   3.146   0.962   5.353
 1830TIP3    H1 5454   3.060   1.001   5.366
 1830TIP3    H2 5455   3.149   0.939   5.260
 1831TIP3   OH2 5456   5.567   6.226   3.090
 1831TIP3    H1 5457   5.500   6.170   3.051
 1831TIP3    H2 5458   5.544   6.229   3.183
 1832TIP3   OH2 5459   3.451   5.267   1.272
 1832TIP3    H1 5460   3.372   5.239   1.225
 1832TIP3    H2 5461   3.419   5.309   1.351
 1833TIP3   OH2 5462   6.160   3.918   5.264
 1833TIP3    H1 5463   6.227   3.943   5.201
 1833TIP3    H2 5464   6.172   3.823   5.274
 1834TIP3   OH2 5465   0.671   2.127   4.361
 1834TIP3    H1 5466   0.689   2.036   4.385
 1834TIP3    H2 5467   0.746   2.176   4.395
 1835TIP3   OH2 5468   3.815   4.408   5.399
 1835TIP3    H1 5469   3.802   4.361   5.317
 1835TIP3    H2 5470   3.873   4.352   5.450
 1836TIP3   OH2 5471   0.431   3.931   0.655
 1836TIP3    H1 5472   0.429   4.026   0.643
 1836TIP3    H2 5473   0.347   3.911   0.696
 1837TIP3   OH2 5474   6.186   0.402   2.600
 1837TIP3    H1 5475   6.121   0.420   2.532
 1837TIP3    H2 5476   6.198   0.486   2.644
 1838TIP3   OH2 5477   1.198   4.015   3.172
 1838TIP3    H1 5478   1.266   3.962   3.130
 1838TIP3    H2 5479   1.246   4.090   3.208
 1839TIP3   OH2 5480   1.621   4.650   3.698
 1839TIP3    H1 5481   1.586   4.711   3.762
 1839TIP3    H2 5482   1.587   4.565   3.725
 1840TIP3   OH2 5483   0.435   4.717   2.311
 1840TIP3    H1 5484   0.479   4.783   2.257
 1840TIP3    H2 5485   0.472   4.730   2.398
 1841TIP3   OH2 5486   4.232   3.693   4.182
 1841TIP3    H1 5487   4.149   3.645   4.178
 1841TIP3    H2 5488   4.295   3.630   4.218
 1842TIP3   OH2 5489   5.521   4.893   0.543
 1842TIP3    H1 5490   5.473   4.912   0.463
 1842TIP3    H2 5491   5.477   4.945   0.611
 1843TIP3   OH2 5492   0.659   4.079   2.782
 1843TIP3    H1 5493   0.572   4.112   2.802
 1843TIP3    H2 5494   0.668   4.001   2.837
 1844TIP3   OH2 5495   1.558   5.241   5.469
 1844TIP3    H1 5496   1.542   5.147   5.459
 1844TIP3    H2 5497   1.471   5.281   5.471
 1845TIP3   OH2 5498   0.145   3.904   4.019
 1845TIP3    H1 5499   0.222   3.881   4.071
 1845TIP3    H2 5500   0.091   3.826   4.021
 1846TIP3   OH2 5501   3.998   6.040   2.160
 1846TIP3    H1 5502   4.079   6.084   2.187
 1846TIP3    H2 5503   4.011   5.948   2.186
 1847TIP3   OH2 5504   4.504   1.583   5.316
 1847TIP3    H1 5505   4.513   1.510   5.255
 1847TIP3    H2 5506   4.412   1.607   5.312
 1848TIP3   OH2 5507   4.026   4.113   1.161
 1848TIP3    H1 5508   4.111   4.141   1.126
 1848TIP3    H2 5509   3.964   4.129   1.089
 1849TIP3   OH2 5510   1.898   3.621   3.882
 1849TIP3    H1 5511   1.929   3.710   3.895
 1849TIP3    H2 5512   1.809   3.631   3.848
 1850TIP3   OH2 5513   3.929   1.393   0.978
 1850TIP3    H1 5514   3.918   1.347   0.895
 1850TIP3    H2 5515   3.939   1.323   1.042
 1851TIP3   OH2 5516   3.099   2.599   2.285
 1851TIP3    H1 5517   3.045   2.629   2.358
 1851TIP3    H2 5518   3.164   2.668   2.274
 1852TIP3   OH2 5519   4.791   4.590   0.075
 1852TIP3    H1 5520   4.858   4.630   0.131
 1852TIP3    H2 5521   4.840   4.553   0.002
 1853TIP3   OH2 5522   2.638   4.563   4.798
 1853TIP3    H1 5523   2.733   4.576   4.801
 1853TIP3    H2 5524   2.621   4.522   4.714
 1854TIP3   OH2 5525   4.423   6.434   1.033
 1854TIP3    H1 5526   4.350   6.494   1.018
 1854TIP3    H2 5527   4.404   6.359   0.977
 1855TIP3   OH2 5528   1.622   1.989   1.181
 1855TIP3    H1 5529   1.543   2.008   1.232
 1855TIP3    H2 5530   1.661   1.914   1.224
 1856TIP3   OH2 5531   0.060   2.134   2.225
 1856TIP3    H1 5532   0.026   2.070   2.287
 1856TIP3    H2 5533   0.155   2.120   2.225
 1857TIP3   OH2 5534   2.340   3.577   0.276
 1857TIP3    H1 5535   2.249   3.580   0.245
 1857TIP3    H2 5536   2.385   3.645   0.228
 1858TIP3   OH2 5537   6.129   0.160   0.810
 1858TIP3    H1 5538   6.047   0.181   0.854
 1858TIP3    H2 5539   6.126   0.066   0.797
 1859TIP3   OH2 5540   1.013   4.015   0.172
 1859TIP3    H1 5541   1.012   4.081   0.241
 1859TIP3    H2 5542   0.946   4.045   0.110
 1860TIP3   OH2 5543   2.259   3.701   3.365
 1860TIP3    H1 5544   2.225   3.727   3.451
 1860TIP3    H2 5545   2.183   3.664   3.320
 1861TIP3   OH2 5546   5.867   1.264   5.809
 1861TIP3    H1 5547   5.806   1.324   5.853
 1861TIP3    H2 5548   5.935   1.248   5.875
 1862TIP3   OH2 5549   6.987   3.683   1.486
 1862TIP3    H1 5550   7.081   3.697   1.483
 1862TIP3    H2 5551   6.976   3.596   1.524
 1863TIP3   OH2 5552   2.480   5.769   4.062
 1863TIP3    H1 5553   2.438   5.836   4.008
 1863TIP3    H2 5554   2.446   5.686   4.028
 1864TIP3   OH2 5555   1.262   5.880   3.688
 1864TIP3    H1 5556   1.185   5.937   3.698
 1864TIP3    H2 5557   1.277   5.877   3.594
 1865TIP3   OH2 5558   5.496   4.817   0.959
 1865TIP3    H1 5559   5.524   4.764   0.884
 1865TIP3    H2 5560   5.402   4.825   0.949
 1866TIP3   OH2 5561   4.066   6.530   2.027
 1866TIP3    H1 5562   4.115   6.543   1.945
 1866TIP3    H2 5563   3.975   6.543   2.002
 1867TIP3   OH2 5564   0.116   4.650   2.254
 1867TIP3    H1 5565   0.108   4.641   2.349
 1867TIP3    H2 5566   0.189   4.710   2.242
 1868TIP3   OH2 5567   2.440   3.353   4.134
 1868TIP3    H1 5568   2.411   3.410   4.064
 1868TIP3    H2 5569   2.533   3.371   4.144
 1869TIP3   OH2 5570   4.959   2.258   1.925
 1869TIP3    H1 5571   4.934   2.171   1.894
 1869TIP3    H2 5572   4.880   2.311   1.915
 1870TIP3   OH2 5573   5.720   4.976   5.898
 1870TIP3    H1 5574   5.768   4.906   5.854
 1870TIP3    H2 5575   5.746   4.969   5.990
 1871TIP3   OH2 5576   7.113   1.403   1.101
 1871TIP3    H1 5577   7.044   1.412   1.035
 1871TIP3    H2 5578   7.122   1.491   1.139
 1872TIP3   OH2 5579   1.664   3.827   2.526
 1872TIP3    H1 5580   1.706   3.793   2.447
 1872TIP3    H2 5581   1.629   3.912   2.499
 1873TIP3   OH2 5582   6.876   4.051   3.336
 1873TIP3    H1 5583   6.858   4.141   3.307
 1873TIP3    H2 5584   6.805   4.000   3.298
 1874TIP3   OH2 5585   2.345   2.757   2.468
 1874TIP3    H1 5586   2.294   2.785   2.544
 1874TIP3    H2 5587   2.390   2.678   2.497
 1875TIP3   OH2 5588   0.598   0.519   4.837
 1875TIP3    H1 5589   0.585   0.426   4.856
 1875TIP3    H2 5590   0.588   0.563   4.922
 1876TIP3   OH2 5591   5.524   1.977   3.827
 1876TIP3    H1 5592   5.543   1.960   3.919
 1876TIP3    H2 5593   5.561   2.063   3.811
 1877TIP3   OH2 5594   5.085   0.479   5.659
 1877TIP3    H1 5595   5.013   0.501   5.717
 1877TIP3    H2 5596   5.106   0.388   5.678
 1878TIP3   OH2 5597   3.716   6.173   2.385
 1878TIP3    H1 5598   3.658   6.176   2.460
 1878TIP3    H2 5599   3.697   6.253   2.336
 1879TIP3   OH2 5600   0.712   5.054   3.640
 1879TIP3    H1 5601   0.800   5.083   3.615
 1879TIP3    H2 5602   0.679   5.123   3.698
 1880TIP3   OH2 5603   6.920   2.890   2.970
 1880TIP3    H1 5604   6.968   2.862   3.048
 1880TIP3    H2 5605   6.838   2.925   3.004
 1881TIP3   OH2 5606   3.065   4.260   3.464
 1881TIP3    H1 5607   3.114   4.190   3.422
 1881TIP3    H2 5608   3.129   4.329   3.479
 1882TIP3   OH2 5609   6.347   1.636   3.611
 1882TIP3    H1 5610   6.428   1.587   3.602
 1882TIP3    H2 5611   6.363   1.718   3.565
 1883TIP3   OH2 5612   4.381   3.478   1.888
 1883TIP3    H1 5613   4.390   3.549   1.952
 1883TIP3    H2 5614   4.467   3.436   1.887
 1884TIP3   OH2 5615   2.707   3.221   5.459
 1884TIP3    H1 5616   2.664   3.281   5.399
 1884TIP3    H2 5617   2.636   3.182   5.509
 1885TIP3   OH2 5618   1.098   5.689   4.349
 1885TIP3    H1 5619   1.189   5.685   4.379
 1885TIP3    H2 5620   1.061   5.604   4.371
 1886TIP3   OH2 5621   7.043   5.358   3.617
 1886TIP3    H1 5622   6.987   5.314   3.553
 1886TIP3    H2 5623   7.012   5.449   3.617
 1887TIP3   OH2 5624   1.126   3.302   5.696
 1887TIP3    H1 5625   1.102   3.390   5.723
 1887TIP3    H2 5626   1.103   3.247   5.770
 1888TIP3   OH2 5627   2.280   3.417   3.582
 1888TIP3    H1 5628   2.348   3.441   3.519
 1888TIP3    H2 5629   2.313   3.447   3.667
 1889TIP3   OH2 5630   4.824   1.733   4.928
 1889TIP3    H1 5631   4.795   1.819   4.900
 1889TIP3    H2 5632   4.919   1.733   4.914
 1890TIP3   OH2 5633   0.541   1.506   2.941
 1890TIP3    H1 5634   0.530   1.593   2.902
 1890TIP3    H2 5635   0.607   1.464   2.886
 1891TIP3   OH2 5636   4.437   5.893   0.722
 1891TIP3    H1 5637   4.418   5.804   0.691
 1891TIP3    H2 5638   4.378   5.904   0.797
 1892TIP3   OH2 5639   0.157   1.447   4.642
 1892TIP3    H1 5640   0.226   1.481   4.585
 1892TIP3    H2 5641   0.098   1.400   4.584
 1893TIP3   OH2 5642   3.930   1.185   1.237
 1893TIP3    H1 5643   3.904   1.094   1.249
 1893TIP3    H2 5644   4.000   1.199   1.301
 1894TIP3   OH2 5645   5.758   3.081   1.623
 1894TIP3    H1 5646   5.814   3.130   1.684
 1894TIP3    H2 5647   5.709   3.021   1.678
 1895TIP3   OH2 5648   1.770   3.558   4.793
 1895TIP3    H1 5649   1.850   3.569   4.742
 1895TIP3    H2 5650   1.790   3.486   4.853
 1896TIP3   OH2 5651   4.104   5.162   2.473
 1896TIP3    H1 5652   4.049   5.191   2.546
 1896TIP3    H2 5653   4.125   5.071   2.494
 1897TIP3   OH2 5654   3.207   3.450   5.033
 1897TIP3    H1 5655   3.281   3.501   5.001
 1897TIP3    H2 5656   3.209   3.461   5.128
 1898TIP3   OH2 5657   1.166   5.455   5.845
 1898TIP3    H1 5658   1.082   5.499   5.857
 1898TIP3    H2 5659   1.201   5.446   5.934
 1899TIP3   OH2 5660   1.863   6.678   5.507
 1899TIP3    H1 5661   1.811   6.691   5.587
 1899TIP3    H2 5662   1.833   6.595   5.472
 1900TIP3   OH2 5663   6.201   4.779   4.928
 1900TIP3    H1 5664   6.141   4.816   4.864
 1900TIP3    H2 5665   6.223   4.853   4.986
 1901TIP3   OH2 5666   1.314   1.863   3.188
 1901TIP3    H1 5667   1.245   1.799   3.172
 1901TIP3    H2 5668   1.388   1.810   3.219
 1902TIP3   OH2 5669   5.010   1.310   2.414
 1902TIP3    H1 5670   5.026   1.391   2.462
 1902TIP3    H2 5671   5.039   1.329   2.325
 1903TIP3   OH2 5672   6.615   2.790   1.335
 1903TIP3    H1 5673   6.649   2.819   1.420
 1903TIP3    H2 5674   6.563   2.864   1.305
 1904TIP3   OH2 5675   6.968   3.910   1.055
 1904TIP3    H1 5676   6.936   3.994   1.087
 1904TIP3    H2 5677   6.968   3.853   1.132
 1905TIP3   OH2 5678   5.617   4.923   3.018
 1905TIP3    H1 5679   5.558   4.990   2.984
 1905TIP3    H2 5680   5.697   4.932   2.967
 1906TIP3   OH2 5681   6.258   4.386   1.727
 1906TIP3    H1 5682   6.186   4.343   1.774
 1906TIP3    H2 5683   6.323   4.316   1.714
 1907TIP3   OH2 5684   6.262   2.619   4.543
 1907TIP3    H1 5685   6.282   2.550   4.607
 1907TIP3    H2 5686   6.334   2.615   4.481
 1908TIP3   OH2 5687   6.325   2.353   2.085
 1908TIP3    H1 5688   6.278   2.379   2.006
 1908TIP3    H2 5689   6.304   2.260   2.096
 1909TIP3   OH2 5690   4.498   5.777   2.728
 1909TIP3    H1 5691   4.521   5.869   2.735
 1909TIP3    H2 5692   4.409   5.777   2.693
 1910TIP3   OH2 5693   3.224   6.702   2.012
 1910TIP3    H1 5694   3.309   6.663   2.031
 1910TIP3    H2 5695   3.244   6.778   1.956
 1911TIP3   OH2 5696   0.765   1.404   2.263
 1911TIP3    H1 5697   0.693   1.358   2.308
 1911TIP3    H2 5698   0.838   1.398   2.324
 1912TIP3   OH2 5699   5.452   0.704   0.098
 1912TIP3    H1 5700   5.408   0.680   0.180
 1912TIP3    H2 5701   5.381   0.735   0.041
 1913TIP3   OH2 5702   1.026   6.706   0.121
 1913TIP3    H1 5703   1.058   6.718   0.211
 1913TIP3    H2 5704   0.941   6.663   0.131
 1914TIP3   OH2 5705   4.199   5.644   0.680
 1914TIP3    H1 5706   4.188   5.570   0.739
 1914TIP3    H2 5707   4.290   5.638   0.650
 1915TIP3   OH2 5708   0.332   3.298   1.748
 1915TIP3    H1 5709   0.242   3.320   1.771
 1915TIP3    H2 5710   0.324   3.229   1.681
 1916TIP3   OH2 5711   1.218   0.230   5.775
 1916TIP3    H1 5712   1.308   0.220   5.808
 1916TIP3    H2 5713   1.184   0.307   5.819
 1917TIP3   OH2 5714   4.547   4.623   2.865
 1917TIP3    H1 5715   4.538   4.583   2.778
 1917TIP3    H2 5716   4.489   4.570   2.921
 1918TIP3   OH2 5717   4.435   1.918   4.304
 1918TIP3    H1 5718   4.423   1.947   4.214
 1918TIP3    H2 5719   4.346   1.901   4.336
 1919TIP3   OH2 5720   0.489   3.045   2.503
 1919TIP3    H1 5721   0.478   3.039   2.408
 1919TIP3    H2 5722   0.403   3.021   2.538
 1920TIP3   OH2 5723   0.915   3.506   3.484
 1920TIP3    H1 5724   0.905   3.600   3.468
 1920TIP3    H2 5725   0.979   3.478   3.419
 1921TIP3   OH2 5726   3.275   2.840   0.734
 1921TIP3    H1 5727   3.330   2.891   0.793
 1921TIP3    H2 5728   3.187   2.875   0.746
 1922TIP3   OH2 5729   3.234   5.229   1.125
 1922TIP3    H1 5730   3.219   5.191   1.038
 1922TIP3    H2 5731   3.216   5.322   1.114
 1923TIP3   OH2 5732   0.692   4.967   3.373
 1923TIP3    H1 5733   0.701   4.984   3.467
 1923TIP3    H2 5734   0.724   4.877   3.362
 1924TIP3   OH2 5735   0.732   4.679   2.847
 1924TIP3    H1 5736   0.780   4.670   2.764
 1924TIP3    H2 5737   0.799   4.667   2.914
 1925TIP3   OH2 5738   2.033   0.105   4.500
 1925TIP3    H1 5739   2.061   0.060   4.421
 1925TIP3    H2 5740   2.101   0.171   4.515
 1926TIP3   OH2 5741   5.470   4.274   3.923
 1926TIP3    H1 5742   5.537   4.273   3.855
 1926TIP3    H2 5743   5.513   4.312   3.999
 1927TIP3   OH2 5744   5.787   0.258   2.082
 1927TIP3    H1 5745   5.708   0.254   2.137
 1927TIP3    H2 5746   5.799   0.351   2.064
 1928TIP3   OH2 5747   2.767   5.323   4.038
 1928TIP3    H1 5748   2.767   5.417   4.056
 1928TIP3    H2 5749   2.785   5.283   4.123
 1929TIP3   OH2 5750   0.677   6.035   1.324
 1929TIP3    H1 5751   0.703   6.122   1.293
 1929TIP3    H2 5752   0.696   6.036   1.418
 1930TIP3   OH2 5753   3.754   4.091   3.624
 1930TIP3    H1 5754   3.719   4.180   3.624
 1930TIP3    H2 5755   3.689   4.040   3.672
 1931TIP3   OH2 5756   5.312   3.808   2.806
 1931TIP3    H1 5757   5.282   3.896   2.828
 1931TIP3    H2 5758   5.378   3.788   2.872
 1932TIP3   OH2 5759   6.221   5.081   1.626
 1932TIP3    H1 5760   6.296   5.087   1.567
 1932TIP3    H2 5761   6.146   5.106   1.573
 1933TIP3   OH2 5762   3.486   0.165   3.057
 1933TIP3    H1 5763   3.546   0.096   3.086
 1933TIP3    H2 5764   3.421   0.119   3.003
 1934TIP3   OH2 5765   3.408   4.144   0.600
 1934TIP3    H1 5766   3.381   4.078   0.663
 1934TIP3    H2 5767   3.347   4.217   0.612
 1935TIP3   OH2 5768   5.909   5.589   2.908
 1935TIP3    H1 5769   5.866   5.544   2.835
 1935TIP3    H2 5770   5.870   5.677   2.907
 1936TIP3   OH2 5771   0.317   6.383   0.242
 1936TIP3    H1 5772   0.304   6.472   0.210
 1936TIP3    H2 5773   0.366   6.339   0.172
 1937TIP3   OH2 5774   1.582   4.844   3.886
 1937TIP3    H1 5775   1.535   4.878   3.962
 1937TIP3    H2 5776   1.611   4.922   3.839
 1938TIP3   OH2 5777   7.056   0.548   0.111
 1938TIP3    H1 5778   7.004   0.478   0.073
 1938TIP3    H2 5779   6.993   0.604   0.156
 1939TIP3   OH2 5780   6.464   0.329   4.181
 1939TIP3    H1 5781   6.545   0.352   4.225
 1939TIP3    H2 5782   6.490   0.308   4.092
 1940TIP3   OH2 5783   6.200   3.658   3.587
 1940TIP3    H1 5784   6.105   3.669   3.580
 1940TIP3    H2 5785   6.236   3.737   3.548
 1941TIP3   OH2 5786   1.406   5.070   3.272
 1941TIP3    H1 5787   1.400   5.165   3.269
 1941TIP3    H2 5788   1.437   5.050   3.360
 1942TIP3   OH2 5789   2.179   2.133   5.243
 1942TIP3    H1 5790   2.204   2.089   5.162
 1942TIP3    H2 5791   2.257   2.183   5.268
 1943TIP3   OH2 5792   1.407   5.119   0.358
 1943TIP3    H1 5793   1.490   5.112   0.310
 1943TIP3    H2 5794   1.414   5.201   0.406
 1944TIP3   OH2 5795   5.910   2.088   1.191
 1944TIP3    H1 5796   5.942   2.103   1.102
 1944TIP3    H2 5797   5.988   2.088   1.246
 1945TIP3   OH2 5798   1.999   5.595   2.650
 1945TIP3    H1 5799   2.053   5.519   2.627
 1945TIP3    H2 5800   1.988   5.587   2.745
 1946TIP3   OH2 5801   1.274   3.918   0.532
 1946TIP3    H1 5802   1.346   3.946   0.476
 1946TIP3    H2 5803   1.242   3.999   0.572
 1947TIP3   OH2 5804   0.422   0.516   3.797
 1947TIP3    H1 5805   0.507   0.472   3.787
 1947TIP3    H2 5806   0.422   0.582   3.728
 1948TIP3   OH2 5807   5.132   3.317   3.751
 1948TIP3    H1 5808   5.115   3.372   3.828
 1948TIP3    H2 5809   5.047   3.279   3.729
 1949TIP3   OH2 5810   2.650   2.033   2.275
 1949TIP3    H1 5811   2.725   2.001   2.226
 1949TIP3    H2 5812   2.622   2.111   2.227
 1950TIP3   OH2 5813   3.289   5.386   3.461
 1950TIP3    H1 5814   3.356   5.418   3.401
 1950TIP3    H2 5815   3.312   5.295   3.477
 1951TIP3   OH2 5816   4.178   2.723   3.163
 1951TIP3    H1 5817   4.120   2.800   3.157
 1951TIP3    H2 5818   4.252   2.754   3.216
 1952TIP3   OH2 5819   7.110   1.828   3.817
 1952TIP3    H1 5820   7.031   1.776   3.797
 1952TIP3    H2 5821   7.076   1.912   3.846
 1953TIP3   OH2 5822   4.660   1.805   1.097
 1953TIP3    H1 5823   4.601   1.796   1.022
 1953TIP3    H2 5824   4.732   1.859   1.064
 1954TIP3   OH2 5825   5.819   5.123   5.191
 1954TIP3    H1 5826   5.835   5.057   5.123
 1954TIP3    H2 5827   5.723   5.126   5.198
 1955TIP3   OH2 5828   7.069   3.559   1.184
 1955TIP3    H1 5829   7.003   3.624   1.207
 1955TIP3    H2 5830   7.127   3.555   1.261
 1956TIP3   OH2 5831   4.366   2.359   2.373
 1956TIP3    H1 5832   4.444   2.343   2.427
 1956TIP3    H2 5833   4.293   2.336   2.430
 1957TIP3   OH2 5834   5.800   4.550   1.734
 1957TIP3    H1 5835   5.869   4.566   1.669
 1957TIP3    H2 5836   5.846   4.519   1.812
 1958TIP3   OH2 5837   5.014   0.048   0.591
 1958TIP3    H1 5838   4.991  -0.039   0.623
 1958TIP3    H2 5839   5.098   0.068   0.631
 1959TIP3   OH2 5840   5.445   6.593   4.841
 1959TIP3    H1 5841   5.387   6.518   4.850
 1959TIP3    H2 5842   5.529   6.564   4.878
 1960TIP3   OH2 5843   3.209   6.343   1.875
 1960TIP3    H1 5844   3.128   6.352   1.823
 1960TIP3    H2 5845   3.192   6.392   1.955
 1961TIP3   OH2 5846   5.231   1.323   5.147
 1961TIP3    H1 5847   5.241   1.306   5.053
 1961TIP3    H2 5848   5.314   1.293   5.185
 1962TIP3   OH2 5849   6.950   4.027   0.789
 1962TIP3    H1 5850   6.978   3.956   0.847
 1962TIP3    H2 5851   7.017   4.031   0.721
 1963TIP3   OH2 5852   5.129   2.249   0.171
 1963TIP3    H1 5853   5.049   2.239   0.119
 1963TIP3    H2 5854   5.114   2.328   0.222
 1964TIP3   OH2 5855   2.773   5.765   3.808
 1964TIP3    H1 5856   2.854   5.741   3.765
 1964TIP3    H2 5857   2.800   5.805   3.891
 1965TIP3   OH2 5858   5.807   4.526   4.506
 1965TIP3    H1 5859   5.796   4.613   4.468
 1965TIP3    H2 5860   5.718   4.495   4.520
 1966TIP3   OH2 5861   2.358   4.361   5.650
 1966TIP3    H1 5862   2.349   4.372   5.744
 1966TIP3    H2 5863   2.448   4.331   5.637
 1967TIP3   OH2 5864   0.178   6.387   2.291
 1967TIP3    H1 5865   0.105   6.345   2.248
 1967TIP3    H2 5866   0.249   6.386   2.227
 1968TIP3   OH2 5867   4.844   2.733   4.407
 1968TIP3    H1 5868   4.759   2.771   4.384
 1968TIP3    H2 5869   4.870   2.683   4.329
 1969TIP3   OH2 5870   1.948   4.435   2.827
 1969TIP3    H1 5871   1.886   4.362   2.828
 1969TIP3    H2 5872   1.943   4.468   2.737
 1970TIP3   OH2 5873   2.549   1.858   3.769
 1970TIP3    H1 5874   2.497   1.938   3.762
 1970TIP3    H2 5875   2.485   1.789   3.788
 1971TIP3   OH2 5876   2.996   3.825   1.245
 1971TIP3    H1 5877   3.052   3.748   1.234
 1971TIP3    H2 5878   2.907   3.790   1.249
 1972TIP3   OH2 5879   2.530   3.131   5.110
 1972TIP3    H1 5880   2.591   3.196   5.075
 1972TIP3    H2 5881   2.547   3.052   5.059
 1973TIP3   OH2 5882   2.811   1.141   2.697
 1973TIP3    H1 5883   2.743   1.120   2.761
 1973TIP3    H2 5884   2.764   1.183   2.625
 1974TIP3   OH2 5885   6.276   1.314   4.793
 1974TIP3    H1 5886   6.301   1.381   4.730
 1974TIP3    H2 5887   6.284   1.232   4.745
 1975TIP3   OH2 5888   2.573   3.247   3.566
 1975TIP3    H1 5889   2.668   3.235   3.567
 1975TIP3    H2 5890   2.542   3.187   3.634
 1976TIP3   OH2 5891   1.204   1.418   3.010
 1976TIP3    H1 5892   1.233   1.330   2.986
 1976TIP3    H2 5893   1.225   1.472   2.933
 1977TIP3   OH2 5894   1.670   1.054   5.671
 1977TIP3    H1 5895   1.672   0.982   5.608
 1977TIP3    H2 5896   1.746   1.040   5.727
 1978TIP3   OH2 5897   0.466   2.539   1.052
 1978TIP3    H1 5898   0.407   2.549   0.977
 1978TIP3    H2 5899   0.551   2.570   1.020
 1979TIP3   OH2 5900   3.017   2.253   5.528
 1979TIP3    H1 5901   2.958   2.186   5.492
 1979TIP3    H2 5902   3.086   2.261   5.463
 1980TIP3   OH2 5903   1.816   1.574   1.355
 1980TIP3    H1 5904   1.753   1.521   1.405
 1980TIP3    H2 5905   1.901   1.549   1.390
 1981TIP3   OH2 5906   6.414   5.138   2.572
 1981TIP3    H1 5907   6.344   5.090   2.616
 1981TIP3    H2 5908   6.403   5.115   2.479
 1982TIP3   OH2 5909   6.203   6.518   4.424
 1982TIP3    H1 5910   6.166   6.544   4.340
 1982TIP3    H2 5911   6.236   6.599   4.462
 1983TIP3   OH2 5912   3.691   1.610   1.006
 1983TIP3    H1 5913   3.754   1.540   1.019
 1983TIP3    H2 5914   3.731   1.686   1.050
 1984TIP3   OH2 5915   5.298   5.235   1.690
 1984TIP3    H1 5916   5.229   5.239   1.623
 1984TIP3    H2 5917   5.251   5.224   1.772
 1985TIP3   OH2 5918   3.320   1.282   4.396
 1985TIP3    H1 5919   3.279   1.196   4.403
 1985TIP3    H2 5920   3.313   1.319   4.484
 1986TIP3   OH2 5921   0.772   3.205   4.607
 1986TIP3    H1 5922   0.757   3.174   4.697
 1986TIP3    H2 5923   0.686   3.232   4.576
 1987TIP3   OH2 5924   0.712   3.508   3.921
 1987TIP3    H1 5925   0.726   3.514   3.826
 1987TIP3    H2 5926   0.713   3.414   3.939
 1988TIP3   OH2 5927   0.905   4.154   0.710
 1988TIP3    H1 5928   0.875   4.150   0.801
 1988TIP3    H2 5929   0.837   4.206   0.665
 1989TIP3   OH2 5930   5.908   4.394   3.409
 1989TIP3    H1 5931   5.993   4.435   3.429
 1989TIP3    H2 5932   5.930   4.311   3.368
 1990TIP3   OH2 5933   5.856   1.150   4.683
 1990TIP3    H1 5934   5.859   1.074   4.626
 1990TIP3    H2 5935   5.775   1.141   4.733
 1991TIP3   OH2 5936   4.809   4.675   2.909
 1991TIP3    H1 5937   4.717   4.656   2.890
 1991TIP3    H2 5938   4.812   4.769   2.922
 1992TIP3   OH2 5939   5.042   1.535   1.416
 1992TIP3    H1 5940   5.111   1.478   1.382
 1992TIP3    H2 5941   4.963   1.482   1.412
 1993TIP3   OH2 5942   0.216   5.403   1.609
 1993TIP3    H1 5943   0.204   5.337   1.677
 1993TIP3    H2 5944   0.308   5.395   1.583
 1994TIP3   OH2 5945   6.262   5.754   4.515
 1994TIP3    H1 5946   6.346   5.792   4.490
 1994TIP3    H2 5947   6.248   5.785   4.605
 1995TIP3   OH2 5948   7.174   4.185   4.929
 1995TIP3    H1 5949   7.111   4.136   4.876
 1995TIP3    H2 5950   7.120   4.244   4.982
 1996TIP3   OH2 5951   0.283   6.121   3.641
 1996TIP3    H1 5952   0.271   6.107   3.547
 1996TIP3    H2 5953   0.347   6.056   3.668
 1997TIP3   OH2 5954   5.640   4.685   2.657
 1997TIP3    H1 5955   5.682   4.613   2.610
 1997TIP3    H2 5956   5.707   4.716   2.718
 1998TIP3   OH2 5957   4.216   5.058   1.836
 1998TIP3    H1 5958   4.134   5.075   1.789
 1998TIP3    H2 5959   4.202   4.974   1.880
 1999TIP3   OH2 5960   5.155   6.833   2.305
 1999TIP3    H1 5961   5.249   6.814   2.310
 1999TIP3    H2 5962   5.128   6.798   2.220
 2000TIP3   OH2 5963   5.082   1.837   2.072
 2000TIP3    H1 5964   5.176   1.828   2.084
 2000TIP3    H2 5965   5.051   1.878   2.153
 2001TIP3   OH2 5966   5.302   5.307   5.390
 2001TIP3    H1 5967   5.287   5.217   5.416
 2001TIP3    H2 5968   5.384   5.331   5.434
 2002TIP3   OH2 5969   4.723   1.958   0.844
 2002TIP3    H1 5970   4.815   1.981   0.856
 2002TIP3    H2 5971   4.724   1.865   0.821
 2003TIP3   OH2 5972   6.281   6.354   2.037
 2003TIP3    H1 5973   6.361   6.350   1.985
 2003TIP3    H2 5974   6.218   6.399   1.981
 2004TIP3   OH2 5975   0.492   2.321   2.726
 2004TIP3    H1 5976   0.524   2.266   2.798
 2004TIP3    H2 5977   0.492   2.264   2.650
 2005TIP3   OH2 5978   7.113   2.113   3.238
 2005TIP3    H1 5979   7.061   2.096   3.159
 2005TIP3    H2 5980   7.103   2.034   3.291
 2006TIP3   OH2 5981   4.440   6.306   3.767
 2006TIP3    H1 5982   4.350   6.276   3.780
 2006TIP3    H2 5983   4.434   6.369   3.696
 2007TIP3   OH2 5984   4.987   0.497   5.407
 2007TIP3    H1 5985   5.022   0.488   5.496
 2007TIP3    H2 5986   5.005   0.588   5.383
 2008TIP3   OH2 5987   7.021   0.804   3.156
 2008TIP3    H1 5988   7.042   0.874   3.093
 2008TIP3    H2 5989   7.102   0.790   3.203
 2009TIP3   OH2 5990   3.345   2.097   3.921
 2009TIP3    H1 5991   3.258   2.057   3.929
 2009TIP3    H2 5992   3.377   2.101   4.011
 2010TIP3   OH2 5993   2.185   6.515   1.786
 2010TIP3    H1 5994   2.139   6.502   1.703
 2010TIP3    H2 5995   2.243   6.590   1.769
 2011TIP3   OH2 5996   3.508   0.931   0.161
 2011TIP3    H1 5997   3.583   0.982   0.192
 2011TIP3    H2 5998   3.545   0.871   0.096
 2012TIP3   OH2 5999   4.046   4.232   5.312
 2012TIP3    H1 6000   4.100   4.217   5.390
 2012TIP3    H2 6001   4.101   4.285   5.254
 2013TIP3   OH2 6002   0.265   3.166   1.497
 2013TIP3    H1 6003   0.308   3.179   1.413
 2013TIP3    H2 6004   0.243   3.073   1.499
 2014TIP3   OH2 6005   4.068   4.772   4.785
 2014TIP3    H1 6006   4.119   4.814   4.854
 2014TIP3    H2 6007   4.081   4.678   4.799
 2015TIP3   OH2 6008   2.863   5.110   5.231
 2015TIP3    H1 6009   2.843   5.023   5.196
 2015TIP3    H2 6010   2.956   5.122   5.213
 2016TIP3   OH2 6011   3.455   5.994   2.598
 2016TIP3    H1 6012   3.396   6.059   2.560
 2016TIP3    H2 6013   3.512   5.968   2.526
 2017TIP3   OH2 6014   5.072   3.320   4.901
 2017TIP3    H1 6015   5.149   3.372   4.924
 2017TIP3    H2 6016   5.014   3.330   4.976
 2018TIP3   OH2 6017   3.587   3.915   3.157
 2018TIP3    H1 6018   3.573   3.924   3.252
 2018TIP3    H2 6019   3.536   3.985   3.118
 2019TIP3   OH2 6020   5.248   1.785   2.964
 2019TIP3    H1 6021   5.176   1.844   2.944
 2019TIP3    H2 6022   5.325   1.842   2.970
 2020TIP3   OH2 6023   2.492   0.871   2.720
 2020TIP3    H1 6024   2.575   0.899   2.757
 2020TIP3    H2 6025   2.480   0.782   2.752
 2021TIP3   OH2 6026   4.647   1.263   0.638
 2021TIP3    H1 6027   4.720   1.307   0.682
 2021TIP3    H2 6028   4.578   1.260   0.704
 2022TIP3   OH2 6029   7.065   5.565   4.784
 2022TIP3    H1 6030   7.044   5.597   4.872
 2022TIP3    H2 6031   7.054   5.470   4.790
 2023TIP3   OH2 6032   3.352   6.732   4.111
 2023TIP3    H1 6033   3.429   6.680   4.091
 2023TIP3    H2 6034   3.327   6.705   4.199
 2024TIP3   OH2 6035   2.460   6.399   0.229
 2024TIP3    H1 6036   2.436   6.308   0.208
 2024TIP3    H2 6037   2.377   6.446   0.226
 2025TIP3   OH2 6038   3.161   0.605   5.520
 2025TIP3    H1 6039   3.179   0.564   5.605
 2025TIP3    H2 6040   3.068   0.625   5.522
 2026TIP3   OH2 6041   5.825   3.670   0.153
 2026TIP3    H1 6042   5.807   3.742   0.092
 2026TIP3    H2 6043   5.742   3.623   0.160
 2027TIP3   OH2 6044   5.515   4.120   4.994
 2027TIP3    H1 6045   5.480   4.036   5.023
 2027TIP3    H2 6046   5.608   4.103   4.978
 2028TIP3   OH2 6047   4.779   4.102   4.012
 2028TIP3    H1 6048   4.825   4.186   4.013
 2028TIP3    H2 6049   4.774   4.078   3.919
 2029TIP3   OH2 6050   6.126   1.435   5.762
 2029TIP3    H1 6051   6.132   1.341   5.743
 2029TIP3    H2 6052   6.215   1.461   5.784
 2030TIP3   OH2 6053   6.979   2.033   0.541
 2030TIP3    H1 6054   7.035   1.982   0.599
 2030TIP3    H2 6055   7.031   2.043   0.461
 2031TIP3   OH2 6056   5.999   3.439   5.264
 2031TIP3    H1 6057   6.012   3.351   5.299
 2031TIP3    H2 6058   5.932   3.478   5.322
 2032TIP3   OH2 6059   0.966   6.009   5.292
 2032TIP3    H1 6060   0.909   6.077   5.254
 2032TIP3    H2 6061   0.975   5.944   5.222
 2033TIP3   OH2 6062   5.725   4.159   0.261
 2033TIP3    H1 6063   5.713   4.242   0.307
 2033TIP3    H2 6064   5.793   4.114   0.312
 2034TIP3   OH2 6065   4.062   2.121   5.477
 2034TIP3    H1 6066   4.108   2.038   5.483
 2034TIP3    H2 6067   4.120   2.179   5.428
 2035TIP3   OH2 6068   6.622   3.911   1.447
 2035TIP3    H1 6069   6.680   3.982   1.473
 2035TIP3    H2 6070   6.647   3.838   1.504
 2036TIP3   OH2 6071   1.437   0.393   4.239
 2036TIP3    H1 6072   1.455   0.432   4.153
 2036TIP3    H2 6073   1.389   0.461   4.286
 2037TIP3   OH2 6074   3.137   6.238   5.262
 2037TIP3    H1 6075   3.220   6.211   5.302
 2037TIP3    H2 6076   3.083   6.264   5.336
 2038TIP3   OH2 6077   7.225   4.443   2.864
 2038TIP3    H1 6078   7.215   4.375   2.931
 2038TIP3    H2 6079   7.155   4.506   2.884
 2039TIP3   OH2 6080   6.010   0.723   2.566
 2039TIP3    H1 6081   6.095   0.700   2.529
 2039TIP3    H2 6082   5.964   0.639   2.576
 2040TIP3   OH2 6083   1.054   6.616   2.424
 2040TIP3    H1 6084   1.090   6.537   2.464
 2040TIP3    H2 6085   0.967   6.625   2.463
 2041TIP3   OH2 6086   1.999   1.805   3.573
 2041TIP3    H1 6087   1.932   1.743   3.544
 2041TIP3    H2 6088   2.079   1.752   3.579
 2042TIP3   OH2 6089   2.084   3.525   0.594
 2042TIP3    H1 6090   2.071   3.469   0.517
 2042TIP3    H2 6091   2.077   3.465   0.668
 2043TIP3   OH2 6092   4.630   1.826   5.218
 2043TIP3    H1 6093   4.629   1.807   5.124
 2043TIP3    H2 6094   4.605   1.743   5.259
 2044TIP3   OH2 6095   6.551   5.134   4.515
 2044TIP3    H1 6096   6.490   5.068   4.483
 2044TIP3    H2 6097   6.546   5.204   4.450
 2045TIP3   OH2 6098   6.192   4.544   4.785
 2045TIP3    H1 6099   6.204   4.588   4.869
 2045TIP3    H2 6100   6.240   4.462   4.793
 2046TIP3   OH2 6101   3.413   2.985   4.537
 2046TIP3    H1 6102   3.414   2.902   4.585
 2046TIP3    H2 6103   3.425   3.052   4.604
 2047TIP3   OH2 6104   5.721   3.804   0.408
 2047TIP3    H1 6105   5.803   3.796   0.359
 2047TIP3    H2 6106   5.674   3.723   0.391
 2048TIP3   OH2 6107   3.739   2.539   1.606
 2048TIP3    H1 6108   3.796   2.567   1.678
 2048TIP3    H2 6109   3.789   2.470   1.562
 2049TIP3   OH2 6110   1.549   0.711   3.340
 2049TIP3    H1 6111   1.539   0.628   3.292
 2049TIP3    H2 6112   1.573   0.775   3.274
 2050TIP3   OH2 6113   6.029   2.385   3.633
 2050TIP3    H1 6114   5.944   2.396   3.677
 2050TIP3    H2 6115   6.085   2.343   3.698
 2051TIP3   OH2 6116   6.151   5.875   5.865
 2051TIP3    H1 6117   6.210   5.950   5.863
 2051TIP3    H2 6118   6.135   5.854   5.773
 2052TIP3   OH2 6119   6.427   3.680   2.939
 2052TIP3    H1 6120   6.453   3.747   2.876
 2052TIP3    H2 6121   6.390   3.729   3.012
 2053TIP3   OH2 6122   5.736   5.563   1.422
 2053TIP3    H1 6123   5.713   5.471   1.413
 2053TIP3    H2 6124   5.652   5.608   1.436
 2054TIP3   OH2 6125   5.234   3.323   3.379
 2054TIP3    H1 6126   5.245   3.394   3.442
 2054TIP3    H2 6127   5.178   3.360   3.311
 2055TIP3   OH2 6128   2.903   4.977   1.255
 2055TIP3    H1 6129   2.870   4.937   1.336
 2055TIP3    H2 6130   2.906   4.905   1.192
 2056TIP3   OH2 6131   5.484   4.341   1.343
 2056TIP3    H1 6132   5.527   4.378   1.420
 2056TIP3    H2 6133   5.473   4.248   1.364
 2057TIP3   OH2 6134   5.451   4.624   2.451
 2057TIP3    H1 6135   5.408   4.710   2.453
 2057TIP3    H2 6136   5.509   4.625   2.527
 2058TIP3   OH2 6137   4.905   0.337   4.574
 2058TIP3    H1 6138   4.981   0.279   4.573
 2058TIP3    H2 6139   4.927   0.406   4.510
 2059TIP3   OH2 6140   0.592   6.356   5.820
 2059TIP3    H1 6141   0.564   6.444   5.847
 2059TIP3    H2 6142   0.653   6.329   5.888
 2060TIP3   OH2 6143   6.287   0.417   1.925
 2060TIP3    H1 6144   6.369   0.400   1.971
 2060TIP3    H2 6145   6.314   0.455   1.842
 2061TIP3   OH2 6146   6.686   1.526   5.456
 2061TIP3    H1 6147   6.662   1.538   5.365
 2061TIP3    H2 6148   6.658   1.607   5.499
 2062TIP3   OH2 6149   3.380   3.230   0.073
 2062TIP3    H1 6150   3.290   3.244   0.101
 2062TIP3    H2 6151   3.417   3.169   0.137
 2063TIP3   OH2 6152   6.524   1.190   1.387
 2063TIP3    H1 6153   6.448   1.244   1.412
 2063TIP3    H2 6154   6.485   1.109   1.356
 2064TIP3   OH2 6155   1.927   2.594   0.387
 2064TIP3    H1 6156   1.849   2.638   0.354
 2064TIP3    H2 6157   1.996   2.660   0.381
 2065TIP3   OH2 6158   6.819   5.730   1.201
 2065TIP3    H1 6159   6.862   5.689   1.276
 2065TIP3    H2 6160   6.727   5.704   1.209
 2066TIP3   OH2 6161   6.406   4.097   3.991
 2066TIP3    H1 6162   6.425   4.187   3.963
 2066TIP3    H2 6163   6.352   4.108   4.069
 2067TIP3   OH2 6164  -0.024   1.269   5.166
 2067TIP3    H1 6165  -0.004   1.197   5.106
 2067TIP3    H2 6166   0.060   1.295   5.202
 2068TIP3   OH2 6167   5.516   0.563   2.781
 2068TIP3    H1 6168   5.611   0.567   2.772
 2068TIP3    H2 6169   5.492   0.478   2.743
 2069TIP3   OH2 6170   1.507   4.563   5.477
 2069TIP3    H1 6171   1.516   4.496   5.409
 2069TIP3    H2 6172   1.556   4.527   5.552
 2070TIP3   OH2 6173   1.176   2.532   1.943
 2070TIP3    H1 6174   1.173   2.628   1.942
 2070TIP3    H2 6175   1.113   2.506   1.875
 2071TIP3   OH2 6176   6.474  -0.040   1.816
 2071TIP3    H1 6177   6.454   0.052   1.835
 2071TIP3    H2 6178   6.406  -0.067   1.754
 2072TIP3   OH2 6179   6.300   6.155   3.255
 2072TIP3    H1 6180   6.250   6.090   3.205
 2072TIP3    H2 6181   6.314   6.114   3.341
 2073TIP3   OH2 6182   1.651   2.135   1.950
 2073TIP3    H1 6183   1.637   2.217   1.903
 2073TIP3    H2 6184   1.710   2.084   1.894
 2074TIP3   OH2 6185   5.884   1.002   5.749
 2074TIP3    H1 6186   5.886   0.999   5.654
 2074TIP3    H2 6187   5.886   1.095   5.771
 2075TIP3   OH2 6188   6.425   2.151   1.056
 2075TIP3    H1 6189   6.437   2.169   1.149
 2075TIP3    H2 6190   6.509   2.171   1.016
 2076TIP3   OH2 6191   7.022   3.911   4.097
 2076TIP3    H1 6192   6.969   3.966   4.156
 2076TIP3    H2 6193   7.107   3.906   4.139
 2077TIP3   OH2 6194   5.288   2.110   0.359
 2077TIP3    H1 6195   5.249   2.163   0.289
 2077TIP3    H2 6196   5.293   2.169   0.434
 2078TIP3   OH2 6197   0.461   1.916   0.141
 2078TIP3    H1 6198   0.411   1.881   0.215
 2078TIP3    H2 6199   0.411   1.890   0.063
 2079TIP3   OH2 6200   5.033   4.223   2.011
 2079TIP3    H1 6201   5.112   4.276   2.018
 2079TIP3    H2 6202   4.981   4.267   1.944
 2080TIP3   OH2 6203   5.351   6.122   2.972
 2080TIP3    H1 6204   5.279   6.092   3.027
 2080TIP3    H2 6205   5.322   6.105   2.883
 2081TIP3   OH2 6206   2.898   5.633   2.045
 2081TIP3    H1 6207   2.899   5.719   2.002
 2081TIP3    H2 6208   2.825   5.638   2.106
 2082TIP3   OH2 6209   2.267   5.039   3.598
 2082TIP3    H1 6210   2.224   4.977   3.539
 2082TIP3    H2 6211   2.323   4.984   3.653
 2083TIP3   OH2 6212   5.798   0.386   0.765
 2083TIP3    H1 6213   5.797   0.305   0.816
 2083TIP3    H2 6214   5.713   0.426   0.782
 2084TIP3   OH2 6215   3.713   1.033   4.480
 2084TIP3    H1 6216   3.733   1.126   4.473
 2084TIP3    H2 6217   3.617   1.029   4.473
 2085TIP3   OH2 6218   0.647   3.499   1.353
 2085TIP3    H1 6219   0.692   3.476   1.434
 2085TIP3    H2 6220   0.717   3.508   1.288
 2086TIP3   OH2 6221   1.373   1.317   5.753
 2086TIP3    H1 6222   1.331   1.294   5.670
 2086TIP3    H2 6223   1.452   1.365   5.727
 2087TIP3   OH2 6224   3.755   0.329   5.621
 2087TIP3    H1 6225   3.696   0.301   5.691
 2087TIP3    H2 6226   3.842   0.328   5.660
 2088TIP3   OH2 6227   2.101   3.272   3.424
 2088TIP3    H1 6228   2.171   3.313   3.476
 2088TIP3    H2 6229   2.118   3.178   3.430
 2089TIP3   OH2 6230   0.256   6.404   1.407
 2089TIP3    H1 6231   0.281   6.496   1.404
 2089TIP3    H2 6232   0.315   6.365   1.471
 2090TIP3   OH2 6233   3.538   6.024   1.178
 2090TIP3    H1 6234   3.553   5.985   1.092
 2090TIP3    H2 6235   3.597   6.099   1.181
 2091TIP3   OH2 6236   5.901   4.928   1.527
 2091TIP3    H1 6237   5.849   4.986   1.584
 2091TIP3    H2 6238   5.939   4.864   1.587
 2092TIP3   OH2 6239   3.800   1.798   1.174
 2092TIP3    H1 6240   3.711   1.809   1.209
 2092TIP3    H2 6241   3.851   1.763   1.247
 2093TIP3   OH2 6242   0.929   3.753   1.324
 2093TIP3    H1 6243   0.852   3.739   1.269
 2093TIP3    H2 6244   0.960   3.664   1.345
 2094TIP3   OH2 6245   7.135   1.901   2.107
 2094TIP3    H1 6246   7.174   1.988   2.109
 2094TIP3    H2 6247   7.198   1.845   2.153
 2095TIP3   OH2 6248   1.824   5.537   0.946
 2095TIP3    H1 6249   1.840   5.590   0.868
 2095TIP3    H2 6250   1.729   5.523   0.945
 2096TIP3   OH2 6251   5.291   2.908   1.388
 2096TIP3    H1 6252   5.268   2.825   1.345
 2096TIP3    H2 6253   5.385   2.902   1.401
 2097TIP3   OH2 6254   4.664   0.898   4.156
 2097TIP3    H1 6255   4.700   0.810   4.143
 2097TIP3    H2 6256   4.718   0.936   4.226
 2098TIP3   OH2 6257   1.734   3.795   1.992
 2098TIP3    H1 6258   1.792   3.721   1.976
 2098TIP3    H2 6259   1.666   3.787   1.925
 2099TIP3   OH2 6260   3.508   0.107   0.817
 2099TIP3    H1 6261   3.456   0.070   0.888
 2099TIP3    H2 6262   3.466   0.190   0.797
 2100TIP3   OH2 6263   3.801   1.134   0.650
 2100TIP3    H1 6264   3.782   1.058   0.596
 2100TIP3    H2 6265   3.894   1.151   0.637
 2101TIP3   OH2 6266   1.812   3.763   2.288
 2101TIP3    H1 6267   1.753   3.764   2.213
 2101TIP3    H2 6268   1.880   3.827   2.266
 2102TIP3   OH2 6269   1.158   0.556   1.618
 2102TIP3    H1 6270   1.133   0.645   1.594
 2102TIP3    H2 6271   1.111   0.500   1.556
 2103TIP3   OH2 6272   0.055   3.458   4.847
 2103TIP3    H1 6273   0.110   3.505   4.910
 2103TIP3    H2 6274   0.014   3.389   4.899
 2104TIP3   OH2 6275   6.450   1.763   0.909
 2104TIP3    H1 6276   6.410   1.678   0.929
 2104TIP3    H2 6277   6.435   1.773   0.815
 2105TIP3   OH2 6278   0.903   5.331   2.285
 2105TIP3    H1 6279   0.966   5.403   2.282
 2105TIP3    H2 6280   0.829   5.366   2.334
 2106TIP3   OH2 6281   0.904   1.400   4.181
 2106TIP3    H1 6282   0.857   1.400   4.097
 2106TIP3    H2 6283   0.844   1.445   4.241
 2107TIP3   OH2 6284   1.968   5.798   1.781
 2107TIP3    H1 6285   1.999   5.810   1.871
 2107TIP3    H2 6286   2.019   5.725   1.747
 2108TIP3   OH2 6287   3.681   3.464   0.979
 2108TIP3    H1 6288   3.640   3.533   0.928
 2108TIP3    H2 6289   3.625   3.387   0.966
 2109TIP3   OH2 6290   1.828   3.971   4.494
 2109TIP3    H1 6291   1.872   3.988   4.577
 2109TIP3    H2 6292   1.743   3.936   4.519
 2110TIP3   OH2 6293   4.255   5.394   0.149
 2110TIP3    H1 6294   4.338   5.366   0.187
 2110TIP3    H2 6295   4.280   5.452   0.077
 2111TIP3   OH2 6296   3.035   2.155   2.863
 2111TIP3    H1 6297   3.090   2.208   2.921
 2111TIP3    H2 6298   3.077   2.161   2.777
 2112TIP3   OH2 6299   2.932   4.276   5.683
 2112TIP3    H1 6300   2.994   4.300   5.614
 2112TIP3    H2 6301   2.915   4.183   5.669
 2113TIP3   OH2 6302   1.311   4.728   0.504
 2113TIP3    H1 6303   1.405   4.710   0.505
 2113TIP3    H2 6304   1.270   4.642   0.512
 2114TIP3   OH2 6305   4.469   2.626   0.910
 2114TIP3    H1 6306   4.456   2.593   0.999
 2114TIP3    H2 6307   4.495   2.549   0.859
 2115TIP3   OH2 6308   1.372   2.012   1.562
 2115TIP3    H1 6309   1.336   2.070   1.630
 2115TIP3    H2 6310   1.379   1.927   1.605
 2116TIP3   OH2 6311   1.010   2.564   2.919
 2116TIP3    H1 6312   1.059   2.510   2.858
 2116TIP3    H2 6313   1.076   2.620   2.960
 2117TIP3   OH2 6314   3.634   1.235   1.018
 2117TIP3    H1 6315   3.641   1.327   1.043
 2117TIP3    H2 6316   3.569   1.199   1.079
 2118TIP3   OH2 6317   3.216   4.498   2.696
 2118TIP3    H1 6318   3.145   4.482   2.758
 2118TIP3    H2 6319   3.278   4.552   2.745
 2119TIP3   OH2 6320   6.429   6.403   0.670
 2119TIP3    H1 6321   6.509   6.380   0.719
 2119TIP3    H2 6322   6.360   6.404   0.736
 2120TIP3   OH2 6323   3.197   3.553   3.895
 2120TIP3    H1 6324   3.161   3.569   3.808
 2120TIP3    H2 6325   3.121   3.529   3.948
 2121TIP3   OH2 6326   5.614   5.951   5.411
 2121TIP3    H1 6327   5.575   5.938   5.325
 2121TIP3    H2 6328   5.544   5.928   5.472
 2122TIP3   OH2 6329   3.187   4.375   0.347
 2122TIP3    H1 6330   3.171   4.281   0.336
 2122TIP3    H2 6331   3.194   4.408   0.257
 2123TIP3   OH2 6332   2.112   3.551   0.933
 2123TIP3    H1 6333   2.179   3.585   0.873
 2123TIP3    H2 6334   2.031   3.592   0.903
 2124TIP3   OH2 6335   4.651   1.337   1.686
 2124TIP3    H1 6336   4.657   1.429   1.661
 2124TIP3    H2 6337   4.741   1.312   1.707
 2125TIP3   OH2 6338   4.161   1.159   2.585
 2125TIP3    H1 6339   4.206   1.138   2.503
 2125TIP3    H2 6340   4.077   1.115   2.579
 2126TIP3   OH2 6341   2.523   5.514   1.150
 2126TIP3    H1 6342   2.541   5.421   1.138
 2126TIP3    H2 6343   2.449   5.532   1.091
 2127TIP3   OH2 6344   3.483   4.863   2.237
 2127TIP3    H1 6345   3.390   4.844   2.219
 2127TIP3    H2 6346   3.510   4.796   2.299
 2128TIP3   OH2 6347   5.590   0.092   5.115
 2128TIP3    H1 6348   5.613   0.029   5.183
 2128TIP3    H2 6349   5.640   0.063   5.038
 2129TIP3   OH2 6350   2.060   5.447   5.500
 2129TIP3    H1 6351   2.148   5.485   5.493
 2129TIP3    H2 6352   2.074   5.353   5.487
 2130TIP3   OH2 6353   0.774   3.382   5.936
 2130TIP3    H1 6354   0.822   3.431   5.869
 2130TIP3    H2 6355   0.694   3.354   5.893
 2131TIP3   OH2 6356   3.155   0.559   1.302
 2131TIP3    H1 6357   3.150   0.573   1.396
 2131TIP3    H2 6358   3.230   0.612   1.274
 2132TIP3   OH2 6359   5.923   1.426   4.675
 2132TIP3    H1 6360   5.915   1.334   4.701
 2132TIP3    H2 6361   5.998   1.459   4.725
 2133TIP3   OH2 6362   2.883   1.666   5.813
 2133TIP3    H1 6363   2.942   1.647   5.885
 2133TIP3    H2 6364   2.801   1.694   5.855
 2134TIP3   OH2 6365   0.224   0.670   1.286
 2134TIP3    H1 6366   0.194   0.700   1.200
 2134TIP3    H2 6367   0.148   0.628   1.325
 2135TIP3   OH2 6368   7.076   2.269   2.689
 2135TIP3    H1 6369   7.089   2.226   2.773
 2135TIP3    H2 6370   6.993   2.232   2.656
 2136TIP3   OH2 6371   1.906   1.041   5.049
 2136TIP3    H1 6372   1.839   1.110   5.045
 2136TIP3    H2 6373   1.897   1.004   5.137
 2137TIP3   OH2 6374   1.039   5.937   3.926
 2137TIP3    H1 6375   1.053   6.020   3.973
 2137TIP3    H2 6376   1.119   5.887   3.941
 2138TIP3   OH2 6377   0.668   4.409   0.972
 2138TIP3    H1 6378   0.659   4.502   0.953
 2138TIP3    H2 6379   0.625   4.397   1.056
 2139TIP3   OH2 6380   4.349   0.652   5.211
 2139TIP3    H1 6381   4.303   0.645   5.294
 2139TIP3    H2 6382   4.280   0.653   5.145
 2140TIP3   OH2 6383   2.889   2.721   4.029
 2140TIP3    H1 6384   2.866   2.660   4.098
 2140TIP3    H2 6385   2.826   2.705   3.960
 2141TIP3   OH2 6386   6.396   5.607   1.715
 2141TIP3    H1 6387   6.425   5.642   1.631
 2141TIP3    H2 6388   6.365   5.519   1.695
 2142TIP3   OH2 6389   3.624   5.975   2.815
 2142TIP3    H1 6390   3.564   5.955   2.743
 2142TIP3    H2 6391   3.568   6.013   2.883
 2143TIP3   OH2 6392   6.997   0.406   4.816
 2143TIP3    H1 6393   6.949   0.437   4.739
 2143TIP3    H2 6394   7.014   0.485   4.867
 2144TIP3   OH2 6395   7.153   2.080   4.288
 2144TIP3    H1 6396   7.237   2.033   4.283
 2144TIP3    H2 6397   7.178   2.173   4.291
 2145TIP3   OH2 6398   6.465   2.239   0.071
 2145TIP3    H1 6399   6.448   2.158   0.022
 2145TIP3    H2 6400   6.378   2.273   0.091
 2146TIP3   OH2 6401   6.038   3.552   2.125
 2146TIP3    H1 6402   6.072   3.541   2.214
 2146TIP3    H2 6403   5.950   3.588   2.137
 2147TIP3   OH2 6404   4.184   1.588   5.095
 2147TIP3    H1 6405   4.179   1.664   5.037
 2147TIP3    H2 6406   4.148   1.516   5.043
 2148TIP3   OH2 6407   6.804   0.248   3.243
 2148TIP3    H1 6408   6.848   0.260   3.327
 2148TIP3    H2 6409   6.762   0.332   3.225
 2149TIP3   OH2 6410   0.430   6.674   3.024
 2149TIP3    H1 6411   0.454   6.748   2.969
 2149TIP3    H2 6412   0.415   6.712   3.110
 2150TIP3   OH2 6413   7.216   2.213   5.481
 2150TIP3    H1 6414   7.267   2.259   5.547
 2150TIP3    H2 6415   7.215   2.273   5.406
 2151TIP3   OH2 6416   0.530   5.781   0.151
 2151TIP3    H1 6417   0.527   5.756   0.059
 2151TIP3    H2 6418   0.517   5.876   0.151
 2152TIP3   OH2 6419   6.252   2.094   2.454
 2152TIP3    H1 6420   6.323   2.146   2.490
 2152TIP3    H2 6421   6.282   2.004   2.460
 2153TIP3   OH2 6422   2.983   5.694   3.653
 2153TIP3    H1 6423   2.959   5.765   3.593
 2153TIP3    H2 6424   3.071   5.670   3.627
 2154TIP3   OH2 6425   6.636   5.101   3.346
 2154TIP3    H1 6426   6.564   5.124   3.405
 2154TIP3    H2 6427   6.598   5.105   3.258
 2155TIP3   OH2 6428   4.071   3.744   0.483
 2155TIP3    H1 6429   4.005   3.728   0.414
 2155TIP3    H2 6430   4.022   3.735   0.565
 2156TIP3   OH2 6431   3.543   2.478   3.910
 2156TIP3    H1 6432   3.458   2.481   3.864
 2156TIP3    H2 6433   3.601   2.436   3.847
 2157TIP3   OH2 6434   3.243   1.423   4.637
 2157TIP3    H1 6435   3.181   1.379   4.695
 2157TIP3    H2 6436   3.213   1.514   4.635
 2158TIP3   OH2 6437   3.523   6.582   5.044
 2158TIP3    H1 6438   3.600   6.634   5.022
 2158TIP3    H2 6439   3.542   6.548   5.132
 2159TIP3   OH2 6440   1.687   5.599   2.354
 2159TIP3    H1 6441   1.727   5.681   2.326
 2159TIP3    H2 6442   1.757   5.534   2.344
 2160TIP3   OH2 6443   3.008   2.356   3.742
 2160TIP3    H1 6444   3.001   2.419   3.670
 2160TIP3    H2 6445   3.000   2.410   3.821
 2161TIP3   OH2 6446   3.022   1.725   3.004
 2161TIP3    H1 6447   2.955   1.724   2.936
 2161TIP3    H2 6448   3.101   1.696   2.960
 2162TIP3   OH2 6449   2.302   4.748   0.649
 2162TIP3    H1 6450   2.289   4.815   0.581
 2162TIP3    H2 6451   2.362   4.789   0.711
 2163TIP3   OH2 6452   5.067   2.250   4.197
 2163TIP3    H1 6453   4.994   2.188   4.196
 2163TIP3    H2 6454   5.069   2.284   4.286
 2164TIP3   OH2 6455   5.820   6.554   1.964
 2164TIP3    H1 6456   5.891   6.617   1.950
 2164TIP3    H2 6457   5.772   6.553   1.881
 2165TIP3   OH2 6458   2.432   6.218   5.088
 2165TIP3    H1 6459   2.489   6.184   5.157
 2165TIP3    H2 6460   2.461   6.174   5.009
 2166TIP3   OH2 6461   0.645   0.919   5.495
 2166TIP3    H1 6462   0.690   1.003   5.492
 2166TIP3    H2 6463   0.584   0.920   5.421
 2167TIP3   OH2 6464   0.470   5.346   1.527
 2167TIP3    H1 6465   0.527   5.268   1.529
 2167TIP3    H2 6466   0.442   5.352   1.436
 2168TIP3   OH2 6467   5.859   4.362   0.876
 2168TIP3    H1 6468   5.923   4.345   0.807
 2168TIP3    H2 6469   5.881   4.449   0.909
 2169TIP3   OH2 6470   2.829   5.526   5.497
 2169TIP3    H1 6471   2.749   5.574   5.515
 2169TIP3    H2 6472   2.866   5.569   5.420
 2170TIP3   OH2 6473   6.097   2.742   0.409
 2170TIP3    H1 6474   6.058   2.690   0.339
 2170TIP3    H2 6475   6.142   2.814   0.364
 2171TIP3   OH2 6476   2.707   3.264   1.437
 2171TIP3    H1 6477   2.798   3.261   1.469
 2171TIP3    H2 6478   2.658   3.302   1.510
 2172TIP3   OH2 6479   0.356   5.057   4.120
 2172TIP3    H1 6480   0.395   5.143   4.105
 2172TIP3    H2 6481   0.281   5.054   4.060
 2173TIP3   OH2 6482   5.606   0.379   4.204
 2173TIP3    H1 6483   5.611   0.329   4.285
 2173TIP3    H2 6484   5.688   0.361   4.159
 2174TIP3   OH2 6485   5.095   2.871   3.691
 2174TIP3    H1 6486   5.154   2.886   3.617
 2174TIP3    H2 6487   5.152   2.866   3.767
 2175TIP3   OH2 6488   2.675   0.294   1.653
 2175TIP3    H1 6489   2.617   0.264   1.583
 2175TIP3    H2 6490   2.763   0.275   1.620
 2176TIP3   OH2 6491   5.382   4.401   3.416
 2176TIP3    H1 6492   5.354   4.459   3.345
 2176TIP3    H2 6493   5.465   4.438   3.445
 2177TIP3   OH2 6494   6.226   6.645   2.546
 2177TIP3    H1 6495   6.243   6.552   2.534
 2177TIP3    H2 6496   6.272   6.687   2.473
 2178TIP3   OH2 6497   5.015   3.171   0.497
 2178TIP3    H1 6498   5.036   3.257   0.534
 2178TIP3    H2 6499   5.084   3.114   0.529
 2179TIP3   OH2 6500   6.328   4.314   4.804
 2179TIP3    H1 6501   6.285   4.229   4.795
 2179TIP3    H2 6502   6.422   4.294   4.801
 2180TIP3   OH2 6503   5.124   0.887   2.405
 2180TIP3    H1 6504   5.155   0.974   2.429
 2180TIP3    H2 6505   5.144   0.832   2.480
 2181TIP3   OH2 6506   2.319   2.919   2.037
 2181TIP3    H1 6507   2.270   2.909   2.119
 2181TIP3    H2 6508   2.330   2.829   2.005
 2182TIP3   OH2 6509   0.302   5.917   5.686
 2182TIP3    H1 6510   0.329   5.832   5.720
 2182TIP3    H2 6511   0.367   5.979   5.720
 2183TIP3   OH2 6512   5.776   2.322   3.370
 2183TIP3    H1 6513   5.752   2.410   3.399
 2183TIP3    H2 6514   5.868   2.312   3.396
 2184TIP3   OH2 6515   6.765   4.171   4.589
 2184TIP3    H1 6516   6.703   4.103   4.561
 2184TIP3    H2 6517   6.722   4.253   4.566
 2185TIP3   OH2 6518   4.913   3.462   1.664
 2185TIP3    H1 6519   4.950   3.376   1.685
 2185TIP3    H2 6520   4.866   3.488   1.744
 2186TIP3   OH2 6521   2.507   6.354   2.147
 2186TIP3    H1 6522   2.558   6.299   2.086
 2186TIP3    H2 6523   2.422   6.310   2.153
 2187TIP3   OH2 6524   4.039   5.880   4.581
 2187TIP3    H1 6525   4.043   5.966   4.538
 2187TIP3    H2 6526   4.122   5.872   4.627
 2188TIP3   OH2 6527   3.209   0.159   0.774
 2188TIP3    H1 6528   3.250   0.124   0.853
 2188TIP3    H2 6529   3.190   0.082   0.721
 2189TIP3   OH2 6530   4.327   3.182   2.416
 2189TIP3    H1 6531   4.356   3.254   2.360
 2189TIP3    H2 6532   4.325   3.219   2.504
 2190TIP3   OH2 6533   3.269   0.495   3.623
 2190TIP3    H1 6534   3.337   0.498   3.691
 2190TIP3    H2 6535   3.298   0.558   3.558
 2191TIP3   OH2 6536   1.383   3.320   4.318
 2191TIP3    H1 6537   1.473   3.302   4.346
 2191TIP3    H2 6538   1.347   3.234   4.296
 2192TIP3   OH2 6539   4.674   6.800   1.524
 2192TIP3    H1 6540   4.734   6.839   1.587
 2192TIP3    H2 6541   4.689   6.706   1.532
 2193TIP3   OH2 6542   0.273   1.410   1.137
 2193TIP3    H1 6543   0.281   1.414   1.041
 2193TIP3    H2 6544   0.303   1.321   1.159
 2194TIP3   OH2 6545   1.009   0.402   4.478
 2194TIP3    H1 6546   1.082   0.351   4.514
 2194TIP3    H2 6547   0.931   0.351   4.497
 2195TIP3   OH2 6548   6.343   6.667   4.606
 2195TIP3    H1 6549   6.427   6.701   4.574
 2195TIP3    H2 6550   6.320   6.723   4.680
 2196TIP3   OH2 6551   0.671   3.075   3.306
 2196TIP3    H1 6552   0.598   3.067   3.245
 2196TIP3    H2 6553   0.739   3.120   3.256
 2197TIP3   OH2 6554   1.541   5.526   0.174
 2197TIP3    H1 6555   1.601   5.584   0.127
 2197TIP3    H2 6556   1.549   5.442   0.130
 2198TIP3   OH2 6557   1.071   3.466   4.088
 2198TIP3    H1 6558   1.098   3.471   4.180
 2198TIP3    H2 6559   0.975   3.463   4.092
 2199TIP3   OH2 6560   5.683   5.797   0.349
 2199TIP3    H1 6561   5.751   5.748   0.394
 2199TIP3    H2 6562   5.727   5.878   0.320
 2200TIP3   OH2 6563   1.081   2.959   3.327
 2200TIP3    H1 6564   1.167   2.966   3.368
 2200TIP3    H2 6565   1.039   2.885   3.370
 2201TIP3   OH2 6566   7.055   0.958   2.264
 2201TIP3    H1 6567   7.088   1.041   2.297
 2201TIP3    H2 6568   6.961   0.959   2.283
 2202TIP3   OH2 6569   3.212   6.450   1.436
 2202TIP3    H1 6570   3.283   6.393   1.406
 2202TIP3    H2 6571   3.241   6.538   1.414
 2203TIP3   OH2 6572   0.778   5.392   0.976
 2203TIP3    H1 6573   0.775   5.460   0.910
 2203TIP3    H2 6574   0.753   5.312   0.930
 2204TIP3   OH2 6575   0.518   0.958   0.439
 2204TIP3    H1 6576   0.613   0.953   0.446
 2204TIP3    H2 6577   0.493   0.879   0.391
 2205TIP3   OH2 6578   4.347   0.419   2.639
 2205TIP3    H1 6579   4.441   0.410   2.621
 2205TIP3    H2 6580   4.314   0.329   2.634
 2206TIP3   OH2 6581   7.188   4.970   3.489
 2206TIP3    H1 6582   7.265   4.914   3.500
 2206TIP3    H2 6583   7.174   4.974   3.394
 2207TIP3   OH2 6584   1.453   2.831   3.109
 2207TIP3    H1 6585   1.536   2.798   3.143
 2207TIP3    H2 6586   1.473   2.858   3.020
 2208TIP3   OH2 6587   1.053   0.255   1.085
 2208TIP3    H1 6588   1.031   0.250   0.992
 2208TIP3    H2 6589   0.968   0.251   1.130
 2209TIP3   OH2 6590   4.393   0.376   3.266
 2209TIP3    H1 6591   4.370   0.384   3.173
 2209TIP3    H2 6592   4.361   0.290   3.292
 2210TIP3   OH2 6593   3.119   3.995   5.377
 2210TIP3    H1 6594   3.099   3.909   5.341
 2210TIP3    H2 6595   3.128   3.980   5.471
 2211TIP3   OH2 6596   3.087   6.067   2.801
 2211TIP3    H1 6597   3.048   6.030   2.880
 2211TIP3    H2 6598   3.024   6.133   2.771
 2212TIP3   OH2 6599   2.485   0.955   5.160
 2212TIP3    H1 6600   2.456   0.995   5.078
 2212TIP3    H2 6601   2.432   0.998   5.227
 2213TIP3   OH2 6602   1.669   0.339   0.177
 2213TIP3    H1 6603   1.621   0.405   0.125
 2213TIP3    H2 6604   1.717   0.391   0.242
 2214TIP3   OH2 6605   3.962   5.624   1.588
 2214TIP3    H1 6606   4.046   5.599   1.626
 2214TIP3    H2 6607   3.897   5.596   1.652
 2215TIP3   OH2 6608   5.121   3.261   4.428
 2215TIP3    H1 6609   5.119   3.169   4.400
 2215TIP3    H2 6610   5.214   3.282   4.431
 2216TIP3   OH2 6611   5.802   2.867   2.819
 2216TIP3    H1 6612   5.838   2.785   2.853
 2216TIP3    H2 6613   5.783   2.919   2.898
 2217TIP3   OH2 6614   4.162   5.035   5.759
 2217TIP3    H1 6615   4.128   4.946   5.743
 2217TIP3    H2 6616   4.117   5.064   5.838
 2218TIP3   OH2 6617   6.215   2.743   5.980
 2218TIP3    H1 6618   6.231   2.691   5.901
 2218TIP3    H2 6619   6.225   2.834   5.951
 2219TIP3   OH2 6620   4.812   2.536   2.433
 2219TIP3    H1 6621   4.828   2.486   2.513
 2219TIP3    H2 6622   4.726   2.576   2.447
 2220TIP3   OH2 6623   4.615   6.715   0.838
 2220TIP3    H1 6624   4.603   6.715   0.933
 2220TIP3    H2 6625   4.692   6.769   0.823
 2221TIP3   OH2 6626   5.076   3.686   4.904
 2221TIP3    H1 6627   5.166   3.662   4.884
 2221TIP3    H2 6628   5.036   3.701   4.818
 2222TIP3   OH2 6629   6.371   1.962   3.875
 2222TIP3    H1 6630   6.369   1.873   3.909
 2222TIP3    H2 6631   6.446   1.964   3.816
 2223TIP3   OH2 6632   6.332   1.898   1.175
 2223TIP3    H1 6633   6.369   1.825   1.125
 2223TIP3    H2 6634   6.370   1.976   1.136
 2224TIP3   OH2 6635   1.284   0.684   1.137
 2224TIP3    H1 6636   1.289   0.747   1.209
 2224TIP3    H2 6637   1.352   0.620   1.156
 2225TIP3   OH2 6638   3.305   3.676   1.970
 2225TIP3    H1 6639   3.212   3.692   1.990
 2225TIP3    H2 6640   3.349   3.691   2.054
 2226TIP3   OH2 6641   3.116   1.961   4.946
 2226TIP3    H1 6642   3.031   1.999   4.970
 2226TIP3    H2 6643   3.176   1.993   5.013
 2227TIP3   OH2 6644   1.987   6.290   2.885
 2227TIP3    H1 6645   1.949   6.203   2.893
 2227TIP3    H2 6646   1.941   6.343   2.950
 2228TIP3   OH2 6647   7.170   5.703   4.374
 2228TIP3    H1 6648   7.156   5.620   4.329
 2228TIP3    H2 6649   7.203   5.679   4.461
 2229TIP3   OH2 6650   7.046   6.086   0.596
 2229TIP3    H1 6651   7.005   6.069   0.512
 2229TIP3    H2 6652   7.085   6.173   0.587
 2230TIP3   OH2 6653   0.952   4.140   1.991
 2230TIP3    H1 6654   0.881   4.203   2.000
 2230TIP3    H2 6655   0.973   4.140   1.898
 2231TIP3   OH2 6656   2.345   0.061   1.288
 2231TIP3    H1 6657   2.392   0.054   1.205
 2231TIP3    H2 6658   2.283  -0.012   1.287
 2232TIP3   OH2 6659   2.208   1.006   3.735
 2232TIP3    H1 6660   2.234   1.091   3.771
 2232TIP3    H2 6661   2.141   1.026   3.671
 2233TIP3   OH2 6662   2.532   4.407   3.950
 2233TIP3    H1 6663   2.551   4.490   3.906
 2233TIP3    H2 6664   2.615   4.382   3.990
 2234TIP3   OH2 6665   2.810   6.600   5.296
 2234TIP3    H1 6666   2.754   6.530   5.331
 2234TIP3    H2 6667   2.766   6.681   5.321
 2235TIP3   OH2 6668   6.776   5.012   2.855
 2235TIP3    H1 6669   6.733   5.095   2.878
 2235TIP3    H2 6670   6.766   5.006   2.760
 2236TIP3   OH2 6671   3.996   0.667   2.986
 2236TIP3    H1 6672   4.056   0.616   2.931
 2236TIP3    H2 6673   3.919   0.681   2.931
 2237TIP3   OH2 6674   4.974   4.638   0.258
 2237TIP3    H1 6675   5.066   4.622   0.238
 2237TIP3    H2 6676   4.971   4.729   0.289
 2238TIP3   OH2 6677   2.742   0.435   3.615
 2238TIP3    H1 6678   2.762   0.506   3.554
 2238TIP3    H2 6679   2.813   0.438   3.680
 2239TIP3   OH2 6680   4.582   6.106   0.282
 2239TIP3    H1 6681   4.610   6.173   0.344
 2239TIP3    H2 6682   4.523   6.050   0.333
 2240TIP3   OH2 6683   5.869   1.513   4.043
 2240TIP3    H1 6684   5.903   1.599   4.069
 2240TIP3    H2 6685   5.826   1.479   4.122
 2241TIP3   OH2 6686   6.060   1.890   1.546
 2241TIP3    H1 6687   6.022   1.917   1.630
 2241TIP3    H2 6688   6.090   1.800   1.561
 2242TIP3   OH2 6689   4.290   1.997   4.031
 2242TIP3    H1 6690   4.335   2.051   3.966
 2242TIP3    H2 6691   4.242   1.932   3.980
 2243TIP3   OH2 6692   2.073   2.845   2.593
 2243TIP3    H1 6693   2.081   2.848   2.689
 2243TIP3    H2 6694   2.023   2.923   2.570
 2244TIP3   OH2 6695   2.751   6.229   2.467
 2244TIP3    H1 6696   2.655   6.237   2.465
 2244TIP3    H2 6697   2.778   6.286   2.539
 2245TIP3   OH2 6698   4.231   1.224   1.875
 2245TIP3    H1 6699   4.304   1.275   1.912
 2245TIP3    H2 6700   4.198   1.173   1.948
 2246TIP3   OH2 6701   1.860   0.581   0.568
 2246TIP3    H1 6702   1.944   0.536   0.562
 2246TIP3    H2 6703   1.866   0.632   0.649
 2247TIP3   OH2 6704   5.900   1.696   5.444
 2247TIP3    H1 6705   5.986   1.668   5.474
 2247TIP3    H2 6706   5.845   1.618   5.450
 2248TIP3   OH2 6707   1.572   5.895   2.714
 2248TIP3    H1 6708   1.491   5.846   2.699
 2248TIP3    H2 6709   1.543   5.984   2.732
 2249TIP3   OH2 6710   2.604   2.688   2.841
 2249TIP3    H1 6711   2.649   2.711   2.922
 2249TIP3    H2 6712   2.514   2.671   2.868
 2250TIP3   OH2 6713   5.897   0.229   2.367
 2250TIP3    H1 6714   5.952   0.153   2.388
 2250TIP3    H2 6715   5.927   0.256   2.280
 2251TIP3   OH2 6716   6.018   3.629   4.021
 2251TIP3    H1 6717   5.988   3.677   4.099
 2251TIP3    H2 6718   6.104   3.666   4.002
 2252TIP3   OH2 6719   5.836   5.615   5.020
 2252TIP3    H1 6720   5.911   5.568   4.985
 2252TIP3    H2 6721   5.874   5.693   5.062
 2253TIP3   OH2 6722   5.161   0.206   3.538
 2253TIP3    H1 6723   5.124   0.148   3.606
 2253TIP3    H2 6724   5.255   0.204   3.554
 2254TIP3   OH2 6725   2.443   2.027   5.353
 2254TIP3    H1 6726   2.424   2.121   5.362
 2254TIP3    H2 6727   2.417   2.006   5.264
 2255TIP3   OH2 6728   3.105   2.749   5.307
 2255TIP3    H1 6729   3.188   2.702   5.319
 2255TIP3    H2 6730   3.131   2.836   5.278
 2256TIP3   OH2 6731   2.364   5.538   4.313
 2256TIP3    H1 6732   2.292   5.523   4.374
 2256TIP3    H2 6733   2.323   5.538   4.227
 2257TIP3   OH2 6734   4.433   2.995   0.379
 2257TIP3    H1 6735   4.419   3.084   0.348
 2257TIP3    H2 6736   4.525   2.976   0.358
 2258TIP3   OH2 6737   3.769   6.292   4.440
 2258TIP3    H1 6738   3.756   6.384   4.462
 2258TIP3    H2 6739   3.854   6.289   4.397
 2259TIP3   OH2 6740   6.827   3.949   3.898
 2259TIP3    H1 6741   6.906   3.931   3.949
 2259TIP3    H2 6742   6.859   3.973   3.812
 2260TIP3   OH2 6743   2.643   4.003   2.494
 2260TIP3    H1 6744   2.667   3.989   2.586
 2260TIP3    H2 6745   2.548   3.994   2.493
 2261TIP3   OH2 6746   5.145   0.610   1.836
 2261TIP3    H1 6747   5.226   0.652   1.809
 2261TIP3    H2 6748   5.167   0.567   1.918
 2262TIP3   OH2 6749   2.767   3.898   3.026
 2262TIP3    H1 6750   2.684   3.894   2.978
 2262TIP3    H2 6751   2.774   3.811   3.067
 2263TIP3   OH2 6752   4.926   0.873   0.951
 2263TIP3    H1 6753   4.836   0.839   0.953
 2263TIP3    H2 6754   4.925   0.946   1.013
 2264TIP3   OH2 6755   1.816   6.338   3.772
 2264TIP3    H1 6756   1.875   6.381   3.710
 2264TIP3    H2 6757   1.845   6.247   3.773
 2265TIP3   OH2 6758   0.878   4.713   5.258
 2265TIP3    H1 6759   0.967   4.728   5.226
 2265TIP3    H2 6760   0.823   4.722   5.180
 2266TIP3   OH2 6761   2.887   5.753   0.761
 2266TIP3    H1 6762   2.827   5.826   0.774
 2266TIP3    H2 6763   2.837   5.690   0.709
 2267TIP3   OH2 6764   6.886   4.130   4.259
 2267TIP3    H1 6765   6.913   4.181   4.183
 2267TIP3    H2 6766   6.918   4.180   4.334
 2268TIP3   OH2 6767   1.774   6.383   2.225
 2268TIP3    H1 6768   1.685   6.390   2.192
 2268TIP3    H2 6769   1.829   6.408   2.151
 2269TIP3   OH2 6770   5.185   5.455   1.096
 2269TIP3    H1 6771   5.143   5.535   1.128
 2269TIP3    H2 6772   5.172   5.458   1.001
 2270TIP3   OH2 6773   0.671   4.185   4.857
 2270TIP3    H1 6774   0.703   4.100   4.827
 2270TIP3    H2 6775   0.622   4.165   4.936
 2271TIP3   OH2 6776   4.679   2.312   2.951
 2271TIP3    H1 6777   4.744   2.333   2.884
 2271TIP3    H2 6778   4.595   2.339   2.913
 2272TIP3   OH2 6779   4.099   2.459   0.488
 2272TIP3    H1 6780   4.183   2.487   0.451
 2272TIP3    H2 6781   4.105   2.364   0.493
 2273TIP3   OH2 6782   4.657   1.486   4.349
 2273TIP3    H1 6783   4.635   1.445   4.433
 2273TIP3    H2 6784   4.697   1.569   4.372
 2274TIP3   OH2 6785   4.402   1.107   0.475
 2274TIP3    H1 6786   4.322   1.136   0.432
 2274TIP3    H2 6787   4.420   1.174   0.540
 2275TIP3   OH2 6788   4.217   4.426   1.567
 2275TIP3    H1 6789   4.129   4.462   1.574
 2275TIP3    H2 6790   4.221   4.390   1.478
 2276TIP3   OH2 6791   7.130   3.683   2.349
 2276TIP3    H1 6792   7.205   3.714   2.297
 2276TIP3    H2 6793   7.159   3.599   2.385
 2277TIP3   OH2 6794   1.455   6.484   4.566
 2277TIP3    H1 6795   1.388   6.418   4.551
 2277TIP3    H2 6796   1.507   6.484   4.485
 2278TIP3   OH2 6797   4.185   2.669   2.514
 2278TIP3    H1 6798   4.233   2.688   2.433
 2278TIP3    H2 6799   4.135   2.749   2.531
 2279TIP3   OH2 6800   3.545   5.525   1.845
 2279TIP3    H1 6801   3.611   5.591   1.867
 2279TIP3    H2 6802   3.509   5.555   1.761
 2280TIP3   OH2 6803   3.693   0.956   4.017
 2280TIP3    H1 6804   3.696   0.935   4.111
 2280TIP3    H2 6805   3.782   0.985   3.996
 2281TIP3   OH2 6806   2.908   3.862   2.662
 2281TIP3    H1 6807   2.902   3.774   2.700
 2281TIP3    H2 6808   2.973   3.853   2.592
 2282TIP3   OH2 6809   5.494   1.344   2.329
 2282TIP3    H1 6810   5.556   1.408   2.363
 2282TIP3    H2 6811   5.420   1.395   2.298
 2283TIP3   OH2 6812   2.417   1.839   0.357
 2283TIP3    H1 6813   2.459   1.837   0.443
 2283TIP3    H2 6814   2.360   1.761   0.356
 2284TIP3   OH2 6815   4.738   6.278   4.814
 2284TIP3    H1 6816   4.664   6.291   4.873
 2284TIP3    H2 6817   4.709   6.313   4.730
 2285TIP3   OH2 6818   3.937   3.759   3.066
 2285TIP3    H1 6819   3.850   3.743   3.030
 2285TIP3    H2 6820   3.987   3.681   3.043
 2286TIP3   OH2 6821   1.127   2.809   2.317
 2286TIP3    H1 6822   1.101   2.879   2.258
 2286TIP3    H2 6823   1.132   2.850   2.403
 2287TIP3   OH2 6824   0.375   5.392   5.756
 2287TIP3    H1 6825   0.361   5.389   5.851
 2287TIP3    H2 6826   0.436   5.465   5.743
 2288TIP3   OH2 6827   4.182  -0.040   0.469
 2288TIP3    H1 6828   4.094  -0.026   0.503
 2288TIP3    H2 6829   4.237   0.019   0.521
 2289TIP3   OH2 6830   5.099   6.594   4.521
 2289TIP3    H1 6831   5.181   6.557   4.556
 2289TIP3    H2 6832   5.071   6.531   4.455
 2290TIP3   OH2 6833   6.750   5.217   1.880
 2290TIP3    H1 6834   6.810   5.143   1.893
 2290TIP3    H2 6835   6.773   5.279   1.949
 2291TIP3   OH2 6836   2.738   1.064   5.162
 2291TIP3    H1 6837   2.650   1.047   5.131
 2291TIP3    H2 6838   2.747   1.159   5.160
 2292TIP3   OH2 6839   4.871   0.708   2.881
 2292TIP3    H1 6840   4.881   0.634   2.940
 2292TIP3    H2 6841   4.931   0.689   2.809
 2293TIP3   OH2 6842   4.235   5.317   3.954
 2293TIP3    H1 6843   4.189   5.333   3.871
 2293TIP3    H2 6844   4.308   5.260   3.929
 2294TIP3   OH2 6845   4.274   2.459   2.048
 2294TIP3    H1 6846   4.359   2.415   2.046
 2294TIP3    H2 6847   4.282   2.530   1.985
 2295TIP3   OH2 6848   5.101   6.623   3.019
 2295TIP3    H1 6849   5.098   6.719   3.012
 2295TIP3    H2 6850   5.190   6.600   2.993
 2296TIP3   OH2 6851   2.329   1.500   1.209
 2296TIP3    H1 6852   2.259   1.474   1.270
 2296TIP3    H2 6853   2.407   1.506   1.264
 2297TIP3   OH2 6854   6.039   0.708   1.544
 2297TIP3    H1 6855   5.989   0.632   1.513
 2297TIP3    H2 6856   5.979   0.755   1.602
 2298TIP3   OH2 6857   1.017   6.135   1.102
 2298TIP3    H1 6858   1.094   6.106   1.055
 2298TIP3    H2 6859   1.015   6.230   1.088
 2299TIP3   OH2 6860   5.052   4.562   3.019
 2299TIP3    H1 6861   5.078   4.493   2.958
 2299TIP3    H2 6862   4.971   4.598   2.982
 2300TIP3   OH2 6863   4.182   0.243   3.047
 2300TIP3    H1 6864   4.238   0.170   3.020
 2300TIP3    H2 6865   4.243   0.316   3.059
 2301TIP3   OH2 6866   2.173   5.457   0.397
 2301TIP3    H1 6867   2.105   5.508   0.440
 2301TIP3    H2 6868   2.231   5.430   0.469
 2302TIP3   OH2 6869   3.719   5.360   4.454
 2302TIP3    H1 6870   3.624   5.352   4.469
 2302TIP3    H2 6871   3.740   5.290   4.393
 2303TIP3   OH2 6872   5.663   2.689   5.525
 2303TIP3    H1 6873   5.687   2.781   5.538
 2303TIP3    H2 6874   5.613   2.689   5.444
 2304TIP3   OH2 6875   4.135   4.746   2.374
 2304TIP3    H1 6876   4.096   4.821   2.330
 2304TIP3    H2 6877   4.063   4.683   2.381
 2305TIP3   OH2 6878   2.897   6.399   0.391
 2305TIP3    H1 6879   2.936   6.312   0.401
 2305TIP3    H2 6880   2.917   6.424   0.300
 2306TIP3   OH2 6881   1.388   5.260   2.110
 2306TIP3    H1 6882   1.469   5.296   2.145
 2306TIP3    H2 6883   1.415   5.210   2.033
 2307TIP3   OH2 6884   4.546   2.624   5.866
 2307TIP3    H1 6885   4.461   2.581   5.856
 2307TIP3    H2 6886   4.535   2.710   5.825
 2308TIP3   OH2 6887   5.690   6.574   1.729
 2308TIP3    H1 6888   5.681   6.505   1.663
 2308TIP3    H2 6889   5.659   6.653   1.686
 2309TIP3   OH2 6890   6.106   4.570   1.885
 2309TIP3    H1 6891   6.090   4.523   1.967
 2309TIP3    H2 6892   6.202   4.576   1.880
 2310TIP3   OH2 6893   5.069   4.991   0.664
 2310TIP3    H1 6894   5.019   5.071   0.679
 2310TIP3    H2 6895   5.036   4.929   0.729
 2311TIP3   OH2 6896   1.433   0.081   1.292
 2311TIP3    H1 6897   1.504   0.110   1.350
 2311TIP3    H2 6898   1.406   0.161   1.246
 2312TIP3   OH2 6899   2.490   2.674   5.242
 2312TIP3    H1 6900   2.424   2.656   5.309
 2312TIP3    H2 6901   2.440   2.687   5.161
 2313TIP3   OH2 6902   6.728   4.599   2.810
 2313TIP3    H1 6903   6.693   4.670   2.756
 2313TIP3    H2 6904   6.676   4.603   2.891
 2314TIP3   OH2 6905   0.684   4.500   2.257
 2314TIP3    H1 6906   0.602   4.549   2.249
 2314TIP3    H2 6907   0.676   4.453   2.340
 2315TIP3   OH2 6908   0.688   5.601   0.811
 2315TIP3    H1 6909   0.639   5.679   0.788
 2315TIP3    H2 6910   0.692   5.550   0.730
 2316TIP3   OH2 6911   4.400   4.461   1.785
 2316TIP3    H1 6912   4.345   4.536   1.811
 2316TIP3    H2 6913   4.357   4.427   1.706
 2317TIP3   OH2 6914   6.634   2.933   3.142
 2317TIP3    H1 6915   6.673   3.000   3.199
 2317TIP3    H2 6916   6.657   2.850   3.184
 2318TIP3   OH2 6917   4.101   0.088   1.447
 2318TIP3    H1 6918   4.137   0.029   1.513
 2318TIP3    H2 6919   4.016   0.115   1.482
 2319TIP3   OH2 6920   6.039   1.301   1.767
 2319TIP3    H1 6921   5.988   1.375   1.800
 2319TIP3    H2 6922   5.974   1.242   1.728
 2320TIP3   OH2 6923   0.818   1.827   1.385
 2320TIP3    H1 6924   0.725   1.803   1.386
 2320TIP3    H2 6925   0.862   1.752   1.425
 2321TIP3   OH2 6926   5.211   6.401   3.506
 2321TIP3    H1 6927   5.139   6.419   3.445
 2321TIP3    H2 6928   5.171   6.407   3.592
 2322TIP3   OH2 6929   6.420   2.683   3.876
 2322TIP3    H1 6930   6.488   2.732   3.923
 2322TIP3    H2 6931   6.390   2.744   3.808
 2323TIP3   OH2 6932   1.597   5.550   3.733
 2323TIP3    H1 6933   1.555   5.467   3.710
 2323TIP3    H2 6934   1.536   5.592   3.794
 2324TIP3   OH2 6935   6.740   0.847   2.437
 2324TIP3    H1 6936   6.834   0.839   2.421
 2324TIP3    H2 6937   6.703   0.765   2.404
 2325TIP3   OH2 6938   4.225   6.435   1.793
 2325TIP3    H1 6939   4.302   6.491   1.783
 2325TIP3    H2 6940   4.189   6.428   1.705
 2326TIP3   OH2 6941   4.350   0.478   3.007
 2326TIP3    H1 6942   4.428   0.487   2.951
 2326TIP3    H2 6943   4.328   0.568   3.032
 2327TIP3   OH2 6944   5.648   3.044   2.207
 2327TIP3    H1 6945   5.717   2.979   2.207
 2327TIP3    H2 6946   5.694   3.127   2.222
 2328TIP3   OH2 6947   1.198   0.215   4.554
 2328TIP3    H1 6948   1.292   0.224   4.570
 2328TIP3    H2 6949   1.172   0.138   4.605
 2329TIP3   OH2 6950   1.450   1.540   1.945
 2329TIP3    H1 6951   1.370   1.488   1.944
 2329TIP3    H2 6952   1.506   1.499   1.878
 2330TIP3   OH2 6953   2.356   0.325   2.436
 2330TIP3    H1 6954   2.329   0.303   2.347
 2330TIP3    H2 6955   2.307   0.265   2.492
 2331TIP3   OH2 6956   2.742   1.421   4.562
 2331TIP3    H1 6957   2.680   1.363   4.605
 2331TIP3    H2 6958   2.688   1.486   4.518
 2332TIP3   OH2 6959   4.375   5.173   2.382
 2332TIP3    H1 6960   4.309   5.151   2.448
 2332TIP3    H2 6961   4.332   5.238   2.326
 2333TIP3   OH2 6962   2.202   1.825   2.876
 2333TIP3    H1 6963   2.113   1.814   2.910
 2333TIP3    H2 6964   2.190   1.841   2.783
 2334TIP3   OH2 6965   1.488   1.715   4.745
 2334TIP3    H1 6966   1.476   1.660   4.668
 2334TIP3    H2 6967   1.442   1.797   4.723
 2335TIP3   OH2 6968   3.596   6.058   1.627
 2335TIP3    H1 6969   3.593   6.103   1.711
 2335TIP3    H2 6970   3.505   6.045   1.603
 2336TIP3   OH2 6971   4.385   5.305   1.468
 2336TIP3    H1 6972   4.454   5.241   1.451
 2336TIP3    H2 6973   4.381   5.312   1.563
 2337TIP3   OH2 6974   6.497   4.905   4.932
 2337TIP3    H1 6975   6.486   4.812   4.917
 2337TIP3    H2 6976   6.479   4.945   4.846
 2338TIP3   OH2 6977   2.221   5.938   3.295
 2338TIP3    H1 6978   2.144   5.994   3.299
 2338TIP3    H2 6979   2.194   5.858   3.342
 2339TIP3   OH2 6980   1.158   1.223   2.329
 2339TIP3    H1 6981   1.223   1.259   2.268
 2339TIP3    H2 6982   1.209   1.164   2.386
 2340TIP3   OH2 6983   3.298   2.504   0.939
 2340TIP3    H1 6984   3.356   2.440   0.979
 2340TIP3    H2 6985   3.335   2.520   0.852
 2341TIP3   OH2 6986   6.866   1.752   1.530
 2341TIP3    H1 6987   6.802   1.811   1.491
 2341TIP3    H2 6988   6.950   1.796   1.517
 2342TIP3   OH2 6989   6.694   6.614   5.361
 2342TIP3    H1 6990   6.646   6.563   5.296
 2342TIP3    H2 6991   6.710   6.553   5.433
 2343TIP3   OH2 6992   4.632   2.030   2.450
 2343TIP3    H1 6993   4.608   1.938   2.441
 2343TIP3    H2 6994   4.642   2.062   2.360
 2344TIP3   OH2 6995   2.124   3.998   1.634
 2344TIP3    H1 6996   2.144   3.939   1.706
 2344TIP3    H2 6997   2.194   4.064   1.636
 2345TIP3   OH2 6998   1.451   0.107   2.204
 2345TIP3    H1 6999   1.483   0.021   2.176
 2345TIP3    H2 7000   1.511   0.132   2.274
 2346TIP3   OH2 7001   6.047   4.662   2.291
 2346TIP3    H1 7002   5.955   4.673   2.265
 2346TIP3    H2 7003   6.083   4.601   2.226
 2347TIP3   OH2 7004   4.361   5.001   2.111
 2347TIP3    H1 7005   4.433   4.949   2.075
 2347TIP3    H2 7006   4.373   4.996   2.206
 2348TIP3   OH2 7007   3.887   6.102   0.434
 2348TIP3    H1 7008   3.942   6.027   0.458
 2348TIP3    H2 7009   3.921   6.130   0.349
 2349TIP3   OH2 7010   6.242   3.320   3.778
 2349TIP3    H1 7011   6.220   3.238   3.734
 2349TIP3    H2 7012   6.248   3.296   3.871
 2350TIP3   OH2 7013   0.884   3.681   1.678
 2350TIP3    H1 7014   0.790   3.688   1.696
 2350TIP3    H2 7015   0.920   3.765   1.706
 2351TIP3   OH2 7016   5.447   1.085   1.222
 2351TIP3    H1 7017   5.406   1.158   1.268
 2351TIP3    H2 7018   5.509   1.049   1.285
 2352TIP3   OH2 7019   4.989   1.218   4.238
 2352TIP3    H1 7020   5.065   1.193   4.185
 2352TIP3    H2 7021   4.930   1.262   4.177
 2353TIP3   OH2 7022   6.540   4.663   4.523
 2353TIP3    H1 7023   6.449   4.634   4.525
 2353TIP3    H2 7024   6.563   4.674   4.615
 2354TIP3   OH2 7025   6.839   2.923   2.029
 2354TIP3    H1 7026   6.877   2.951   1.946
 2354TIP3    H2 7027   6.908   2.939   2.094
 2355TIP3   OH2 7028   0.438   4.238   2.868
 2355TIP3    H1 7029   0.442   4.331   2.849
 2355TIP3    H2 7030   0.347   4.222   2.893
 2356TIP3   OH2 7031   5.120   4.314   1.469
 2356TIP3    H1 7032   5.044   4.320   1.412
 2356TIP3    H2 7033   5.165   4.234   1.442
 2357TIP3   OH2 7034   3.769   6.050   1.407
 2357TIP3    H1 7035   3.822   5.992   1.463
 2357TIP3    H2 7036   3.695   6.075   1.462
 2358TIP3   OH2 7037   0.432   0.938   5.334
 2358TIP3    H1 7038   0.376   0.936   5.412
 2358TIP3    H2 7039   0.374   0.913   5.262
 2359TIP3   OH2 7040   3.044   0.268   3.830
 2359TIP3    H1 7041   3.030   0.344   3.773
 2359TIP3    H2 7042   3.024   0.193   3.775
 2360TIP3   OH2 7043   4.356   5.957   3.297
 2360TIP3    H1 7044   4.448   5.975   3.320
 2360TIP3    H2 7045   4.312   6.041   3.309
 2361TIP3   OH2 7046   6.983   4.315   3.304
 2361TIP3    H1 7047   6.970   4.409   3.316
 2361TIP3    H2 7048   7.022   4.286   3.386
 2362TIP3   OH2 7049   1.887   5.147   0.749
 2362TIP3    H1 7050   1.826   5.206   0.706
 2362TIP3    H2 7051   1.862   5.151   0.842
 2363TIP3   OH2 7052   1.776   3.943   2.778
 2363TIP3    H1 7053   1.738   3.873   2.831
 2363TIP3    H2 7054   1.771   3.911   2.688
 2364TIP3   OH2 7055   3.250   1.300   1.149
 2364TIP3    H1 7056   3.263   1.361   1.076
 2364TIP3    H2 7057   3.274   1.350   1.226
 2365TIP3   OH2 7058   0.961   6.661   5.374
 2365TIP3    H1 7059   0.980   6.617   5.291
 2365TIP3    H2 7060   1.047   6.675   5.414
 2366TIP3   OH2 7061   4.542   1.105   1.690
 2366TIP3    H1 7062   4.582   1.191   1.674
 2366TIP3    H2 7063   4.450   1.116   1.668
 2367TIP3   OH2 7064   1.504   4.848   5.004
 2367TIP3    H1 7065   1.410   4.866   5.000
 2367TIP3    H2 7066   1.529   4.874   5.093
 2368TIP3   OH2 7067   5.294   0.270   1.758
 2368TIP3    H1 7068   5.360   0.267   1.689
 2368TIP3    H2 7069   5.329   0.332   1.822
 2369TIP3   OH2 7070   0.509   4.465   0.437
 2369TIP3    H1 7071   0.506   4.545   0.489
 2369TIP3    H2 7072   0.420   4.454   0.405
 2370TIP3   OH2 7073   6.527   6.615   0.955
 2370TIP3    H1 7074   6.442   6.586   0.988
 2370TIP3    H2 7075   6.560   6.541   0.904
 2371TIP3   OH2 7076   3.140   2.521   5.622
 2371TIP3    H1 7077   3.147   2.470   5.702
 2371TIP3    H2 7078   3.076   2.474   5.568
 2372TIP3   OH2 7079   6.689   5.450   0.067
 2372TIP3    H1 7080   6.631   5.526   0.069
 2372TIP3    H2 7081   6.650   5.392   0.002
 2373TIP3   OH2 7082   3.773   2.992   1.862
 2373TIP3    H1 7083   3.861   2.965   1.839
 2373TIP3    H2 7084   3.766   2.973   1.956
 2374TIP3   OH2 7085   2.327   1.790   3.344
 2374TIP3    H1 7086   2.351   1.726   3.277
 2374TIP3    H2 7087   2.249   1.834   3.309
 2375TIP3   OH2 7088   2.202   3.747   3.628
 2375TIP3    H1 7089   2.239   3.661   3.647
 2375TIP3    H2 7090   2.212   3.796   3.709
 2376TIP3   OH2 7091   0.953   2.457   1.800
 2376TIP3    H1 7092   0.879   2.398   1.818
 2376TIP3    H2 7093   0.958   2.460   1.705
 2377TIP3   OH2 7094   3.470   0.808   5.711
 2377TIP3    H1 7095   3.526   0.750   5.659
 2377TIP3    H2 7096   3.509   0.894   5.701
 2378TIP3   OH2 7097   3.397   2.409   1.664
 2378TIP3    H1 7098   3.446   2.477   1.711
 2378TIP3    H2 7099   3.359   2.455   1.589
 2379TIP3   OH2 7100   4.680   1.028   4.562
 2379TIP3    H1 7101   4.729   1.022   4.480
 2379TIP3    H2 7102   4.604   0.971   4.548
 2380TIP3   OH2 7103   2.755   1.069   2.250
 2380TIP3    H1 7104   2.685   1.088   2.188
 2380TIP3    H2 7105   2.827   1.038   2.196
 2381TIP3   OH2 7106   0.621   5.369   5.552
 2381TIP3    H1 7107   0.531   5.397   5.536
 2381TIP3    H2 7108   0.656   5.350   5.464
 2382TIP3   OH2 7109   5.923   2.569   2.412
 2382TIP3    H1 7110   5.926   2.569   2.316
 2382TIP3    H2 7111   5.837   2.534   2.433
 2383TIP3   OH2 7112   5.044   1.661   4.039
 2383TIP3    H1 7113   5.096   1.734   4.007
 2383TIP3    H2 7114   5.005   1.623   3.960
 2384TIP3   OH2 7115   3.580   0.195   1.896
 2384TIP3    H1 7116   3.558   0.263   1.831
 2384TIP3    H2 7117   3.632   0.241   1.962
 2385TIP3   OH2 7118   2.784   6.300   2.021
 2385TIP3    H1 7119   2.814   6.390   2.008
 2385TIP3    H2 7120   2.804   6.256   1.939
 2386TIP3   OH2 7121   5.173   5.046   5.163
 2386TIP3    H1 7122   5.204   5.107   5.097
 2386TIP3    H2 7123   5.111   5.098   5.216
 2387TIP3   OH2 7124   6.784   1.621   5.174
 2387TIP3    H1 7125   6.866   1.573   5.182
 2387TIP3    H2 7126   6.729   1.566   5.119
 2388TIP3   OH2 7127   1.981   6.302   0.934
 2388TIP3    H1 7128   2.037   6.236   0.894
 2388TIP3    H2 7129   1.895   6.260   0.942
 2389TIP3   OH2 7130   2.230   5.859   2.331
 2389TIP3    H1 7131   2.288   5.783   2.340
 2389TIP3    H2 7132   2.249   5.893   2.243
 2390TIP3   OH2 7133   0.288   6.196   3.360
 2390TIP3    H1 7134   0.345   6.201   3.283
 2390TIP3    H2 7135   0.267   6.287   3.381
 2391TIP3   OH2 7136   2.731   5.802   5.725
 2391TIP3    H1 7137   2.712   5.887   5.685
 2391TIP3    H2 7138   2.813   5.774   5.684
 2392TIP3   OH2 7139   5.176   1.024   5.402
 2392TIP3    H1 7140   5.209   1.101   5.355
 2392TIP3    H2 7141   5.246   1.001   5.464
 2393TIP3   OH2 7142   6.343   6.305   1.059
 2393TIP3    H1 7143   6.346   6.230   1.000
 2393TIP3    H2 7144   6.251   6.310   1.086
 2394TIP3   OH2 7145   1.836   4.276   5.509
 2394TIP3    H1 7146   1.756   4.308   5.549
 2394TIP3    H2 7147   1.852   4.335   5.435
 2395TIP3   OH2 7148   1.551   2.342   0.841
 2395TIP3    H1 7149   1.572   2.325   0.749
 2395TIP3    H2 7150   1.486   2.276   0.864
 2396TIP3   OH2 7151   0.142   3.526   3.379
 2396TIP3    H1 7152   0.215   3.552   3.321
 2396TIP3    H2 7153   0.182   3.516   3.465
 2397TIP3   OH2 7154   5.320   4.481   1.183
 2397TIP3    H1 7155   5.361   4.470   1.098
 2397TIP3    H2 7156   5.363   4.415   1.239
 2398TIP3   OH2 7157   4.090   2.477   2.920
 2398TIP3    H1 7158   4.010   2.433   2.891
 2398TIP3    H2 7159   4.059   2.545   2.979
 2399TIP3   OH2 7160   1.460   4.865   2.868
 2399TIP3    H1 7161   1.392   4.809   2.831
 2399TIP3    H2 7162   1.481   4.927   2.799
 2400TIP3   OH2 7163   2.068   5.878   5.573
 2400TIP3    H1 7164   2.142   5.937   5.589
 2400TIP3    H2 7165   2.021   5.918   5.499
 2401TIP3   OH2 7166   5.667   5.298   3.675
 2401TIP3    H1 7167   5.667   5.369   3.740
 2401TIP3    H2 7168   5.661   5.218   3.727
 2402TIP3   OH2 7169   6.339   4.985   0.786
 2402TIP3    H1 7170   6.410   4.987   0.851
 2402TIP3    H2 7171   6.271   5.041   0.823
 2403TIP3   OH2 7172   1.715   0.741   5.093
 2403TIP3    H1 7173   1.641   0.684   5.112
 2403TIP3    H2 7174   1.759   0.752   5.177
 2404TIP3   OH2 7175   3.289   4.773   3.521
 2404TIP3    H1 7176   3.275   4.842   3.586
 2404TIP3    H2 7177   3.348   4.812   3.457
 2405TIP3   OH2 7178   4.965   4.203   4.746
 2405TIP3    H1 7179   4.945   4.220   4.839
 2405TIP3    H2 7180   4.904   4.260   4.698
 2406TIP3   OH2 7181   6.701   6.647   1.170
 2406TIP3    H1 7182   6.618   6.612   1.205
 2406TIP3    H2 7183   6.686   6.653   1.076
 2407TIP3   OH2 7184   1.447   4.033   5.583
 2407TIP3    H1 7185   1.530   4.072   5.612
 2407TIP3    H2 7186   1.473   3.960   5.527
 2408TIP3   OH2 7187   5.768   5.831   2.836
 2408TIP3    H1 7188   5.855   5.864   2.814
 2408TIP3    H2 7189   5.753   5.861   2.926
 2409TIP3   OH2 7190   0.429   5.870   4.630
 2409TIP3    H1 7191   0.404   5.928   4.558
 2409TIP3    H2 7192   0.521   5.890   4.646
 2410TIP3   OH2 7193   4.331   5.719   0.979
 2410TIP3    H1 7194   4.285   5.698   1.060
 2410TIP3    H2 7195   4.346   5.635   0.937
 2411TIP3   OH2 7196   4.032   5.133   0.462
 2411TIP3    H1 7197   4.116   5.096   0.434
 2411TIP3    H2 7198   4.022   5.104   0.552
 2412TIP3   OH2 7199   4.841   5.440   3.453
 2412TIP3    H1 7200   4.820   5.482   3.370
 2412TIP3    H2 7201   4.936   5.452   3.463
 2413TIP3   OH2 7202   5.352   2.996   2.708
 2413TIP3    H1 7203   5.371   3.089   2.719
 2413TIP3    H2 7204   5.365   2.958   2.794
 2414TIP3   OH2 7205   3.625   2.009   3.928
 2414TIP3    H1 7206   3.533   2.028   3.908
 2414TIP3    H2 7207   3.653   1.949   3.859
 2415TIP3   OH2 7208   7.153   3.428   2.464
 2415TIP3    H1 7209   7.105   3.345   2.466
 2415TIP3    H2 7210   7.116   3.479   2.536
 2416TIP3   OH2 7211   0.872   4.291   2.314
 2416TIP3    H1 7212   0.782   4.277   2.285
 2416TIP3    H2 7213   0.892   4.381   2.286
 2417TIP3   OH2 7214   3.734   4.254   1.304
 2417TIP3    H1 7215   3.749   4.283   1.394
 2417TIP3    H2 7216   3.790   4.309   1.251
 2418TIP3   OH2 7217   5.692   6.341   3.686
 2418TIP3    H1 7218   5.680   6.267   3.745
 2418TIP3    H2 7219   5.631   6.408   3.717
 2419TIP3   OH2 7220   3.068   6.652   5.778
 2419TIP3    H1 7221   3.059   6.563   5.813
 2419TIP3    H2 7222   3.102   6.640   5.689
 2420TIP3   OH2 7223   4.229   1.006   5.774
 2420TIP3    H1 7224   4.321   1.031   5.779
 2420TIP3    H2 7225   4.195   1.022   5.862
 2421TIP3   OH2 7226   3.237   4.524   4.273
 2421TIP3    H1 7227   3.245   4.537   4.368
 2421TIP3    H2 7228   3.166   4.461   4.263
 2422TIP3   OH2 7229   2.485   0.325   3.358
 2422TIP3    H1 7230   2.449   0.412   3.339
 2422TIP3    H2 7231   2.543   0.306   3.284
 2423TIP3   OH2 7232   6.471   1.723   0.088
 2423TIP3    H1 7233   6.506   1.722  -0.001
 2423TIP3    H2 7234   6.521   1.657   0.135
 2424TIP3   OH2 7235   6.814   1.336   2.497
 2424TIP3    H1 7236   6.814   1.282   2.576
 2424TIP3    H2 7237   6.725   1.373   2.494
 2425TIP3   OH2 7238   5.960   3.719   1.288
 2425TIP3    H1 7239   6.031   3.671   1.246
 2425TIP3    H2 7240   5.926   3.777   1.221
 2426TIP3   OH2 7241   2.579   0.333   2.589
 2426TIP3    H1 7242   2.613   0.419   2.564
 2426TIP3    H2 7243   2.526   0.305   2.514
 2427TIP3   OH2 7244   7.147   3.263   0.611
 2427TIP3    H1 7245   7.142   3.184   0.665
 2427TIP3    H2 7246   7.145   3.231   0.521
 2428TIP3   OH2 7247   5.227   5.422   5.880
 2428TIP3    H1 7248   5.312   5.400   5.919
 2428TIP3    H2 7249   5.200   5.343   5.835
 2429TIP3   OH2 7250   2.914   1.006   4.234
 2429TIP3    H1 7251   2.863   1.070   4.284
 2429TIP3    H2 7252   2.882   0.921   4.264
 2430TIP3   OH2 7253   3.644   5.614   4.394
 2430TIP3    H1 7254   3.687   5.699   4.381
 2430TIP3    H2 7255   3.714   5.557   4.426
 2431TIP3   OH2 7256   0.990   0.301   2.923
 2431TIP3    H1 7257   1.036   0.294   2.839
 2431TIP3    H2 7258   0.898   0.290   2.901
 2432TIP3   OH2 7259   2.105   3.450   4.021
 2432TIP3    H1 7260   2.113   3.519   4.087
 2432TIP3    H2 7261   2.048   3.489   3.954
 2433TIP3   OH2 7262   4.756   4.804   4.631
 2433TIP3    H1 7263   4.785   4.893   4.651
 2433TIP3    H2 7264   4.716   4.773   4.712
 2434TIP3   OH2 7265   0.642   6.475   2.874
 2434TIP3    H1 7266   0.624   6.475   2.968
 2434TIP3    H2 7267   0.564   6.436   2.834
 2435TIP3   OH2 7268   7.026   5.027   5.466
 2435TIP3    H1 7269   7.013   5.067   5.380
 2435TIP3    H2 7270   7.121   5.024   5.477
 2436TIP3   OH2 7271   1.241   3.065   4.348
 2436TIP3    H1 7272   1.159   3.054   4.397
 2436TIP3    H2 7273   1.263   2.976   4.319
 2437TIP3   OH2 7274   1.394   5.254   5.185
 2437TIP3    H1 7275   1.354   5.231   5.269
 2437TIP3    H2 7276   1.321   5.263   5.124
 2438TIP3   OH2 7277   1.684   5.753   1.661
 2438TIP3    H1 7278   1.660   5.677   1.714
 2438TIP3    H2 7279   1.775   5.770   1.683
 2439TIP3   OH2 7280   1.500   3.448   5.385
 2439TIP3    H1 7281   1.479   3.492   5.303
 2439TIP3    H2 7282   1.420   3.401   5.409
 2440TIP3   OH2 7283   2.801   0.084   0.241
 2440TIP3    H1 7284   2.857   0.111   0.314
 2440TIP3    H2 7285   2.712   0.087   0.277
 2441TIP3   OH2 7286   7.192   0.409   0.722
 2441TIP3    H1 7287   7.248   0.345   0.766
 2441TIP3    H2 7288   7.104   0.387   0.752
 2442TIP3   OH2 7289   2.787   0.556   0.221
 2442TIP3    H1 7290   2.816   0.477   0.267
 2442TIP3    H2 7291   2.858   0.577   0.161
 2443TIP3   OH2 7292   0.571   0.101   3.922
 2443TIP3    H1 7293   0.607   0.113   4.010
 2443TIP3    H2 7294   0.637   0.140   3.864
 2444TIP3   OH2 7295   4.165   3.167   0.246
 2444TIP3    H1 7296   4.136   3.077   0.231
 2444TIP3    H2 7297   4.239   3.179   0.187
 2445TIP3   OH2 7298   5.741   5.013   4.667
 2445TIP3    H1 7299   5.768   5.094   4.623
 2445TIP3    H2 7300   5.799   4.946   4.631
 2446TIP3   OH2 7301   0.813   6.207   5.192
 2446TIP3    H1 7302   0.782   6.292   5.221
 2446TIP3    H2 7303   0.759   6.187   5.116
 2447TIP3   OH2 7304   5.452   3.607   1.713
 2447TIP3    H1 7305   5.376   3.604   1.655
 2447TIP3    H2 7306   5.508   3.535   1.683
 2448TIP3   OH2 7307   2.294   6.669   4.648
 2448TIP3    H1 7308   2.258   6.601   4.705
 2448TIP3    H2 7309   2.307   6.744   4.706
 2449TIP3   OH2 7310   7.024   3.642   3.589
 2449TIP3    H1 7311   7.073   3.566   3.622
 2449TIP3    H2 7312   6.959   3.660   3.657
 2450TIP3   OH2 7313   0.780   1.717   0.228
 2450TIP3    H1 7314   0.737   1.632   0.222
 2450TIP3    H2 7315   0.710   1.779   0.245
 2451TIP3   OH2 7316   4.061   5.384   3.556
 2451TIP3    H1 7317   4.045   5.473   3.587
 2451TIP3    H2 7318   4.154   5.370   3.571
 2452TIP3   OH2 7319   5.810   5.463   2.101
 2452TIP3    H1 7320   5.799   5.453   2.006
 2452TIP3    H2 7321   5.796   5.375   2.136
 2453TIP3   OH2 7322   1.058   1.270   0.414
 2453TIP3    H1 7323   1.048   1.360   0.445
 2453TIP3    H2 7324   0.970   1.232   0.420
 2454TIP3   OH2 7325   4.860   4.381   5.735
 2454TIP3    H1 7326   4.783   4.425   5.700
 2454TIP3    H2 7327   4.882   4.314   5.670
 2455TIP3   OH2 7328   3.106   3.448   4.762
 2455TIP3    H1 7329   3.173   3.483   4.703
 2455TIP3    H2 7330   3.138   3.467   4.850
 2456TIP3   OH2 7331   5.058   5.929   2.953
 2456TIP3    H1 7332   5.111   5.950   3.030
 2456TIP3    H2 7333   5.038   5.836   2.962
 2457TIP3   OH2 7334   1.061   4.077   5.042
 2457TIP3    H1 7335   1.122   4.145   5.071
 2457TIP3    H2 7336   1.029   4.108   4.957
 2458TIP3   OH2 7337   1.699   5.406   0.722
 2458TIP3    H1 7338   1.730   5.472   0.660
 2458TIP3    H2 7339   1.645   5.455   0.784
 2459TIP3   OH2 7340   0.975   3.481   1.848
 2459TIP3    H1 7341   0.929   3.540   1.789
 2459TIP3    H2 7342   1.060   3.468   1.808
 2460TIP3   OH2 7343   5.406   0.199   1.138
 2460TIP3    H1 7344   5.378   0.108   1.153
 2460TIP3    H2 7345   5.451   0.224   1.219
 2461TIP3   OH2 7346   5.797   3.177   4.220
 2461TIP3    H1 7347   5.742   3.255   4.213
 2461TIP3    H2 7348   5.735   3.106   4.236
 2462TIP3   OH2 7349   0.228   0.250   0.229
 2462TIP3    H1 7350   0.242   0.307   0.304
 2462TIP3    H2 7351   0.251   0.162   0.261
 2463TIP3   OH2 7352   0.087   6.881   4.132
 2463TIP3    H1 7353   0.043   6.928   4.062
 2463TIP3    H2 7354   0.071   6.789   4.114
 2464TIP3   OH2 7355   4.669   4.031   1.022
 2464TIP3    H1 7356   4.734   4.074   1.078
 2464TIP3    H2 7357   4.718   3.961   0.978
 2465TIP3   OH2 7358   0.614   2.318   4.135
 2465TIP3    H1 7359   0.660   2.355   4.060
 2465TIP3    H2 7360   0.679   2.265   4.180
 2466TIP3   OH2 7361   4.686   1.237   5.181
 2466TIP3    H1 7362   4.701   1.318   5.133
 2466TIP3    H2 7363   4.768   1.189   5.173
 2467TIP3   OH2 7364   6.423   5.264   0.584
 2467TIP3    H1 7365   6.492   5.201   0.603
 2467TIP3    H2 7366   6.357   5.249   0.650
 2468TIP3   OH2 7367   4.500   0.585   0.567
 2468TIP3    H1 7368   4.418   0.555   0.529
 2468TIP3    H2 7369   4.561   0.513   0.553
 2469TIP3   OH2 7370   3.585   0.104   0.402
 2469TIP3    H1 7371   3.608   0.055   0.481
 2469TIP3    H2 7372   3.670   0.130   0.365
 2470TIP3   OH2 7373   0.581   5.894   2.284
 2470TIP3    H1 7374   0.612   5.844   2.208
 2470TIP3    H2 7375   0.544   5.828   2.343
 2471TIP3   OH2 7376   0.086   4.149   4.077
 2471TIP3    H1 7377  -0.007   4.145   4.056
 2471TIP3    H2 7378   0.125   4.077   4.029
 2472TIP3   OH2 7379   2.490   3.023   1.683
 2472TIP3    H1 7380   2.459   3.110   1.657
 2472TIP3    H2 7381   2.515   3.034   1.775
 2473TIP3   OH2 7382   1.681   2.382   0.585
 2473TIP3    H1 7383   1.683   2.451   0.650
 2473TIP3    H2 7384   1.771   2.376   0.553
 2474TIP3   OH2 7385   5.842   3.091   3.611
 2474TIP3    H1 7386   5.748   3.079   3.609
 2474TIP3    H2 7387   5.856   3.160   3.677
 2475TIP3   OH2 7388   4.014   2.944   2.176
 2475TIP3    H1 7389   4.066   3.006   2.124
 2475TIP3    H2 7390   3.936   2.994   2.200
 2476TIP3   OH2 7391   7.008   4.279   4.052
 2476TIP3    H1 7392   6.942   4.342   4.024
 2476TIP3    H2 7393   7.013   4.216   3.980
 2477TIP3   OH2 7394   3.809   4.693   5.789
 2477TIP3    H1 7395   3.734   4.647   5.752
 2477TIP3    H2 7396   3.782   4.785   5.788
 2478TIP3   OH2 7397   6.227   3.417   4.970
 2478TIP3    H1 7398   6.235   3.512   4.982
 2478TIP3    H2 7399   6.277   3.400   4.890
 2479TIP3   OH2 7400   2.056   2.810   1.314
 2479TIP3    H1 7401   1.969   2.828   1.350
 2479TIP3    H2 7402   2.107   2.889   1.334
 2480TIP3   OH2 7403   5.057   6.367   2.090
 2480TIP3    H1 7404   5.110   6.329   2.020
 2480TIP3    H2 7405   4.968   6.337   2.071
 2481TIP3   OH2 7406   5.708   4.295   4.131
 2481TIP3    H1 7407   5.641   4.356   4.159
 2481TIP3    H2 7408   5.790   4.344   4.138
 2482TIP3   OH2 7409   7.145   1.195   2.848
 2482TIP3    H1 7410   7.069   1.235   2.890
 2482TIP3    H2 7411   7.205   1.267   2.831
 2483TIP3   OH2 7412   3.532   5.741   5.766
 2483TIP3    H1 7413   3.486   5.659   5.788
 2483TIP3    H2 7414   3.481   5.809   5.810
 2484TIP3   OH2 7415   2.952   1.116   1.798
 2484TIP3    H1 7416   2.993   1.038   1.761
 2484TIP3    H2 7417   2.874   1.130   1.745
 2485TIP3   OH2 7418   4.183   5.871   2.335
 2485TIP3    H1 7419   4.171   5.824   2.253
 2485TIP3    H2 7420   4.277   5.888   2.340
 2486TIP3   OH2 7421   6.530   1.244   0.575
 2486TIP3    H1 7422   6.564   1.302   0.507
 2486TIP3    H2 7423   6.516   1.302   0.651
 2487TIP3   OH2 7424   1.473   2.482   3.568
 2487TIP3    H1 7425   1.396   2.532   3.596
 2487TIP3    H2 7426   1.529   2.546   3.524
 2488TIP3   OH2 7427   0.111   1.104   3.891
 2488TIP3    H1 7428   0.109   1.136   3.801
 2488TIP3    H2 7429   0.035   1.144   3.932
 2489TIP3   OH2 7430   0.052   6.055   5.210
 2489TIP3    H1 7431  -0.019   6.025   5.267
 2489TIP3    H2 7432   0.096   5.974   5.182
 2490TIP3   OH2 7433   0.950   4.817   4.129
 2490TIP3    H1 7434   1.008   4.874   4.079
 2490TIP3    H2 7435   0.879   4.875   4.158
 2491TIP3   OH2 7436   3.832   5.288   0.053
 2491TIP3    H1 7437   3.777   5.235  -0.005
 2491TIP3    H2 7438   3.921   5.265   0.030
 2492TIP3   OH2 7439   5.406   4.059   4.429
 2492TIP3    H1 7440   5.376   4.014   4.350
 2492TIP3    H2 7441   5.498   4.034   4.438
 2493TIP3   OH2 7442   7.083   4.441   0.376
 2493TIP3    H1 7443   7.132   4.439   0.294
 2493TIP3    H2 7444   7.029   4.520   0.370
 2494TIP3   OH2 7445   1.015   4.961   0.354
 2494TIP3    H1 7446   0.954   4.888   0.362
 2494TIP3    H2 7447   1.094   4.922   0.316
 2495TIP3   OH2 7448   2.160   1.249   1.641
 2495TIP3    H1 7449   2.191   1.171   1.594
 2495TIP3    H2 7450   2.127   1.307   1.572
 2496TIP3   OH2 7451   5.499   4.156   3.414
 2496TIP3    H1 7452   5.409   4.123   3.407
 2496TIP3    H2 7453   5.493   4.248   3.389
 2497TIP3   OH2 7454   6.521   0.670   2.663
 2497TIP3    H1 7455   6.576   0.743   2.635
 2497TIP3    H2 7456   6.500   0.622   2.583
 2498TIP3   OH2 7457   1.692   6.557   4.909
 2498TIP3    H1 7458   1.786   6.568   4.921
 2498TIP3    H2 7459   1.684   6.485   4.847
 2499TIP3   OH2 7460   6.864   1.497   1.902
 2499TIP3    H1 7461   6.790   1.525   1.956
 2499TIP3    H2 7462   6.825   1.449   1.830
 2500TIP3   OH2 7463   1.381   0.398   0.373
 2500TIP3    H1 7464   1.437   0.323   0.395
 2500TIP3    H2 7465   1.328   0.412   0.451
 2501TIP3   OH2 7466   4.232   3.156   5.118
 2501TIP3    H1 7467   4.164   3.127   5.178
 2501TIP3    H2 7468   4.253   3.245   5.147
 2502TIP3   OH2 7469   6.651   3.403   1.968
 2502TIP3    H1 7470   6.721   3.356   2.015
 2502TIP3    H2 7471   6.573   3.388   2.021
 2503TIP3   OH2 7472   3.073   6.776   4.401
 2503TIP3    H1 7473   3.105   6.687   4.390
 2503TIP3    H2 7474   3.009   6.770   4.472
 2504TIP3   OH2 7475   1.746   2.762   5.477
 2504TIP3    H1 7476   1.701   2.678   5.490
 2504TIP3    H2 7477   1.793   2.751   5.394
 2505TIP3   OH2 7478   0.099   4.470   1.980
 2505TIP3    H1 7479   0.083   4.469   1.885
 2505TIP3    H2 7480   0.175   4.412   1.992
 2506TIP3   OH2 7481   7.000   5.392   1.194
 2506TIP3    H1 7482   6.942   5.427   1.262
 2506TIP3    H2 7483   7.047   5.469   1.161
 2507TIP3   OH2 7484   5.957   3.218   2.040
 2507TIP3    H1 7485   5.906   3.274   1.981
 2507TIP3    H2 7486   5.986   3.145   1.984
 2508TIP3   OH2 7487   4.574   0.519   0.215
 2508TIP3    H1 7488   4.563   0.605   0.174
 2508TIP3    H2 7489   4.668   0.505   0.217
 2509TIP3   OH2 7490   6.918   1.741   4.594
 2509TIP3    H1 7491   6.879   1.663   4.633
 2509TIP3    H2 7492   6.946   1.793   4.670
 2510TIP3   OH2 7493   6.433   0.525   4.650
 2510TIP3    H1 7494   6.470   0.578   4.722
 2510TIP3    H2 7495   6.454   0.575   4.571
 2511TIP3   OH2 7496   2.223   6.012   0.574
 2511TIP3    H1 7497   2.296   6.034   0.631
 2511TIP3    H2 7498   2.256   5.938   0.521
 2512TIP3   OH2 7499   2.096   1.158   4.650
 2512TIP3    H1 7500   2.061   1.069   4.641
 2512TIP3    H2 7501   2.034   1.213   4.603
 2513TIP3   OH2 7502   1.265   4.895   0.286
 2513TIP3    H1 7503   1.324   4.964   0.315
 2513TIP3    H2 7504   1.264   4.832   0.358
 2514TIP3   OH2 7505   4.086   2.537   4.757
 2514TIP3    H1 7506   4.003   2.570   4.722
 2514TIP3    H2 7507   4.063   2.496   4.840
 2515TIP3   OH2 7508   6.068   6.201   1.356
 2515TIP3    H1 7509   6.150   6.151   1.363
 2515TIP3    H2 7510   6.003   6.147   1.401
 2516TIP3   OH2 7511   1.784   0.071   4.931
 2516TIP3    H1 7512   1.871   0.037   4.949
 2516TIP3    H2 7513   1.796   0.129   4.856
 2517TIP3   OH2 7514   3.187   3.548   0.430
 2517TIP3    H1 7515   3.249   3.526   0.360
 2517TIP3    H2 7516   3.128   3.612   0.391
 2518TIP3   OH2 7517   3.391   0.716   0.468
 2518TIP3    H1 7518   3.412   0.671   0.386
 2518TIP3    H2 7519   3.377   0.807   0.442
 2519TIP3   OH2 7520   4.799   0.066   4.813
 2519TIP3    H1 7521   4.765   0.043   4.900
 2519TIP3    H2 7522   4.890   0.091   4.829
 2520TIP3   OH2 7523   2.243   5.105   4.356
 2520TIP3    H1 7524   2.319   5.053   4.380
 2520TIP3    H2 7525   2.256   5.126   4.263
 2521TIP3   OH2 7526   2.914   5.804   2.531
 2521TIP3    H1 7527   2.883   5.843   2.449
 2521TIP3    H2 7528   3.004   5.836   2.540
 2522TIP3   OH2 7529   1.329   0.434   0.653
 2522TIP3    H1 7530   1.339   0.398   0.741
 2522TIP3    H2 7531   1.251   0.488   0.658
 2523TIP3   OH2 7532   6.880   1.055   4.287
 2523TIP3    H1 7533   6.914   0.965   4.289
 2523TIP3    H2 7534   6.795   1.048   4.244
 2524TIP3   OH2 7535   5.393   5.156   2.970
 2524TIP3    H1 7536   5.351   5.070   2.959
 2524TIP3    H2 7537   5.355   5.211   2.902
 2525TIP3   OH2 7538   2.979   4.790   1.069
 2525TIP3    H1 7539   3.072   4.806   1.053
 2525TIP3    H2 7540   2.975   4.697   1.093
 2526TIP3   OH2 7541   1.652   2.985   2.491
 2526TIP3    H1 7542   1.561   3.010   2.506
 2526TIP3    H2 7543   1.649   2.930   2.413
 2527TIP3   OH2 7544   1.687   2.267   4.866
 2527TIP3    H1 7545   1.720   2.285   4.954
 2527TIP3    H2 7546   1.674   2.172   4.864
 2528TIP3   OH2 7547   3.762   1.659   4.684
 2528TIP3    H1 7548   3.712   1.603   4.624
 2528TIP3    H2 7549   3.698   1.692   4.746
 2529TIP3   OH2 7550   3.131   6.793   2.313
 2529TIP3    H1 7551   3.168   6.710   2.343
 2529TIP3    H2 7552   3.107   6.778   2.222
 2530TIP3   OH2 7553   0.445   2.684   4.600
 2530TIP3    H1 7554   0.533   2.646   4.600
 2530TIP3    H2 7555   0.418   2.684   4.691
 2531TIP3   OH2 7556   4.203   1.083   1.652
 2531TIP3    H1 7557   4.117   1.114   1.623
 2531TIP3    H2 7558   4.212   1.118   1.741
 2532TIP3   OH2 7559   3.053   5.660   5.294
 2532TIP3    H1 7560   3.119   5.662   5.363
 2532TIP3    H2 7561   3.039   5.752   5.271
 2533TIP3   OH2 7562   3.102   3.833   0.020
 2533TIP3    H1 7563   3.177   3.866   0.070
 2533TIP3    H2 7564   3.134   3.825  -0.070
 2534TIP3   OH2 7565   0.352   0.446   4.215
 2534TIP3    H1 7566   0.302   0.506   4.159
 2534TIP3    H2 7567   0.336   0.359   4.177
 2535TIP3   OH2 7568   2.941   4.993   3.148
 2535TIP3    H1 7569   2.887   4.914   3.138
 2535TIP3    H2 7570   2.940   5.034   3.061
 2536TIP3   OH2 7571   6.815   3.559   2.945
 2536TIP3    H1 7572   6.781   3.564   2.856
 2536TIP3    H2 7573   6.823   3.465   2.962
 2537TIP3   OH2 7574   6.208   4.063   5.773
 2537TIP3    H1 7575   6.202   4.078   5.679
 2537TIP3    H2 7576   6.287   4.110   5.800
 2538TIP3   OH2 7577   5.241   2.230   1.175
 2538TIP3    H1 7578   5.195   2.215   1.093
 2538TIP3    H2 7579   5.190   2.181   1.240
 2539TIP3   OH2 7580   3.003   3.651   3.089
 2539TIP3    H1 7581   3.019   3.564   3.125
 2539TIP3    H2 7582   2.936   3.689   3.146
 2540TIP3   OH2 7583   5.312   2.788   2.082
 2540TIP3    H1 7584   5.360   2.869   2.068
 2540TIP3    H2 7585   5.280   2.794   2.173
 2541TIP3   OH2 7586   2.514   2.495   3.961
 2541TIP3    H1 7587   2.547   2.412   3.997
 2541TIP3    H2 7588   2.426   2.504   3.998
 2542TIP3   OH2 7589   1.271   2.778   4.375
 2542TIP3    H1 7590   1.272   2.790   4.470
 2542TIP3    H2 7591   1.337   2.711   4.359
 2543TIP3   OH2 7592   2.888   6.259   5.451
 2543TIP3    H1 7593   2.826   6.326   5.479
 2543TIP3    H2 7594   2.973   6.289   5.484
 2544TIP3   OH2 7595   5.430   1.055   2.364
 2544TIP3    H1 7596   5.465   1.141   2.389
 2544TIP3    H2 7597   5.407   1.064   2.272
 2545TIP3   OH2 7598   1.105   3.401   2.999
 2545TIP3    H1 7599   1.053   3.342   2.944
 2545TIP3    H2 7600   1.140   3.466   2.938
 2546TIP3   OH2 7601   6.503   3.773   0.134
 2546TIP3    H1 7602   6.531   3.753   0.223
 2546TIP3    H2 7603   6.578   3.817   0.094
 2547TIP3   OH2 7604   1.472   6.125   1.124
 2547TIP3    H1 7605   1.456   6.034   1.099
 2547TIP3    H2 7606   1.399   6.173   1.084
 2548TIP3   OH2 7607   1.198   5.868   4.807
 2548TIP3    H1 7608   1.199   5.854   4.902
 2548TIP3    H2 7609   1.166   5.785   4.772
 2549TIP3   OH2 7610   0.230   3.270   0.350
 2549TIP3    H1 7611   0.254   3.278   0.257
 2549TIP3    H2 7612   0.269   3.347   0.392
 2550TIP3   OH2 7613   0.443   4.230   2.359
 2550TIP3    H1 7614   0.485   4.284   2.426
 2550TIP3    H2 7615   0.367   4.193   2.404
 2551TIP3   OH2 7616   1.580   0.144   2.450
 2551TIP3    H1 7617   1.641   0.088   2.498
 2551TIP3    H2 7618   1.498   0.138   2.500
 2552TIP3   OH2 7619   1.293   0.910   4.656
 2552TIP3    H1 7620   1.280   0.849   4.729
 2552TIP3    H2 7621   1.385   0.934   4.661
 2553TIP3   OH2 7622   5.938   3.607   3.529
 2553TIP3    H1 7623   5.905   3.579   3.444
 2553TIP3    H2 7624   5.877   3.675   3.557
 2554TIP3   OH2 7625   2.358   6.717   1.704
 2554TIP3    H1 7626   2.413   6.668   1.765
 2554TIP3    H2 7627   2.399   6.803   1.698
 2555TIP3   OH2 7628   0.905   3.941   1.518
 2555TIP3    H1 7629   0.810   3.943   1.514
 2555TIP3    H2 7630   0.931   3.876   1.453
 2556TIP3   OH2 7631   0.845   2.588   5.705
 2556TIP3    H1 7632   0.931   2.625   5.724
 2556TIP3    H2 7633   0.828   2.530   5.780
 2557TIP3   OH2 7634   4.949   6.567   3.700
 2557TIP3    H1 7635   4.906   6.633   3.755
 2557TIP3    H2 7636   4.878   6.524   3.653
 2558TIP3   OH2 7637   1.465   3.823   3.950
 2558TIP3    H1 7638   1.410   3.850   3.876
 2558TIP3    H2 7639   1.432   3.737   3.974
 2559TIP3   OH2 7640   6.918   6.436   1.416
 2559TIP3    H1 7641   6.899   6.347   1.444
 2559TIP3    H2 7642   7.005   6.431   1.376
 2560TIP3   OH2 7643  -0.002   4.785   1.544
 2560TIP3    H1 7644  -0.010   4.848   1.471
 2560TIP3    H2 7645   0.076   4.733   1.522
 2561TIP3   OH2 7646   1.405   2.156   5.727
 2561TIP3    H1 7647   1.343   2.182   5.658
 2561TIP3    H2 7648   1.385   2.213   5.800
 2562TIP3   OH2 7649   6.505   2.921   3.959
 2562TIP3    H1 7650   6.424   2.970   3.977
 2562TIP3    H2 7651   6.534   2.952   3.874
 2563TIP3   OH2 7652   1.049   4.886   2.936
 2563TIP3    H1 7653   0.978   4.905   2.998
 2563TIP3    H2 7654   1.128   4.919   2.980
 2564TIP3   OH2 7655   4.187   4.799   3.328
 2564TIP3    H1 7656   4.179   4.875   3.387
 2564TIP3    H2 7657   4.179   4.837   3.240
 2565TIP3   OH2 7658   3.819   5.576   0.185
 2565TIP3    H1 7659   3.861   5.624   0.256
 2565TIP3    H2 7660   3.813   5.638   0.113
 2566TIP3   OH2 7661   1.994   1.485   1.140
 2566TIP3    H1 7662   2.022   1.481   1.231
 2566TIP3    H2 7663   1.917   1.542   1.141
 2567TIP3   OH2 7664   4.143   6.308   5.563
 2567TIP3    H1 7665   4.050   6.322   5.581
 2567TIP3    H2 7666   4.149   6.215   5.543
 2568TIP3   OH2 7667   3.640   0.455   5.190
 2568TIP3    H1 7668   3.690   0.426   5.114
 2568TIP3    H2 7669   3.617   0.546   5.171
 2569TIP3   OH2 7670   5.967   1.288   0.589
 2569TIP3    H1 7671   5.970   1.234   0.509
 2569TIP3    H2 7672   5.954   1.225   0.660
 2570TIP3   OH2 7673   1.895   4.550   4.185
 2570TIP3    H1 7674   1.989   4.538   4.196
 2570TIP3    H2 7675   1.886   4.601   4.104
 2571TIP3   OH2 7676   3.104   3.397   4.239
 2571TIP3    H1 7677   3.093   3.423   4.331
 2571TIP3    H2 7678   3.199   3.391   4.227
 2572TIP3   OH2 7679   0.920   2.212   0.848
 2572TIP3    H1 7680   0.865   2.136   0.867
 2572TIP3    H2 7681   0.995   2.176   0.800
 2573TIP3   OH2 7682   2.210   6.430   5.367
 2573TIP3    H1 7683   2.242   6.369   5.434
 2573TIP3    H2 7684   2.173   6.373   5.299
 2574TIP3   OH2 7685   3.264   5.995   0.378
 2574TIP3    H1 7686   3.321   6.032   0.447
 2574TIP3    H2 7687   3.217   5.924   0.422
 2575TIP3   OH2 7688   5.466   2.108   5.471
 2575TIP3    H1 7689   5.373   2.089   5.458
 2575TIP3    H2 7690   5.469   2.203   5.487
 2576TIP3   OH2 7691   4.024   5.705   1.141
 2576TIP3    H1 7692   4.068   5.620   1.144
 2576TIP3    H2 7693   3.969   5.701   1.063
 2577TIP3   OH2 7694   4.461   0.896   3.265
 2577TIP3    H1 7695   4.432   0.810   3.235
 2577TIP3    H2 7696   4.456   0.952   3.188
 2578TIP3   OH2 7697   6.373   3.045   0.136
 2578TIP3    H1 7698   6.412   3.032   0.222
 2578TIP3    H2 7699   6.370   3.141   0.125
 2579TIP3   OH2 7700   2.677   3.655   5.246
 2579TIP3    H1 7701   2.647   3.685   5.160
 2579TIP3    H2 7702   2.599   3.618   5.287
 2580TIP3   OH2 7703   2.983   0.039   2.478
 2580TIP3    H1 7704   2.939  -0.028   2.531
 2580TIP3    H2 7705   2.923   0.055   2.405
 2581TIP3   OH2 7706   0.859   2.244   1.522
 2581TIP3    H1 7707   0.770   2.248   1.487
 2581TIP3    H2 7708   0.902   2.322   1.488
 2582TIP3   OH2 7709   7.009   6.676   4.728
 2582TIP3    H1 7710   7.101   6.651   4.742
 2582TIP3    H2 7711   6.964   6.594   4.711
 2583TIP3   OH2 7712   3.161   5.230   0.442
 2583TIP3    H1 7713   3.236   5.226   0.500
 2583TIP3    H2 7714   3.181   5.166   0.373
 2584TIP3   OH2 7715   6.746   0.998   3.548
 2584TIP3    H1 7716   6.670   0.949   3.518
 2584TIP3    H2 7717   6.716   1.043   3.627
 2585TIP3   OH2 7718   6.872   4.147   2.828
 2585TIP3    H1 7719   6.872   4.127   2.921
 2585TIP3    H2 7720   6.821   4.076   2.788
 2586TIP3   OH2 7721   2.614   6.723   3.624
 2586TIP3    H1 7722   2.551   6.654   3.647
 2586TIP3    H2 7723   2.641   6.703   3.535
 2587TIP3   OH2 7724   6.693   1.089   0.349
 2587TIP3    H1 7725   6.668   1.120   0.262
 2587TIP3    H2 7726   6.612   1.093   0.400
 2588TIP3   OH2 7727   4.671   5.476   5.176
 2588TIP3    H1 7728   4.579   5.451   5.188
 2588TIP3    H2 7729   4.667   5.560   5.131
 2589TIP3   OH2 7730   1.859   4.368   2.438
 2589TIP3    H1 7731   1.910   4.393   2.360
 2589TIP3    H2 7732   1.895   4.422   2.508
 2590TIP3   OH2 7733  -0.045   0.797   5.641
 2590TIP3    H1 7734  -0.125   0.849   5.633
 2590TIP3    H2 7735   0.024   0.861   5.657
 2591TIP3   OH2 7736   3.079   2.055   3.634
 2591TIP3    H1 7737   3.089   1.985   3.699
 2591TIP3    H2 7738   3.097   2.136   3.682
 2592TIP3   OH2 7739   0.638   5.396   3.521
 2592TIP3    H1 7740   0.602   5.340   3.591
 2592TIP3    H2 7741   0.688   5.463   3.567
 2593TIP3   OH2 7742   6.434   1.120   1.830
 2593TIP3    H1 7743   6.356   1.106   1.776
 2593TIP3    H2 7744   6.505   1.079   1.780
 2594TIP3   OH2 7745   4.828   5.367   0.769
 2594TIP3    H1 7746   4.740   5.330   0.773
 2594TIP3    H2 7747   4.864   5.353   0.857
 2595TIP3   OH2 7748   4.262   4.194   5.514
 2595TIP3    H1 7749   4.302   4.142   5.445
 2595TIP3    H2 7750   4.322   4.187   5.588
 2596TIP3   OH2 7751   0.335   0.974   0.628
 2596TIP3    H1 7752   0.396   1.026   0.680
 2596TIP3    H2 7753   0.382   0.955   0.547
 2597TIP3   OH2 7754   6.937   1.333   4.379
 2597TIP3    H1 7755   6.905   1.255   4.335
 2597TIP3    H2 7756   6.867   1.357   4.440
 2598TIP3   OH2 7757   4.121   3.245   3.808
 2598TIP3    H1 7758   4.187   3.312   3.822
 2598TIP3    H2 7759   4.053   3.265   3.872
 2599TIP3   OH2 7760   0.890   2.921   1.442
 2599TIP3    H1 7761   0.815   2.975   1.420
 2599TIP3    H2 7762   0.963   2.982   1.447
 2600TIP3   OH2 7763   2.946   0.845   1.620
 2600TIP3    H1 7764   2.864   0.797   1.629
 2600TIP3    H2 7765   2.940   0.888   1.535
 2601TIP3   OH2 7766   3.929   1.429   5.696
 2601TIP3    H1 7767   3.868   1.428   5.622
 2601TIP3    H2 7768   3.928   1.520   5.727
 2602TIP3   OH2 7769   0.826   2.661   2.460
 2602TIP3    H1 7770   0.871   2.637   2.379
 2602TIP3    H2 7771   0.734   2.668   2.435
 2603TIP3   OH2 7772   0.869   6.711   0.383
 2603TIP3    H1 7773   0.948   6.722   0.435
 2603TIP3    H2 7774   0.845   6.619   0.393
 2604TIP3   OH2 7775   5.845   5.469   1.803
 2604TIP3    H1 7776   5.832   5.410   1.728
 2604TIP3    H2 7777   5.938   5.463   1.823
 2605TIP3   OH2 7778   5.834   0.989   5.465
 2605TIP3    H1 7779   5.789   1.070   5.443
 2605TIP3    H2 7780   5.786   0.921   5.417
 2606TIP3   OH2 7781   4.284   5.422   2.795
 2606TIP3    H1 7782   4.373   5.457   2.801
 2606TIP3    H2 7783   4.271   5.375   2.877
 2607TIP3   OH2 7784   4.236   4.954   2.614
 2607TIP3    H1 7785   4.264   4.997   2.694
 2607TIP3    H2 7786   4.312   4.901   2.588
 2608TIP3   OH2 7787   5.447   6.206   5.515
 2608TIP3    H1 7788   5.418   6.258   5.590
 2608TIP3    H2 7789   5.469   6.121   5.552
 2609TIP3   OH2 7790   6.407   4.275   2.259
 2609TIP3    H1 7791   6.439   4.362   2.282
 2609TIP3    H2 7792   6.485   4.219   2.261
 2610TIP3   OH2 7793   2.765   1.678   4.053
 2610TIP3    H1 7794   2.789   1.768   4.073
 2610TIP3    H2 7795   2.742   1.640   4.138
 2611TIP3   OH2 7796   4.345   0.655   5.529
 2611TIP3    H1 7797   4.311   0.698   5.608
 2611TIP3    H2 7798   4.267   0.638   5.476
 2612TIP3   OH2 7799   6.220   3.842   3.959
 2612TIP3    H1 7800   6.261   3.869   3.877
 2612TIP3    H2 7801   6.256   3.902   4.024
 2613TIP3   OH2 7802   3.347   6.485   0.770
 2613TIP3    H1 7803   3.269   6.466   0.718
 2613TIP3    H2 7804   3.403   6.408   0.759
 2614TIP3   OH2 7805   0.739   1.237   1.781
 2614TIP3    H1 7806   0.680   1.180   1.830
 2614TIP3    H2 7807   0.681   1.293   1.729
 2615TIP3   OH2 7808   2.075   1.081   5.741
 2615TIP3    H1 7809   2.071   1.125   5.826
 2615TIP3    H2 7810   2.027   0.999   5.754
 2616TIP3   OH2 7811   3.937   6.702   3.357
 2616TIP3    H1 7812   3.879   6.631   3.328
 2616TIP3    H2 7813   3.878   6.769   3.391
 2617TIP3   OH2 7814   1.630   6.672   2.062
 2617TIP3    H1 7815   1.582   6.591   2.046
 2617TIP3    H2 7816   1.590   6.708   2.141
 2618TIP3   OH2 7817   3.921   2.936   2.532
 2618TIP3    H1 7818   3.865   2.997   2.483
 2618TIP3    H2 7819   4.008   2.977   2.529
 2619TIP3   OH2 7820   4.855   0.508   0.876
 2619TIP3    H1 7821   4.854   0.555   0.959
 2619TIP3    H2 7822   4.913   0.560   0.820
 2620TIP3   OH2 7823   6.846   0.288   1.867
 2620TIP3    H1 7824   6.813   0.299   1.778
 2620TIP3    H2 7825   6.939   0.309   1.860
 2621TIP3   OH2 7826   5.873   5.052   0.189
 2621TIP3    H1 7827   5.919   5.072   0.271
 2621TIP3    H2 7828   5.941   5.057   0.122
 2622TIP3   OH2 7829   6.538   4.755   2.323
 2622TIP3    H1 7830   6.591   4.800   2.389
 2622TIP3    H2 7831   6.519   4.823   2.257
 2623TIP3   OH2 7832   0.352   2.173   1.991
 2623TIP3    H1 7833   0.369   2.263   1.965
 2623TIP3    H2 7834   0.392   2.120   1.923
 2624TIP3   OH2 7835   1.113   0.278   5.396
 2624TIP3    H1 7836   1.068   0.194   5.401
 2624TIP3    H2 7837   1.127   0.291   5.302
 2625TIP3   OH2 7838   1.480   0.623   5.855
 2625TIP3    H1 7839   1.450   0.614   5.764
 2625TIP3    H2 7840   1.416   0.680   5.896
 2626TIP3   OH2 7841   1.798   3.260   3.485
 2626TIP3    H1 7842   1.797   3.174   3.528
 2626TIP3    H2 7843   1.884   3.296   3.506
 2627TIP3   OH2 7844   1.451   5.939   2.332
 2627TIP3    H1 7845   1.486   6.027   2.319
 2627TIP3    H2 7846   1.363   5.953   2.366
 2628TIP3   OH2 7847   2.098   1.110   2.047
 2628TIP3    H1 7848   2.072   1.083   1.959
 2628TIP3    H2 7849   2.078   1.034   2.102
 2629TIP3   OH2 7850   6.257   0.475   0.353
 2629TIP3    H1 7851   6.251   0.529   0.432
 2629TIP3    H2 7852   6.215   0.528   0.285
 2630TIP3   OH2 7853   2.150   0.207   1.411
 2630TIP3    H1 7854   2.199   0.247   1.483
 2630TIP3    H2 7855   2.206   0.136   1.382
 2631TIP3   OH2 7856   2.537   5.231   0.063
 2631TIP3    H1 7857   2.491   5.198  -0.014
 2631TIP3    H2 7858   2.474   5.224   0.134
 2632TIP3   OH2 7859   6.158   3.459   3.214
 2632TIP3    H1 7860   6.189   3.446   3.304
 2632TIP3    H2 7861   6.082   3.402   3.206
 2633TIP3   OH2 7862   0.699   0.881   5.788
 2633TIP3    H1 7863   0.759   0.880   5.713
 2633TIP3    H2 7864   0.755   0.860   5.863
 2634TIP3   OH2 7865   1.639   3.164   0.137
 2634TIP3    H1 7866   1.613   3.203   0.220
 2634TIP3    H2 7867   1.637   3.236   0.075
 2635TIP3   OH2 7868   5.683   6.751   4.537
 2635TIP3    H1 7869   5.676   6.659   4.564
 2635TIP3    H2 7870   5.592   6.780   4.528
 2636TIP3   OH2 7871   2.874   6.699   4.575
 2636TIP3    H1 7872   2.800   6.640   4.589
 2636TIP3    H2 7873   2.886   6.743   4.658
 2637TIP3   OH2 7874   2.735   1.156   5.865
 2637TIP3    H1 7875   2.798   1.109   5.811
 2637TIP3    H2 7876   2.786   1.187   5.940
 2638TIP3   OH2 7877   2.450   5.232   0.333
 2638TIP3    H1 7878   2.468   5.140   0.349
 2638TIP3    H2 7879   2.418   5.266   0.417
 2639TIP3   OH2 7880   3.884   5.339   5.438
 2639TIP3    H1 7881   3.859   5.262   5.386
 2639TIP3    H2 7882   3.800   5.378   5.464
 2640TIP3   OH2 7883   5.444   0.538   3.809
 2640TIP3    H1 7884   5.429   0.623   3.850
 2640TIP3    H2 7885   5.390   0.477   3.859
 2641TIP3   OH2 7886   1.502   2.779   3.738
 2641TIP3    H1 7887   1.490   2.874   3.750
 2641TIP3    H2 7888   1.434   2.755   3.675
 2642TIP3   OH2 7889   5.024   3.344   5.692
 2642TIP3    H1 7890   4.952   3.314   5.637
 2642TIP3    H2 7891   5.068   3.411   5.639
 2643TIP3   OH2 7892   6.511   1.514   3.867
 2643TIP3    H1 7893   6.460   1.592   3.846
 2643TIP3    H2 7894   6.529   1.520   3.960
 2644TIP3   OH2 7895   6.805   5.953   1.433
 2644TIP3    H1 7896   6.883   5.926   1.383
 2644TIP3    H2 7897   6.747   5.992   1.368
 2645TIP3   OH2 7898   2.684   0.806   1.187
 2645TIP3    H1 7899   2.753   0.740   1.180
 2645TIP3    H2 7900   2.727   0.888   1.162
 2646TIP3   OH2 7901   4.941   2.770   0.356
 2646TIP3    H1 7902   5.001   2.744   0.426
 2646TIP3    H2 7903   4.992   2.830   0.302
 2647TIP3   OH2 7904   6.131   4.125   4.079
 2647TIP3    H1 7905   6.146   4.116   4.173
 2647TIP3    H2 7906   6.149   4.217   4.061
 2648TIP3   OH2 7907   5.724   2.244   4.754
 2648TIP3    H1 7908   5.709   2.277   4.843
 2648TIP3    H2 7909   5.811   2.205   4.757
 2649TIP3   OH2 7910   5.178   5.415   0.821
 2649TIP3    H1 7911   5.193   5.353   0.750
 2649TIP3    H2 7912   5.114   5.477   0.785
 2650TIP3   OH2 7913   5.507   3.952   0.163
 2650TIP3    H1 7914   5.580   4.010   0.144
 2650TIP3    H2 7915   5.432   4.010   0.175
 2651TIP3   OH2 7916   4.525   6.565   3.893
 2651TIP3    H1 7917   4.454   6.520   3.938
 2651TIP3    H2 7918   4.508   6.551   3.800
 2652TIP3   OH2 7919   4.849   4.406   2.146
 2652TIP3    H1 7920   4.892   4.396   2.231
 2652TIP3    H2 7921   4.782   4.338   2.145
 2653TIP3   OH2 7922   2.511   0.870   0.591
 2653TIP3    H1 7923   2.588   0.869   0.649
 2653TIP3    H2 7924   2.478   0.781   0.594
 2654TIP3   OH2 7925   6.160   5.347   2.901
 2654TIP3    H1 7926   6.206   5.383   2.976
 2654TIP3    H2 7927   6.076   5.318   2.936
 2655TIP3   OH2 7928   7.072   3.072   3.723
 2655TIP3    H1 7929   7.115   3.066   3.638
 2655TIP3    H2 7930   7.000   3.010   3.718
 2656TIP3   OH2 7931   5.537   6.028   0.950
 2656TIP3    H1 7932   5.506   5.968   1.018
 2656TIP3    H2 7933   5.460   6.077   0.923
 2657TIP3   OH2 7934   5.811   5.470   3.146
 2657TIP3    H1 7935   5.741   5.423   3.102
 2657TIP3    H2 7936   5.873   5.492   3.077
 2658TIP3   OH2 7937   4.880   3.153   2.135
 2658TIP3    H1 7938   4.975   3.161   2.137
 2658TIP3    H2 7939   4.862   3.101   2.057
 2659TIP3   OH2 7940   2.424   1.972   4.532
 2659TIP3    H1 7941   2.510   1.967   4.490
 2659TIP3    H2 7942   2.389   1.883   4.523
 2660TIP3   OH2 7943   4.451   1.511   4.152
 2660TIP3    H1 7944   4.530   1.512   4.206
 2660TIP3    H2 7945   4.444   1.420   4.122
 2661TIP3   OH2 7946   2.187   6.477   0.248
 2661TIP3    H1 7947   2.141   6.414   0.304
 2661TIP3    H2 7948   2.178   6.440   0.160
 2662TIP3   OH2 7949   5.463   1.782   2.282
 2662TIP3    H1 7950   5.457   1.791   2.187
 2662TIP3    H2 7951   5.527   1.712   2.296
 2663TIP3   OH2 7952   0.163   4.728   4.024
 2663TIP3    H1 7953   0.168   4.636   4.049
 2663TIP3    H2 7954   0.072   4.741   3.997
 2664TIP3   OH2 7955   0.990   0.653   4.368
 2664TIP3    H1 7956   0.955   0.628   4.282
 2664TIP3    H2 7957   0.985   0.573   4.420
 2665TIP3   OH2 7958   7.036   4.958   4.217
 2665TIP3    H1 7959   7.029   4.864   4.202
 2665TIP3    H2 7960   6.949   4.993   4.195
 2666TIP3   OH2 7961   3.000   6.758   5.405
 2666TIP3    H1 7962   2.950   6.682   5.377
 2666TIP3    H2 7963   3.092   6.731   5.398
 2667TIP3   OH2 7964   0.725   6.201   4.523
 2667TIP3    H1 7965   0.714   6.210   4.428
 2667TIP3    H2 7966   0.713   6.107   4.539
 2668TIP3   OH2 7967   3.934   0.663   5.673
 2668TIP3    H1 7968   3.856   0.706   5.708
 2668TIP3    H2 7969   3.932   0.682   5.579
 2669TIP3   OH2 7970   4.573   2.464   4.898
 2669TIP3    H1 7971   4.596   2.435   4.810
 2669TIP3    H2 7972   4.648   2.514   4.928
 2670TIP3   OH2 7973   0.742   1.641   3.253
 2670TIP3    H1 7974   0.744   1.669   3.162
 2670TIP3    H2 7975   0.688   1.562   3.252
 2671TIP3   OH2 7976   5.003   1.158   4.941
 2671TIP3    H1 7977   4.991   1.253   4.938
 2671TIP3    H2 7978   4.972   1.128   4.856
 2672TIP3   OH2 7979   5.698   6.750   0.948
 2672TIP3    H1 7980   5.706   6.706   1.032
 2672TIP3    H2 7981   5.610   6.727   0.917
 2673TIP3   OH2 7982   3.291   0.866   3.780
 2673TIP3    H1 7983   3.368   0.809   3.780
 2673TIP3    H2 7984   3.309   0.930   3.849
 2674TIP3   OH2 7985   4.085   0.980   4.230
 2674TIP3    H1 7986   4.175   0.987   4.199
 2674TIP3    H2 7987   4.064   1.068   4.262
 2675TIP3   OH2 7988   5.881   4.246   3.752
 2675TIP3    H1 7989   5.954   4.306   3.738
 2675TIP3    H2 7990   5.923   4.162   3.772
 2676TIP3   OH2 7991   1.465   1.191   1.911
 2676TIP3    H1 7992   1.371   1.193   1.890
 2676TIP3    H2 7993   1.506   1.156   1.832
 2677TIP3   OH2 7994   5.200   5.485   0.121
 2677TIP3    H1 7995   5.214   5.482   0.027
 2677TIP3    H2 7996   5.161   5.400   0.142
 2678TIP3   OH2 7997   3.535   1.177   3.945
 2678TIP3    H1 7998   3.514   1.084   3.948
 2678TIP3    H2 7999   3.618   1.182   3.897
 2679TIP3   OH2 8000   3.745   6.432   2.798
 2679TIP3    H1 8001   3.833   6.417   2.765
 2679TIP3    H2 8002   3.734   6.365   2.866
 2680TIP3   OH2 8003   5.725   6.688   4.270
 2680TIP3    H1 8004   5.813   6.725   4.260
 2680TIP3    H2 8005   5.699   6.714   4.358
 2681TIP3   OH2 8006   4.406   5.926   1.693
 2681TIP3    H1 8007   4.497   5.956   1.691
 2681TIP3    H2 8008   4.399   5.865   1.619
 2682TIP3   OH2 8009   3.261   0.116   2.397
 2682TIP3    H1 8010   3.303   0.115   2.483
 2682TIP3    H2 8011   3.176   0.074   2.411
 2683TIP3   OH2 8012   0.571   1.028   1.403
 2683TIP3    H1 8013   0.565   0.948   1.455
 2683TIP3    H2 8014   0.520   1.093   1.452
 2684TIP3   OH2 8015   5.376   5.006   3.642
 2684TIP3    H1 8016   5.338   4.964   3.564
 2684TIP3    H2 8017   5.316   4.983   3.713
 2685TIP3   OH2 8018   3.997   6.787   5.567
 2685TIP3    H1 8019   3.970   6.799   5.476
 2685TIP3    H2 8020   4.085   6.825   5.571
 2686TIP3   OH2 8021   7.050   6.218   5.036
 2686TIP3    H1 8022   7.123   6.279   5.029
 2686TIP3    H2 8023   7.091   6.133   5.054
 2687TIP3   OH2 8024   5.959   1.224   1.140
 2687TIP3    H1 8025   5.912   1.305   1.159
 2687TIP3    H2 8026   6.003   1.202   1.222
 2688TIP3   OH2 8027   6.459   3.199   3.441
 2688TIP3    H1 8028   6.391   3.137   3.413
 2688TIP3    H2 8029   6.411   3.281   3.457
 2689TIP3   OH2 8030   4.070   0.822   3.811
 2689TIP3    H1 8031   4.021   0.740   3.820
 2689TIP3    H2 8032   4.105   0.820   3.722
 2690TIP3   OH2 8033   5.976   4.219   1.658
 2690TIP3    H1 8034   5.896   4.168   1.653
 2690TIP3    H2 8035   6.015   4.213   1.571
 2691TIP3   OH2 8036   2.955   1.082   3.755
 2691TIP3    H1 8037   2.977   1.120   3.840
 2691TIP3    H2 8038   2.860   1.092   3.749
 2692TIP3   OH2 8039   1.787   5.442   1.402
 2692TIP3    H1 8040   1.823   5.437   1.491
 2692TIP3    H2 8041   1.707   5.493   1.411
 2693TIP3   OH2 8042   2.960   1.234   4.572
 2693TIP3    H1 8043   2.892   1.170   4.591
 2693TIP3    H2 8044   2.919   1.294   4.510
 2694TIP3   OH2 8045   3.887   4.671   3.252
 2694TIP3    H1 8046   3.903   4.762   3.277
 2694TIP3    H2 8047   3.909   4.620   3.330
 2695TIP3   OH2 8048   1.987   0.050   3.467
 2695TIP3    H1 8049   1.983   0.117   3.398
 2695TIP3    H2 8050   1.896   0.030   3.486
 2696TIP3   OH2 8051   3.618   6.798   1.027
 2696TIP3    H1 8052   3.660   6.741   0.963
 2696TIP3    H2 8053   3.672   6.790   1.106
 2697TIP3   OH2 8054   1.904   0.254   3.294
 2697TIP3    H1 8055   1.947   0.331   3.259
 2697TIP3    H2 8056   1.826   0.243   3.239
 2698TIP3   OH2 8057   3.498   3.169   4.721
 2698TIP3    H1 8058   3.502   3.257   4.683
 2698TIP3    H2 8059   3.571   3.167   4.783
 2699TIP3   OH2 8060   5.252   3.708   5.199
 2699TIP3    H1 8061   5.321   3.771   5.181
 2699TIP3    H2 8062   5.171   3.758   5.193
 2700TIP3   OH2 8063   4.939   1.074   0.580
 2700TIP3    H1 8064   4.845   1.056   0.573
 2700TIP3    H2 8065   4.949   1.161   0.543
 2701TIP3   OH2 8066   1.723   6.088   4.354
 2701TIP3    H1 8067   1.643   6.100   4.302
 2701TIP3    H2 8068   1.692   6.076   4.444
 2702TIP3   OH2 8069   4.260   4.252   0.200
 2702TIP3    H1 8070   4.223   4.170   0.234
 2702TIP3    H2 8071   4.342   4.263   0.250
 2703TIP3   OH2 8072   2.423   3.314   4.409
 2703TIP3    H1 8073   2.428   3.335   4.316
 2703TIP3    H2 8074   2.353   3.248   4.415
 2704TIP3   OH2 8075   6.129   4.150   2.130
 2704TIP3    H1 8076   6.036   4.127   2.125
 2704TIP3    H2 8077   6.161   4.106   2.208
 2705TIP3   OH2 8078   6.626   1.857   5.194
 2705TIP3    H1 8079   6.670   1.772   5.201
 2705TIP3    H2 8080   6.630   1.878   5.101
 2706TIP3   OH2 8081   1.920   1.853   4.237
 2706TIP3    H1 8082   1.948   1.944   4.227
 2706TIP3    H2 8083   1.995   1.801   4.208
 2707TIP3   OH2 8084   5.804   4.583   5.630
 2707TIP3    H1 8085   5.736   4.638   5.668
 2707TIP3    H2 8086   5.873   4.580   5.695
 2708TIP3   OH2 8087   5.591   0.400   1.236
 2708TIP3    H1 8088   5.664   0.456   1.211
 2708TIP3    H2 8089   5.541   0.452   1.299
 2709TIP3   OH2 8090   3.505   4.216   4.294
 2709TIP3    H1 8091   3.414   4.192   4.282
 2709TIP3    H2 8092   3.546   4.200   4.209
 2710TIP3   OH2 8093   3.250   4.824   1.061
 2710TIP3    H1 8094   3.342   4.808   1.084
 2710TIP3    H2 8095   3.245   4.804   0.967
 2711TIP3   OH2 8096   1.392   5.471   5.685
 2711TIP3    H1 8097   1.325   5.450   5.750
 2711TIP3    H2 8098   1.475   5.452   5.729
 2712TIP3   OH2 8099   4.751   1.515   3.023
 2712TIP3    H1 8100   4.757   1.422   3.046
 2712TIP3    H2 8101   4.796   1.560   3.095
 2713TIP3   OH2 8102   0.862   3.493   0.279
 2713TIP3    H1 8103   0.838   3.480   0.188
 2713TIP3    H2 8104   0.954   3.521   0.276
 2714TIP3   OH2 8105   0.723   1.360   2.560
 2714TIP3    H1 8106   0.753   1.358   2.651
 2714TIP3    H2 8107   0.799   1.394   2.511
 2715TIP3   OH2 8108   4.944   5.105   3.246
 2715TIP3    H1 8109   4.938   5.094   3.341
 2715TIP3    H2 8110   4.883   5.176   3.225
 2716TIP3   OH2 8111   2.538   4.201   0.277
 2716TIP3    H1 8112   2.479   4.239   0.343
 2716TIP3    H2 8113   2.612   4.261   0.275
 2717TIP3   OH2 8114   0.975   4.622   2.962
 2717TIP3    H1 8115   1.021   4.567   2.899
 2717TIP3    H2 8116   1.021   4.706   2.958
 2718TIP3   OH2 8117   6.974   3.478   1.838
 2718TIP3    H1 8118   6.896   3.530   1.859
 2718TIP3    H2 8119   7.033   3.493   1.912
 2719TIP3   OH2 8120   5.538   4.479   4.537
 2719TIP3    H1 8121   5.478   4.463   4.464
 2719TIP3    H2 8122   5.516   4.412   4.601
 2720TIP3   OH2 8123   3.720   2.934   4.713
 2720TIP3    H1 8124   3.753   3.014   4.754
 2720TIP3    H2 8125   3.641   2.913   4.761
 2721TIP3   OH2 8126   3.629   6.377   2.150
 2721TIP3    H1 8127   3.642   6.450   2.210
 2721TIP3    H2 8128   3.578   6.414   2.078
 2722TIP3   OH2 8129   5.228   2.896   3.441
 2722TIP3    H1 8130   5.304   2.954   3.438
 2722TIP3    H2 8131   5.221   2.860   3.353
 2723TIP3   OH2 8132   1.765  -0.001   4.537
 2723TIP3    H1 8133   1.858   0.013   4.557
 2723TIP3    H2 8134   1.724   0.083   4.558
 2724TIP3   OH2 8135   4.238   2.791   0.596
 2724TIP3    H1 8136   4.269   2.781   0.506
 2724TIP3    H2 8137   4.297   2.856   0.635
 2725TIP3   OH2 8138   3.768   0.192   2.372
 2725TIP3    H1 8139   3.696   0.250   2.346
 2725TIP3    H2 8140   3.730   0.136   2.441
 2726TIP3   OH2 8141   5.075   0.625   1.034
 2726TIP3    H1 8142   5.081   0.643   1.128
 2726TIP3    H2 8143   5.064   0.711   0.993
 2727TIP3   OH2 8144   2.199   2.117   4.448
 2727TIP3    H1 8145   2.155   2.082   4.526
 2727TIP3    H2 8146   2.292   2.097   4.462
 2728TIP3   OH2 8147   3.344   4.990   3.979
 2728TIP3    H1 8148   3.316   4.929   4.047
 2728TIP3    H2 8149   3.263   5.020   3.938
 2729TIP3   OH2 8150   5.221   2.877   1.796
 2729TIP3    H1 8151   5.207   2.858   1.889
 2729TIP3    H2 8152   5.189   2.967   1.785
 2730TIP3   OH2 8153   2.291   2.082   2.869
 2730TIP3    H1 8154   2.274   1.996   2.830
 2730TIP3    H2 8155   2.306   2.140   2.794
 2731TIP3   OH2 8156   2.118   2.625   4.746
 2731TIP3    H1 8157   2.194   2.569   4.728
 2731TIP3    H2 8158   2.154   2.699   4.795
 2732TIP3   OH2 8159   1.486   2.210   5.439
 2732TIP3    H1 8160   1.471   2.117   5.454
 2732TIP3    H2 8161   1.418   2.235   5.375
 2733TIP3   OH2 8162   6.929   6.728   2.330
 2733TIP3    H1 8163   6.985   6.743   2.254
 2733TIP3    H2 8164   6.972   6.657   2.378
 2734TIP3   OH2 8165   3.942   1.447   4.001
 2734TIP3    H1 8166   4.016   1.434   3.942
 2734TIP3    H2 8167   3.926   1.541   3.999
 2735TIP3   OH2 8168   5.891   0.349   4.125
 2735TIP3    H1 8169   5.973   0.366   4.079
 2735TIP3    H2 8170   5.906   0.267   4.172
 2736TIP3   OH2 8171   5.435   3.207   1.785
 2736TIP3    H1 8172   5.341   3.191   1.788
 2736TIP3    H2 8173   5.474   3.121   1.768
 2737TIP3   OH2 8174   6.500   5.992   2.216
 2737TIP3    H1 8175   6.512   5.908   2.171
 2737TIP3    H2 8176   6.407   6.013   2.205
 2738TIP3   OH2 8177   5.888   5.723   1.267
 2738TIP3    H1 8178   5.884   5.675   1.184
 2738TIP3    H2 8179   5.843   5.667   1.330
 2739TIP3   OH2 8180   2.866   2.992   5.397
 2739TIP3    H1 8181   2.822   3.060   5.449
 2739TIP3    H2 8182   2.959   3.013   5.406
 2740TIP3   OH2 8183   6.894   1.413   1.609
 2740TIP3    H1 8184   6.880   1.507   1.599
 2740TIP3    H2 8185   6.887   1.379   1.520
 2741TIP3   OH2 8186   3.879   6.699   5.293
 2741TIP3    H1 8187   3.858   6.690   5.200
 2741TIP3    H2 8188   3.974   6.689   5.297
 2742TIP3   OH2 8189   3.841   3.606   2.498
 2742TIP3    H1 8190   3.914   3.659   2.532
 2742TIP3    H2 8191   3.870   3.516   2.510
 2743TIP3   OH2 8192   2.172   5.358   3.719
 2743TIP3    H1 8193   2.155   5.453   3.717
 2743TIP3    H2 8194   2.134   5.325   3.638
 2744TIP3   OH2 8195   5.007   0.396   4.992
 2744TIP3    H1 8196   5.014   0.312   4.948
 2744TIP3    H2 8197   5.010   0.375   5.085
 2745TIP3   OH2 8198   6.604   2.501   5.800
 2745TIP3    H1 8199   6.586   2.450   5.879
 2745TIP3    H2 8200   6.631   2.435   5.736
 2746TIP3   OH2 8201   6.983   4.467   5.626
 2746TIP3    H1 8202   6.970   4.473   5.532
 2746TIP3    H2 8203   7.061   4.412   5.636
 2747TIP3   OH2 8204   1.529   4.569   4.678
 2747TIP3    H1 8205   1.591   4.636   4.648
 2747TIP3    H2 8206   1.583   4.491   4.692
 2748TIP3   OH2 8207   1.085   4.022   2.437
 2748TIP3    H1 8208   1.046   3.959   2.498
 2748TIP3    H2 8209   1.061   4.107   2.473
 2749TIP3   OH2 8210   4.576   5.733   3.673
 2749TIP3    H1 8211   4.546   5.675   3.743
 2749TIP3    H2 8212   4.579   5.678   3.595
 2750TIP3   OH2 8213   6.446   4.582   3.708
 2750TIP3    H1 8214   6.451   4.553   3.617
 2750TIP3    H2 8215   6.468   4.675   3.705
 2751TIP3   OH2 8216   6.209   4.669   0.462
 2751TIP3    H1 8217   6.300   4.641   0.474
 2751TIP3    H2 8218   6.175   4.611   0.394
 2752TIP3   OH2 8219   2.828   6.809   0.307
 2752TIP3    H1 8220   2.917   6.784   0.284
 2752TIP3    H2 8221   2.831   6.829   0.401
 2753TIP3   OH2 8222   4.569   5.711   3.141
 2753TIP3    H1 8223   4.498   5.748   3.089
 2753TIP3    H2 8224   4.530   5.635   3.185
 2754TIP3   OH2 8225   4.591   4.376   1.167
 2754TIP3    H1 8226   4.655   4.344   1.231
 2754TIP3    H2 8227   4.506   4.354   1.205
 2755TIP3   OH2 8228   5.590   2.381   1.521
 2755TIP3    H1 8229   5.562   2.470   1.502
 2755TIP3    H2 8230   5.629   2.350   1.440
 2756TIP3   OH2 8231   6.863   4.884   2.197
 2756TIP3    H1 8232   6.840   4.794   2.176
 2756TIP3    H2 8233   6.834   4.896   2.287
 2757TIP3   OH2 8234   5.662   0.799   3.015
 2757TIP3    H1 8235   5.692   0.854   3.087
 2757TIP3    H2 8236   5.695   0.711   3.036
 2758TIP3   OH2 8237   6.110   0.546   2.104
 2758TIP3    H1 8238   6.141   0.625   2.147
 2758TIP3    H2 8239   6.190   0.504   2.071
 2759TIP3   OH2 8240   2.919   5.987   0.181
 2759TIP3    H1 8241   2.973   6.066   0.187
 2759TIP3    H2 8242   2.982   5.916   0.169
 2760TIP3   OH2 8243   1.224   2.334   0.991
 2760TIP3    H1 8244   1.142   2.366   1.029
 2760TIP3    H2 8245   1.273   2.413   0.970
 2761TIP3   OH2 8246   4.303   1.029   4.452
 2761TIP3    H1 8247   4.329   0.937   4.453
 2761TIP3    H2 8248   4.352   1.068   4.525
 2762TIP3   OH2 8249   5.974   0.018   3.676
 2762TIP3    H1 8250   6.006  -0.031   3.752
 2762TIP3    H2 8251   5.993   0.109   3.696
 2763TIP3   OH2 8252   2.013   1.965   1.432
 2763TIP3    H1 8253   2.058   2.038   1.390
 2763TIP3    H2 8254   2.061   1.887   1.403
 2764TIP3   OH2 8255   0.022   6.038   0.213
 2764TIP3    H1 8256   0.027   5.960   0.268
 2764TIP3    H2 8257   0.096   6.031   0.154
 2765TIP3   OH2 8258   2.002   2.426   4.321
 2765TIP3    H1 8259   1.972   2.487   4.389
 2765TIP3    H2 8260   2.097   2.433   4.323
 2766TIP3   OH2 8261   3.402   0.326   0.949
 2766TIP3    H1 8262   3.434   0.403   0.902
 2766TIP3    H2 8263   3.322   0.356   0.993
 2767TIP3   OH2 8264   2.378   3.566   3.784
 2767TIP3    H1 8265   2.363   3.636   3.848
 2767TIP3    H2 8266   2.454   3.519   3.818
 2768TIP3   OH2 8267   1.415   3.813   2.658
 2768TIP3    H1 8268   1.365   3.801   2.578
 2768TIP3    H2 8269   1.507   3.807   2.631
 2769TIP3   OH2 8270   0.357   4.689   0.850
 2769TIP3    H1 8271   0.415   4.672   0.775
 2769TIP3    H2 8272   0.291   4.749   0.815
 2770TIP3   OH2 8273   5.240   5.409   2.857
 2770TIP3    H1 8274   5.287   5.485   2.890
 2770TIP3    H2 8275   5.148   5.427   2.877
 2771TIP3   OH2 8276   3.689   3.211   0.026
 2771TIP3    H1 8277   3.727   3.138   0.075
 2771TIP3    H2 8278   3.594   3.203   0.042
 2772TIP3   OH2 8279   0.704   1.467   0.225
 2772TIP3    H1 8280   0.634   1.417   0.184
 2772TIP3    H2 8281   0.758   1.401   0.268
 2773TIP3   OH2 8282   4.230   4.748   2.993
 2773TIP3    H1 8283   4.205   4.738   2.901
 2773TIP3    H2 8284   4.162   4.806   3.030
 2774TIP3   OH2 8285   1.549   0.191   0.926
 2774TIP3    H1 8286   1.600   0.143   0.991
 2774TIP3    H2 8287   1.614   0.229   0.867
 2775TIP3   OH2 8288   4.049   3.133   1.513
 2775TIP3    H1 8289   4.082   3.135   1.602
 2775TIP3    H2 8290   4.111   3.186   1.463
 2776TIP3   OH2 8291   6.980   2.592   4.759
 2776TIP3    H1 8292   6.920   2.532   4.714
 2776TIP3    H2 8293   6.995   2.662   4.696
 2777TIP3   OH2 8294   2.393   5.618   4.722
 2777TIP3    H1 8295   2.414   5.526   4.736
 2777TIP3    H2 8296   2.471   5.655   4.680
 2778TIP3   OH2 8297   5.190   5.509   0.394
 2778TIP3    H1 8298   5.222   5.501   0.304
 2778TIP3    H2 8299   5.109   5.458   0.395
 2779TIP3   OH2 8300   3.565   5.023   0.240
 2779TIP3    H1 8301   3.623   5.005   0.166
 2779TIP3    H2 8302   3.555   5.119   0.239
 2780TIP3   OH2 8303   2.617   2.162   1.411
 2780TIP3    H1 8304   2.529   2.130   1.392
 2780TIP3    H2 8305   2.644   2.208   1.332
 2781TIP3   OH2 8306   4.905   3.610   5.115
 2781TIP3    H1 8307   4.816   3.621   5.081
 2781TIP3    H2 8308   4.962   3.628   5.040
 2782TIP3   OH2 8309   0.120   0.627   0.602
 2782TIP3    H1 8310   0.071   0.556   0.644
 2782TIP3    H2 8311   0.101   0.618   0.509
 2783TIP3   OH2 8312   4.424   4.948   1.708
 2783TIP3    H1 8313   4.416   4.853   1.706
 2783TIP3    H2 8314   4.343   4.978   1.749
 2784TIP3   OH2 8315   7.161   0.707   5.132
 2784TIP3    H1 8316   7.135   0.666   5.050
 2784TIP3    H2 8317   7.240   0.661   5.159
 2785TIP3   OH2 8318   1.753   2.197   2.213
 2785TIP3    H1 8319   1.728   2.289   2.208
 2785TIP3    H2 8320   1.718   2.159   2.132
 2786TIP3   OH2 8321   5.979   0.202   5.762
 2786TIP3    H1 8322   5.944   0.261   5.828
 2786TIP3    H2 8323   6.046   0.152   5.809
 2787TIP3   OH2 8324   0.543   5.239   5.102
 2787TIP3    H1 8325   0.537   5.324   5.058
 2787TIP3    H2 8326   0.460   5.231   5.150
 2788TIP3   OH2 8327   4.501   1.637   2.028
 2788TIP3    H1 8328   4.481   1.698   1.958
 2788TIP3    H2 8329   4.431   1.573   2.025
 2789TIP3   OH2 8330   7.126   4.261   3.080
 2789TIP3    H1 8331   7.061   4.202   3.041
 2789TIP3    H2 8332   7.082   4.298   3.157
 2790TIP3   OH2 8333   3.132   0.662   2.166
 2790TIP3    H1 8334   3.214   0.627   2.202
 2790TIP3    H2 8335   3.066   0.641   2.233
 2791TIP3   OH2 8336   2.135   6.736   5.533
 2791TIP3    H1 8337   2.043   6.710   5.528
 2791TIP3    H2 8338   2.134   6.831   5.524
 2792TIP3   OH2 8339   1.666   5.006   2.109
 2792TIP3    H1 8340   1.584   4.977   2.150
 2792TIP3    H2 8341   1.731   4.941   2.137
 2793TIP3   OH2 8342   1.744   2.548   1.195
 2793TIP3    H1 8343   1.829   2.577   1.163
 2793TIP3    H2 8344   1.735   2.459   1.162
 2794TIP3   OH2 8345   5.556   3.386   2.653
 2794TIP3    H1 8346   5.541   3.306   2.603
 2794TIP3    H2 8347   5.502   3.376   2.731
 2795TIP3   OH2 8348   5.742   1.267   1.405
 2795TIP3    H1 8349   5.703   1.335   1.350
 2795TIP3    H2 8350   5.832   1.295   1.418
 2796TIP3   OH2 8351   2.647   2.806   1.568
 2796TIP3    H1 8352   2.670   2.796   1.660
 2796TIP3    H2 8353   2.595   2.887   1.565
 2797TIP3   OH2 8354   0.697   0.108   4.833
 2797TIP3    H1 8355   0.607   0.137   4.819
 2797TIP3    H2 8356   0.691   0.013   4.838
 2798TIP3   OH2 8357   4.915   4.075   2.975
 2798TIP3    H1 8358   4.835   4.026   2.996
 2798TIP3    H2 8359   4.938   4.120   3.056
 2799TIP3   OH2 8360   2.416   4.360   4.746
 2799TIP3    H1 8361   2.348   4.425   4.761
 2799TIP3    H2 8362   2.455   4.346   4.833
 2800TIP3   OH2 8363   4.837   6.241   3.061
 2800TIP3    H1 8364   4.807   6.175   2.999
 2800TIP3    H2 8365   4.887   6.303   3.007
 2801TIP3   OH2 8366  -0.029   1.028   3.083
 2801TIP3    H1 8367  -0.018   1.104   3.025
 2801TIP3    H2 8368   0.016   0.957   3.039
 2802TIP3   OH2 8369   0.972   2.519   3.847
 2802TIP3    H1 8370   0.996   2.583   3.780
 2802TIP3    H2 8371   1.004   2.436   3.812
 2803TIP3   OH2 8372   1.680   0.851   5.484
 2803TIP3    H1 8373   1.696   0.757   5.498
 2803TIP3    H2 8374   1.585   0.858   5.474
 2804TIP3   OH2 8375   0.632   5.728   1.799
 2804TIP3    H1 8376   0.581   5.805   1.774
 2804TIP3    H2 8377   0.678   5.702   1.720
 2805TIP3   OH2 8378   0.694   3.869   3.293
 2805TIP3    H1 8379   0.698   3.774   3.292
 2805TIP3    H2 8380   0.777   3.897   3.253
 2806TIP3   OH2 8381   3.387   0.302   4.824
 2806TIP3    H1 8382   3.409   0.235   4.889
 2806TIP3    H2 8383   3.311   0.267   4.777
 2807TIP3   OH2 8384   5.732   5.349   5.710
 2807TIP3    H1 8385   5.788   5.283   5.668
 2807TIP3    H2 8386   5.710   5.312   5.795
 2808TIP3   OH2 8387   5.464   0.281   5.606
 2808TIP3    H1 8388   5.395   0.238   5.556
 2808TIP3    H2 8389   5.523   0.211   5.632
 2809TIP3   OH2 8390   0.287   3.194   2.316
 2809TIP3    H1 8391   0.311   3.207   2.224
 2809TIP3    H2 8392   0.269   3.100   2.323
 2810TIP3   OH2 8393   2.511   2.273   1.788
 2810TIP3    H1 8394   2.535   2.191   1.745
 2810TIP3    H2 8395   2.536   2.341   1.724
 2811TIP3   OH2 8396   7.125   5.752   2.191
 2811TIP3    H1 8397   7.171   5.751   2.107
 2811TIP3    H2 8398   7.118   5.845   2.213
 2812TIP3   OH2 8399   5.013   5.432   1.323
 2812TIP3    H1 8400   4.961   5.443   1.402
 2812TIP3    H2 8401   5.041   5.341   1.325
 2813TIP3   OH2 8402   6.238   3.013   5.451
 2813TIP3    H1 8403   6.238   3.105   5.426
 2813TIP3    H2 8404   6.292   3.009   5.530
 2814TIP3   OH2 8405   0.789   6.587   3.685
 2814TIP3    H1 8406   0.775   6.637   3.765
 2814TIP3    H2 8407   0.719   6.521   3.686
 2815TIP3   OH2 8408   1.868   4.855   5.150
 2815TIP3    H1 8409   1.838   4.767   5.176
 2815TIP3    H2 8410   1.830   4.913   5.215
 2816TIP3   OH2 8411   1.005   6.147   3.117
 2816TIP3    H1 8412   0.951   6.092   3.061
 2816TIP3    H2 8413   1.036   6.089   3.186
 2817TIP3   OH2 8414   6.255   2.947   2.491
 2817TIP3    H1 8415   6.339   2.951   2.446
 2817TIP3    H2 8416   6.231   3.039   2.504
 2818TIP3   OH2 8417   1.789   5.808   3.478
 2818TIP3    H1 8418   1.806   5.834   3.569
 2818TIP3    H2 8419   1.789   5.713   3.480
 2819TIP3   OH2 8420   3.214   5.076   0.852
 2819TIP3    H1 8421   3.307   5.076   0.874
 2819TIP3    H2 8422   3.195   4.986   0.826
 2820TIP3   OH2 8423   3.799   5.244   5.725
 2820TIP3    H1 8424   3.836   5.324   5.687
 2820TIP3    H2 8425   3.831   5.244   5.816
 2821TIP3   OH2 8426   1.967   1.746   2.520
 2821TIP3    H1 8427   1.924   1.818   2.567
 2821TIP3    H2 8428   1.911   1.730   2.444
 2822TIP3   OH2 8429   4.363   4.337   2.252
 2822TIP3    H1 8430   4.400   4.286   2.180
 2822TIP3    H2 8431   4.270   4.312   2.253
 2823TIP3   OH2 8432   7.043   5.085   2.149
 2823TIP3    H1 8433   6.998   5.153   2.200
 2823TIP3    H2 8434   6.990   5.007   2.163
 2824TIP3   OH2 8435   4.021   4.225   5.628
 2824TIP3    H1 8436   4.098   4.194   5.580
 2824TIP3    H2 8437   3.958   4.153   5.621
 2825TIP3   OH2 8438   2.333   5.262   0.900
 2825TIP3    H1 8439   2.311   5.236   0.990
 2825TIP3    H2 8440   2.256   5.308   0.869
 2826TIP3   OH2 8441   6.793   0.618   1.974
 2826TIP3    H1 8442   6.828   0.529   1.982
 2826TIP3    H2 8443   6.863   0.668   1.933
 2827TIP3   OH2 8444   5.927   4.481   4.194
 2827TIP3    H1 8445   5.939   4.438   4.279
 2827TIP3    H2 8446   6.016   4.497   4.163
 2828TIP3   OH2 8447   5.431   4.587   5.489
 2828TIP3    H1 8448   5.394   4.556   5.572
 2828TIP3    H2 8449   5.516   4.624   5.513
 2829TIP3   OH2 8450   3.552   5.388   0.174
 2829TIP3    H1 8451   3.508   5.420   0.253
 2829TIP3    H2 8452   3.495   5.414   0.102
 2830TIP3   OH2 8453   3.755   2.245   1.867
 2830TIP3    H1 8454   3.833   2.285   1.905
 2830TIP3    H2 8455   3.741   2.294   1.786
 2831TIP3   OH2 8456   5.842   1.665   1.351
 2831TIP3    H1 8457   5.919   1.721   1.341
 2831TIP3    H2 8458   5.768   1.726   1.346
 2832TIP3   OH2 8459   5.139   2.429   3.449
 2832TIP3    H1 8460   5.074   2.369   3.487
 2832TIP3    H2 8461   5.106   2.516   3.469
 2833TIP3   OH2 8462   3.776   5.822   1.777
 2833TIP3    H1 8463   3.729   5.887   1.725
 2833TIP3    H2 8464   3.725   5.815   1.857
 2834TIP3   OH2 8465   0.523   2.698   1.893
 2834TIP3    H1 8466   0.554   2.783   1.864
 2834TIP3    H2 8467   0.600   2.654   1.928
 2835TIP3   OH2 8468   5.488   2.338   5.221
 2835TIP3    H1 8469   5.410   2.309   5.173
 2835TIP3    H2 8470   5.458   2.346   5.311
 2836TIP3   OH2 8471   3.592   4.041   0.808
 2836TIP3    H1 8472   3.544   4.098   0.748
 2836TIP3    H2 8473   3.613   3.963   0.756
 2837TIP3   OH2 8474   4.840   4.190   5.001
 2837TIP3    H1 8475   4.747   4.210   5.009
 2837TIP3    H2 8476   4.884   4.261   5.048
 2838TIP3   OH2 8477   3.119   2.973   5.119
 2838TIP3    H1 8478   3.037   3.010   5.086
 2838TIP3    H2 8479   3.184   3.042   5.106
 2839TIP3   OH2 8480   2.633   3.978   4.953
 2839TIP3    H1 8481   2.610   4.037   4.881
 2839TIP3    H2 8482   2.666   4.035   5.022
 2840TIP3   OH2 8483   0.569   3.389   1.659
 2840TIP3    H1 8484   0.634   3.324   1.686
 2840TIP3    H2 8485   0.485   3.350   1.684
 2841TIP3   OH2 8486   4.816   0.407   3.857
 2841TIP3    H1 8487   4.841   0.412   3.950
 2841TIP3    H2 8488   4.882   0.459   3.812
 2842TIP3   OH2 8489   1.046   2.144   4.963
 2842TIP3    H1 8490   1.030   2.051   4.951
 2842TIP3    H2 8491   0.968   2.177   5.008
 2843TIP3   OH2 8492   2.670   4.037   0.561
 2843TIP3    H1 8493   2.623   4.107   0.605
 2843TIP3    H2 8494   2.729   4.081   0.501
 2844TIP3   OH2 8495   4.226   6.742   2.414
 2844TIP3    H1 8496   4.226   6.787   2.330
 2844TIP3    H2 8497   4.146   6.772   2.458
 2845TIP3   OH2 8498   5.092   0.590   3.115
 2845TIP3    H1 8499   5.000   0.564   3.114
 2845TIP3    H2 8500   5.136   0.524   3.168
 2846TIP3   OH2 8501   6.179   2.158   4.173
 2846TIP3    H1 8502   6.193   2.204   4.091
 2846TIP3    H2 8503   6.188   2.225   4.241
 2847TIP3   OH2 8504   6.926   3.974   5.764
 2847TIP3    H1 8505   6.874   3.902   5.802
 2847TIP3    H2 8506   6.903   3.974   5.671
 2848TIP3   OH2 8507   0.926   3.422  -0.013
 2848TIP3    H1 8508   0.859   3.488  -0.033
 2848TIP3    H2 8509   0.970   3.406  -0.096
 2849TIP3   OH2 8510   5.759   3.727   4.879
 2849TIP3    H1 8511   5.797   3.778   4.807
 2849TIP3    H2 8512   5.747   3.791   4.949
 2850TIP3   OH2 8513   2.703   2.920   2.741
 2850TIP3    H1 8514   2.690   2.825   2.747
 2850TIP3    H2 8515   2.700   2.938   2.647
 2851TIP3   OH2 8516   5.084   2.006   5.078
 2851TIP3    H1 8517   5.093   2.054   5.160
 2851TIP3    H2 8518   5.040   2.067   5.019
 2852TIP3   OH2 8519   3.883   3.382   5.041
 2852TIP3    H1 8520   3.865   3.389   5.135
 2852TIP3    H2 8521   3.977   3.398   5.033
 2853TIP3   OH2 8522   0.672   0.476   4.162
 2853TIP3    H1 8523   0.621   0.532   4.221
 2853TIP3    H2 8524   0.606   0.427   4.113
 2854TIP3   OH2 8525  -0.021   2.640   1.146
 2854TIP3    H1 8526  -0.028   2.692   1.226
 2854TIP3    H2 8527   0.072   2.620   1.138
 2855TIP3   OH2 8528   5.322   0.769   2.039
 2855TIP3    H1 8529   5.235   0.809   2.046
 2855TIP3    H2 8530   5.383   0.839   2.064
 2856TIP3   OH2 8531   1.295   4.025   1.980
 2856TIP3    H1 8532   1.222   4.061   2.030
 2856TIP3    H2 8533   1.289   3.930   1.994
 2857TIP3   OH2 8534   1.884   3.801   5.052
 2857TIP3    H1 8535   1.816   3.744   5.088
 2857TIP3    H2 8536   1.850   3.828   4.966
 2858TIP3   OH2 8537   4.226   2.446   2.682
 2858TIP3    H1 8538   4.189   2.485   2.762
 2858TIP3    H2 8539   4.229   2.519   2.619
 2859TIP3   OH2 8540   7.041   1.254   2.326
 2859TIP3    H1 8541   7.025   1.274   2.234
 2859TIP3    H2 8542   6.958   1.272   2.370
 2860TIP3   OH2 8543   2.173   4.491   4.875
 2860TIP3    H1 8544   2.191   4.581   4.903
 2860TIP3    H2 8545   2.097   4.499   4.817
 2861TIP3   OH2 8546   1.420   0.343   4.684
 2861TIP3    H1 8547   1.381   0.430   4.686
 2861TIP3    H2 8548   1.430   0.318   4.776
 2862TIP3   OH2 8549   1.152   1.121   5.774
 2862TIP3    H1 8550   1.197   1.045   5.812
 2862TIP3    H2 8551   1.216   1.157   5.711
 2863TIP3   OH2 8552   2.218   4.025   4.953
 2863TIP3    H1 8553   2.131   4.065   4.957
 2863TIP3    H2 8554   2.235   3.997   5.043
 2864TIP3   OH2 8555   1.485   1.887   5.669
 2864TIP3    H1 8556   1.459   1.974   5.699
 2864TIP3    H2 8557   1.561   1.902   5.614
 2865TIP3   OH2 8558   0.340   3.553   1.572
 2865TIP3    H1 8559   0.421   3.588   1.610
 2865TIP3    H2 8560   0.322   3.474   1.623
 2866TIP3   OH2 8561   6.422   1.019   4.084
 2866TIP3    H1 8562   6.506   0.998   4.044
 2866TIP3    H2 8563   6.374   0.937   4.083
 2867TIP3   OH2 8564   6.665   0.292   5.156
 2867TIP3    H1 8565   6.611   0.302   5.077
 2867TIP3    H2 8566   6.753   0.275   5.123
 2868TIP3   OH2 8567   4.333   1.634   0.217
 2868TIP3    H1 8568   4.244   1.618   0.188
 2868TIP3    H2 8569   4.360   1.552   0.259
 2869TIP3   OH2 8570   1.165   0.907   5.280
 2869TIP3    H1 8571   1.099   0.860   5.229
 2869TIP3    H2 8572   1.207   0.965   5.216
 2870TIP3   OH2 8573   4.352   3.787   0.496
 2870TIP3    H1 8574   4.374   3.781   0.589
 2870TIP3    H2 8575   4.260   3.812   0.495
 2871TIP3   OH2 8576   0.574   5.925   3.877
 2871TIP3    H1 8577   0.610   5.836   3.880
 2871TIP3    H2 8578   0.479   5.913   3.889
 2872TIP3   OH2 8579   0.607   3.292   2.201
 2872TIP3    H1 8580   0.577   3.343   2.125
 2872TIP3    H2 8581   0.577   3.203   2.183
 2873TIP3   OH2 8582   4.680   0.852   2.765
 2873TIP3    H1 8583   4.738   0.807   2.826
 2873TIP3    H2 8584   4.629   0.782   2.724
 2874TIP3   OH2 8585   0.854   5.048   2.819
 2874TIP3    H1 8586   0.872   5.111   2.888
 2874TIP3    H2 8587   0.923   4.982   2.829
 2875TIP3   OH2 8588   2.719   3.633   2.166
 2875TIP3    H1 8589   2.737   3.672   2.251
 2875TIP3    H2 8590   2.654   3.565   2.184
 2876TIP3   OH2 8591   3.805   6.290   1.552
 2876TIP3    H1 8592   3.809   6.249   1.638
 2876TIP3    H2 8593   3.799   6.218   1.490
 2877TIP3   OH2 8594   3.234   6.175   3.859
 2877TIP3    H1 8595   3.208   6.094   3.815
 2877TIP3    H2 8596   3.317   6.153   3.902
 2878TIP3   OH2 8597   3.847   6.521   2.509
 2878TIP3    H1 8598   3.759   6.509   2.472
 2878TIP3    H2 8599   3.906   6.512   2.434
 2879TIP3   OH2 8600   1.699   3.075   5.276
 2879TIP3    H1 8601   1.751   3.022   5.337
 2879TIP3    H2 8602   1.612   3.035   5.278
 2880TIP3   OH2 8603   3.646   2.729   5.122
 2880TIP3    H1 8604   3.603   2.720   5.036
 2880TIP3    H2 8605   3.610   2.657   5.174
 2881TIP3   OH2 8606   3.143   5.117   0.155
 2881TIP3    H1 8607   3.097   5.046   0.111
 2881TIP3    H2 8608   3.137   5.191   0.095
 2882TIP3   OH2 8609   4.797   0.211   3.670
 2882TIP3    H1 8610   4.810   0.285   3.730
 2882TIP3    H2 8611   4.801   0.134   3.726
 2883TIP3   OH2 8612   2.919   3.965   3.466
 2883TIP3    H1 8613   3.014   3.952   3.474
 2883TIP3    H2 8614   2.907   4.006   3.380
 2884TIP3   OH2 8615   7.216   4.004   5.827
 2884TIP3    H1 8616   7.135   3.991   5.778
 2884TIP3    H2 8617   7.246   3.915   5.847
 2885TIP3   OH2 8618   5.329   5.452   5.139
 2885TIP3    H1 8619   5.317   5.411   5.224
 2885TIP3    H2 8620   5.423   5.465   5.131
 2886TIP3   OH2 8621   4.035   6.107   3.108
 2886TIP3    H1 8622   4.105   6.127   3.170
 2886TIP3    H2 8623   4.048   6.015   3.087
 2887TIP3   OH2 8624   1.830   5.025   2.977
 2887TIP3    H1 8625   1.842   4.934   3.004
 2887TIP3    H2 8626   1.762   5.058   3.035
 2888TIP3   OH2 8627   0.521   3.720   3.963
 2888TIP3    H1 8628   0.588   3.788   3.972
 2888TIP3    H2 8629   0.567   3.638   3.981
 2889TIP3   OH2 8630   5.557   3.085   3.659
 2889TIP3    H1 8631   5.532   3.015   3.718
 2889TIP3    H2 8632   5.481   3.144   3.658
 2890TIP3   OH2 8633   4.043   1.729   2.198
 2890TIP3    H1 8634   3.957   1.728   2.240
 2890TIP3    H2 8635   4.097   1.785   2.253
 2891TIP3   OH2 8636   1.209   3.344   2.612
 2891TIP3    H1 8637   1.199   3.404   2.538
 2891TIP3    H2 8638   1.133   3.285   2.605
 2892TIP3   OH2 8639   5.807   2.829   0.798
 2892TIP3    H1 8640   5.736   2.889   0.777
 2892TIP3    H2 8641   5.800   2.760   0.732
 2893TIP3   OH2 8642   5.459   6.201   4.453
 2893TIP3    H1 8643   5.488   6.109   4.457
 2893TIP3    H2 8644   5.526   6.249   4.501
 2894TIP3   OH2 8645   5.370   5.029   5.448
 2894TIP3    H1 8646   5.336   4.951   5.404
 2894TIP3    H2 8647   5.393   4.998   5.536
 2895TIP3   OH2 8648   1.256   1.680   5.882
 2895TIP3    H1 8649   1.306   1.628   5.820
 2895TIP3    H2 8650   1.210   1.744   5.828
 2896TIP3   OH2 8651   5.912   0.124   4.290
 2896TIP3    H1 8652   5.849   0.057   4.263
 2896TIP3    H2 8653   5.902   0.129   4.385
 2897TIP3   OH2 8654   2.726   4.407   1.344
 2897TIP3    H1 8655   2.750   4.485   1.394
 2897TIP3    H2 8656   2.802   4.390   1.288
 2898TIP3   OH2 8657   4.198   0.544   3.418
 2898TIP3    H1 8658   4.133   0.592   3.367
 2898TIP3    H2 8659   4.249   0.496   3.352
 2899TIP3   OH2 8660   5.354   2.174   4.337
 2899TIP3    H1 8661   5.282   2.135   4.386
 2899TIP3    H2 8662   5.425   2.182   4.400
 2900TIP3   OH2 8663   5.498   5.827   4.910
 2900TIP3    H1 8664   5.524   5.744   4.870
 2900TIP3    H2 8665   5.414   5.848   4.869
 2901TIP3   OH2 8666   1.275   5.861   1.603
 2901TIP3    H1 8667   1.232   5.853   1.688
 2901TIP3    H2 8668   1.356   5.908   1.621
 2902TIP3   OH2 8669   5.267   4.193   5.071
 2902TIP3    H1 8670   5.362   4.192   5.062
 2902TIP3    H2 8671   5.235   4.182   4.982
 2903TIP3   OH2 8672   5.075   6.528   3.284
 2903TIP3    H1 8673   5.086   6.559   3.194
 2903TIP3    H2 8674   4.987   6.490   3.286
 2904TIP3   OH2 8675   5.227   4.113   0.949
 2904TIP3    H1 8676   5.258   4.037   0.899
 2904TIP3    H2 8677   5.149   4.082   0.994
 2905TIP3   OH2 8678   4.249   0.553   1.158
 2905TIP3    H1 8679   4.264   0.493   1.085
 2905TIP3    H2 8680   4.336   0.572   1.192
 2906TIP3   OH2 8681   5.088   3.154   3.101
 2906TIP3    H1 8682   5.059   3.234   3.056
 2906TIP3    H2 8683   5.179   3.171   3.123
 2907TIP3   OH2 8684   5.663   6.487   4.536
 2907TIP3    H1 8685   5.675   6.428   4.610
 2907TIP3    H2 8686   5.752   6.502   4.502
 2908TIP3   OH2 8687   2.754   3.918   3.671
 2908TIP3    H1 8688   2.815   3.925   3.744
 2908TIP3    H2 8689   2.810   3.912   3.593
 2909TIP3   OH2 8690   5.281   0.181   0.651
 2909TIP3    H1 8691   5.237   0.250   0.701
 2909TIP3    H2 8692   5.340   0.228   0.592
 2910TIP3   OH2 8693   4.309   5.605   4.122
 2910TIP3    H1 8694   4.254   5.670   4.079
 2910TIP3    H2 8695   4.249   5.534   4.144
 2911TIP3   OH2 8696   7.004   6.241   2.839
 2911TIP3    H1 8697   7.060   6.194   2.777
 2911TIP3    H2 8698   7.065   6.274   2.905
 2912TIP3   OH2 8699   6.166   1.711   2.220
 2912TIP3    H1 8700   6.098   1.759   2.265
 2912TIP3    H2 8701   6.169   1.749   2.132
 2913TIP3   OH2 8702   6.274   0.109   4.795
 2913TIP3    H1 8703   6.360   0.087   4.832
 2913TIP3    H2 8704   6.274   0.204   4.788
 2914TIP3   OH2 8705   2.766   3.348   0.007
 2914TIP3    H1 8706   2.827   3.284   0.041
 2914TIP3    H2 8707   2.690   3.297  -0.020
 2915TIP3   OH2 8708   5.985   3.122   1.776
 2915TIP3    H1 8709   6.051   3.180   1.737
 2915TIP3    H2 8710   6.035   3.047   1.809
 2916TIP3   OH2 8711   4.730   3.965   5.267
 2916TIP3    H1 8712   4.718   4.018   5.188
 2916TIP3    H2 8713   4.724   4.027   5.339
 2917TIP3   OH2 8714   2.317   0.066   5.019
 2917TIP3    H1 8715   2.370   0.014   5.079
 2917TIP3    H2 8716   2.371   0.072   4.939
 2918TIP3   OH2 8717   0.903   5.033   3.890
 2918TIP3    H1 8718   0.953   4.955   3.915
 2918TIP3    H2 8719   0.824   4.999   3.849
 2919TIP3   OH2 8720   6.984   0.660   4.151
 2919TIP3    H1 8721   6.951   0.696   4.233
 2919TIP3    H2 8722   6.925   0.586   4.132
 2920TIP3   OH2 8723   1.843   2.374   4.662
 2920TIP3    H1 8724   1.904   2.314   4.620
 2920TIP3    H2 8725   1.806   2.325   4.735
 2921TIP3   OH2 8726   2.436   5.624   0.239
 2921TIP3    H1 8727   2.522   5.587   0.257
 2921TIP3    H2 8728   2.387   5.552   0.199
 2922TIP3   OH2 8729   6.139   2.697   1.985
 2922TIP3    H1 8730   6.219   2.679   2.034
 2922TIP3    H2 8731   6.076   2.633   2.018
 2923TIP3   OH2 8732   4.557   4.819   2.024
 2923TIP3    H1 8733   4.560   4.724   2.037
 2923TIP3    H2 8734   4.626   4.853   2.082
 2924TIP3   OH2 8735   4.777   6.774   0.249
 2924TIP3    H1 8736   4.871   6.759   0.263
 2924TIP3    H2 8737   4.771   6.866   0.225
 2925TIP3   OH2 8738   0.926   5.778   2.077
 2925TIP3    H1 8739   0.832   5.766   2.063
 2925TIP3    H2 8740   0.946   5.724   2.153
 2926TIP3   OH2 8741   5.525   5.621   5.387
 2926TIP3    H1 8742   5.582   5.668   5.447
 2926TIP3    H2 8743   5.479   5.689   5.338
 2927TIP3   OH2 8744   2.406   4.436   3.644
 2927TIP3    H1 8745   2.439   4.350   3.621
 2927TIP3    H2 8746   2.320   4.420   3.683
 2928TIP3   OH2 8747   4.496   4.961   1.128
 2928TIP3    H1 8748   4.573   5.016   1.145
 2928TIP3    H2 8749   4.511   4.926   1.040
 2929TIP3   OH2 8750   1.989   0.360   4.978
 2929TIP3    H1 8751   1.984   0.456   4.972
 2929TIP3    H2 8752   1.929   0.329   4.910
 2930TIP3   OH2 8753   4.111   1.613   0.430
 2930TIP3    H1 8754   4.081   1.694   0.471
 2930TIP3    H2 8755   4.032   1.578   0.387
 2931TIP3   OH2 8756   0.873   1.835   5.028
 2931TIP3    H1 8757   0.889   1.749   5.067
 2931TIP3    H2 8758   0.778   1.838   5.015
 2932TIP3   OH2 8759   2.709   2.252   2.669
 2932TIP3    H1 8760   2.617   2.226   2.672
 2932TIP3    H2 8761   2.751   2.203   2.740
 2933TIP3   OH2 8762   2.647   4.120   1.625
 2933TIP3    H1 8763   2.635   4.051   1.691
 2933TIP3    H2 8764   2.636   4.202   1.674
 2934TIP3   OH2 8765   5.710   1.752   3.293
 2934TIP3    H1 8766   5.615   1.742   3.291
 2934TIP3    H2 8767   5.744   1.664   3.276
 2935TIP3   OH2 8768   5.748   5.830   0.043
 2935TIP3    H1 8769   5.675   5.892   0.050
 2935TIP3    H2 8770   5.715   5.750   0.084
 2936TIP3   OH2 8771   3.068   0.183   4.219
 2936TIP3    H1 8772   3.106   0.265   4.186
 2936TIP3    H2 8773   2.988   0.172   4.168
 2937TIP3   OH2 8774   0.561   1.436   3.185
 2937TIP3    H1 8775   0.614   1.357   3.179
 2937TIP3    H2 8776   0.547   1.463   3.095
 2938TIP3   OH2 8777   3.718   2.525   4.511
 2938TIP3    H1 8778   3.785   2.514   4.443
 2938TIP3    H2 8779   3.757   2.587   4.573
 2939TIP3   OH2 8780   1.946   3.875   3.598
 2939TIP3    H1 8781   2.001   3.797   3.600
 2939TIP3    H2 8782   1.861   3.844   3.567
 2940TIP3   OH2 8783   2.267   1.078   0.798
 2940TIP3    H1 8784   2.288   1.105   0.709
 2940TIP3    H2 8785   2.230   1.156   0.840
 2941TIP3   OH2 8786   4.812   1.955   4.767
 2941TIP3    H1 8787   4.903   1.984   4.769
 2941TIP3    H2 8788   4.761   2.035   4.755
 2942TIP3   OH2 8789   6.635   1.736   5.639
 2942TIP3    H1 8790   6.576   1.708   5.710
 2942TIP3    H2 8791   6.607   1.826   5.620
 2943TIP3   OH2 8792   2.908   4.428   3.222
 2943TIP3    H1 8793   2.818   4.398   3.210
 2943TIP3    H2 8794   2.952   4.354   3.264
 2944TIP3   OH2 8795   5.917   4.485   5.228
 2944TIP3    H1 8796   5.932   4.408   5.283
 2944TIP3    H2 8797   5.922   4.559   5.289
 2945TIP3   OH2 8798   6.435   5.522   0.289
 2945TIP3    H1 8799   6.393   5.539   0.373
 2945TIP3    H2 8800   6.370   5.473   0.239
 2946TIP3   OH2 8801   4.590   2.508   4.103
 2946TIP3    H1 8802   4.618   2.586   4.055
 2946TIP3    H2 8803   4.523   2.540   4.164
 2947TIP3   OH2 8804   1.036   3.878   4.102
 2947TIP3    H1 8805   1.047   3.896   4.008
 2947TIP3    H2 8806   0.992   3.793   4.105
 2948TIP3   OH2 8807   0.891   6.544   4.508
 2948TIP3    H1 8808   0.889   6.504   4.422
 2948TIP3    H2 8809   0.811   6.596   4.512
 2949TIP3   OH2 8810   6.303   5.564   0.539
 2949TIP3    H1 8811   6.375   5.525   0.588
 2949TIP3    H2 8812   6.278   5.641   0.590
 2950TIP3   OH2 8813   4.265   2.412   3.937
 2950TIP3    H1 8814   4.282   2.441   3.848
 2950TIP3    H2 8815   4.189   2.463   3.965
 2951TIP3   OH2 8816   0.164   5.309   2.654
 2951TIP3    H1 8817   0.200   5.249   2.589
 2951TIP3    H2 8818   0.082   5.268   2.681
 2952TIP3   OH2 8819   0.972   6.008   3.664
 2952TIP3    H1 8820   0.904   5.949   3.632
 2952TIP3    H2 8821   0.972   5.996   3.759
 2953TIP3   OH2 8822   6.987   6.439   1.999
 2953TIP3    H1 8823   6.958   6.471   1.914
 2953TIP3    H2 8824   6.962   6.346   1.999
 2954TIP3   OH2 8825   0.102   5.338   2.299
 2954TIP3    H1 8826   0.181   5.365   2.252
 2954TIP3    H2 8827   0.068   5.419   2.337
 2955TIP3   OH2 8828   5.516   3.093   4.876
 2955TIP3    H1 8829   5.451   3.030   4.844
 2955TIP3    H2 8830   5.506   3.168   4.817
 2956TIP3   OH2 8831   1.551   4.164   1.724
 2956TIP3    H1 8832   1.640   4.200   1.723
 2956TIP3    H2 8833   1.556   4.087   1.669
 2957TIP3   OH2 8834   1.921   2.928   2.092
 2957TIP3    H1 8835   1.835   2.968   2.106
 2957TIP3    H2 8836   1.970   2.994   2.041
 2958TIP3   OH2 8837   6.004   1.461   1.301
 2958TIP3    H1 8838   6.084   1.513   1.305
 2958TIP3    H2 8839   5.934   1.523   1.323
 2959TIP3   OH2 8840   6.114   0.083   4.552
 2959TIP3    H1 8841   6.055   0.157   4.560
 2959TIP3    H2 8842   6.170   0.086   4.630
 2960TIP3   OH2 8843   5.537   5.225   2.042
 2960TIP3    H1 8844   5.619   5.192   2.080
 2960TIP3    H2 8845   5.512   5.159   1.977
 2961TIP3   OH2 8846   6.981   1.628   2.174
 2961TIP3    H1 8847   7.047   1.658   2.236
 2961TIP3    H2 8848   7.027   1.623   2.090
 2962TIP3   OH2 8849   5.774   1.538   0.674
 2962TIP3    H1 8850   5.697   1.519   0.727
 2962TIP3    H2 8851   5.763   1.630   0.648
 2963TIP3   OH2 8852   4.842   4.144   3.542
 2963TIP3    H1 8853   4.790   4.088   3.483
 2963TIP3    H2 8854   4.866   4.219   3.488
 2964TIP3   OH2 8855   3.445   1.799   5.739
 2964TIP3    H1 8856   3.461   1.728   5.801
 2964TIP3    H2 8857   3.372   1.768   5.686
 2965TIP3   OH2 8858   3.880   1.909   2.527
 2965TIP3    H1 8859   3.867   1.835   2.467
 2965TIP3    H2 8860   3.948   1.879   2.587
 2966TIP3   OH2 8861   0.827   1.636   0.889
 2966TIP3    H1 8862   0.872   1.686   0.821
 2966TIP3    H2 8863   0.851   1.545   0.872
 2967TIP3   OH2 8864   5.676   0.505   5.193
 2967TIP3    H1 8865   5.766   0.523   5.220
 2967TIP3    H2 8866   5.629   0.487   5.274
 2968TIP3   OH2 8867   2.680   3.668   3.505
 2968TIP3    H1 8868   2.737   3.612   3.557
 2968TIP3    H2 8869   2.672   3.749   3.556
 2969TIP3   OH2 8870   6.190   2.088   3.179
 2969TIP3    H1 8871   6.115   2.089   3.119
 2969TIP3    H2 8872   6.165   2.147   3.250
 2970TIP3   OH2 8873   0.907   4.662   4.348
 2970TIP3    H1 8874   0.952   4.703   4.423
 2970TIP3    H2 8875   0.947   4.702   4.271
 2971TIP3   OH2 8876   0.156   4.966   0.411
 2971TIP3    H1 8877   0.159   5.041   0.351
 2971TIP3    H2 8878   0.176   5.004   0.497
 2972TIP3   OH2 8879   1.801   5.860   2.300
 2972TIP3    H1 8880   1.782   5.949   2.271
 2972TIP3    H2 8881   1.849   5.871   2.382
 2973TIP3   OH2 8882   1.667   2.920   4.439
 2973TIP3    H1 8883   1.754   2.956   4.452
 2973TIP3    H2 8884   1.626   2.921   4.525
 2974TIP3   OH2 8885   3.845   2.420   3.387
 2974TIP3    H1 8886   3.885   2.480   3.450
 2974TIP3    H2 8887   3.879   2.448   3.302
 2975TIP3   OH2 8888   4.940   0.120   0.311
 2975TIP3    H1 8889   4.941   0.068   0.392
 2975TIP3    H2 8890   5.024   0.100   0.269
 2976TIP3   OH2 8891   2.222   4.533   0.488
 2976TIP3    H1 8892   2.137   4.572   0.467
 2976TIP3    H2 8893   2.263   4.595   0.548
 2977TIP3   OH2 8894   2.139   5.441   4.488
 2977TIP3    H1 8895   2.082   5.428   4.564
 2977TIP3    H2 8896   2.096   5.393   4.417
 2978TIP3   OH2 8897   6.515   5.963   0.740
 2978TIP3    H1 8898   6.513   5.990   0.832
 2978TIP3    H2 8899   6.604   5.982   0.711
 2979TIP3   OH2 8900  -0.019   5.462   3.260
 2979TIP3    H1 8901  -0.067   5.538   3.227
 2979TIP3    H2 8902   0.044   5.497   3.322
 2980TIP3   OH2 8903   6.760   4.187   2.532
 2980TIP3    H1 8904   6.814   4.249   2.581
 2980TIP3    H2 8905   6.699   4.151   2.596
 2981TIP3   OH2 8906   0.094   4.719   4.832
 2981TIP3    H1 8907   0.022   4.699   4.771
 2981TIP3    H2 8908   0.053   4.720   4.918
 2982TIP3   OH2 8909   0.309   6.293   4.561
 2982TIP3    H1 8910   0.263   6.368   4.524
 2982TIP3    H2 8911   0.400   6.320   4.567
 2983TIP3   OH2 8912   0.040   0.432   1.586
 2983TIP3    H1 8913   0.119   0.486   1.595
 2983TIP3    H2 8914   0.001   0.460   1.503
 2984TIP3   OH2 8915   5.127   4.794   3.158
 2984TIP3    H1 8916   5.169   4.857   3.099
 2984TIP3    H2 8917   5.038   4.785   3.123
 2985TIP3   OH2 8918   4.533   6.240   1.320
 2985TIP3    H1 8919   4.559   6.229   1.412
 2985TIP3    H2 8920   4.588   6.312   1.288
 2986TIP3   OH2 8921   0.326   1.826   0.381
 2986TIP3    H1 8922   0.244   1.809   0.333
 2986TIP3    H2 8923   0.301   1.821   0.473
 2987TIP3   OH2 8924   7.051   0.488   3.256
 2987TIP3    H1 8925   7.122   0.551   3.242
 2987TIP3    H2 8926   7.043   0.481   3.351
 2988TIP3   OH2 8927   3.608   3.309   5.915
 2988TIP3    H1 8928   3.674   3.325   5.982
 2988TIP3    H2 8929   3.543   3.379   5.927
 2989TIP3   OH2 8930   3.742   6.748   3.063
 2989TIP3    H1 8931   3.755   6.796   2.981
 2989TIP3    H2 8932   3.718   6.659   3.035
 2990TIP3   OH2 8933   2.099   1.504   3.096
 2990TIP3    H1 8934   2.103   1.483   3.003
 2990TIP3    H2 8935   2.185   1.543   3.115
 2991TIP3   OH2 8936   0.754   3.877   4.729
 2991TIP3    H1 8937   0.684   3.818   4.757
 2991TIP3    H2 8938   0.833   3.842   4.771
 2992TIP3   OH2 8939   6.852   5.122   5.181
 2992TIP3    H1 8940   6.906   5.191   5.141
 2992TIP3    H2 8941   6.822   5.070   5.106
 2993TIP3   OH2 8942   4.768   2.494   3.446
 2993TIP3    H1 8943   4.741   2.493   3.354
 2993TIP3    H2 8944   4.816   2.575   3.456
 2994TIP3   OH2 8945   4.774   5.514   3.176
 2994TIP3    H1 8946   4.745   5.579   3.112
 2994TIP3    H2 8947   4.775   5.431   3.129
 2995TIP3   OH2 8948   1.943   1.494   4.098
 2995TIP3    H1 8949   2.026   1.447   4.091
 2995TIP3    H2 8950   1.889   1.459   4.027
 2996TIP3   OH2 8951   1.600   0.663   2.787
 2996TIP3    H1 8952   1.653   0.624   2.717
 2996TIP3    H2 8953   1.546   0.591   2.819
 2997TIP3   OH2 8954   2.347   5.846   5.267
 2997TIP3    H1 8955   2.412   5.866   5.200
 2997TIP3    H2 8956   2.263   5.871   5.227
 2998TIP3   OH2 8957   3.003   1.308   2.786
 2998TIP3    H1 8958   2.948   1.239   2.748
 2998TIP3    H2 8959   2.946   1.355   2.846
 2999TIP3   OH2 8960   1.443   1.874   2.906
 2999TIP3    H1 8961   1.362   1.872   2.957
 2999TIP3    H2 8962   1.416   1.850   2.818
 3000TIP3   OH2 8963   5.268   3.516   3.569
 3000TIP3    H1 8964   5.358   3.516   3.603
 3000TIP3    H2 8965   5.218   3.464   3.632
 3001TIP3   OH2 8966   5.524   1.492   1.290
 3001TIP3    H1 8967   5.609   1.483   1.246
 3001TIP3    H2 8968   5.523   1.583   1.320
 3002TIP3   OH2 8969   3.601   1.375   3.291
 3002TIP3    H1 8970   3.598   1.453   3.347
 3002TIP3    H2 8971   3.668   1.395   3.225
 3003TIP3   OH2 8972   5.835   3.714   4.532
 3003TIP3    H1 8973   5.875   3.644   4.480
 3003TIP3    H2 8974   5.776   3.758   4.470
 3004TIP3   OH2 8975   1.990   4.117   3.721
 3004TIP3    H1 8976   2.044   4.141   3.796
 3004TIP3    H2 8977   1.996   4.022   3.717
 3005TIP3   OH2 8978   6.986   2.568   5.403
 3005TIP3    H1 8979   6.966   2.503   5.470
 3005TIP3    H2 8980   6.987   2.651   5.450
 3006TIP3   OH2 8981   6.220   4.948   2.613
 3006TIP3    H1 8982   6.158   5.000   2.663
 3006TIP3    H2 8983   6.175   4.864   2.599
 3007TIP3   OH2 8984   3.773   3.403   5.725
 3007TIP3    H1 8985   3.730   3.366   5.802
 3007TIP3    H2 8986   3.706   3.399   5.657
 3008TIP3   OH2 8987   1.066   2.111   1.730
 3008TIP3    H1 8988   1.143   2.165   1.717
 3008TIP3    H2 8989   1.100   2.028   1.765
 3009TIP3   OH2 8990   0.264   6.631   0.166
 3009TIP3    H1 8991   0.315   6.712   0.158
 3009TIP3    H2 8992   0.202   6.635   0.094
 3010TIP3   OH2 8993   6.344   5.498   5.911
 3010TIP3    H1 8994   6.361   5.480   5.819
 3010TIP3    H2 8995   6.350   5.413   5.954
 3011TIP3   OH2 8996   4.943   6.454   1.738
 3011TIP3    H1 8997   4.973   6.496   1.658
 3011TIP3    H2 8998   4.949   6.522   1.805
 3012TIP3   OH2 8999   6.492   2.484   1.313
 3012TIP3    H1 9000   6.398   2.485   1.299
 3012TIP3    H2 9001   6.516   2.391   1.308
 3013TIP3   OH2 9002   3.269   0.747   5.887
 3013TIP3    H1 9003   3.303   0.733   5.976
 3013TIP3    H2 9004   3.345   0.773   5.836
 3014TIP3   OH2 9005   5.919   2.195   4.493
 3014TIP3    H1 9006   5.992   2.231   4.444
 3014TIP3    H2 9007   5.931   2.228   4.582
 3015TIP3   OH2 9008   1.373   6.308   4.919
 3015TIP3    H1 9009   1.292   6.293   4.871
 3015TIP3    H2 9010   1.356   6.274   5.007
 3016TIP3   OH2 9011   0.683   6.258   0.807
 3016TIP3    H1 9012   0.697   6.313   0.883
 3016TIP3    H2 9013   0.635   6.182   0.840
 3017TIP3   OH2 9014   6.234   2.779   4.908
 3017TIP3    H1 9015   6.327   2.766   4.927
 3017TIP3    H2 9016   6.193   2.790   4.993
 3018TIP3   OH2 9017   3.564   5.321   5.472
 3018TIP3    H1 9018   3.557   5.231   5.439
 3018TIP3    H2 9019   3.532   5.316   5.562
 3019TIP3   OH2 9020   5.998   5.159   4.397
 3019TIP3    H1 9021   5.912   5.152   4.355
 3019TIP3    H2 9022   6.036   5.071   4.388
 3020TIP3   OH2 9023   7.207   6.299   3.043
 3020TIP3    H1 9024   7.160   6.250   3.110
 3020TIP3    H2 9025   7.179   6.390   3.057
 3021TIP3   OH2 9026   0.913   6.605   4.909
 3021TIP3    H1 9027   0.909   6.531   4.848
 3021TIP3    H2 9028   0.986   6.658   4.878
 3022TIP3   OH2 9029   4.697   4.801   4.204
 3022TIP3    H1 9030   4.757   4.873   4.223
 3022TIP3    H2 9031   4.752   4.723   4.204
 3023TIP3   OH2 9032   7.072   6.563   4.419
 3023TIP3    H1 9033   6.987   6.591   4.454
 3023TIP3    H2 9034   7.130   6.637   4.436
 3024TIP3   OH2 9035   1.167   3.331   4.622
 3024TIP3    H1 9036   1.145   3.341   4.530
 3024TIP3    H2 9037   1.235   3.264   4.623
 3025TIP3   OH2 9038   5.937   1.694   4.315
 3025TIP3    H1 9039   5.884   1.701   4.394
 3025TIP3    H2 9040   6.023   1.663   4.346
 3026TIP3   OH2 9041   1.928   5.711   1.438
 3026TIP3    H1 9042   1.917   5.643   1.505
 3026TIP3    H2 9043   1.936   5.793   1.487
 3027TIP3   OH2 9044   6.819   1.221   0.722
 3027TIP3    H1 9045   6.745   1.171   0.757
 3027TIP3    H2 9046   6.876   1.154   0.683
 3028TIP3   OH2 9047   4.741   4.575   2.349
 3028TIP3    H1 9048   4.682   4.598   2.278
 3028TIP3    H2 9049   4.829   4.582   2.311
 3029TIP3   OH2 9050   4.897   3.266   2.769
 3029TIP3    H1 9051   4.911   3.211   2.692
 3029TIP3    H2 9052   4.985   3.285   2.801
 3030TIP3   OH2 9053   1.556   1.675   5.013
 3030TIP3    H1 9054   1.522   1.703   4.928
 3030TIP3    H2 9055   1.517   1.589   5.027
 3031TIP3   OH2 9056   2.920   1.374   4.289
 3031TIP3    H1 9057   2.979   1.306   4.257
 3031TIP3    H2 9058   2.834   1.332   4.291
 3032TIP3   OH2 9059   6.227   0.195   4.173
 3032TIP3    H1 9060   6.263   0.270   4.125
 3032TIP3    H2 9061   6.135   0.216   4.186
 3033TIP3   OH2 9062   1.900   6.084   2.574
 3033TIP3    H1 9063   1.951   6.003   2.575
 3033TIP3    H2 9064   1.825   6.066   2.630
 3034TIP3   OH2 9065   5.186   1.083   1.045
 3034TIP3    H1 9066   5.147   0.998   1.065
 3034TIP3    H2 9067   5.260   1.090   1.105
 3035TIP3   OH2 9068   4.203   6.139   4.046
 3035TIP3    H1 9069   4.138   6.075   4.017
 3035TIP3    H2 9070   4.170   6.169   4.131
 3036TIP3   OH2 9071   6.570   1.129   0.841
 3036TIP3    H1 9072   6.520   1.076   0.779
 3036TIP3    H2 9073   6.521   1.211   0.848
 3037TIP3   OH2 9074   3.662   6.230   2.951
 3037TIP3    H1 9075   3.602   6.268   3.015
 3037TIP3    H2 9076   3.710   6.163   3.000
 3038TIP3   OH2 9077   3.974   5.906   1.565
 3038TIP3    H1 9078   3.954   5.820   1.601
 3038TIP3    H2 9079   3.971   5.965   1.641
 3039TIP3   OH2 9080   4.317   6.434   0.197
 3039TIP3    H1 9081   4.371   6.500   0.240
 3039TIP3    H2 9082   4.336   6.444   0.104
 3040TIP3   OH2 9083   2.522   1.085   4.874
 3040TIP3    H1 9084   2.583   1.159   4.876
 3040TIP3    H2 9085   2.481   1.091   4.788
 3041TIP3   OH2 9086   2.615   0.720   5.051
 3041TIP3    H1 9087   2.577   0.760   5.130
 3041TIP3    H2 9088   2.557   0.646   5.031
 3042TIP3   OH2 9089   0.694   3.664   5.550
 3042TIP3    H1 9090   0.785   3.691   5.566
 3042TIP3    H2 9091   0.643   3.743   5.564
 3043TIP3   OH2 9092  -0.026   5.922   2.898
 3043TIP3    H1 9093   0.007   5.833   2.884
 3043TIP3    H2 9094   0.053   5.975   2.910
 3044TIP3   OH2 9095   2.778   5.354   0.220
 3044TIP3    H1 9096   2.745   5.264   0.219
 3044TIP3    H2 9097   2.741   5.395   0.142
 3045TIP3   OH2 9098   6.121   2.835   3.200
 3045TIP3    H1 9099   6.055   2.765   3.189
 3045TIP3    H2 9100   6.135   2.868   3.112
 3046TIP3   OH2 9101   1.690   3.253   1.667
 3046TIP3    H1 9102   1.712   3.266   1.759
 3046TIP3    H2 9103   1.638   3.172   1.667
 3047TIP3   OH2 9104   1.049   4.884   0.918
 3047TIP3    H1 9105   1.018   4.844   0.999
 3047TIP3    H2 9106   1.032   4.978   0.929
 3048TIP3   OH2 9107   2.284   3.352   1.070
 3048TIP3    H1 9108   2.211   3.397   1.027
 3048TIP3    H2 9109   2.243   3.287   1.127
 3049TIP3   OH2 9110   1.479   4.228   1.984
 3049TIP3    H1 9111   1.510   4.203   1.897
 3049TIP3    H2 9112   1.406   4.168   2.002
 3050TIP3   OH2 9113   0.154   4.747   1.776
 3050TIP3    H1 9114   0.204   4.673   1.741
 3050TIP3    H2 9115   0.093   4.770   1.706
 3051TIP3   OH2 9116   2.991   3.611   2.463
 3051TIP3    H1 9117   2.897   3.629   2.458
 3051TIP3    H2 9118   2.997   3.524   2.502
 3052TIP3   OH2 9119   5.880   5.275   0.814
 3052TIP3    H1 9120   5.856   5.237   0.898
 3052TIP3    H2 9121   5.863   5.205   0.751
 3053TIP3   OH2 9122   4.815   4.721   0.736
 3053TIP3    H1 9123   4.727   4.741   0.768
 3053TIP3    H2 9124   4.800   4.657   0.666
 3054TIP3   OH2 9125   2.053   4.529   3.058
 3054TIP3    H1 9126   1.998   4.494   2.988
 3054TIP3    H2 9127   2.062   4.458   3.121
 3055TIP3   OH2 9128   4.931   5.665   1.892
 3055TIP3    H1 9129   4.945   5.703   1.805
 3055TIP3    H2 9130   4.941   5.571   1.879
 3056TIP3   OH2 9131   5.491   6.437   2.455
 3056TIP3    H1 9132   5.405   6.456   2.493
 3056TIP3    H2 9133   5.553   6.472   2.518
 3057TIP3   OH2 9134   6.977   0.992   5.681
 3057TIP3    H1 9135   6.914   1.053   5.643
 3057TIP3    H2 9136   6.934   0.959   5.760
 3058TIP3   OH2 9137   5.340   3.437   0.202
 3058TIP3    H1 9138   5.424   3.481   0.194
 3058TIP3    H2 9139   5.280   3.489   0.149
 3059TIP3   OH2 9140   4.995   1.013   5.658
 3059TIP3    H1 9141   5.085   1.044   5.656
 3059TIP3    H2 9142   4.983   0.969   5.574
 3060TIP3   OH2 9143   1.943   6.419   3.140
 3060TIP3    H1 9144   1.912   6.506   3.165
 3060TIP3    H2 9145   2.019   6.404   3.196
 3061TIP3   OH2 9146   5.779   4.030   1.674
 3061TIP3    H1 9147   5.783   3.948   1.625
 3061TIP3    H2 9148   5.685   4.047   1.686
 3062TIP3   OH2 9149   3.798   4.683   2.148
 3062TIP3    H1 9150   3.814   4.689   2.242
 3062TIP3    H2 9151   3.805   4.773   2.117
 3063TIP3   OH2 9152   3.789   0.866   4.253
 3063TIP3    H1 9153   3.882   0.850   4.267
 3063TIP3    H2 9154   3.765   0.927   4.323
 3064TIP3   OH2 9155   5.440   4.895   4.024
 3064TIP3    H1 9156   5.449   4.822   3.963
 3064TIP3    H2 9157   5.376   4.865   4.089
 3065TIP3   OH2 9158   1.388   3.150   4.626
 3065TIP3    H1 9159   1.461   3.104   4.667
 3065TIP3    H2 9160   1.360   3.091   4.555
 3066TIP3   OH2 9161   0.904   1.242   5.686
 3066TIP3    H1 9162   0.888   1.321   5.738
 3066TIP3    H2 9163   0.993   1.216   5.709
 3067TIP3   OH2 9164   0.229   3.673   5.545
 3067TIP3    H1 9165   0.168   3.726   5.495
 3067TIP3    H2 9166   0.207   3.583   5.521
 3068TIP3   OH2 9167   3.401   3.476   0.767
 3068TIP3    H1 9168   3.466   3.411   0.796
 3068TIP3    H2 9169   3.344   3.427   0.708
 3069TIP3   OH2 9170   4.912   5.793   0.873
 3069TIP3    H1 9171   4.974   5.731   0.835
 3069TIP3    H2 9172   4.853   5.815   0.802
 3070TIP3   OH2 9173   4.602   4.486   0.674
 3070TIP3    H1 9174   4.650   4.506   0.754
 3070TIP3    H2 9175   4.611   4.392   0.663
 3071TIP3   OH2 9176   1.797   5.513   3.491
 3071TIP3    H1 9177   1.801   5.419   3.471
 3071TIP3    H2 9178   1.822   5.519   3.584
 3072TIP3   OH2 9179   6.244   6.327   1.604
 3072TIP3    H1 9180   6.228   6.264   1.534
 3072TIP3    H2 9181   6.160   6.337   1.648
 3073TIP3   OH2 9182   5.050   2.466   4.415
 3073TIP3    H1 9183   4.966   2.462   4.370
 3073TIP3    H2 9184   5.028   2.467   4.508
 3074TIP3   OH2 9185   0.718   4.309   0.545
 3074TIP3    H1 9186   0.665   4.281   0.619
 3074TIP3    H2 9187   0.656   4.347   0.483
 3075TIP3   OH2 9188   4.844   2.807   2.610
 3075TIP3    H1 9189   4.760   2.768   2.585
 3075TIP3    H2 9190   4.833   2.900   2.593
 3076TIP3   OH2 9191   3.613   4.743   0.084
 3076TIP3    H1 9192   3.691   4.777   0.127
 3076TIP3    H2 9193   3.644   4.708   0.001
 3077TIP3   OH2 9194   3.453   5.882   2.167
 3077TIP3    H1 9195   3.380   5.894   2.229
 3077TIP3    H2 9196   3.488   5.971   2.155
 3078TIP3   OH2 9197   3.165   5.501   1.100
 3078TIP3    H1 9198   3.141   5.531   1.188
 3078TIP3    H2 9199   3.138   5.571   1.042
 3079TIP3   OH2 9200   1.146   2.504   3.226
 3079TIP3    H1 9201   1.188   2.566   3.167
 3079TIP3    H2 9202   1.096   2.558   3.287
 3080TIP3   OH2 9203   5.803   0.953   2.333
 3080TIP3    H1 9204   5.750   1.031   2.316
 3080TIP3    H2 9205   5.845   0.971   2.417
 3081TIP3   OH2 9206   0.642   2.148   2.915
 3081TIP3    H1 9207   0.619   2.205   2.988
 3081TIP3    H2 9208   0.644   2.060   2.953
 3082TIP3   OH2 9209   4.048   4.916   3.100
 3082TIP3    H1 9210   4.063   4.983   3.033
 3082TIP3    H2 9211   3.961   4.936   3.135
 3083TIP3   OH2 9212   1.306   4.028   4.769
 3083TIP3    H1 9213   1.334   3.949   4.723
 3083TIP3    H2 9214   1.240   3.998   4.831
 3084TIP3   OH2 9215   6.562   5.485   2.790
 3084TIP3    H1 9216   6.506   5.488   2.867
 3084TIP3    H2 9217   6.501   5.471   2.717
 3085TIP3   OH2 9218   2.792   6.515   1.115
 3085TIP3    H1 9219   2.874   6.470   1.136
 3085TIP3    H2 9220   2.768   6.481   1.029
 3086TIP3   OH2 9221   3.688   5.630   3.852
 3086TIP3    H1 9222   3.774   5.622   3.894
 3086TIP3    H2 9223   3.665   5.540   3.828
 3087TIP3   OH2 9224   1.312   4.360   0.080
 3087TIP3    H1 9225   1.269   4.398   0.003
 3087TIP3    H2 9226   1.247   4.368   0.150
 3088TIP3   OH2 9227   5.723   0.291   4.798
 3088TIP3    H1 9228   5.722   0.198   4.819
 3088TIP3    H2 9229   5.790   0.299   4.730
 3089TIP3   OH2 9230   3.449   1.876   4.724
 3089TIP3    H1 9231   3.361   1.886   4.686
 3089TIP3    H2 9232   3.472   1.785   4.707
 3090TIP3   OH2 9233   2.260   0.712   1.166
 3090TIP3    H1 9234   2.317   0.768   1.113
 3090TIP3    H2 9235   2.280   0.623   1.135
 3091TIP3   OH2 9236   5.179   0.338   2.398
 3091TIP3    H1 9237   5.084   0.344   2.403
 3091TIP3    H2 9238   5.197   0.312   2.308
 3092TIP3   OH2 9239   6.682   3.540   0.393
 3092TIP3    H1 9240   6.728   3.521   0.474
 3092TIP3    H2 9241   6.607   3.593   0.420
 3093TIP3   OH2 9242   2.219   6.316   3.018
 3093TIP3    H1 9243   2.129   6.293   2.997
 3093TIP3    H2 9244   2.270   6.283   2.943
 3094TIP3   OH2 9245   6.031   6.281   4.678
 3094TIP3    H1 9246   6.071   6.207   4.630
 3094TIP3    H2 9247   5.990   6.334   4.610
 3095TIP3   OH2 9248   4.272   5.763   2.580
 3095TIP3    H1 9249   4.317   5.692   2.534
 3095TIP3    H2 9250   4.222   5.808   2.512
 3096TIP3   OH2 9251   1.586   5.531   5.248
 3096TIP3    H1 9252   1.616   5.539   5.157
 3096TIP3    H2 9253   1.492   5.518   5.240
 3097TIP3   OH2 9254   3.864   6.308   5.554
 3097TIP3    H1 9255   3.826   6.248   5.618
 3097TIP3    H2 9256   3.845   6.395   5.589
 3098TIP3   OH2 9257   0.861   2.285   4.564
 3098TIP3    H1 9258   0.938   2.285   4.621
 3098TIP3    H2 9259   0.894   2.317   4.480
 3099TIP3   OH2 9260   2.491   0.830   3.094
 3099TIP3    H1 9261   2.494   0.804   3.002
 3099TIP3    H2 9262   2.413   0.885   3.102
 3100TIP3   OH2 9263   5.276   0.213   0.100
 3100TIP3    H1 9264   5.322   0.204   0.016
 3100TIP3    H2 9265   5.248   0.123   0.121
 3101TIP3   OH2 9266   2.645   5.550   3.675
 3101TIP3    H1 9267   2.587   5.511   3.741
 3101TIP3    H2 9268   2.685   5.625   3.720
 3102TIP3   OH2 9269   2.089   1.501   2.558
 3102TIP3    H1 9270   2.159   1.565   2.548
 3102TIP3    H2 9271   2.009   1.554   2.556
 3103TIP3   OH2 9272   2.062   2.979   0.987
 3103TIP3    H1 9273   2.005   2.920   0.939
 3103TIP3    H2 9274   2.009   3.011   1.060
 3104TIP3   OH2 9275   0.283   1.575   4.401
 3104TIP3    H1 9276   0.316   1.664   4.394
 3104TIP3    H2 9277   0.202   1.575   4.350
 3105TIP3   OH2 9278   0.291   5.343   4.154
 3105TIP3    H1 9279   0.254   5.366   4.068
 3105TIP3    H2 9280   0.274   5.420   4.208
 3106TIP3   OH2 9281   2.107   2.532   3.636
 3106TIP3    H1 9282   2.043   2.488   3.580
 3106TIP3    H2 9283   2.089   2.500   3.724
 3107TIP3   OH2 9284   1.335   6.384   1.126
 3107TIP3    H1 9285   1.258   6.387   1.069
 3107TIP3    H2 9286   1.405   6.422   1.074
 3108TIP3   OH2 9287   3.520   4.087   1.436
 3108TIP3    H1 9288   3.463   4.165   1.431
 3108TIP3    H2 9289   3.509   4.056   1.526
 3109TIP3   OH2 9290   6.315   6.460   0.150
 3109TIP3    H1 9291   6.343   6.428   0.236
 3109TIP3    H2 9292   6.383   6.523   0.125
 3110TIP3   OH2 9293   4.351   5.415   3.617
 3110TIP3    H1 9294   4.433   5.457   3.592
 3110TIP3    H2 9295   4.378   5.336   3.663
 3111TIP3   OH2 9296   2.380   1.226   0.055
 3111TIP3    H1 9297   2.435   1.193   0.126
 3111TIP3    H2 9298   2.333   1.300   0.094
 3112TIP3   OH2 9299   0.448   3.687   1.106
 3112TIP3    H1 9300   0.418   3.616   1.162
 3112TIP3    H2 9301   0.543   3.675   1.102
 3113TIP3   OH2 9302   7.158   0.516   0.397
 3113TIP3    H1 9303   7.116   0.442   0.442
 3113TIP3    H2 9304   7.085   0.567   0.361
 3114TIP3   OH2 9305   5.657   2.389   5.001
 3114TIP3    H1 9306   5.662   2.485   4.997
 3114TIP3    H2 9307   5.593   2.371   5.070
 3115TIP3   OH2 9308   3.206   4.754   4.577
 3115TIP3    H1 9309   3.218   4.748   4.672
 3115TIP3    H2 9310   3.294   4.773   4.543
 3116TIP3   OH2 9311   6.405   2.799   1.806
 3116TIP3    H1 9312   6.395   2.891   1.830
 3116TIP3    H2 9313   6.376   2.750   1.883
 3117TIP3   OH2 9314   6.217   1.119   0.549
 3117TIP3    H1 9315   6.137   1.147   0.594
 3117TIP3    H2 9316   6.275   1.090   0.619
 3118TIP3   OH2 9317   0.045   3.401   4.594
 3118TIP3    H1 9318   0.057   3.419   4.687
 3118TIP3    H2 9319   0.032   3.306   4.589
 3119TIP3   OH2 9320   6.126   1.549   3.743
 3119TIP3    H1 9321   6.197   1.568   3.682
 3119TIP3    H2 9322   6.046   1.566   3.692
 3120TIP3   OH2 9323   3.601   4.995   2.015
 3120TIP3    H1 9324   3.560   4.944   2.085
 3120TIP3    H2 9325   3.583   5.086   2.038
 3121TIP3   OH2 9326   5.325   3.932   5.845
 3121TIP3    H1 9327   5.379   3.942   5.766
 3121TIP3    H2 9328   5.319   3.838   5.859
 3122TIP3   OH2 9329   3.609   4.201   2.391
 3122TIP3    H1 9330   3.517   4.179   2.406
 3122TIP3    H2 9331   3.608   4.290   2.358
 3123TIP3   OH2 9332   6.734   1.886   4.451
 3123TIP3    H1 9333   6.759   1.872   4.360
 3123TIP3    H2 9334   6.807   1.849   4.502
 3124TIP3   OH2 9335   0.277   1.046   3.067
 3124TIP3    H1 9336   0.298   1.135   3.039
 3124TIP3    H2 9337   0.212   1.058   3.136
 3125TIP3   OH2 9338   4.642   0.948   0.244
 3125TIP3    H1 9339   4.704   1.020   0.256
 3125TIP3    H2 9340   4.660   0.889   0.317
 3126TIP3   OH2 9341   5.227   0.900   3.578
 3126TIP3    H1 9342   5.308   0.864   3.542
 3126TIP3    H2 9343   5.158   0.858   3.526
 3127TIP3   OH2 9344   6.768   0.421   1.330
 3127TIP3    H1 9345   6.788   0.483   1.260
 3127TIP3    H2 9346   6.852   0.407   1.373
 3128TIP3   OH2 9347   0.665   3.591   4.707
 3128TIP3    H1 9348   0.726   3.561   4.774
 3128TIP3    H2 9349   0.715   3.590   4.626
 3129TIP3   OH2 9350   3.457   4.924   0.770
 3129TIP3    H1 9351   3.487   4.977   0.844
 3129TIP3    H2 9352   3.510   4.845   0.774
 3130TIP3   OH2 9353   2.149   3.080   3.930
 3130TIP3    H1 9354   2.054   3.067   3.928
 3130TIP3    H2 9355   2.185   3.002   3.888
 3131TIP3   OH2 9356   3.649   5.772   3.260
 3131TIP3    H1 9357   3.677   5.775   3.351
 3131TIP3    H2 9358   3.560   5.736   3.263
 3132TIP3   OH2 9359   3.096   2.496   2.666
 3132TIP3    H1 9360   3.034   2.509   2.738
 3132TIP3    H2 9361   3.065   2.555   2.597
 3133TIP3   OH2 9362   7.232   2.130   4.961
 3133TIP3    H1 9363   7.220   2.061   4.895
 3133TIP3    H2 9364   7.198   2.209   4.920
 3134TIP3   OH2 9365   0.232   0.333   3.902
 3134TIP3    H1 9366   0.293   0.391   3.856
 3134TIP3    H2 9367   0.154   0.386   3.917
 3135TIP3   OH2 9368   2.684   3.405   0.914
 3135TIP3    H1 9369   2.614   3.449   0.865
 3135TIP3    H2 9370   2.640   3.336   0.963
 3136TIP3   OH2 9371   3.084   1.520   5.067
 3136TIP3    H1 9372   3.136   1.600   5.060
 3136TIP3    H2 9373   3.012   1.533   5.006
 3137TIP3   OH2 9374   1.201   6.035   2.082
 3137TIP3    H1 9375   1.271   5.974   2.106
 3137TIP3    H2 9376   1.245   6.118   2.068
 3138TIP3   OH2 9377   0.336   5.115   2.557
 3138TIP3    H1 9378   0.325   5.066   2.475
 3138TIP3    H2 9379   0.333   5.048   2.625
 3139TIP3   OH2 9380   0.093   4.361   4.769
 3139TIP3    H1 9381   0.030   4.431   4.753
 3139TIP3    H2 9382   0.041   4.289   4.806
 3140TIP3   OH2 9383   5.263   5.735   3.386
 3140TIP3    H1 9384   5.186   5.724   3.442
 3140TIP3    H2 9385   5.321   5.662   3.410
 3141TIP3   OH2 9386   7.017   1.379   2.076
 3141TIP3    H1 9387   7.009   1.405   1.985
 3141TIP3    H2 9388   6.985   1.454   2.126
 3142TIP3   OH2 9389   2.511   4.988   4.463
 3142TIP3    H1 9390   2.604   4.963   4.464
 3142TIP3    H2 9391   2.503   5.052   4.534
 3143TIP3   OH2 9392  -0.016   0.542   3.522
 3143TIP3    H1 9393  -0.032   0.631   3.554
 3143TIP3    H2 9394   0.046   0.553   3.451
 3144TIP3   OH2 9395   1.480   1.194   3.909
 3144TIP3    H1 9396   1.464   1.237   3.993
 3144TIP3    H2 9397   1.438   1.108   3.917
 3145TIP3   OH2 9398   0.060   0.379   2.557
 3145TIP3    H1 9399   0.055   0.378   2.652
 3145TIP3    H2 9400   0.145   0.339   2.537
 3146TIP3   OH2 9401   4.480   1.613   0.624
 3146TIP3    H1 9402   4.406   1.654   0.670
 3146TIP3    H2 9403   4.441   1.541   0.575
 3147TIP3   OH2 9404   0.350   2.503   1.785
 3147TIP3    H1 9405   0.318   2.520   1.697
 3147TIP3    H2 9406   0.386   2.586   1.814
 3148TIP3   OH2 9407   1.379   5.237   4.240
 3148TIP3    H1 9408   1.462   5.219   4.285
 3148TIP3    H2 9409   1.313   5.222   4.308
 3149TIP3   OH2 9410   3.429   3.851   0.956
 3149TIP3    H1 9411   3.504   3.910   0.945
 3149TIP3    H2 9412   3.368   3.876   0.887
 3150TIP3   OH2 9413   5.482   1.462   1.568
 3150TIP3    H1 9414   5.429   1.542   1.570
 3150TIP3    H2 9415   5.477   1.432   1.477
 3151TIP3   OH2 9416   3.529   2.644   0.013
 3151TIP3    H1 9417   3.507   2.686  -0.070
 3151TIP3    H2 9418   3.582   2.568  -0.012
 3152TIP3   OH2 9419   4.782   4.019   2.703
 3152TIP3    H1 9420   4.834   4.043   2.780
 3152TIP3    H2 9421   4.725   3.949   2.734
 3153TIP3   OH2 9422   0.411   6.577   1.220
 3153TIP3    H1 9423   0.374   6.640   1.159
 3153TIP3    H2 9424   0.429   6.628   1.300
 3154TIP3   OH2 9425   6.385   3.575   2.152
 3154TIP3    H1 9426   6.371   3.620   2.235
 3154TIP3    H2 9427   6.359   3.485   2.169
 3155TIP3   OH2 9428   2.307   5.566   5.442
 3155TIP3    H1 9429   2.282   5.650   5.405
 3155TIP3    H2 9430   2.375   5.532   5.383
 3156TIP3   OH2 9431   6.234   4.893   2.334
 3156TIP3    H1 9432   6.272   4.884   2.422
 3156TIP3    H2 9433   6.174   4.819   2.327
 3157TIP3   OH2 9434   1.776   0.170   0.541
 3157TIP3    H1 9435   1.805   0.098   0.596
 3157TIP3    H2 9436   1.846   0.235   0.546
 3158TIP3   OH2 9437   6.518   5.848   2.801
 3158TIP3    H1 9438   6.544   5.867   2.891
 3158TIP3    H2 9439   6.452   5.779   2.809
 3159TIP3   OH2 9440   2.328   5.450   3.348
 3159TIP3    H1 9441   2.272   5.373   3.359
 3159TIP3    H2 9442   2.416   5.418   3.367
 3160TIP3   OH2 9443   0.599   4.458   1.460
 3160TIP3    H1 9444   0.664   4.523   1.486
 3160TIP3    H2 9445   0.648   4.375   1.460
 3161TIP3   OH2 9446   5.762   1.998   2.434
 3161TIP3    H1 9447   5.733   2.023   2.346
 3161TIP3    H2 9448   5.681   1.991   2.485
 3162TIP3   OH2 9449   2.309   5.175   5.575
 3162TIP3    H1 9450   2.383   5.165   5.515
 3162TIP3    H2 9451   2.233   5.150   5.523
 3163TIP3   OH2 9452   0.594   1.455   4.165
 3163TIP3    H1 9453   0.563   1.533   4.119
 3163TIP3    H2 9454   0.525   1.389   4.150
 3164TIP3   OH2 9455   0.102   3.193   3.801
 3164TIP3    H1 9456   0.124   3.129   3.868
 3164TIP3    H2 9457   0.025   3.158   3.758
 3165TIP3   OH2 9458   1.694   5.375   2.755
 3165TIP3    H1 9459   1.635   5.320   2.704
 3165TIP3    H2 9460   1.757   5.409   2.691
 3166TIP3   OH2 9461   3.004   1.704   2.316
 3166TIP3    H1 9462   3.076   1.666   2.265
 3166TIP3    H2 9463   2.927   1.653   2.292
 3167TIP3   OH2 9464   4.284   3.784   0.984
 3167TIP3    H1 9465   4.241   3.746   1.060
 3167TIP3    H2 9466   4.357   3.724   0.966
 3168TIP3   OH2 9467   6.680   0.494   3.190
 3168TIP3    H1 9468   6.589   0.499   3.217
 3168TIP3    H2 9469   6.707   0.586   3.181
 3169TIP3   OH2 9470   6.712   5.544   4.540
 3169TIP3    H1 9471   6.643   5.590   4.492
 3169TIP3    H2 9472   6.672   5.523   4.624
 3170TIP3   OH2 9473   6.677   6.132   0.378
 3170TIP3    H1 9474   6.742   6.100   0.440
 3170TIP3    H2 9475   6.666   6.060   0.315
 3171TIP3   OH2 9476   6.396   2.825   1.520
 3171TIP3    H1 9477   6.484   2.863   1.510
 3171TIP3    H2 9478   6.385   2.816   1.615
 3172TIP3   OH2 9479   4.522   3.642   5.887
 3172TIP3    H1 9480   4.455   3.649   5.955
 3172TIP3    H2 9481   4.480   3.678   5.809
 3173TIP3   OH2 9482   3.080   4.723   0.073
 3173TIP3    H1 9483   3.031   4.800   0.100
 3173TIP3    H2 9484   3.052   4.707  -0.018
 3174TIP3   OH2 9485   6.854   4.488   4.414
 3174TIP3    H1 9486   6.922   4.424   4.437
 3174TIP3    H2 9487   6.781   4.434   4.381
 3175TIP3   OH2 9488   3.714   1.456   5.512
 3175TIP3    H1 9489   3.650   1.528   5.512
 3175TIP3    H2 9490   3.672   1.386   5.463
 3176TIP3   OH2 9491   6.497   3.267   1.624
 3176TIP3    H1 9492   6.455   3.318   1.555
 3176TIP3    H2 9493   6.453   3.293   1.705
 3177TIP3   OH2 9494   2.203   0.256   4.197
 3177TIP3    H1 9495   2.250   0.177   4.226
 3177TIP3    H2 9496   2.157   0.228   4.118
 3178TIP3   OH2 9497   4.762   4.073   5.861
 3178TIP3    H1 9498   4.818   4.068   5.783
 3178TIP3    H2 9499   4.786   3.996   5.912
 3179TIP3   OH2 9500   0.750   0.525   4.597
 3179TIP3    H1 9501   0.766   0.434   4.571
 3179TIP3    H2 9502   0.720   0.518   4.688
 3180TIP3   OH2 9503   3.886   6.493   1.104
 3180TIP3    H1 9504   3.976   6.527   1.098
 3180TIP3    H2 9505   3.872   6.480   1.198
 3181TIP3   OH2 9506   2.021   6.487   2.692
 3181TIP3    H1 9507   2.094   6.431   2.717
 3181TIP3    H2 9508   1.952   6.465   2.754
 3182TIP3   OH2 9509   2.636   1.554   3.515
 3182TIP3    H1 9510   2.688   1.627   3.550
 3182TIP3    H2 9511   2.699   1.501   3.466
 3183TIP3   OH2 9512   0.412   0.149   4.371
 3183TIP3    H1 9513   0.360   0.088   4.319
 3183TIP3    H2 9514   0.358   0.228   4.377
 3184TIP3   OH2 9515   0.566   0.960   2.969
 3184TIP3    H1 9516   0.484   0.963   3.018
 3184TIP3    H2 9517   0.540   0.979   2.879
 3185TIP3   OH2 9518   4.453   2.514   1.171
 3185TIP3    H1 9519   4.384   2.517   1.237
 3185TIP3    H2 9520   4.432   2.437   1.117
 3186TIP3   OH2 9521   6.052   1.898   2.927
 3186TIP3    H1 9522   6.005   1.979   2.947
 3186TIP3    H2 9523   6.000   1.829   2.969
 3187TIP3   OH2 9524   3.001   4.489   2.928
 3187TIP3    H1 9525   2.954   4.460   3.007
 3187TIP3    H2 9526   3.071   4.544   2.962
 3188TIP3   OH2 9527   0.246   5.729   5.391
 3188TIP3    H1 9528   0.216   5.805   5.440
 3188TIP3    H2 9529   0.252   5.759   5.300
 3189TIP3   OH2 9530   3.373   6.120   5.370
 3189TIP3    H1 9531   3.426   6.052   5.330
 3189TIP3    H2 9532   3.428   6.155   5.440
 3190TIP3   OH2 9533   5.609   6.154   3.886
 3190TIP3    H1 9534   5.603   6.066   3.923
 3190TIP3    H2 9535   5.586   6.212   3.958
 3191TIP3   OH2 9536   6.373   6.114   0.501
 3191TIP3    H1 9537   6.410   6.173   0.436
 3191TIP3    H2 9538   6.396   6.153   0.585
 3192TIP3   OH2 9539   3.214   0.234   2.850
 3192TIP3    H1 9540   3.190   0.314   2.896
 3192TIP3    H2 9541   3.207   0.165   2.915
 3193TIP3   OH2 9542   4.069   4.165   4.875
 3193TIP3    H1 9543   4.011   4.202   4.808
 3193TIP3    H2 9544   4.011   4.124   4.938
 3194TIP3   OH2 9545   5.200   3.647   4.185
 3194TIP3    H1 9546   5.186   3.681   4.273
 3194TIP3    H2 9547   5.137   3.575   4.177
 3195TIP3   OH2 9548   5.317   3.338   1.011
 3195TIP3    H1 9549   5.381   3.405   0.988
 3195TIP3    H2 9550   5.344   3.308   1.098
 3196TIP3   OH2 9551   5.974   3.841   4.212
 3196TIP3    H1 9552   6.007   3.889   4.136
 3196TIP3    H2 9553   5.901   3.894   4.244
 3197TIP3   OH2 9554   3.414   0.463   5.860
 3197TIP3    H1 9555   3.470   0.420   5.795
 3197TIP3    H2 9556   3.333   0.483   5.813
 3198TIP3   OH2 9557   2.035   5.779   0.558
 3198TIP3    H1 9558   2.050   5.815   0.471
 3198TIP3    H2 9559   1.946   5.805   0.580
 3199TIP3   OH2 9560   0.393   3.260   0.789
 3199TIP3    H1 9561   0.313   3.298   0.825
 3199TIP3    H2 9562   0.437   3.332   0.745
 3200TIP3   OH2 9563   6.948   0.801   4.387
 3200TIP3    H1 9564   6.942   0.859   4.463
 3200TIP3    H2 9565   7.042   0.795   4.369
 3201TIP3   OH2 9566   0.351   2.680   5.263
 3201TIP3    H1 9567   0.287   2.631   5.314
 3201TIP3    H2 9568   0.300   2.739   5.209
 3202TIP3   OH2 9569   6.150   4.177   4.492
 3202TIP3    H1 9570   6.180   4.252   4.441
 3202TIP3    H2 9571   6.055   4.187   4.494
 3203TIP3   OH2 9572   6.026   2.900   5.301
 3203TIP3    H1 9573   6.055   2.814   5.270
 3203TIP3    H2 9574   6.101   2.934   5.349
 3204TIP3   OH2 9575   5.702   1.273   1.724
 3204TIP3    H1 9576   5.690   1.349   1.667
 3204TIP3    H2 9577   5.712   1.200   1.664
 3205TIP3   OH2 9578   2.841   4.027   5.618
 3205TIP3    H1 9579   2.785   4.003   5.692
 3205TIP3    H2 9580   2.830   3.956   5.555
 3206TIP3   OH2 9581   5.629   0.859   3.907
 3206TIP3    H1 9582   5.546   0.825   3.874
 3206TIP3    H2 9583   5.667   0.786   3.956
 3207TIP3   OH2 9584   4.196   4.715   0.016
 3207TIP3    H1 9585   4.262   4.697   0.084
 3207TIP3    H2 9586   4.170   4.806   0.032
 3208TIP3   OH2 9587   3.927   2.184   2.263
 3208TIP3    H1 9588   3.896   2.274   2.248
 3208TIP3    H2 9589   3.966   2.186   2.350
 3209TIP3   OH2 9590   2.470   3.167   0.329
 3209TIP3    H1 9591   2.456   3.235   0.263
 3209TIP3    H2 9592   2.563   3.173   0.350
 3210TIP3   OH2 9593   2.120   2.573   1.468
 3210TIP3    H1 9594   2.147   2.641   1.407
 3210TIP3    H2 9595   2.142   2.608   1.554
 3211TIP3   OH2 9596   1.127   3.304   0.651
 3211TIP3    H1 9597   1.197   3.340   0.706
 3211TIP3    H2 9598   1.052   3.295   0.711
 3212TIP3   OH2 9599   1.614   4.798   1.887
 3212TIP3    H1 9600   1.599   4.824   1.796
 3212TIP3    H2 9601   1.653   4.876   1.928
 3213TIP3   OH2 9602   6.817   2.695   3.893
 3213TIP3    H1 9603   6.773   2.610   3.894
 3213TIP3    H2 9604   6.812   2.723   3.802
 3214TIP3   OH2 9605   0.623   2.104   5.456
 3214TIP3    H1 9606   0.576   2.138   5.379
 3214TIP3    H2 9607   0.593   2.159   5.528
 3215TIP3   OH2 9608   6.351   2.206   5.685
 3215TIP3    H1 9609   6.351   2.271   5.615
 3215TIP3    H2 9610   6.323   2.125   5.642
 3216TIP3   OH2 9611   6.385   2.413   0.401
 3216TIP3    H1 9612   6.319   2.348   0.377
 3216TIP3    H2 9613   6.362   2.439   0.490
 3217TIP3   OH2 9614   2.834   3.590   1.458
 3217TIP3    H1 9615   2.794   3.551   1.380
 3217TIP3    H2 9616   2.787   3.673   1.470
 3218TIP3   OH2 9617   2.275   6.184   3.415
 3218TIP3    H1 9618   2.295   6.107   3.362
 3218TIP3    H2 9619   2.258   6.149   3.503
 3219TIP3   OH2 9620   1.193   5.660   3.956
 3219TIP3    H1 9621   1.275   5.682   3.911
 3219TIP3    H2 9622   1.161   5.582   3.910
 3220TIP3   OH2 9623   1.229   5.193   4.465
 3220TIP3    H1 9624   1.288   5.155   4.530
 3220TIP3    H2 9625   1.171   5.121   4.441
 3221TIP3   OH2 9626   3.613   0.726   3.879
 3221TIP3    H1 9627   3.670   0.739   3.803
 3221TIP3    H2 9628   3.618   0.809   3.928
 3222TIP3   OH2 9629   5.212   4.475   5.114
 3222TIP3    H1 9630   5.223   4.380   5.115
 3222TIP3    H2 9631   5.288   4.509   5.161
 3223TIP3   OH2 9632   4.563   0.152   4.118
 3223TIP3    H1 9633   4.508   0.164   4.041
 3223TIP3    H2 9634   4.569   0.239   4.157
 3224TIP3   OH2 9635   1.983   1.965   0.616
 3224TIP3    H1 9636   2.025   1.967   0.702
 3224TIP3    H2 9637   2.050   1.998   0.556
 3225TIP3   OH2 9638   0.560   2.797   2.676
 3225TIP3    H1 9639   0.464   2.795   2.676
 3225TIP3    H2 9640   0.583   2.866   2.614
 3226TIP3   OH2 9641   2.466   3.247   2.281
 3226TIP3    H1 9642   2.407   3.250   2.206
 3226TIP3    H2 9643   2.410   3.220   2.354
 3227TIP3   OH2 9644   6.009   6.689   2.997
 3227TIP3    H1 9645   5.923   6.652   3.021
 3227TIP3    H2 9646   6.008   6.777   3.034
 3228TIP3   OH2 9647   3.798   1.254   3.857
 3228TIP3    H1 9648   3.868   1.190   3.849
 3228TIP3    H2 9649   3.835   1.324   3.911
 3229TIP3   OH2 9650   0.589   3.203   4.869
 3229TIP3    H1 9651   0.589   3.291   4.907
 3229TIP3    H2 9652   0.613   3.145   4.941
 3230TIP3   OH2 9653   4.335   3.117   0.048
 3230TIP3    H1 9654   4.314   3.173  -0.026
 3230TIP3    H2 9655   4.430   3.125   0.059
 3231TIP3   OH2 9656   2.135   4.027   4.385
 3231TIP3    H1 9657   2.142   4.083   4.462
 3231TIP3    H2 9658   2.165   3.941   4.414
 3232TIP3   OH2 9659   6.487   0.762   5.627
 3232TIP3    H1 9660   6.581   0.747   5.628
 3232TIP3    H2 9661   6.474   0.827   5.558
 3233TIP3   OH2 9662   3.989   6.369   3.060
 3233TIP3    H1 9663   3.994   6.274   3.073
 3233TIP3    H2 9664   3.936   6.400   3.133
 3234TIP3   OH2 9665   6.050   5.094   2.788
 3234TIP3    H1 9666   6.026   5.135   2.871
 3234TIP3    H2 9667   6.026   5.159   2.722
 3235TIP3   OH2 9668   2.475   4.419   2.488
 3235TIP3    H1 9669   2.551   4.404   2.544
 3235TIP3    H2 9670   2.476   4.514   2.470
 3236TIP3   OH2 9671   0.682   3.407   2.827
 3236TIP3    H1 9672   0.707   3.364   2.909
 3236TIP3    H2 9673   0.656   3.335   2.770
 3237TIP3   OH2 9674   6.978   4.619   3.586
 3237TIP3    H1 9675   6.955   4.575   3.505
 3237TIP3    H2 9676   6.961   4.712   3.569
 3238TIP3   OH2 9677   1.150   5.454   0.991
 3238TIP3    H1 9678   1.139   5.549   0.992
 3238TIP3    H2 9679   1.116   5.426   0.907
 3239TIP3   OH2 9680   1.955   5.961   1.526
 3239TIP3    H1 9681   1.889   6.030   1.523
 3239TIP3    H2 9682   1.971   5.947   1.620
 3240TIP3   OH2 9683   1.758   1.700   4.003
 3240TIP3    H1 9684   1.830   1.664   4.054
 3240TIP3    H2 9685   1.680   1.676   4.051
 3241TIP3   OH2 9686   0.131   2.581   5.396
 3241TIP3    H1 9687   0.082   2.503   5.368
 3241TIP3    H2 9688   0.064   2.649   5.403
 3242TIP3   OH2 9689   5.954   6.811   1.552
 3242TIP3    H1 9690   5.903   6.751   1.498
 3242TIP3    H2 9691   5.956   6.892   1.501
 3243TIP3   OH2 9692   7.094   3.644   4.726
 3243TIP3    H1 9693   7.164   3.580   4.742
 3243TIP3    H2 9694   7.013   3.593   4.728
 3244TIP3   OH2 9695   1.926   4.099   0.430
 3244TIP3    H1 9696   2.003   4.089   0.374
 3244TIP3    H2 9697   1.920   4.193   0.447
 3245TIP3   OH2 9698   4.093   1.255   4.505
 3245TIP3    H1 9699   4.050   1.274   4.589
 3245TIP3    H2 9700   4.145   1.176   4.522
 3246TIP3   OH2 9701   4.454   4.415   4.683
 3246TIP3    H1 9702   4.417   4.365   4.756
 3246TIP3    H2 9703   4.421   4.371   4.605
 3247TIP3   OH2 9704   2.188   4.990   4.610
 3247TIP3    H1 9705   2.100   4.973   4.643
 3247TIP3    H2 9706   2.175   5.029   4.524
 3248TIP3   OH2 9707   3.077   0.411   3.292
 3248TIP3    H1 9708   3.006   0.383   3.349
 3248TIP3    H2 9709   3.157   0.386   3.339
 3249TIP3   OH2 9710   5.192   4.573   1.509
 3249TIP3    H1 9711   5.185   4.481   1.482
 3249TIP3    H2 9712   5.174   4.571   1.603
 3250TIP3   OH2 9713   1.245   3.423   1.724
 3250TIP3    H1 9714   1.214   3.334   1.706
 3250TIP3    H2 9715   1.296   3.447   1.647
 3251TIP3   OH2 9716   2.779   6.729   4.095
 3251TIP3    H1 9717   2.874   6.732   4.105
 3251TIP3    H2 9718   2.752   6.653   4.146
 3252TIP3   OH2 9719   2.616   4.745   1.025
 3252TIP3    H1 9720   2.678   4.780   0.960
 3252TIP3    H2 9721   2.668   4.733   1.104
 3253TIP3   OH2 9722   3.503   0.574   0.222
 3253TIP3    H1 9723   3.524   0.628   0.145
 3253TIP3    H2 9724   3.499   0.485   0.188
 3254TIP3   OH2 9725   2.761   3.752   5.493
 3254TIP3    H1 9726   2.760   3.673   5.439
 3254TIP3    H2 9727   2.672   3.786   5.486
 3255TIP3   OH2 9728   6.785   3.526   4.010
 3255TIP3    H1 9729   6.751   3.511   3.922
 3255TIP3    H2 9730   6.827   3.444   4.034
 3256TIP3   OH2 9731   1.922   0.780   3.952
 3256TIP3    H1 9732   1.848   0.773   3.891
 3256TIP3    H2 9733   1.998   0.756   3.900
 3257TIP3   OH2 9734   3.429   4.666   5.322
 3257TIP3    H1 9735   3.389   4.739   5.368
 3257TIP3    H2 9736   3.521   4.690   5.312
 3258TIP3   OH2 9737   4.854   5.059   4.644
 3258TIP3    H1 9738   4.796   5.135   4.637
 3258TIP3    H2 9739   4.900   5.071   4.727
 3259TIP3   OH2 9740   6.289   5.237   0.329
 3259TIP3    H1 9741   6.212   5.185   0.353
 3259TIP3    H2 9742   6.329   5.261   0.412
 3260TIP3   OH2 9743   0.805   0.835   1.655
 3260TIP3    H1 9744   0.833   0.804   1.741
 3260TIP3    H2 9745   0.885   0.867   1.614
 3261TIP3   OH2 9746   2.540   0.858   0.111
 3261TIP3    H1 9747   2.542   0.888   0.020
 3261TIP3    H2 9748   2.459   0.808   0.118
 3262TIP3   OH2 9749   6.656   6.402   0.825
 3262TIP3    H1 9750   6.712   6.338   0.868
 3262TIP3    H2 9751   6.704   6.426   0.746
 3263TIP3   OH2 9752   4.237   6.464   5.233
 3263TIP3    H1 9753   4.238   6.560   5.228
 3263TIP3    H2 9754   4.221   6.445   5.325
 3264TIP3   OH2 9755   3.549   5.666   4.873
 3264TIP3    H1 9756   3.625   5.637   4.823
 3264TIP3    H2 9757   3.585   5.699   4.955
 3265TIP3   OH2 9758   4.603   2.578   2.767
 3265TIP3    H1 9759   4.606   2.613   2.678
 3265TIP3    H2 9760   4.670   2.509   2.768
 3266TIP3   OH2 9761   4.050   5.641   3.689
 3266TIP3    H1 9762   4.027   5.615   3.778
 3266TIP3    H2 9763   4.102   5.721   3.700
 3267TIP3   OH2 9764   5.899   1.486   0.404
 3267TIP3    H1 9765   5.876   1.420   0.339
 3267TIP3    H2 9766   5.859   1.566   0.373
 3268TIP3   OH2 9767   6.769   1.869   4.163
 3268TIP3    H1 9768   6.705   1.805   4.131
 3268TIP3    H2 9769   6.726   1.954   4.152
 3269TIP3   OH2 9770   1.241   0.630   5.181
 3269TIP3    H1 9771   1.164   0.613   5.127
 3269TIP3    H2 9772   1.222   0.586   5.264
 3270TIP3   OH2 9773   3.543   6.066   4.968
 3270TIP3    H1 9774   3.610   6.132   4.953
 3270TIP3    H2 9775   3.471   6.091   4.910
 3271TIP3   OH2 9776   5.088   1.646   3.399
 3271TIP3    H1 9777   5.114   1.707   3.468
 3271TIP3    H2 9778   5.160   1.583   3.394
 3272TIP3   OH2 9779   3.551   1.709   3.868
 3272TIP3    H1 9780   3.503   1.693   3.949
 3272TIP3    H2 9781   3.488   1.752   3.810
 3273TIP3   OH2 9782   2.018   3.048   0.598
 3273TIP3    H1 9783   1.942   3.043   0.539
 3273TIP3    H2 9784   2.090   3.076   0.542
 3274TIP3   OH2 9785   0.340   6.203   2.080
 3274TIP3    H1 9786   0.420   6.152   2.075
 3274TIP3    H2 9787   0.277   6.145   2.123
 3275TIP3   OH2 9788   0.495   6.648   4.094
 3275TIP3    H1 9789   0.494   6.571   4.036
 3275TIP3    H2 9790   0.430   6.707   4.056
 3276TIP3   OH2 9791   4.849   5.630   0.463
 3276TIP3    H1 9792   4.882   5.541   0.474
 3276TIP3    H2 9793   4.803   5.648   0.545
 3277TIP3   OH2 9794   6.741   3.444   5.787
 3277TIP3    H1 9795   6.773   3.362   5.825
 3277TIP3    H2 9796   6.648   3.428   5.771
 3278TIP3   OH2 9797   3.679   6.384   1.822
 3278TIP3    H1 9798   3.763   6.377   1.868
 3278TIP3    H2 9799   3.695   6.447   1.752
 3279TIP3   OH2 9800   4.842   0.498   0.250
 3279TIP3    H1 9801   4.842   0.551   0.329
 3279TIP3    H2 9802   4.934   0.494   0.224
 3280TIP3   OH2 9803   4.662   4.143   2.224
 3280TIP3    H1 9804   4.634   4.197   2.298
 3280TIP3    H2 9805   4.701   4.065   2.265
 3281TIP3   OH2 9806   5.797   6.156   5.474
 3281TIP3    H1 9807   5.849   6.186   5.399
 3281TIP3    H2 9808   5.721   6.113   5.435
 3282TIP3   OH2 9809   5.366   3.295   2.082
 3282TIP3    H1 9810   5.391   3.387   2.071
 3282TIP3    H2 9811   5.420   3.265   2.155
 3283TIP3   OH2 9812   0.866   6.250   2.607
 3283TIP3    H1 9813   0.891   6.323   2.663
 3283TIP3    H2 9814   0.830   6.290   2.528
 3284TIP3   OH2 9815   3.872   6.414   3.327
 3284TIP3    H1 9816   3.790   6.464   3.324
 3284TIP3    H2 9817   3.852   6.340   3.385
 3285TIP3   OH2 9818   0.159   0.980   5.629
 3285TIP3    H1 9819   0.167   1.023   5.714
 3285TIP3    H2 9820   0.247   0.945   5.612
 3286TIP3   OH2 9821   1.153   3.713   0.371
 3286TIP3    H1 9822   1.214   3.755   0.432
 3286TIP3    H2 9823   1.067   3.746   0.398
 3287TIP3   OH2 9824   2.771   3.123   3.172
 3287TIP3    H1 9825   2.858   3.151   3.202
 3287TIP3    H2 9826   2.732   3.081   3.249
 3288TIP3   OH2 9827   0.893   3.199   3.261
 3288TIP3    H1 9828   0.959   3.268   3.266
 3288TIP3    H2 9829   0.937   3.121   3.293
 3289TIP3   OH2 9830   4.479   4.291   0.354
 3289TIP3    H1 9831   4.495   4.204   0.390
 3289TIP3    H2 9832   4.442   4.341   0.427
 3290TIP3   OH2 9833   2.594   5.381   3.471
 3290TIP3    H1 9834   2.585   5.295   3.511
 3290TIP3    H2 9835   2.630   5.437   3.540
 3291TIP3   OH2 9836   1.755   1.814   3.242
 3291TIP3    H1 9837   1.750   1.823   3.337
 3291TIP3    H2 9838   1.846   1.833   3.221
 3292TIP3   OH2 9839   2.892   4.645   1.705
 3292TIP3    H1 9840   2.938   4.619   1.785
 3292TIP3    H2 9841   2.819   4.584   1.699
 3293TIP3   OH2 9842   2.436   5.006   0.795
 3293TIP3    H1 9843   2.377   5.081   0.790
 3293TIP3    H2 9844   2.519   5.039   0.763
 3294TIP3   OH2 9845   3.968   2.585   1.756
 3294TIP3    H1 9846   4.041   2.524   1.747
 3294TIP3    H2 9847   4.007   2.671   1.745
 3295TIP3   OH2 9848   5.482   5.661   4.487
 3295TIP3    H1 9849   5.390   5.652   4.462
 3295TIP3    H2 9850   5.529   5.605   4.425
 3296TIP3   OH2 9851   0.842   4.861   1.817
 3296TIP3    H1 9852   0.883   4.911   1.747
 3296TIP3    H2 9853   0.913   4.810   1.855
 3297TIP3   OH2 9854   0.700   2.510   3.921
 3297TIP3    H1 9855   0.670   2.448   3.855
 3297TIP3    H2 9856   0.796   2.510   3.913
 3298TIP3   OH2 9857   5.502   3.884   5.190
 3298TIP3    H1 9858   5.544   3.799   5.204
 3298TIP3    H2 9859   5.566   3.948   5.220
 3299TIP3   OH2 9860   0.266   2.128   3.383
 3299TIP3    H1 9861   0.327   2.054   3.384
 3299TIP3    H2 9862   0.193   2.100   3.439
 3300TIP3   OH2 9863   6.517   6.810   2.829
 3300TIP3    H1 9864   6.539   6.728   2.873
 3300TIP3    H2 9865   6.424   6.823   2.847
 3301TIP3   OH2 9866   0.755   5.065   2.012
 3301TIP3    H1 9867   0.804   5.144   1.991
 3301TIP3    H2 9868   0.769   5.007   1.937
 3302TIP3   OH2 9869   3.254   2.681   2.932
 3302TIP3    H1 9870   3.160   2.666   2.921
 3302TIP3    H2 9871   3.293   2.593   2.926
 3303TIP3   OH2 9872   0.522   2.460   5.238
 3303TIP3    H1 9873   0.494   2.546   5.205
 3303TIP3    H2 9874   0.594   2.480   5.298
 3304TIP3   OH2 9875   0.074   1.780   1.626
 3304TIP3    H1 9876   0.155   1.786   1.678
 3304TIP3    H2 9877   0.025   1.709   1.667
 3305TIP3   OH2 9878   3.391   2.005   1.151
 3305TIP3    H1 9879   3.415   1.971   1.065
 3305TIP3    H2 9880   3.453   1.964   1.211
 3306TIP3   OH2 9881   0.052   6.219   3.745
 3306TIP3    H1 9882  -0.018   6.200   3.683
 3306TIP3    H2 9883   0.132   6.189   3.702
 3307TIP3   OH2 9884   2.949   2.222   1.659
 3307TIP3    H1 9885   2.951   2.127   1.671
 3307TIP3    H2 9886   3.025   2.254   1.708
 3308TIP3   OH2 9887   4.853   5.324   4.190
 3308TIP3    H1 9888   4.854   5.415   4.162
 3308TIP3    H2 9889   4.891   5.324   4.277
 3309TIP3   OH2 9890   4.003   0.266   1.717
 3309TIP3    H1 9891   4.007   0.246   1.811
 3309TIP3    H2 9892   4.073   0.330   1.703
 3310TIP3   OH2 9893   2.335   5.777   2.711
 3310TIP3    H1 9894   2.280   5.721   2.767
 3310TIP3    H2 9895   2.416   5.727   2.701
 3311TIP3   OH2 9896   5.146   3.837   4.000
 3311TIP3    H1 9897   5.181   3.764   4.052
 3311TIP3    H2 9898   5.071   3.799   3.953
 3312TIP3   OH2 9899   3.850   0.643   0.924
 3312TIP3    H1 9900   3.805   0.663   0.842
 3312TIP3    H2 9901   3.892   0.725   0.949
 3313TIP3   OH2 9902   0.501   4.269   5.404
 3313TIP3    H1 9903   0.572   4.205   5.398
 3313TIP3    H2 9904   0.515   4.327   5.329
 3314TIP3   OH2 9905   4.296   3.520   0.721
 3314TIP3    H1 9906   4.208   3.482   0.724
 3314TIP3    H2 9907   4.313   3.535   0.628
 3315TIP3   OH2 9908   4.260   1.994   2.611
 3315TIP3    H1 9909   4.317   1.925   2.644
 3315TIP3    H2 9910   4.231   1.964   2.525
 3316TIP3   OH2 9911   3.686   3.744   2.255
 3316TIP3    H1 9912   3.729   3.826   2.227
 3316TIP3    H2 9913   3.749   3.704   2.315
 3317TIP3   OH2 9914   6.830   5.825   5.123
 3317TIP3    H1 9915   6.917   5.846   5.089
 3317TIP3    H2 9916   6.798   5.908   5.159
 3318TIP3   OH2 9917   3.396   4.953   2.719
 3318TIP3    H1 9918   3.432   4.924   2.803
 3318TIP3    H2 9919   3.447   4.905   2.653
 3319TIP3   OH2 9920   2.106   6.392   3.365
 3319TIP3    H1 9921   2.019   6.377   3.403
 3319TIP3    H2 9922   2.159   6.320   3.398
 3320TIP3   OH2 9923   5.601   3.637   3.611
 3320TIP3    H1 9924   5.695   3.650   3.625
 3320TIP3    H2 9925   5.582   3.552   3.650
 3321TIP3   OH2 9926   4.890   4.305   3.309
 3321TIP3    H1 9927   4.934   4.222   3.292
 3321TIP3    H2 9928   4.956   4.371   3.289
 3322TIP3   OH2 9929   1.977   0.900   2.175
 3322TIP3    H1 9930   1.984   0.833   2.107
 3322TIP3    H2 9931   2.033   0.869   2.246
 3323TIP3   OH2 9932   0.434   2.531   3.168
 3323TIP3    H1 9933   0.353   2.521   3.217
 3323TIP3    H2 9934   0.497   2.563   3.233
 3324TIP3   OH2 9935   5.399   1.306   2.625
 3324TIP3    H1 9936   5.330   1.358   2.667
 3324TIP3    H2 9937   5.449   1.368   2.574
 3325TIP3   OH2 9938   2.086   2.736   5.519
 3325TIP3    H1 9939   2.045   2.650   5.526
 3325TIP3    H2 9940   2.075   2.761   5.427
 3326TIP3   OH2 9941   6.024   5.142   0.462
 3326TIP3    H1 9942   5.947   5.124   0.516
 3326TIP3    H2 9943   6.056   5.226   0.493
 3327TIP3   OH2 9944   2.597   0.590   2.063
 3327TIP3    H1 9945   2.577   0.674   2.022
 3327TIP3    H2 9946   2.630   0.613   2.150
 3328TIP3   OH2 9947   2.385   4.815   1.183
 3328TIP3    H1 9948   2.456   4.790   1.124
 3328TIP3    H2 9949   2.307   4.774   1.146
 3329TIP3   OH2 9950   4.872   3.252   0.909
 3329TIP3    H1 9951   4.946   3.287   0.959
 3329TIP3    H2 9952   4.836   3.329   0.863
 3330TIP3   OH2 9953   1.079   4.303   1.371
 3330TIP3    H1 9954   1.118   4.225   1.412
 3330TIP3    H2 9955   1.102   4.295   1.278
 3331TIP3   OH2 9956   0.068   3.424   1.813
 3331TIP3    H1 9957   0.056   3.440   1.719
 3331TIP3    H2 9958   0.052   3.509   1.854
 3332TIP3   OH2 9959   5.968   0.032   2.169
 3332TIP3    H1 9960   6.040   0.087   2.200
 3332TIP3    H2 9961   5.901   0.094   2.140
 3333TIP3   OH2 9962   6.034   2.481   3.129
 3333TIP3    H1 9963   6.120   2.452   3.099
 3333TIP3    H2 9964   6.010   2.419   3.197
 3334TIP3   OH2 9965   6.004   4.266   4.909
 3334TIP3    H1 9966   5.942   4.326   4.867
 3334TIP3    H2 9967   6.030   4.206   4.839
 3335TIP3   OH2 9968   4.743   5.091   1.887
 3335TIP3    H1 9969   4.791   5.065   1.808
 3335TIP3    H2 9970   4.759   5.020   1.949
 3336TIP3   OH2 9971   0.342   4.460   2.182
 3336TIP3    H1 9972   0.385   4.381   2.215
 3336TIP3    H2 9973   0.315   4.507   2.260
 3337TIP3   OH2 9974   5.497   0.375   0.091
 3337TIP3    H1 9975   5.540   0.416   0.166
 3337TIP3    H2 9976   5.423   0.328   0.129
 3338TIP3   OH2 9977   3.890   1.711   3.931
 3338TIP3    H1 9978   3.824   1.736   3.867
 3338TIP3    H2 9979   3.972   1.748   3.897
 3339TIP3   OH2 9980   5.933   6.508   4.511
 3339TIP3    H1 9981   5.950   6.519   4.605
 3339TIP3    H2 9982   6.017   6.526   4.469
 3340TIP3   OH2 9983   2.635   0.120   2.756
 3340TIP3    H1 9984   2.600   0.207   2.739
 3340TIP3    H2 9985   2.627   0.073   2.673
 3341TIP3   OH2 9986   5.932   3.831   5.481
 3341TIP3    H1 9987   5.989   3.908   5.487
 3341TIP3    H2 9988   5.844   3.867   5.469
 3342TIP3   OH2 9989   6.244   6.099   2.175
 3342TIP3    H1 9990   6.276   6.173   2.124
 3342TIP3    H2 9991   6.170   6.134   2.224
 3343TIP3   OH2 9992   3.340   1.687   0.295
 3343TIP3    H1 9993   3.261   1.659   0.340
 3343TIP3    H2 9994   3.373   1.760   0.347
 3344TIP3   OH2 9995   0.933   1.646  -0.037
 3344TIP3    H1 9996   0.933   1.641   0.059
 3344TIP3    H2 9997   0.861   1.706  -0.058
 3345TIP3   OH2 9998   1.756   1.341   1.493
 3345TIP3    H1 9999   1.804   1.301   1.421
 3345TIP3    H210000   1.728   1.267   1.547
 3346TIP3   OH210001   0.300   4.044   1.688
 3346TIP3    H110002   0.310   4.135   1.659
 3346TIP3    H210003   0.386   4.005   1.675
 3347TIP3   OH210004   2.211   6.141   3.688
 3347TIP3    H110005   2.165   6.060   3.710
 3347TIP3    H210006   2.203   6.196   3.765
 3348TIP3   OH210007   6.814   2.733   4.332
 3348TIP3    H110008   6.872   2.674   4.283
 3348TIP3    H210009   6.743   2.753   4.271
 3349TIP3   OH210010   5.097   0.108   3.791
 3349TIP3    H110011   5.166   0.062   3.839
 3349TIP3    H210012   5.053   0.039   3.741
 3350TIP3   OH210013   6.863   6.801   5.002
 3350TIP3    H110014   6.958   6.795   5.011
 3350TIP3    H210015   6.830   6.716   5.030
 3351TIP3   OH210016   1.384   0.855   5.439
 3351TIP3    H110017   1.402   0.766   5.471
 3351TIP3    H210018   1.319   0.843   5.370
 3352TIP3   OH210019   5.163   0.661   3.762
 3352TIP3    H110020   5.182   0.716   3.686
 3352TIP3    H210021   5.151   0.573   3.725
 3353TIP3   OH210022   5.779   4.616   2.191
 3353TIP3    H110023   5.795   4.535   2.141
 3353TIP3    H210024   5.706   4.594   2.248
 3354TIP3   OH210025   2.098   5.165   0.560
 3354TIP3    H110026   2.075   5.240   0.505
 3354TIP3    H210027   2.029   5.162   0.627
 3355TIP3   OH210028   2.145   3.880   3.116
 3355TIP3    H110029   2.168   3.959   3.164
 3355TIP3    H210030   2.076   3.839   3.168
 3356TIP3   OH210031   7.087   3.474   5.833
 3356TIP3    H110032   7.100   3.473   5.738
 3356TIP3    H210033   7.149   3.410   5.867
 3357TIP3   OH210034   7.266   1.715   4.246
 3357TIP3    H110035   7.253   1.624   4.272
 3357TIP3    H210036   7.178   1.754   4.250
 3358TIP3   OH210037   4.386   3.015   0.660
 3358TIP3    H110038   4.401   3.033   0.567
 3358TIP3    H210039   4.426   3.089   0.706
 3359TIP3   OH210040   4.589   4.296   5.001
 3359TIP3    H110041   4.567   4.387   4.982
 3359TIP3    H210042   4.525   4.245   4.951
 3360TIP3   OH210043   3.037   6.492   5.175
 3360TIP3    H110044   2.942   6.484   5.187
 3360TIP3    H210045   3.071   6.405   5.194
 3361TIP3   OH210046   3.960   3.750   2.070
 3361TIP3    H110047   3.949   3.760   1.975
 3361TIP3    H210048   3.917   3.667   2.090
 3362TIP3   OH210049   5.568   2.834   1.194
 3362TIP3    H110050   5.613   2.757   1.232
 3362TIP3    H210051   5.558   2.894   1.268
 3363TIP3   OH210052   5.813   1.095   0.789
 3363TIP3    H110053   5.721   1.079   0.809
 3363TIP3    H210054   5.861   1.053   0.861
 3364TIP3   OH210055   1.280   4.968   1.859
 3364TIP3    H110056   1.246   4.978   1.948
 3364TIP3    H210057   1.311   4.877   1.856
 3365TIP3   OH210058   2.213   1.990   0.478
 3365TIP3    H110059   2.262   2.055   0.530
 3365TIP3    H210060   2.280   1.932   0.443
 3366TIP3   OH210061   5.014   6.538   5.676
 3366TIP3    H110062   4.952   6.556   5.747
 3366TIP3    H210063   5.013   6.617   5.623
 3367TIP3   OH210064   1.650   6.335   4.015
 3367TIP3    H110065   1.663   6.289   3.932
 3367TIP3    H210066   1.651   6.428   3.990
 3368TIP3   OH210067   1.923   3.498   2.264
 3368TIP3    H110068   2.017   3.482   2.259
 3368TIP3    H210069   1.916   3.592   2.281
 3369TIP3   OH210070   0.640   1.366   0.936
 3369TIP3    H110071   0.575   1.434   0.953
 3369TIP3    H210072   0.684   1.395   0.856
 3370TIP3   OH210073   5.636   4.061   0.822
 3370TIP3    H110074   5.611   4.153   0.824
 3370TIP3    H210075   5.601   4.029   0.739
 3371TIP3   OH210076   4.602   5.232   0.790
 3371TIP3    H110077   4.623   5.146   0.753
 3371TIP3    H210078   4.537   5.214   0.857
 3372TIP3   OH210079   3.326   0.081   1.012
 3372TIP3    H110080   3.355   0.172   0.999
 3372TIP3    H210081   3.306   0.075   1.105
 3373TIP3   OH210082   7.214   0.303   4.141
 3373TIP3    H110083   7.215   0.286   4.235
 3373TIP3    H210084   7.220   0.398   4.134
 3374TIP3   OH210085   3.032   6.671   0.949
 3374TIP3    H110086   3.041   6.576   0.940
 3374TIP3    H210087   3.054   6.706   0.863
 3375TIP3   OH210088   3.627   1.598   3.034
 3375TIP3    H110089   3.582   1.637   2.959
 3375TIP3    H210090   3.584   1.638   3.111
 3376TIP3   OH210091   7.198   1.648   3.645
 3376TIP3    H110092   7.132   1.674   3.580
 3376TIP3    H210093   7.182   1.705   3.720
 3377TIP3   OH210094   2.512   5.264   2.959
 3377TIP3    H110095   2.600   5.261   2.998
 3377TIP3    H210096   2.453   5.251   3.033
 3378TIP3   OH210097   3.992   1.927   5.740
 3378TIP3    H110098   3.919   1.896   5.686
 3378TIP3    H210099   4.069   1.917   5.684
 3379TIP3   OH210100   4.226   3.354   5.740
 3379TIP3    H110101   4.303   3.352   5.798
 3379TIP3    H210102   4.176   3.430   5.770
 3380TIP3   OH210103   4.279   0.525   3.834
 3380TIP3    H110104   4.339   0.560   3.900
 3380TIP3    H210105   4.262   0.599   3.776
 3381TIP3   OH210106   5.863   4.851   0.843
 3381TIP3    H110107   5.814   4.772   0.864
 3381TIP3    H210108   5.858   4.859   0.748
 3382TIP3   OH210109   7.003   1.000   2.708
 3382TIP3    H110110   7.077   1.046   2.749
 3382TIP3    H210111   6.930   1.060   2.716
 3383TIP3   OH210112   3.188   4.198   0.909
 3383TIP3    H110113   3.182   4.162   0.998
 3383TIP3    H210114   3.108   4.169   0.866
 3384TIP3   OH210115   0.226   3.282   2.059
 3384TIP3    H110116   0.264   3.361   2.021
 3384TIP3    H210117   0.135   3.305   2.077
 3385TIP3   OH210118   6.705   2.173   1.343
 3385TIP3    H110119   6.754   2.156   1.423
 3385TIP3    H210120   6.770   2.207   1.281
 3386TIP3   OH210121   3.987   6.391   0.515
 3386TIP3    H110122   4.007   6.303   0.483
 3386TIP3    H210123   3.932   6.430   0.446
 3387TIP3   OH210124   5.159   5.423   3.473
 3387TIP3    H110125   5.163   5.333   3.505
 3387TIP3    H210126   5.187   5.416   3.381
 3388TIP3   OH210127   3.679   6.348   0.987
 3388TIP3    H110128   3.640   6.331   1.073
 3388TIP3    H210129   3.747   6.413   1.004
 3389TIP3   OH210130   3.577   6.672   5.725
 3389TIP3    H110131   3.577   6.671   5.821
 3389TIP3    H210132   3.557   6.581   5.701
 3390TIP3   OH210133   5.302   3.718   4.730
 3390TIP3    H110134   5.369   3.650   4.732
 3390TIP3    H210135   5.351   3.800   4.735
 3391TIP3   OH210136   6.446   3.993   4.747
 3391TIP3    H110137   6.469   4.021   4.658
 3391TIP3    H210138   6.526   4.004   4.798
 3392TIP3   OH210139   1.335   2.218   1.815
 3392TIP3    H110140   1.387   2.299   1.817
 3392TIP3    H210141   1.323   2.196   1.907
 3393TIP3   OH210142   7.178   3.010   0.704
 3393TIP3    H110143   7.271   2.991   0.713
 3393TIP3    H210144   7.141   2.935   0.657
 3394TIP3   OH210145   0.397   1.239   2.175
 3394TIP3    H110146   0.348   1.252   2.256
 3394TIP3    H210147   0.432   1.150   2.181
 3395TIP3   OH210148   0.717   1.427   0.660
 3395TIP3    H110149   0.807   1.402   0.680
 3395TIP3    H210150   0.725   1.504   0.603
 3396TIP3   OH210151   0.461   5.999   2.587
 3396TIP3    H110152   0.471   5.905   2.571
 3396TIP3    H210153   0.496   6.013   2.675
 3397TIP3   OH210154   6.905   1.361   3.738
 3397TIP3    H110155   6.915   1.408   3.655
 3397TIP3    H210156   6.941   1.422   3.804
 3398TIP3   OH210157   2.954   0.913   2.786
 3398TIP3    H110158   2.909   0.990   2.750
 3398TIP3    H210159   2.906   0.838   2.750
 3399TIP3   OH210160   5.083   1.715   4.785
 3399TIP3    H110161   5.115   1.678   4.702
 3399TIP3    H210162   5.094   1.809   4.774
 3400TIP3   OH210163   3.944   2.148   4.283
 3400TIP3    H110164   4.025   2.192   4.257
 3400TIP3    H210165   3.929   2.083   4.215
 3401TIP3   OH210166   1.686   2.811   0.454
 3401TIP3    H110167   1.603   2.777   0.422
 3401TIP3    H210168   1.681   2.804   0.549
 3402TIP3   OH210169   1.980   5.408   2.933
 3402TIP3    H110170   1.887   5.430   2.940
 3402TIP3    H210171   2.007   5.385   3.022
 3403TIP3   OH210172   6.960   1.514   0.038
 3403TIP3    H110173   7.029   1.506  -0.027
 3403TIP3    H210174   6.915   1.596   0.015
 3404TIP3   OH210175   3.804   5.461   2.168
 3404TIP3    H110176   3.780   5.552   2.188
 3404TIP3    H210177   3.721   5.419   2.145
 3405TIP3   OH210178   3.165   6.154   2.150
 3405TIP3    H110179   3.076   6.189   2.162
 3405TIP3    H210180   3.215   6.229   2.119
 3406TIP3   OH210181   0.128   2.385   1.344
 3406TIP3    H110182   0.170   2.462   1.304
 3406TIP3    H210183   0.147   2.394   1.438
 3407TIP3   OH210184   1.738   5.567   1.957
 3407TIP3    H110185   1.826   5.567   1.996
 3407TIP3    H210186   1.682   5.604   2.025
 3408TIP3   OH210187   3.199   4.815   1.946
 3408TIP3    H110188   3.149   4.736   1.967
 3408TIP3    H210189   3.171   4.838   1.858
 3409TIP3   OH210190   4.249   3.387   0.995
 3409TIP3    H110191   4.319   3.333   1.033
 3409TIP3    H210192   4.294   3.461   0.955
 3410TIP3   OH210193   5.605   3.988   2.619
 3410TIP3    H110194   5.597   3.990   2.524
 3410TIP3    H210195   5.638   3.900   2.638
 3411TIP3   OH210196   6.802   4.336   2.000
 3411TIP3    H110197   6.771   4.252   2.034
 3411TIP3    H210198   6.763   4.402   2.059
 3412TIP3   OH210199   3.514   2.176   2.642
 3412TIP3    H110200   3.435   2.229   2.641
 3412TIP3    H210201   3.564   2.207   2.567
 3413TIP3   OH210202   7.083   2.443   0.274
 3413TIP3    H110203   7.023   2.369   0.266
 3413TIP3    H210204   7.063   2.481   0.360
 3414TIP3   OH210205   7.018   4.222   1.314
 3414TIP3    H110206   6.962   4.296   1.339
 3414TIP3    H210207   7.009   4.217   1.219
 3415TIP3   OH210208   6.585   4.839   0.330
 3415TIP3    H110209   6.524   4.797   0.271
 3415TIP3    H210210   6.568   4.933   0.320
 3416TIP3   OH210211   4.392   1.876   5.738
 3416TIP3    H110212   4.472   1.839   5.700
 3416TIP3    H210213   4.381   1.828   5.820
 3417TIP3   OH210214   2.832   2.149   4.572
 3417TIP3    H110215   2.870   2.133   4.659
 3417TIP3    H210216   2.738   2.135   4.584
 3418TIP3   OH210217   0.398   2.749   2.177
 3418TIP3    H110218   0.345   2.827   2.193
 3418TIP3    H210219   0.423   2.755   2.084
 3419TIP3   OH210220   5.106   0.952   0.738
 3419TIP3    H110221   5.045   0.918   0.803
 3419TIP3    H210222   5.051   0.996   0.674
 3420TIP3   OH210223   1.515   6.576   1.088
 3420TIP3    H110224   1.452   6.628   1.039
 3420TIP3    H210225   1.576   6.641   1.124
 3421TIP3   OH210226   3.755   5.849   4.502
 3421TIP3    H110227   3.842   5.871   4.535
 3421TIP3    H210228   3.701   5.923   4.525
 3422TIP3   OH210229   6.489   5.130   4.133
 3422TIP3    H110230   6.481   5.221   4.161
 3422TIP3    H210231   6.464   5.079   4.211
 3423TIP3   OH210232   0.179   6.682   2.297
 3423TIP3    H110233   0.274   6.674   2.307
 3423TIP3    H210234   0.146   6.593   2.309
 3424TIP3   OH210235   6.531   5.082   2.330
 3424TIP3    H110236   6.619   5.119   2.338
 3424TIP3    H210237   6.514   5.080   2.235
 3425TIP3   OH210238   1.273   0.983   3.322
 3425TIP3    H110239   1.291   1.037   3.399
 3425TIP3    H210240   1.193   1.020   3.285
 3426TIP3   OH210241   3.631   1.288   1.839
 3426TIP3    H110242   3.669   1.311   1.924
 3426TIP3    H210243   3.538   1.311   1.848
 3427TIP3   OH210244   3.996   6.405   0.126
 3427TIP3    H110245   4.082   6.382   0.091
 3427TIP3    H210246   3.965   6.476   0.069
 3428TIP3   OH210247   5.222   2.642   2.938
 3428TIP3    H110248   5.176   2.698   3.002
 3428TIP3    H210249   5.162   2.636   2.864
 3429TIP3   OH210250   3.028   2.360   5.820
 3429TIP3    H110251   2.951   2.404   5.856
 3429TIP3    H210252   3.039   2.282   5.875
 3430TIP3   OH210253   4.173   6.241   0.365
 3430TIP3    H110254   4.218   6.320   0.336
 3430TIP3    H210255   4.217   6.169   0.319
 3431TIP3   OH210256   6.779   0.589   5.309
 3431TIP3    H110257   6.683   0.587   5.307
 3431TIP3    H210258   6.803   0.508   5.353
 3432TIP3   OH210259   4.989   2.626   3.598
 3432TIP3    H110260   5.031   2.711   3.612
 3432TIP3    H210261   4.919   2.623   3.663
 3433TIP3   OH210262   1.685   2.557   4.828
 3433TIP3    H110263   1.687   2.501   4.905
 3433TIP3    H210264   1.732   2.507   4.761
 3434TIP3   OH210265   5.999   2.514   4.198
 3434TIP3    H110266   6.061   2.574   4.156
 3434TIP3    H210267   5.930   2.502   4.133
 3435TIP3   OH210268   1.149   6.433   0.097
 3435TIP3    H110269   1.111   6.519   0.111
 3435TIP3    H210270   1.076   6.372   0.107
 3436TIP3   OH210271   6.874   4.894   1.543
 3436TIP3    H110272   6.779   4.902   1.535
 3436TIP3    H210273   6.888   4.805   1.574
 3437TIP3   OH210274   1.804   3.034   0.414
 3437TIP3    H110275   1.829   3.015   0.323
 3437TIP3    H210276   1.754   2.958   0.441
 3438TIP3   OH210277   1.166   0.037   2.198
 3438TIP3    H110278   1.168   0.026   2.103
 3438TIP3    H210279   1.255   0.065   2.220
 3439TIP3   OH210280   7.196   6.502   3.861
 3439TIP3    H110281   7.171   6.415   3.830
 3439TIP3    H210282   7.212   6.553   3.781
 3440TIP3   OH210283   3.404   1.362   4.102
 3440TIP3    H110284   3.446   1.291   4.054
 3440TIP3    H210285   3.325   1.382   4.051
 3441TIP3   OH210286   4.662   0.229   4.626
 3441TIP3    H110287   4.699   0.164   4.686
 3441TIP3    H210288   4.734   0.289   4.608
 3442TIP3   OH210289   4.895   5.047   1.672
 3442TIP3    H110290   4.869   5.020   1.584
 3442TIP3    H210291   4.929   4.966   1.712
 3443TIP3   OH210292   6.329   2.492   5.021
 3443TIP3    H110293   6.309   2.529   5.107
 3443TIP3    H210294   6.272   2.540   4.961
 3444TIP3   OH210295   4.505   1.792   3.865
 3444TIP3    H110296   4.577   1.808   3.925
 3444TIP3    H210297   4.501   1.871   3.810
 3445TIP3   OH210298   3.310   4.494   1.802
 3445TIP3    H110299   3.336   4.539   1.722
 3445TIP3    H210300   3.215   4.483   1.793
 3446TIP3   OH210301   5.174   4.902   2.713
 3446TIP3    H110302   5.090   4.864   2.689
 3446TIP3    H210303   5.221   4.911   2.630
 3447TIP3   OH210304   1.321   0.359   0.925
 3447TIP3    H110305   1.237   0.313   0.931
 3447TIP3    H210306   1.387   0.290   0.933
 3448TIP3   OH210307   2.555   5.649   4.473
 3448TIP3    H110308   2.477   5.603   4.441
 3448TIP3    H210309   2.559   5.729   4.421
 3449TIP3   OH210310   6.856   3.235   0.925
 3449TIP3    H110311   6.798   3.298   0.967
 3449TIP3    H210312   6.861   3.264   0.834
 3450TIP3   OH210313   4.934   1.955   1.885
 3450TIP3    H110314   4.848   1.957   1.928
 3450TIP3    H210315   4.996   1.933   1.955
 3451TIP3   OH210316   3.869   5.494   0.569
 3451TIP3    H110317   3.850   5.586   0.586
 3451TIP3    H210318   3.956   5.494   0.529
 3452TIP3   OH210319   6.957   6.372   4.677
 3452TIP3    H110320   6.895   6.315   4.631
 3452TIP3    H210321   7.036   6.370   4.623
 3453TIP3   OH210322   2.747   5.006   5.730
 3453TIP3    H110323   2.670   4.980   5.680
 3453TIP3    H210324   2.788   5.076   5.678
 3454TIP3   OH210325   0.660   0.261   2.559
 3454TIP3    H110326   0.750   0.274   2.531
 3454TIP3    H210327   0.615   0.341   2.532
 3455TIP3   OH210328   6.787   2.571   2.882
 3455TIP3    H110329   6.777   2.476   2.896
 3455TIP3    H210330   6.809   2.579   2.789
 3456TIP3   OH210331   2.155   4.509   4.272
 3456TIP3    H110332   2.211   4.586   4.270
 3456TIP3    H210333   2.202   4.443   4.221
 3457TIP3   OH210334   4.744   0.632   4.080
 3457TIP3    H110335   4.792   0.583   4.146
 3457TIP3    H210336   4.811   0.662   4.019
 3458TIP3   OH210337   0.282   3.217   3.341
 3458TIP3    H110338   0.197   3.244   3.378
 3458TIP3    H210339   0.269   3.125   3.316
 3459TIP3   OH210340   1.954   1.585   0.841
 3459TIP3    H110341   1.893   1.614   0.909
 3459TIP3    H210342   2.035   1.566   0.887
 3460TIP3   OH210343   5.380   6.342   0.625
 3460TIP3    H110344   5.428   6.269   0.586
 3460TIP3    H210345   5.309   6.360   0.563
 3461TIP3   OH210346   3.280   4.407   2.440
 3461TIP3    H110347   3.234   4.432   2.521
 3461TIP3    H210348   3.304   4.316   2.454
 3462TIP3   OH210349   5.223   4.288   4.078
 3462TIP3    H110350   5.249   4.350   4.146
 3462TIP3    H210351   5.295   4.290   4.015
 3463TIP3   OH210352   5.857   6.253   5.708
 3463TIP3    H110353   5.831   6.212   5.626
 3463TIP3    H210354   5.933   6.306   5.685
 3464TIP3   OH210355   5.785   3.251   2.904
 3464TIP3    H110356   5.739   3.320   2.856
 3464TIP3    H210357   5.818   3.193   2.835
 3465TIP3   OH210358   2.617   4.739   2.950
 3465TIP3    H110359   2.577   4.764   2.867
 3465TIP3    H210360   2.711   4.748   2.936
 3466TIP3   OH210361   4.049   3.406   1.308
 3466TIP3    H110362   4.111   3.335   1.323
 3466TIP3    H210363   3.970   3.363   1.276
 3467TIP3   OH210364   6.965   3.189   2.891
 3467TIP3    H110365   6.922   3.158   2.811
 3467TIP3    H210366   6.894   3.215   2.949
 3468TIP3   OH210367   6.008   5.485   4.263
 3468TIP3    H110368   5.974   5.568   4.230
 3468TIP3    H210369   5.932   5.441   4.302
 3469TIP3   OH210370   6.903   0.634   0.347
 3469TIP3    H110371   6.823   0.664   0.303
 3469TIP3    H210372   6.883   0.545   0.375
 3470TIP3   OH210373   4.290   3.954   0.142
 3470TIP3    H110374   4.306   3.864   0.113
 3470TIP3    H210375   4.286   3.948   0.237
 3471TIP3   OH210376   2.742   3.458   0.276
 3471TIP3    H110377   2.790   3.466   0.194
 3471TIP3    H210378   2.770   3.374   0.313
 3472TIP3   OH210379   0.569   1.718   5.186
 3472TIP3    H110380   0.651   1.679   5.155
 3472TIP3    H210381   0.509   1.711   5.111
 3473TIP3   OH210382   1.738   2.716   5.192
 3473TIP3    H110383   1.789   2.643   5.158
 3473TIP3    H210384   1.689   2.749   5.117
 3474TIP3   OH210385   2.346   5.541   4.030
 3474TIP3    H110386   2.403   5.499   3.965
 3474TIP3    H210387   2.271   5.482   4.036
 3475TIP3   OH210388   1.880   5.957   5.396
 3475TIP3    H110389   1.876   6.047   5.364
 3475TIP3    H210390   1.825   5.957   5.475
 3476TIP3   OH210391   3.007   3.115   2.603
 3476TIP3    H110392   2.944   3.095   2.534
 3476TIP3    H210393   2.952   3.142   2.677
 3477TIP3   OH210394   6.889   6.703   1.360
 3477TIP3    H110395   6.925   6.619   1.390
 3477TIP3    H210396   6.844   6.682   1.278
 3478TIP3   OH210397   2.761   1.349   2.002
 3478TIP3    H110398   2.700   1.275   1.997
 3478TIP3    H210399   2.840   1.312   2.043
 3479TIP3   OH210400   3.912   5.455   1.828
 3479TIP3    H110401   3.888   5.370   1.866
 3479TIP3    H210402   3.953   5.503   1.899
 3480TIP3   OH210403   1.874   1.636   3.752
 3480TIP3    H110404   1.967   1.627   3.731
 3480TIP3    H210405   1.874   1.674   3.840
 3481TIP3   OH210406   0.033   6.824   1.690
 3481TIP3    H110407   0.126   6.822   1.666
 3481TIP3    H210408   0.002   6.735   1.674
 3482TIP3   OH210409   4.139   4.367   4.052
 3482TIP3    H110410   4.120   4.276   4.028
 3482TIP3    H210411   4.231   4.366   4.078
 3483TIP3   OH210412   5.995   1.594   0.103
 3483TIP3    H110413   6.052   1.670   0.088
 3483TIP3    H210414   5.941   1.618   0.178
 3484TIP3   OH210415   3.424   4.426   3.994
 3484TIP3    H110416   3.451   4.337   3.971
 3484TIP3    H210417   3.445   4.433   4.087
 3485TIP3   OH210418   7.039   4.169   5.530
 3485TIP3    H110419   7.013   4.151   5.439
 3485TIP3    H210420   7.117   4.115   5.543
 3486TIP3   OH210421   6.896   3.754   1.246
 3486TIP3    H110422   6.814   3.708   1.230
 3486TIP3    H210423   6.907   3.751   1.341
 3487TIP3   OH210424   6.119   6.734   0.455
 3487TIP3    H110425   6.112   6.645   0.489
 3487TIP3    H210426   6.042   6.779   0.489
 3488TIP3   OH210427   0.818   5.728   2.436
 3488TIP3    H110428   0.784   5.639   2.445
 3488TIP3    H210429   0.783   5.775   2.511
 3489TIP3   OH210430   2.729   2.966   0.873
 3489TIP3    H110431   2.682   2.898   0.921
 3489TIP3    H210432   2.777   3.015   0.940
 3490TIP3   OH210433   5.940   5.198   3.872
 3490TIP3    H110434   6.030   5.206   3.843
 3490TIP3    H210435   5.887   5.223   3.796
 3491TIP3   OH210436   5.269   5.362   2.071
 3491TIP3    H110437   5.209   5.419   2.119
 3491TIP3    H210438   5.214   5.292   2.036
 3492TIP3   OH210439   6.907   0.254   0.907
 3492TIP3    H110440   6.840   0.255   0.975
 3492TIP3    H210441   6.887   0.331   0.853
 3493TIP3   OH210442   7.080   0.435   5.243
 3493TIP3    H110443   7.004   0.391   5.281
 3493TIP3    H210444   7.057   0.528   5.243
 3494TIP3   OH210445   6.459   3.384   5.722
 3494TIP3    H110446   6.457   3.326   5.646
 3494TIP3    H210447   6.370   3.380   5.758
 3495TIP3   OH210448   4.753   2.608   1.977
 3495TIP3    H110449   4.807   2.609   2.056
 3495TIP3    H210450   4.720   2.518   1.973
 3496TIP3   OH210451   4.946   0.134   3.059
 3496TIP3    H110452   5.038   0.128   3.085
 3496TIP3    H210453   4.914   0.044   3.067
 3497TIP3   OH210454  -0.002   5.835   0.410
 3497TIP3    H110455   0.012   5.858   0.502
 3497TIP3    H210456   0.070   5.776   0.389
 3498TIP3   OH210457   4.295   0.158   3.905
 3498TIP3    H110458   4.346   0.189   3.830
 3498TIP3    H210459   4.218   0.215   3.908
 3499TIP3   OH210460  -0.041   4.536   0.829
 3499TIP3    H110461  -0.098   4.518   0.904
 3499TIP3    H210462   0.047   4.519   0.862
 3500TIP3   OH210463   3.355   5.739   5.293
 3500TIP3    H110464   3.426   5.703   5.345
 3500TIP3    H210465   3.364   5.696   5.207
 3501TIP3   OH210466   4.619   2.927   2.812
 3501TIP3    H110467   4.531   2.927   2.773
 3501TIP3    H210468   4.665   2.856   2.768
 3502TIP3   OH210469   2.532   0.081   5.278
 3502TIP3    H110470   2.437   0.091   5.271
 3502TIP3    H210471   2.550   0.078   5.372
 3503TIP3   OH210472   4.241   3.405   3.383
 3503TIP3    H110473   4.175   3.473   3.391
 3503TIP3    H210474   4.200   3.327   3.421
 3504TIP3   OH210475   2.007   0.549   1.435
 3504TIP3    H110476   2.041   0.515   1.352
 3504TIP3    H210477   2.049   0.494   1.502
 3505TIP3   OH210478   4.245   1.422   0.894
 3505TIP3    H110479   4.323   1.380   0.858
 3505TIP3    H210480   4.246   1.510   0.856
 3506TIP3   OH210481   1.222   6.030   2.445
 3506TIP3    H110482   1.143   6.072   2.410
 3506TIP3    H210483   1.245   6.084   2.522
 3507TIP3   OH210484   2.873   4.379   0.892
 3507TIP3    H110485   2.861   4.364   0.798
 3507TIP3    H210486   2.787   4.359   0.930
 3508TIP3   OH210487   2.805   4.855   0.871
 3508TIP3    H110488   2.885   4.838   0.920
 3508TIP3    H210489   2.834   4.865   0.780
 3509TIP3   OH210490   0.456   1.490   4.869
 3509TIP3    H110491   0.478   1.505   4.777
 3509TIP3    H210492   0.452   1.578   4.907
 3510TIP3   OH210493   6.762   2.017   0.860
 3510TIP3    H110494   6.850   1.990   0.887
 3510TIP3    H210495   6.777   2.098   0.811
 3511TIP3   OH210496   3.883   2.415   4.335
 3511TIP3    H110497   3.910   2.323   4.331
 3511TIP3    H210498   3.841   2.432   4.251
 3512TIP3   OH210499   1.194   6.422   3.114
 3512TIP3    H110500   1.167   6.378   3.034
 3512TIP3    H210501   1.239   6.354   3.164
 3513TIP3   OH210502   5.169   6.678   4.034
 3513TIP3    H110503   5.145   6.765   4.068
 3513TIP3    H210504   5.100   6.620   4.066
 3514TIP3   OH210505   1.335   4.689   3.098
 3514TIP3    H110506   1.410   4.629   3.093
 3514TIP3    H210507   1.364   4.767   3.050
 3515TIP3   OH210508   5.931   0.498   4.356
 3515TIP3    H110509   5.921   0.473   4.264
 3515TIP3    H210510   6.025   0.516   4.365
 3516TIP3   OH210511   6.518   5.098   0.263
 3516TIP3    H110512   6.450   5.161   0.286
 3516TIP3    H210513   6.599   5.149   0.262
 3517TIP3   OH210514   6.432   1.604   1.159
 3517TIP3    H110515   6.520   1.619   1.193
 3517TIP3    H210516   6.413   1.512   1.178
 3518TIP3   OH210517   2.059   2.884   1.736
 3518TIP3    H110518   1.966   2.879   1.715
 3518TIP3    H210519   2.076   2.804   1.786
 3519TIP3   OH210520   5.563   1.479   0.860
 3519TIP3    H110521   5.501   1.530   0.809
 3519TIP3    H210522   5.509   1.426   0.919
 3520TIP3   OH210523   3.321   5.065   3.138
 3520TIP3    H110524   3.260   5.013   3.191
 3520TIP3    H210525   3.269   5.140   3.109
 3521TIP3   OH210526   2.369   3.741   5.299
 3521TIP3    H110527   2.277   3.736   5.328
 3521TIP3    H210528   2.364   3.763   5.206
 3522TIP3   OH210529   3.103   4.122   3.719
 3522TIP3    H110530   3.162   4.198   3.713
 3522TIP3    H210531   3.036   4.139   3.653
 3523TIP3   OH210532   2.370   0.297   5.849
 3523TIP3    H110533   2.365   0.203   5.865
 3523TIP3    H210534   2.354   0.306   5.755
 3524TIP3   OH210535   6.157   3.621   1.602
 3524TIP3    H110536   6.165   3.714   1.625
 3524TIP3    H210537   6.182   3.574   1.682
 3525TIP3   OH210538   1.793   1.584   5.138
 3525TIP3    H110539   1.784   1.608   5.230
 3525TIP3    H210540   1.709   1.607   5.099
 3526TIP3   OH210541  -0.001   2.430   3.725
 3526TIP3    H110542   0.092   2.452   3.726
 3526TIP3    H210543  -0.005   2.344   3.684
 3527TIP3   OH210544   2.219   1.237   3.199
 3527TIP3    H110545   2.126   1.248   3.183
 3527TIP3    H210546   2.229   1.251   3.293
 3528TIP3   OH210547   0.562   2.513   3.409
 3528TIP3    H110548   0.495   2.450   3.435
 3528TIP3    H210549   0.643   2.479   3.448
 3529TIP3   OH210550   5.037   0.445   3.650
 3529TIP3    H110551   5.022   0.522   3.594
 3529TIP3    H210552   5.008   0.371   3.597
 3530TIP3   OH210553   3.561   6.398   5.808
 3530TIP3    H110554   3.484   6.386   5.863
 3530TIP3    H210555   3.625   6.442   5.864
 3531TIP3   OH210556   4.509   4.541   2.065
 3531TIP3    H110557   4.436   4.522   2.123
 3531TIP3    H210558   4.525   4.459   2.018
 3532TIP3   OH210559   0.097   4.166   0.964
 3532TIP3    H110560   0.088   4.261   0.970
 3532TIP3    H210561   0.103   4.148   0.871
 3533TIP3   OH210562   3.854   2.586   0.620
 3533TIP3    H110563   3.928   2.528   0.604
 3533TIP3    H210564   3.893   2.665   0.657
 3534TIP3   OH210565   1.019   0.119   0.143
 3534TIP3    H110566   1.039   0.067   0.221
 3534TIP3    H210567   0.926   0.103   0.127
 3535TIP3   OH210568   3.585   6.664   2.680
 3535TIP3    H110569   3.629   6.579   2.686
 3535TIP3    H210570   3.639   6.715   2.620
 3536TIP3   OH210571   6.754   0.078   0.749
 3536TIP3    H110572   6.824   0.087   0.813
 3536TIP3    H210573   6.712   0.164   0.747
 3537TIP3   OH210574   6.132   0.251   2.187
 3537TIP3    H110575   6.107   0.325   2.132
 3537TIP3    H210576   6.227   0.245   2.177
 3538TIP3   OH210577   5.529   5.936   4.488
 3538TIP3    H110578   5.552   5.968   4.575
 3538TIP3    H210579   5.519   5.842   4.499
 3539TIP3   OH210580   1.488   4.113   0.458
 3539TIP3    H110581   1.500   4.206   0.477
 3539TIP3    H210582   1.511   4.069   0.539
 3540TIP3   OH210583   4.011   2.820   0.749
 3540TIP3    H110584   4.093   2.808   0.701
 3540TIP3    H210585   4.036   2.819   0.841
 3541TIP3   OH210586   5.204   5.576   5.468
 3541TIP3    H110587   5.234   5.491   5.434
 3541TIP3    H210588   5.121   5.555   5.511
 3542TIP3   OH210589   7.037   3.339   3.996
 3542TIP3    H110590   7.113   3.281   4.004
 3542TIP3    H210591   6.978   3.311   4.065
 3543TIP3   OH210592   1.145   1.725   5.473
 3543TIP3    H110593   1.224   1.688   5.434
 3543TIP3    H210594   1.177   1.792   5.533
 3544TIP3   OH210595   5.626   2.715   3.751
 3544TIP3    H110596   5.599   2.639   3.803
 3544TIP3    H210597   5.554   2.730   3.690
 3545TIP3   OH210598   3.186   4.971   2.892
 3545TIP3    H110599   3.263   4.978   2.835
 3545TIP3    H210600   3.213   4.912   2.962
 3546TIP3   OH210601   5.527   1.495   0.394
 3546TIP3    H110602   5.458   1.532   0.339
 3546TIP3    H210603   5.548   1.411   0.353
 3547TIP3   OH210604   4.674   5.447   1.025
 3547TIP3    H110605   4.647   5.439   1.117
 3547TIP3    H210606   4.751   5.391   1.017
 3548TIP3   OH210607   0.456   0.969   4.568
 3548TIP3    H110608   0.491   1.057   4.582
 3548TIP3    H210609   0.467   0.925   4.652
 3549TIP3   OH210610   4.461   2.098   5.272
 3549TIP3    H110611   4.423   2.094   5.184
 3549TIP3    H210612   4.530   2.032   5.271
 3550TIP3   OH210613   0.200   5.213   5.657
 3550TIP3    H110614   0.262   5.284   5.675
 3550TIP3    H210615   0.134   5.222   5.726
 3551TIP3   OH210616   2.316   0.778   4.555
 3551TIP3    H110617   2.344   0.707   4.497
 3551TIP3    H210618   2.221   0.776   4.551
 3552TIP3   OH210619   3.154   1.052   2.992
 3552TIP3    H110620   3.237   1.029   3.035
 3552TIP3    H210621   3.172   1.044   2.899
 3553TIP3   OH210622   0.977   0.246   1.781
 3553TIP3    H110623   0.965   0.340   1.794
 3553TIP3    H210624   0.935   0.206   1.857
 3554TIP3   OH210625   1.417   5.768   0.732
 3554TIP3    H110626   1.348   5.804   0.676
 3554TIP3    H210627   1.408   5.673   0.723
 3555TIP3   OH210628   2.128   2.788   5.212
 3555TIP3    H110629   2.163   2.877   5.213
 3555TIP3    H210630   2.065   2.788   5.140
 3556TIP3   OH210631   4.193   2.051   4.452
 3556TIP3    H110632   4.131   1.980   4.467
 3556TIP3    H210633   4.173   2.083   4.364
 3557TIP3   OH210634   1.512   2.464   1.462
 3557TIP3    H110635   1.562   2.392   1.422
 3557TIP3    H210636   1.577   2.533   1.474
 3558TIP3   OH210637   0.620   3.123   0.372
 3558TIP3    H110638   0.527   3.133   0.396
 3558TIP3    H210639   0.644   3.036   0.404
 3559TIP3   OH210640   3.840   2.259   0.372
 3559TIP3    H110641   3.882   2.245   0.456
 3559TIP3    H210642   3.747   2.273   0.394
 3560TIP3   OH210643   0.445   4.276   4.344
 3560TIP3    H110644   0.358   4.317   4.344
 3560TIP3    H210645   0.505   4.348   4.322
 3561TIP3   OH210646   3.304   2.775   2.259
 3561TIP3    H110647   3.368   2.805   2.195
 3561TIP3    H210648   3.357   2.738   2.330
 3562TIP3   OH210649   6.530   0.627   1.931
 3562TIP3    H110650   6.511   0.606   1.839
 3562TIP3    H210651   6.625   0.626   1.936
 3563TIP3   OH210652   7.143   2.737   0.616
 3563TIP3    H110653   7.207   2.698   0.556
 3563TIP3    H210654   7.164   2.698   0.701
 3564TIP3   OH210655   4.005   1.713   1.935
 3564TIP3    H110656   4.003   1.737   2.027
 3564TIP3    H210657   4.040   1.790   1.890
 3565TIP3   OH210658   5.279   4.701   4.171
 3565TIP3    H110659   5.221   4.670   4.241
 3565TIP3    H210660   5.242   4.666   4.091
 3566TIP3   OH210661   2.760   6.249   1.362
 3566TIP3    H110662   2.774   6.154   1.364
 3566TIP3    H210663   2.701   6.266   1.436
 3567TIP3   OH210664   2.619   6.529   2.312
 3567TIP3    H110665   2.644   6.484   2.392
 3567TIP3    H210666   2.580   6.460   2.257
 3568TIP3   OH210667   2.939   5.054   3.549
 3568TIP3    H110668   2.871   5.024   3.487
 3568TIP3    H210669   2.938   5.150   3.540
 3569TIP3   OH210670   4.148   3.752   3.856
 3569TIP3    H110671   4.241   3.777   3.850
 3569TIP3    H210672   4.114   3.804   3.928
 3570TIP3   OH210673   6.173   2.684   4.048
 3570TIP3    H110674   6.091   2.706   4.005
 3570TIP3    H210675   6.239   2.693   3.979
 3571TIP3   OH210676   2.144   6.546   3.916
 3571TIP3    H110677   2.175   6.538   4.006
 3571TIP3    H210678   2.068   6.604   3.922
 3572TIP3   OH210679   4.040   5.774   1.846
 3572TIP3    H110680   4.090   5.853   1.824
 3572TIP3    H210681   3.949   5.797   1.830
 3573TIP3   OH210682   4.852   4.156   0.661
 3573TIP3    H110683   4.898   4.239   0.670
 3573TIP3    H210684   4.913   4.091   0.694
 3574TIP3   OH210685   0.400   2.090   1.572
 3574TIP3    H110686   0.388   2.032   1.647
 3574TIP3    H210687   0.316   2.135   1.564
 3575TIP3   OH210688   6.627   6.387   4.584
 3575TIP3    H110689   6.550   6.387   4.642
 3575TIP3    H210690   6.590   6.381   4.496
 3576TIP3   OH210691   2.267   6.036   4.215
 3576TIP3    H110692   2.203   6.104   4.235
 3576TIP3    H210693   2.314   6.068   4.138
 3577TIP3   OH210694   1.811   2.886   1.393
 3577TIP3    H110695   1.776   2.907   1.307
 3577TIP3    H210696   1.761   2.941   1.454
 3578TIP3   OH210697   4.788   1.409   1.379
 3578TIP3    H110698   4.768   1.444   1.292
 3578TIP3    H210699   4.704   1.408   1.425
 3579TIP3   OH210700   4.629   1.072   3.947
 3579TIP3    H110701   4.633   1.001   4.010
 3579TIP3    H210702   4.603   1.031   3.865
 3580TIP3   OH210703   1.436   1.800   2.021
 3580TIP3    H110704   1.527   1.830   2.022
 3580TIP3    H210705   1.441   1.707   1.996
 3581TIP3   OH210706   5.250   1.589   4.544
 3581TIP3    H110707   5.301   1.664   4.512
 3581TIP3    H210708   5.164   1.601   4.505
 3582TIP3   OH210709   0.245   0.870   3.814
 3582TIP3    H110710   0.225   0.957   3.778
 3582TIP3    H210711   0.287   0.823   3.743
 3583TIP3   OH210712   1.263   0.406   3.189
 3583TIP3    H110713   1.353   0.404   3.222
 3583TIP3    H210714   1.238   0.498   3.193
 3584TIP3   OH210715   0.633   4.689   5.582
 3584TIP3    H110716   0.711   4.633   5.590
 3584TIP3    H210717   0.586   4.654   5.507
 3585TIP3   OH210718   3.676   1.567   5.128
 3585TIP3    H110719   3.767   1.583   5.151
 3585TIP3    H210720   3.626   1.599   5.203
 3586TIP3   OH210721   6.668   1.589   1.298
 3586TIP3    H110722   6.738   1.652   1.282
 3586TIP3    H210723   6.697   1.509   1.253
 3587TIP3   OH210724   2.667   0.560   3.031
 3587TIP3    H110725   2.739   0.622   3.036
 3587TIP3    H210726   2.651   0.534   3.122
 3588TIP3   OH210727   2.258   6.731   2.440
 3588TIP3    H110728   2.316   6.725   2.364
 3588TIP3    H210729   2.272   6.649   2.487
 3589TIP3   OH210730   1.931   4.358   0.527
 3589TIP3    H110731   1.842   4.393   0.526
 3589TIP3    H210732   1.984   4.426   0.487
 3590TIP3   OH210733   7.163   5.435   4.181
 3590TIP3    H110734   7.177   5.369   4.249
 3590TIP3    H210735   7.076   5.414   4.146
 3591TIP3   OH210736   6.519   4.247   1.459
 3591TIP3    H110737   6.473   4.224   1.539
 3591TIP3    H210738   6.465   4.210   1.389
 3592TIP3   OH210739   5.907   3.340   3.698
 3592TIP3    H110740   5.884   3.410   3.760
 3592TIP3    H210741   5.927   3.385   3.617
 3593TIP3   OH210742   1.912   6.450   4.109
 3593TIP3    H110743   1.827   6.421   4.074
 3593TIP3    H210744   1.912   6.545   4.095
 3594TIP3   OH210745   3.359   0.696   1.151
 3594TIP3    H110746   3.446   0.737   1.152
 3594TIP3    H210747   3.308   0.751   1.092
 3595TIP3   OH210748   2.882   6.022   0.587
 3595TIP3    H110749   2.826   6.098   0.570
 3595TIP3    H210750   2.887   6.017   0.682
 3596TIP3   OH210751   2.183   0.155   4.785
 3596TIP3    H110752   2.168   0.136   4.878
 3596TIP3    H210753   2.174   0.070   4.742
 3597TIP3   OH210754   4.872   2.673   5.269
 3597TIP3    H110755   4.851   2.765   5.289
 3597TIP3    H210756   4.967   2.667   5.282
 3598TIP3   OH210757   6.388   3.299   0.189
 3598TIP3    H110758   6.377   3.374   0.247
 3598TIP3    H210759   6.457   3.327   0.128
 3599TIP3   OH210760   2.010   0.546   5.383
 3599TIP3    H110761   2.081   0.575   5.440
 3599TIP3    H210762   1.931   0.577   5.426
 3600TIP3   OH210763   3.155   0.291   4.596
 3600TIP3    H110764   3.197   0.350   4.533
 3600TIP3    H210765   3.061   0.304   4.583
 3601TIP3   OH210766   4.671   4.170   1.584
 3601TIP3    H110767   4.592   4.148   1.634
 3601TIP3    H210768   4.742   4.130   1.634
 3602TIP3   OH210769   6.018   5.967   1.010
 3602TIP3    H110770   5.950   5.997   1.071
 3602TIP3    H210771   5.974   5.902   0.955
 3603TIP3   OH210772   3.723   0.608   3.163
 3603TIP3    H110773   3.799   0.644   3.119
 3603TIP3    H210774   3.752   0.523   3.197
 3604TIP3   OH210775   5.023   1.550   5.815
 3604TIP3    H110776   4.936   1.582   5.839
 3604TIP3    H210777   5.011   1.510   5.729
 3605TIP3   OH210778   1.770   1.704   2.309
 3605TIP3    H110779   1.771   1.608   2.312
 3605TIP3    H210780   1.702   1.725   2.245
 3606TIP3   OH210781   5.146   0.688   4.181
 3606TIP3    H110782   5.201   0.609   4.177
 3606TIP3    H210783   5.209   0.760   4.182
 3607TIP3   OH210784   3.396   6.465   5.412
 3607TIP3    H110785   3.427   6.388   5.460
 3607TIP3    H210786   3.458   6.472   5.339
 3608TIP3   OH210787   2.203   4.778   2.061
 3608TIP3    H110788   2.257   4.788   2.139
 3608TIP3    H210789   2.266   4.752   1.993
 3609TIP3   OH210790   3.973   3.042   5.203
 3609TIP3    H110791   3.903   2.989   5.166
 3609TIP3    H210792   3.947   3.055   5.295
 3610TIP3   OH210793   2.489   1.532   3.820
 3610TIP3    H110794   2.501   1.508   3.728
 3610TIP3    H210795   2.550   1.474   3.867
 3611TIP3   OH210796   4.765   1.098   2.720
 3611TIP3    H110797   4.817   1.087   2.800
 3611TIP3    H210798   4.723   1.013   2.707
 3612TIP3   OH210799   0.594   2.914   5.281
 3612TIP3    H110800   0.506   2.889   5.308
 3612TIP3    H210801   0.630   2.961   5.356
 3613TIP3   OH210802   1.014   2.913   5.708
 3613TIP3    H110803   0.958   2.861   5.765
 3613TIP3    H210804   0.972   2.908   5.622
 3614TIP3   OH210805   3.821   4.707   1.021
 3614TIP3    H110806   3.815   4.766   1.096
 3614TIP3    H210807   3.912   4.716   0.991
 3615TIP3   OH210808   4.482   2.185   1.395
 3615TIP3    H110809   4.567   2.171   1.355
 3615TIP3    H210810   4.499   2.248   1.465
 3616TIP3   OH210811   2.393   2.077   3.812
 3616TIP3    H110812   2.318   2.097   3.868
 3616TIP3    H210813   2.355   2.065   3.725
 3617TIP3   OH210814   6.617   1.428   4.330
 3617TIP3    H110815   6.596   1.345   4.373
 3617TIP3    H210816   6.554   1.490   4.367
 3618TIP3   OH210817   5.621   0.096   2.762
 3618TIP3    H110818   5.647   0.116   2.672
 3618TIP3    H210819   5.698   0.053   2.800
 3619TIP3   OH210820   2.241   3.840   1.441
 3619TIP3    H110821   2.330   3.875   1.437
 3619TIP3    H210822   2.189   3.910   1.479
 3620TIP3   OH210823   3.268   2.336   5.375
 3620TIP3    H110824   3.278   2.259   5.319
 3620TIP3    H210825   3.315   2.314   5.455
 3621TIP3   OH210826   3.178   4.015   3.352
 3621TIP3    H110827   3.218   4.051   3.273
 3621TIP3    H210828   3.230   3.937   3.372
 3622TIP3   OH210829   5.265   6.751   1.047
 3622TIP3    H110830   5.255   6.827   0.989
 3622TIP3    H210831   5.242   6.676   0.992
 3623TIP3   OH210832   7.168   3.945   5.076
 3623TIP3    H110833   7.127   3.874   5.028
 3623TIP3    H210834   7.186   4.012   5.009
 3624TIP3   OH210835   6.954   6.080   0.323
 3624TIP3    H110836   6.919   6.002   0.280
 3624TIP3    H210837   7.036   6.098   0.277
 3625TIP3   OH210838   4.705   4.936   4.959
 3625TIP3    H110839   4.714   5.006   5.023
 3625TIP3    H210840   4.655   4.868   5.004
 3626TIP3   OH210841   6.131   5.149   4.653
 3626TIP3    H110842   6.082   5.166   4.572
 3626TIP3    H210843   6.191   5.223   4.661
 3627TIP3   OH210844   0.316   1.102   4.803
 3627TIP3    H110845   0.290   1.158   4.730
 3627TIP3    H210846   0.241   1.043   4.817
 3628TIP3   OH210847   0.697   4.650   0.311
 3628TIP3    H110848   0.661   4.655   0.399
 3628TIP3    H210849   0.675   4.562   0.281
 3629TIP3   OH210850   1.778   5.825   4.726
 3629TIP3    H110851   1.785   5.860   4.637
 3629TIP3    H210852   1.690   5.850   4.754
 3630TIP3   OH210853   2.976   4.508   1.413
 3630TIP3    H110854   3.048   4.564   1.382
 3630TIP3    H210855   3.019   4.442   1.468
 3631TIP3   OH210856   0.696   5.589   3.743
 3631TIP3    H110857   0.613   5.630   3.767
 3631TIP3    H210858   0.755   5.611   3.814
 3632TIP3   OH210859   4.520   6.767   4.084
 3632TIP3    H110860   4.433   6.736   4.110
 3632TIP3    H210861   4.533   6.731   3.997
 3633TIP3   OH210862   0.571   4.979   3.083
 3633TIP3    H110863   0.619   5.055   3.117
 3633TIP3    H210864   0.519   4.948   3.157
 3634TIP3   OH210865   6.823   3.587   0.618
 3634TIP3    H110866   6.898   3.620   0.569
 3634TIP3    H210867   6.800   3.658   0.678
 3635TIP3   OH210868   6.861   1.864   2.100
 3635TIP3    H110869   6.954   1.878   2.117
 3635TIP3    H210870   6.843   1.916   2.022
 3636TIP3   OH210871   0.789   6.596   2.522
 3636TIP3    H110872   0.762   6.656   2.591
 3636TIP3    H210873   0.759   6.510   2.552
 3637TIP3   OH210874   3.623   5.138   5.106
 3637TIP3    H110875   3.604   5.151   5.013
 3637TIP3    H210876   3.538   5.144   5.149
 3638TIP3   OH210877   6.480   0.134   2.624
 3638TIP3    H110878   6.570   0.141   2.658
 3638TIP3    H210879   6.429   0.106   2.699
 3639TIP3   OH210880   5.216   3.537   2.242
 3639TIP3    H110881   5.223   3.595   2.166
 3639TIP3    H210882   5.151   3.579   2.298
 3640TIP3   OH210883   3.996   1.707   2.692
 3640TIP3    H110884   3.952   1.659   2.621
 3640TIP3    H210885   4.039   1.639   2.743
 3641TIP3   OH210886   6.440   2.738   5.373
 3641TIP3    H110887   6.470   2.647   5.379
 3641TIP3    H210888   6.354   2.737   5.415
 3642TIP3   OH210889   4.193   0.417   2.062
 3642TIP3    H110890   4.154   0.330   2.050
 3642TIP3    H210891   4.284   0.406   2.034
 3643TIP3   OH210892   1.867   6.223   4.860
 3643TIP3    H110893   1.906   6.304   4.827
 3643TIP3    H210894   1.772   6.239   4.856
 3644TIP3   OH210895   1.104   3.510   5.114
 3644TIP3    H110896   1.096   3.444   5.045
 3644TIP3    H210897   1.018   3.514   5.154
 3645TIP3   OH210898   3.163   4.515   2.186
 3645TIP3    H110899   3.217   4.578   2.234
 3645TIP3    H210900   3.153   4.441   2.246
 3646TIP3   OH210901   4.748   6.398   5.897
 3646TIP3    H110902   4.720   6.351   5.818
 3646TIP3    H210903   4.741   6.490   5.874
 3647TIP3   OH210904   2.400   5.613   2.323
 3647TIP3    H110905   2.366   5.576   2.405
 3647TIP3    H210906   2.434   5.538   2.275
 3648TIP3   OH210907   6.019   3.173   3.901
 3648TIP3    H110908   5.987   3.190   3.813
 3648TIP3    H210909   6.001   3.255   3.948
 3649TIP3   OH210910   4.878   6.709   4.399
 3649TIP3    H110911   4.931   6.671   4.469
 3649TIP3    H210912   4.908   6.666   4.320
 3650TIP3   OH210913   3.051   6.802   4.121
 3650TIP3    H110914   3.127   6.751   4.092
 3650TIP3    H210915   3.081   6.847   4.200
 3651TIP3   OH210916   4.639   3.189   2.318
 3651TIP3    H110917   4.652   3.262   2.379
 3651TIP3    H210918   4.723   3.180   2.274
 3652TIP3   OH210919   5.607   5.623   5.928
 3652TIP3    H110920   5.551   5.566   5.876
 3652TIP3    H210921   5.618   5.701   5.874
 3653TIP3   OH210922   0.796   4.923   0.670
 3653TIP3    H110923   0.852   4.845   0.672
 3653TIP3    H210924   0.731   4.907   0.739
 3654TIP3   OH210925   4.936   2.637   5.656
 3654TIP3    H110926   4.853   2.590   5.660
 3654TIP3    H210927   4.938   2.674   5.568
 3655TIP3   OH210928   4.242   5.856   3.742
 3655TIP3    H110929   4.317   5.890   3.791
 3655TIP3    H210930   4.279   5.825   3.659
 3656TIP3   OH210931   5.206   5.820   2.282
 3656TIP3    H110932   5.168   5.902   2.250
 3656TIP3    H210933   5.181   5.817   2.374
 3657TIP3   OH210934   7.051   0.927   4.836
 3657TIP3    H110935   7.054   1.023   4.826
 3657TIP3    H210936   7.106   0.894   4.764
 3658TIP3   OH210937   5.986   2.573   5.857
 3658TIP3    H110938   5.963   2.486   5.823
 3658TIP3    H210939   6.080   2.568   5.873
 3659TIP3   OH210940   2.312   2.845   1.560
 3659TIP3    H110941   2.388   2.892   1.597
 3659TIP3    H210942   2.238   2.873   1.614
 3660TIP3   OH210943   0.958   0.966   0.909
 3660TIP3    H110944   1.004   0.911   0.846
 3660TIP3    H210945   0.901   0.905   0.957
 3661TIP3   OH210946   5.910   2.913   5.578
 3661TIP3    H110947   5.910   2.953   5.492
 3661TIP3    H210948   5.929   2.820   5.562
 3662TIP3   OH210949   1.974   4.975   1.471
 3662TIP3    H110950   2.056   5.019   1.450
 3662TIP3    H210951   1.996   4.917   1.544
 3663TIP3   OH210952   1.354   6.732   4.285
 3663TIP3    H110953   1.371   6.710   4.193
 3663TIP3    H210954   1.433   6.705   4.331
 3664TIP3   OH210955   2.155   1.159   5.154
 3664TIP3    H110956   2.203   1.120   5.227
 3664TIP3    H210957   2.133   1.247   5.185
 3665TIP3   OH210958   1.615   0.771   1.309
 3665TIP3    H110959   1.642   0.716   1.235
 3665TIP3    H210960   1.688   0.763   1.372
 3666TIP3   OH210961   7.083   4.214   0.511
 3666TIP3    H110962   7.085   4.268   0.432
 3666TIP3    H210963   7.055   4.274   0.580
 3667TIP3   OH210964   5.941   2.113   0.296
 3667TIP3    H110965   5.955   2.172   0.369
 3667TIP3    H210966   5.846   2.101   0.291
 3668TIP3   OH210967   1.794   2.026   5.528
 3668TIP3    H110968   1.829   2.115   5.525
 3668TIP3    H210969   1.823   1.986   5.446
 3669TIP3   OH210970   3.742   0.672   2.826
 3669TIP3    H110971   3.782   0.620   2.756
 3669TIP3    H210972   3.648   0.671   2.807
 3670TIP3   OH210973   2.893   2.614   3.358
 3670TIP3    H110974   2.800   2.629   3.340
 3670TIP3    H210975   2.932   2.702   3.356
 3671TIP3   OH210976   2.239   4.627   2.530
 3671TIP3    H110977   2.220   4.619   2.624
 3671TIP3    H210978   2.334   4.629   2.525
 3672TIP3   OH210979   0.966   0.240   4.827
 3672TIP3    H110980   1.039   0.178   4.825
 3672TIP3    H210981   0.892   0.191   4.791
 3673TIP3   OH210982   6.224   1.068   1.682
 3673TIP3    H110983   6.247   0.980   1.651
 3673TIP3    H210984   6.129   1.065   1.694
 3674TIP3   OH210985   6.225   2.186   4.996
 3674TIP3    H110986   6.284   2.259   4.978
 3674TIP3    H210987   6.279   2.108   4.988
 3675TIP3   OH210988   3.724   0.193   3.950
 3675TIP3    H110989   3.746   0.251   4.022
 3675TIP3    H210990   3.704   0.109   3.993
 3676TIP3   OH210991   6.471   2.678   2.564
 3676TIP3    H110992   6.488   2.699   2.656
 3676TIP3    H210993   6.378   2.658   2.561
 3677TIP3   OH210994   1.321   4.316   4.301
 3677TIP3    H110995   1.389   4.251   4.281
 3677TIP3    H210996   1.239   4.275   4.272
 3678TIP3   OH210997   7.028   6.180   1.454
 3678TIP3    H110998   7.108   6.139   1.488
 3678TIP3    H210999   6.958   6.119   1.476
 3679TIP3   OH211000   0.873   2.689   5.330
 3679TIP3    H111001   0.938   2.619   5.321
 3679TIP3    H211002   0.835   2.698   5.242
 3680TIP3   OH211003   4.131   0.541   2.789
 3680TIP3    H111004   4.203   0.491   2.828
 3680TIP3    H211005   4.161   0.562   2.701
 3681TIP3   OH211006   4.402   4.561   5.465
 3681TIP3    H111007   4.453   4.500   5.519
 3681TIP3    H211008   4.460   4.636   5.452
 3682TIP3   OH211009   0.532   3.294   5.807
 3682TIP3    H111010   0.473   3.249   5.747
 3682TIP3    H211011   0.510   3.386   5.799
 3683TIP3   OH211012   2.727   0.357   1.241
 3683TIP3    H111013   2.726   0.412   1.163
 3683TIP3    H211014   2.750   0.417   1.312
 3684TIP3   OH211015   4.374   4.019   4.671
 3684TIP3    H111016   4.377   3.925   4.693
 3684TIP3    H211017   4.295   4.028   4.618
 3685TIP3   OH211018   2.232   1.189   4.361
 3685TIP3    H111019   2.191   1.274   4.379
 3685TIP3    H211020   2.160   1.127   4.355
 3686TIP3   OH211021   1.839   0.894   0.562
 3686TIP3    H111022   1.906   0.837   0.525
 3686TIP3    H211023   1.881   0.979   0.571
 3687TIP3   OH211024   3.967   5.121   1.694
 3687TIP3    H111025   4.005   5.179   1.628
 3687TIP3    H211026   3.895   5.077   1.648
 3688TIP3   OH211027   2.686   1.679   1.651
 3688TIP3    H111028   2.631   1.755   1.673
 3688TIP3    H211029   2.624   1.613   1.619
 3689TIP3   OH211030   5.056   4.511   3.288
 3689TIP3    H111031   5.142   4.551   3.298
 3689TIP3    H211032   5.028   4.537   3.200
 3690TIP3   OH211033   1.830   4.729   3.974
 3690TIP3    H111034   1.738   4.756   3.968
 3690TIP3    H211035   1.855   4.711   3.884
 3691TIP3   OH211036   2.854   4.245   2.923
 3691TIP3    H111037   2.907   4.318   2.890
 3691TIP3    H211038   2.911   4.198   2.983
 3692TIP3   OH211039   5.878   3.383   0.413
 3692TIP3    H111040   5.909   3.326   0.484
 3692TIP3    H211041   5.911   3.342   0.333
 3693TIP3   OH211042   4.108   0.270   0.206
 3693TIP3    H111043   4.180   0.333   0.209
 3693TIP3    H211044   4.031   0.323   0.186
 3694TIP3   OH211045   4.736   2.993   0.259
 3694TIP3    H111046   4.778   2.910   0.279
 3694TIP3    H211047   4.807   3.057   0.258
 3695TIP3   OH211048   4.220   4.133   3.780
 3695TIP3    H111049   4.248   4.084   3.857
 3695TIP3    H211050   4.285   4.203   3.771
 3696TIP3   OH211051   4.166   1.786   3.893
 3696TIP3    H111052   4.116   1.807   3.814
 3696TIP3    H211053   4.201   1.698   3.876
 3697TIP3   OH211054   5.073   5.096   2.863
 3697TIP3    H111055   5.007   5.148   2.818
 3697TIP3    H211056   5.101   5.031   2.799
 3698TIP3   OH211057   5.713   0.966   5.116
 3698TIP3    H111058   5.740   0.938   5.029
 3698TIP3    H211059   5.671   0.889   5.154
 3699TIP3   OH211060   0.324   0.921   2.433
 3699TIP3    H111061   0.352   0.837   2.470
 3699TIP3    H211062   0.242   0.940   2.478
 3700TIP3   OH211063   3.311   3.119   4.974
 3700TIP3    H111064   3.343   3.206   4.997
 3700TIP3    H211065   3.375   3.085   4.912
 3701TIP3   OH211066   3.677   3.773   2.921
 3701TIP3    H111067   3.599   3.730   2.886
 3701TIP3    H211068   3.644   3.828   2.992
 3702TIP3   OH211069   2.410  -0.016   4.477
 3702TIP3    H111070   2.470   0.041   4.430
 3702TIP3    H211071   2.408   0.020   4.566
 3703TIP3   OH211072   5.418   3.689   0.093
 3703TIP3    H111073   5.440   3.775   0.127
 3703TIP3    H211074   5.489   3.668   0.032
 3704TIP3   OH211075   0.613   1.958   4.931
 3704TIP3    H111076   0.652   2.003   5.006
 3704TIP3    H211077   0.632   2.016   4.857
 3705TIP3   OH211078   1.455   0.622   4.780
 3705TIP3    H111079   1.520   0.684   4.748
 3705TIP3    H211080   1.371   0.669   4.774
 3706TIP3   OH211081   2.416   6.208   2.800
 3706TIP3    H111082   2.460   6.165   2.873
 3706TIP3    H211083   2.378   6.136   2.748
 3707TIP3   OH211084   6.422   0.645   4.314
 3707TIP3    H111085   6.370   0.667   4.236
 3707TIP3    H211086   6.399   0.554   4.332
 3708TIP3   OH211087   4.598   3.863   0.372
 3708TIP3    H111088   4.574   3.855   0.279
 3708TIP3    H211089   4.520   3.831   0.419
 3709TIP3   OH211090   2.281   2.134   0.997
 3709TIP3    H111091   2.329   2.056   0.969
 3709TIP3    H211092   2.322   2.158   1.080
 3710TIP3   OH211093   4.788   2.422   0.394
 3710TIP3    H111094   4.732   2.500   0.394
 3710TIP3    H211095   4.871   2.452   0.359
 3711TIP3   OH211096   5.058   1.741   0.371
 3711TIP3    H111097   4.999   1.763   0.443
 3711TIP3    H211098   5.013   1.670   0.323
 3712TIP3   OH211099   6.755   6.414   4.050
 3712TIP3    H111100   6.736   6.495   4.097
 3712TIP3    H211101   6.851   6.408   4.049
 3713TIP3   OH211102   5.487   5.237   2.701
 3713TIP3    H111103   5.413   5.217   2.645
 3713TIP3    H211104   5.532   5.153   2.713
 3714TIP3   OH211105   2.509   4.639   1.402
 3714TIP3    H111106   2.446   4.679   1.343
 3714TIP3    H211107   2.592   4.644   1.355
 3715TIP3   OH211108   4.435   2.468   5.328
 3715TIP3    H111109   4.429   2.512   5.243
 3715TIP3    H211110   4.420   2.376   5.308
 3716TIP3   OH211111   2.610   4.620   5.390
 3716TIP3    H111112   2.530   4.656   5.349
 3716TIP3    H211113   2.598   4.525   5.386
 3717TIP3   OH211114   2.499   2.487   3.035
 3717TIP3    H111115   2.444   2.463   3.110
 3717TIP3    H211116   2.459   2.442   2.960
 3718TIP3   OH211117   5.591   1.547   3.125
 3718TIP3    H111118   5.666   1.501   3.087
 3718TIP3    H211119   5.572   1.616   3.061
 3719TIP3   OH211120   3.834   0.361   3.223
 3719TIP3    H111121   3.854   0.344   3.131
 3719TIP3    H211122   3.890   0.300   3.271
 3720TIP3   OH211123   3.778   3.212   4.783
 3720TIP3    H111124   3.846   3.220   4.850
 3720TIP3    H211125   3.759   3.303   4.757
 3721TIP3   OH211126   4.241   4.356   5.116
 3721TIP3    H111127   4.319   4.345   5.062
 3721TIP3    H211128   4.191   4.426   5.074
 3722TIP3   OH211129   1.671   4.474   1.501
 3722TIP3    H111130   1.680   4.562   1.463
 3722TIP3    H211131   1.716   4.479   1.585
 3723TIP3   OH211132   4.822   3.581   2.702
 3723TIP3    H111133   4.842   3.589   2.795
 3723TIP3    H211134   4.829   3.487   2.684
 3724TIP3   OH211135   4.056   1.201   0.834
 3724TIP3    H111136   4.099   1.270   0.885
 3724TIP3    H211137   4.127   1.149   0.798
 3725TIP3   OH211138   3.077   2.092   3.991
 3725TIP3    H111139   3.038   2.142   4.063
 3725TIP3    H211140   3.006   2.034   3.961
 3726TIP3   OH211141   4.119   5.192   0.050
 3726TIP3    H111142   4.126   5.216  -0.043
 3726TIP3    H211143   4.154   5.267   0.097
 3727TIP3   OH211144   2.919   5.527   0.053
 3727TIP3    H111145   2.893   5.476   0.130
 3727TIP3    H211146   2.838   5.539   0.004
 3728TIP3   OH211147   6.882   3.396   2.308
 3728TIP3    H111148   6.824   3.464   2.342
 3728TIP3    H211149   6.904   3.343   2.385
 3729TIP3   OH211150   5.398   4.287   5.626
 3729TIP3    H111151   5.489   4.272   5.599
 3729TIP3    H211152   5.348   4.281   5.544
 3730TIP3   OH211153   3.705   3.528   4.019
 3730TIP3    H111154   3.735   3.532   4.110
 3730TIP3    H211155   3.612   3.552   4.024
 3731TIP3   OH211156   1.622   4.237   0.729
 3731TIP3    H111157   1.638   4.323   0.691
 3731TIP3    H211158   1.649   4.245   0.821
 3732TIP3   OH211159   1.172   4.172   2.799
 3732TIP3    H111160   1.214   4.201   2.717
 3732TIP3    H211161   1.213   4.227   2.866
 3733TIP3   OH211162   0.280   1.566   5.742
 3733TIP3    H111163   0.356   1.622   5.723
 3733TIP3    H211164   0.299   1.484   5.696
 3734TIP3   OH211165   2.922   2.212   4.181
 3734TIP3    H111166   2.896   2.282   4.122
 3734TIP3    H211167   2.904   2.246   4.269
 3735TIP3   OH211168   1.944   3.534   3.614
 3735TIP3    H111169   2.035   3.514   3.590
 3735TIP3    H211170   1.947   3.550   3.708
 3736TIP3   OH211171   3.581   2.059   2.891
 3736TIP3    H111172   3.527   2.093   2.819
 3736TIP3    H211173   3.637   1.993   2.850
 3737TIP3   OH211174   1.875   2.443   3.039
 3737TIP3    H111175   1.862   2.375   3.105
 3737TIP3    H211176   1.829   2.410   2.962
 3738TIP3   OH211177   4.770   1.649   5.847
 3738TIP3    H111178   4.726   1.564   5.848
 3738TIP3    H211179   4.742   1.690   5.766
 3739TIP3   OH211180   4.217   1.407   5.484
 3739TIP3    H111181   4.127   1.393   5.453
 3739TIP3    H211182   4.247   1.321   5.511
 3740TIP3   OH211183   3.619   1.873   2.607
 3740TIP3    H111184   3.594   1.964   2.623
 3740TIP3    H211185   3.712   1.878   2.585
 3741TIP3   OH211186   7.088   4.125   3.844
 3741TIP3    H111187   7.153   4.187   3.813
 3741TIP3    H211188   7.097   4.049   3.785
 3742TIP3   OH211189   1.142   2.167   1.278
 3742TIP3    H111190   1.180   2.248   1.313
 3742TIP3    H211191   1.075   2.197   1.216
 3743TIP3   OH211192   0.343   0.102   5.674
 3743TIP3    H111193   0.342   0.024   5.619
 3743TIP3    H211194   0.360   0.069   5.762
 3744TIP3   OH211195   4.225   5.409   2.493
 3744TIP3    H111196   4.163   5.339   2.477
 3744TIP3    H211197   4.257   5.394   2.582
 3745TIP3   OH211198   5.940   0.351   0.347
 3745TIP3    H111199   6.016   0.325   0.399
 3745TIP3    H211200   5.896   0.416   0.401
 3746TIP3   OH211201   1.086   0.907   4.435
 3746TIP3    H111202   1.031   0.829   4.432
 3746TIP3    H211203   1.131   0.902   4.519
 3747TIP3   OH211204   2.383   6.615   0.652
 3747TIP3    H111205   2.408   6.545   0.713
 3747TIP3    H211206   2.429   6.594   0.571
 3748TIP3   OH211207   2.122   5.610   5.216
 3748TIP3    H111208   2.066   5.536   5.237
 3748TIP3    H211209   2.079   5.653   5.143
 3749TIP3   OH211210   4.480   3.533   1.291
 3749TIP3    H111211   4.416   3.599   1.265
 3749TIP3    H211212   4.482   3.471   1.219
 3750TIP3   OH211213   4.562   5.080   1.518
 3750TIP3    H111214   4.542   5.023   1.593
 3750TIP3    H211215   4.645   5.045   1.484
 3751TIP3   OH211216   3.448   5.858   4.505
 3751TIP3    H111217   3.494   5.776   4.521
 3751TIP3    H211218   3.400   5.874   4.586
 3752TIP3   OH211219   3.856   2.423   1.025
 3752TIP3    H111220   3.870   2.445   1.117
 3752TIP3    H211221   3.818   2.501   0.987
 3753TIP3   OH211222   1.511   4.131   2.795
 3753TIP3    H111223   1.437   4.094   2.843
 3753TIP3    H211224   1.478   4.146   2.707
 3754TIP3   OH211225   1.348   2.152   2.568
 3754TIP3    H111226   1.318   2.167   2.658
 3754TIP3    H211227   1.443   2.151   2.574
 3755TIP3   OH211228   0.279   5.221   5.200
 3755TIP3    H111229   0.278   5.166   5.278
 3755TIP3    H211230   0.188   5.225   5.171
 3756TIP3   OH211231   0.702   0.065   5.528
 3756TIP3    H111232   0.703   0.000   5.458
 3756TIP3    H211233   0.678   0.016   5.607
 3757TIP3   OH211234   4.274   2.796   1.896
 3757TIP3    H111235   4.314   2.726   1.845
 3757TIP3    H211236   4.347   2.855   1.917
 3758TIP3   OH211237   6.281   0.744   4.117
 3758TIP3    H111238   6.295   0.693   4.037
 3758TIP3    H211239   6.215   0.809   4.093
 3759TIP3   OH211240   2.116   5.853   5.043
 3759TIP3    H111241   2.042   5.902   5.078
 3759TIP3    H211242   2.087   5.825   4.956
 3760TIP3   OH211243   6.520   5.177   3.087
 3760TIP3    H111244   6.461   5.167   3.013
 3760TIP3    H211245   6.600   5.215   3.050
 3761TIP3   OH211246   0.765   0.472   0.758
 3761TIP3    H111247   0.744   0.478   0.851
 3761TIP3    H211248   0.784   0.379   0.744
 3762TIP3   OH211249   2.729   1.201   4.310
 3762TIP3    H111250   2.673   1.233   4.381
 3762TIP3    H211251   2.671   1.195   4.234
 3763TIP3   OH211252   0.280   4.561   0.182
 3763TIP3    H111253   0.331   4.622   0.129
 3763TIP3    H211254   0.263   4.608   0.263
 3764TIP3   OH211255   0.351   2.408   5.492
 3764TIP3    H111256   0.279   2.472   5.491
 3764TIP3    H211257   0.403   2.430   5.415
 3765TIP3   OH211258   0.379   0.740   3.292
 3765TIP3    H111259   0.333   0.682   3.230
 3765TIP3    H211260   0.452   0.776   3.241
 3766TIP3   OH211261   5.195   1.752   5.866
 3766TIP3    H111262   5.129   1.683   5.859
 3766TIP3    H211263   5.191   1.779   5.958
 3767TIP3   OH211264   4.189   1.574   4.409
 3767TIP3    H111265   4.238   1.626   4.473
 3767TIP3    H211266   4.150   1.638   4.350
 3768TIP3   OH211267   5.321   2.382   1.790
 3768TIP3    H111268   5.411   2.390   1.822
 3768TIP3    H211269   5.267   2.395   1.868
 3769TIP3   OH211270   6.385   0.505   1.675
 3769TIP3    H111271   6.440   0.469   1.606
 3769TIP3    H211272   6.345   0.583   1.636
 3770TIP3   OH211273   6.419   1.833   1.715
 3770TIP3    H111274   6.431   1.816   1.621
 3770TIP3    H211275   6.360   1.908   1.718
 3771TIP3   OH211276   5.925   2.796   0.012
 3771TIP3    H111277   5.930   2.733   0.084
 3771TIP3    H211278   5.893   2.745  -0.063
 3772TIP3   OH211279   5.314   1.998   4.688
 3772TIP3    H111280   5.366   2.076   4.670
 3772TIP3    H211281   5.223   2.027   4.681
 3773TIP3   OH211282   2.058   0.236   3.934
 3773TIP3    H111283   2.080   0.222   3.842
 3773TIP3    H211284   2.038   0.329   3.940
 3774TIP3   OH211285   0.239   1.539   3.924
 3774TIP3    H111286   0.210   1.628   3.942
 3774TIP3    H211287   0.175   1.483   3.967
 3775TIP3   OH211288   5.169   4.177   5.734
 3775TIP3    H111289   5.219   4.104   5.770
 3775TIP3    H211290   5.235   4.240   5.706
 3776TIP3   OH211291   4.594   0.498   2.844
 3776TIP3    H111292   4.657   0.428   2.827
 3776TIP3    H211293   4.568   0.528   2.756
 3777TIP3   OH211294   1.338   4.388   0.756
 3777TIP3    H111295   1.398   4.324   0.795
 3777TIP3    H211296   1.355   4.469   0.804
 3778TIP3   OH211297   1.026   3.001   2.138
 3778TIP3    H111298   1.046   2.942   2.065
 3778TIP3    H211299   1.011   3.086   2.097
 3779TIP3   OH211300   4.988   6.321   0.771
 3779TIP3    H111301   5.078   6.332   0.801
 3779TIP3    H211302   4.996   6.270   0.690
 3780TIP3   OH211303   5.604   2.367   3.658
 3780TIP3    H111304   5.514   2.343   3.680
 3780TIP3    H211305   5.596   2.415   3.576
 3781TIP3   OH211306   1.165   0.019   0.901
 3781TIP3    H111307   1.134   0.100   0.862
 3781TIP3    H211308   1.086  -0.035   0.911
 3782TIP3   OH211309   0.345   0.573   2.041
 3782TIP3    H111310   0.280   0.643   2.053
 3782TIP3    H211311   0.313   0.501   2.094
 3783TIP3   OH211312   4.778   5.618   4.329
 3783TIP3    H111313   4.758   5.678   4.402
 3783TIP3    H211314   4.693   5.585   4.300
 3784TIP3   OH211315   3.706   0.729   4.702
 3784TIP3    H111316   3.621   0.738   4.660
 3784TIP3    H211317   3.760   0.684   4.637
 3785TIP3   OH211318   5.204   5.365   3.823
 3785TIP3    H111319   5.264   5.346   3.751
 3785TIP3    H211320   5.251   5.338   3.902
 3786TIP3   OH211321   6.891   0.840   1.015
 3786TIP3    H111322   6.941   0.903   1.066
 3786TIP3    H211323   6.956   0.794   0.962
 3787TIP3   OH211324   5.579   6.613   3.214
 3787TIP3    H111325   5.501   6.564   3.186
 3787TIP3    H211326   5.559   6.641   3.303
 3788TIP3   OH211327   3.829   4.135   3.938
 3788TIP3    H111328   3.914   4.119   3.977
 3788TIP3    H211329   3.843   4.207   3.877
 3789TIP3   OH211330   4.290   3.216   4.138
 3789TIP3    H111331   4.301   3.143   4.199
 3789TIP3    H211332   4.197   3.214   4.114
 3790TIP3   OH211333   2.934   1.533   1.672
 3790TIP3    H111334   2.950   1.616   1.627
 3790TIP3    H211335   2.895   1.558   1.755
 3791TIP3   OH211336   2.962   5.731   5.618
 3791TIP3    H111337   2.920   5.658   5.572
 3791TIP3    H211338   3.052   5.702   5.633
 3792TIP3   OH211339   7.112   6.113   4.531
 3792TIP3    H111340   7.191   6.061   4.519
 3792TIP3    H211341   7.080   6.130   4.442
 3793TIP3   OH211342   5.259   3.514   0.453
 3793TIP3    H111343   5.272   3.530   0.360
 3793TIP3    H211344   5.319   3.442   0.474
 3794TIP3   OH211345   2.717   6.677   5.774
 3794TIP3    H111346   2.805   6.645   5.753
 3794TIP3    H211347   2.666   6.598   5.791
 3795TIP3   OH211348   3.511   4.838   3.368
 3795TIP3    H111349   3.540   4.923   3.335
 3795TIP3    H211350   3.591   4.795   3.397
 3796TIP3   OH211351   1.429   3.870   5.209
 3796TIP3    H111352   1.475   3.918   5.140
 3796TIP3    H211353   1.495   3.860   5.278
 3797TIP3   OH211354   0.174   4.174   5.170
 3797TIP3    H111355   0.088   4.155   5.209
 3797TIP3    H211356   0.180   4.114   5.095
 3798TIP3   OH211357   1.948   0.498   0.851
 3798TIP3    H111358   1.878   0.563   0.855
 3798TIP3    H211359   2.018   0.536   0.904
 3799TIP3   OH211360   6.512   2.988   5.359
 3799TIP3    H111361   6.461   3.016   5.283
 3799TIP3    H211362   6.504   2.893   5.360
 3800TIP3   OH211363   2.097   3.718   5.581
 3800TIP3    H111364   2.050   3.799   5.598
 3800TIP3    H211365   2.165   3.715   5.649
 3801TIP3   OH211366   3.890   4.443   1.147
 3801TIP3    H111367   3.926   4.447   1.059
 3801TIP3    H211368   3.816   4.504   1.146
 3802TIP3   OH211369   6.890   4.181   1.058
 3802TIP3    H111370   6.888   4.181   0.962
 3802TIP3    H211371   6.798   4.179   1.084
 3803TIP3   OH211372   2.657   6.045   4.498
 3803TIP3    H111373   2.598   5.996   4.440
 3803TIP3    H211374   2.602   6.112   4.537
 3804TIP3   OH211375   1.814   4.277   1.725
 3804TIP3    H111376   1.826   4.372   1.730
 3804TIP3    H211377   1.850   4.253   1.639
 3805TIP3   OH211378   2.611   5.318   1.660
 3805TIP3    H111379   2.705   5.327   1.674
 3805TIP3    H211380   2.602   5.298   1.567
 3806TIP3   OH211381   0.366   5.167   3.257
 3806TIP3    H111382   0.461   5.166   3.242
 3806TIP3    H211383   0.355   5.227   3.330
 3807TIP3   OH211384   5.339   6.118   5.027
 3807TIP3    H111385   5.429   6.150   5.039
 3807TIP3    H211386   5.307   6.104   5.117
 3808TIP3   OH211387   0.639   2.277   3.749
 3808TIP3    H111388   0.666   2.324   3.670
 3808TIP3    H211389   0.564   2.225   3.722
 3809TIP3   OH211390   1.193   4.676   0.142
 3809TIP3    H111391   1.215   4.764   0.171
 3809TIP3    H211392   1.106   4.660   0.176
 3810TIP3   OH211393   1.209   1.202   0.184
 3810TIP3    H111394   1.174   1.220   0.271
 3810TIP3    H211395   1.292   1.251   0.181
 3811TIP3   OH211396   1.142   0.331   5.130
 3811TIP3    H111397   1.129   0.385   5.052
 3811TIP3    H211398   1.124   0.241   5.101
 3812TIP3   OH211399   5.474   6.483   3.487
 3812TIP3    H111400   5.469   6.423   3.562
 3812TIP3    H211401   5.394   6.467   3.438
 3813TIP3   OH211402   5.930   6.027   4.536
 3813TIP3    H111403   5.919   6.107   4.485
 3813TIP3    H211404   5.852   5.975   4.517
 3814TIP3   OH211405   5.978   4.678   5.814
 3814TIP3    H111406   5.928   4.675   5.896
 3814TIP3    H211407   6.036   4.754   5.823
 3815TIP3   OH211408   5.651   4.931   3.599
 3815TIP3    H111409   5.560   4.935   3.627
 3815TIP3    H211410   5.652   4.976   3.514
 3816TIP3   OH211411   0.299   0.972  -0.017
 3816TIP3    H111412   0.368   0.982  -0.082
 3816TIP3    H211413   0.340   0.921   0.053
 3817TIP3   OH211414   0.234   4.680   0.429
 3817TIP3    H111415   0.190   4.765   0.426
 3817TIP3    H211416   0.169   4.620   0.466
 3818TIP3   OH211417   4.538   3.105   4.404
 3818TIP3    H111418   4.453   3.070   4.381
 3818TIP3    H211419   4.569   3.148   4.324
 3819TIP3   OH211420   3.928   5.767   4.204
 3819TIP3    H111421   3.973   5.852   4.203
 3819TIP3    H211422   3.982   5.712   4.259
 3820TIP3   OH211423   5.102   3.982   2.145
 3820TIP3    H111424   5.073   3.983   2.237
 3820TIP3    H211425   5.052   4.052   2.103
 3821TIP3   OH211426   1.438   1.730   3.567
 3821TIP3    H111427   1.516   1.740   3.621
 3821TIP3    H211428   1.468   1.747   3.478
 3822TIP3   OH211429   1.534   5.987   1.604
 3822TIP3    H111430   1.567   6.011   1.517
 3822TIP3    H211431   1.583   5.909   1.628
 3823TIP3   OH211432   0.623   1.065   1.976
 3823TIP3    H111433   0.532   1.071   2.005
 3823TIP3    H211434   0.621   0.996   1.909
 3824TIP3   OH211435   3.440   0.264   1.257
 3824TIP3    H111436   3.475   0.288   1.171
 3824TIP3    H211437   3.468   0.334   1.315
 3825TIP3   OH211438   2.904   0.139   0.924
 3825TIP3    H111439   2.874   0.196   0.854
 3825TIP3    H211440   2.987   0.103   0.893
 3826TIP3   OH211441   3.578   1.435   4.373
 3826TIP3    H111442   3.622   1.387   4.443
 3826TIP3    H211443   3.650   1.477   4.325
 3827TIP3   OH211444   0.172   4.216   2.979
 3827TIP3    H111445   0.196   4.133   3.021
 3827TIP3    H211446   0.088   4.239   3.018
 3828TIP3   OH211447   2.749   2.713   4.294
 3828TIP3    H111448   2.813   2.728   4.364
 3828TIP3    H211449   2.756   2.791   4.238
 3829TIP3   OH211450   3.810   0.020   5.809
 3829TIP3    H111451   3.794  -0.064   5.852
 3829TIP3    H211452   3.734   0.073   5.834
 3830TIP3   OH211453   1.795   2.784   3.737
 3830TIP3    H111454   1.837   2.729   3.803
 3830TIP3    H211455   1.702   2.783   3.760
 3831TIP3   OH211456   2.180   5.482   1.408
 3831TIP3    H111457   2.224   5.511   1.328
 3831TIP3    H211458   2.103   5.435   1.377
 3832TIP3   OH211459   4.924   1.087   4.692
 3832TIP3    H111460   4.982   1.092   4.616
 3832TIP3    H211461   4.851   1.033   4.662
 3833TIP3   OH211462   3.677   0.785   5.255
 3833TIP3    H111463   3.684   0.879   5.239
 3833TIP3    H211464   3.584   0.766   5.250
 3834TIP3   OH211465   5.832   0.539   0.528
 3834TIP3    H111466   5.858   0.494   0.608
 3834TIP3    H211467   5.761   0.598   0.556
 3835TIP3   OH211468   6.371   3.958   0.396
 3835TIP3    H111469   6.386   4.019   0.468
 3835TIP3    H211470   6.389   4.009   0.317
 3836TIP3   OH211471   4.520   6.562   5.847
 3836TIP3    H111472   4.563   6.586   5.764
 3836TIP3    H211473   4.465   6.487   5.824
 3837TIP3   OH211474   4.917   4.130   5.620
 3837TIP3    H111475   4.923   4.161   5.530
 3837TIP3    H211476   5.007   4.129   5.652
 3838TIP3   OH211477   1.517   0.885   0.118
 3838TIP3    H111478   1.425   0.865   0.136
 3838TIP3    H211479   1.560   0.882   0.203
 3839TIP3   OH211480   5.829   2.786   3.554
 3839TIP3    H111481   5.760   2.781   3.621
 3839TIP3    H211482   5.857   2.877   3.555
 3840TIP3   OH211483   0.121   0.884   4.099
 3840TIP3    H111484   0.120   0.923   4.012
 3840TIP3    H211485   0.187   0.814   4.094
 3841TIP3   OH211486   0.138   5.591   5.859
 3841TIP3    H111487   0.044   5.582   5.877
 3841TIP3    H211488   0.148   5.561   5.769
 3842TIP3   OH211489   4.959   1.979   3.912
 3842TIP3    H111490   4.865   1.994   3.920
 3842TIP3    H211491   4.965   1.904   3.852
 3843TIP3   OH211492   4.714   3.495   1.849
 3843TIP3    H111493   4.663   3.459   1.778
 3843TIP3    H211494   4.670   3.577   1.872
 3844TIP3   OH211495   5.329   1.391   4.350
 3844TIP3    H111496   5.405   1.448   4.340
 3844TIP3    H211497   5.254   1.448   4.331
 3845TIP3   OH211498   0.578   3.822   0.082
 3845TIP3    H111499   0.547   3.732   0.083
 3845TIP3    H211500   0.498   3.875   0.085
 3846TIP3   OH211501   1.384   2.782   1.390
 3846TIP3    H111502   1.473   2.761   1.417
 3846TIP3    H211503   1.382   2.763   1.297
 3847TIP3   OH211504   0.108   5.022   1.390
 3847TIP3    H111505   0.196   5.022   1.354
 3847TIP3    H211506   0.077   5.111   1.378
 3848TIP3   OH211507   0.885   3.195   0.149
 3848TIP3    H111508   0.814   3.161   0.095
 3848TIP3    H211509   0.904   3.282   0.113
 3849TIP3   OH211510   6.129   3.264   4.550
 3849TIP3    H111511   6.103   3.318   4.475
 3849TIP3    H211512   6.101   3.175   4.525
 3850TIP3   OH211513   0.130   0.593   4.925
 3850TIP3    H111514   0.196   0.575   4.857
 3850TIP3    H211515   0.149   0.530   4.994
 3851TIP3   OH211516   0.901   0.779   4.652
 3851TIP3    H111517   0.833   0.809   4.591
 3851TIP3    H211518   0.919   0.689   4.625
 3852TIP3   OH211519   0.151   4.590   1.437
 3852TIP3    H111520   0.221   4.590   1.372
 3852TIP3    H211521   0.090   4.522   1.407
 3853TIP3   OH211522   0.606   3.671   1.661
 3853TIP3    H111523   0.539   3.709   1.718
 3853TIP3    H211524   0.613   3.580   1.689
 3854TIP3   OH211525   3.230   3.942   1.475
 3854TIP3    H111526   3.215   4.036   1.476
 3854TIP3    H211527   3.265   3.924   1.388
 3855TIP3   OH211528   3.536   1.622   2.130
 3855TIP3    H111529   3.582   1.698   2.095
 3855TIP3    H211530   3.572   1.548   2.080
 3856TIP3   OH211531   0.660   4.194   1.498
 3856TIP3    H111532   0.649   4.100   1.483
 3856TIP3    H211533   0.653   4.204   1.593
 3857TIP3   OH211534   6.745   2.964   3.510
 3857TIP3    H111535   6.724   3.021   3.436
 3857TIP3    H211536   6.825   2.919   3.483
 3858TIP3   OH211537   1.662   4.881   1.590
 3858TIP3    H111538   1.725   4.949   1.612
 3858TIP3    H211539   1.641   4.896   1.498
 3859TIP3   OH211540   6.331   1.529   0.466
 3859TIP3    H111541   6.285   1.465   0.412
 3859TIP3    H211542   6.418   1.491   0.480
 3860TIP3   OH211543   6.411   6.809   5.697
 3860TIP3    H111544   6.468   6.839   5.625
 3860TIP3    H211545   6.372   6.890   5.731
 3861TIP3   OH211546   3.375   5.550   5.088
 3861TIP3    H111547   3.317   5.584   5.020
 3861TIP3    H211548   3.456   5.528   5.042
 3862TIP3   OH211549   4.721   5.339   0.281
 3862TIP3    H111550   4.683   5.251   0.281
 3862TIP3    H211551   4.795   5.333   0.220
 3863TIP3   OH211552   3.340   1.448   3.188
 3863TIP3    H111553   3.428   1.417   3.164
 3863TIP3    H211554   3.355   1.534   3.227
 3864TIP3   OH211555   3.448   0.558   2.239
 3864TIP3    H111556   3.472   0.466   2.224
 3864TIP3    H211557   3.520   0.608   2.201
 3865TIP3   OH211558   2.675   4.247   1.874
 3865TIP3    H111559   2.716   4.164   1.850
 3865TIP3    H211560   2.684   4.251   1.970
 3866TIP3   OH211561   6.439   6.489   3.852
 3866TIP3    H111562   6.513   6.472   3.794
 3866TIP3    H211563   6.477   6.538   3.925
 3867TIP3   OH211564   0.204   3.687   0.946
 3867TIP3    H111565   0.154   3.755   0.993
 3867TIP3    H211566   0.289   3.687   0.989
 3868TIP3   OH211567   0.020   3.676   1.951
 3868TIP3    H111568   0.060   3.739   2.011
 3868TIP3    H211569  -0.052   3.637   2.002
 3869TIP3   OH211570   3.506   2.812   4.843
 3869TIP3    H111571   3.421   2.845   4.872
 3869TIP3    H211572   3.499   2.717   4.852
 3870TIP3   OH211573   3.736   4.960   5.764
 3870TIP3    H111574   3.710   4.971   5.856
 3870TIP3    H211575   3.766   5.047   5.738
 3871TIP3   OH211576   6.760   2.115   1.620
 3871TIP3    H111577   6.773   2.118   1.714
 3871TIP3    H211578   6.719   2.030   1.604
 3872TIP3   OH211579   3.594   5.216   3.538
 3872TIP3    H111580   3.650   5.154   3.584
 3872TIP3    H211581   3.535   5.161   3.486
 3873TIP3   OH211582   2.334   4.298   1.962
 3873TIP3    H111583   2.418   4.340   1.980
 3873TIP3    H211584   2.269   4.366   1.980
 3874TIP3   OH211585   6.215   4.342   2.694
 3874TIP3    H111586   6.277   4.415   2.700
 3874TIP3    H211587   6.204   4.312   2.784
 3875TIP3   OH211588   0.235   6.436   4.021
 3875TIP3    H111589   0.202   6.346   4.018
 3875TIP3    H211590   0.330   6.426   4.027
 3876TIP3   OH211591   3.414   1.843   3.005
 3876TIP3    H111592   3.404   1.889   3.088
 3876TIP3    H211593   3.463   1.903   2.949
 3877TIP3   OH211594   0.678   2.136   4.725
 3877TIP3    H111595   0.742   2.181   4.670
 3877TIP3    H211596   0.604   2.197   4.731
 3878TIP3   OH211597   2.917   3.743   5.727
 3878TIP3    H111598   2.902   3.692   5.648
 3878TIP3    H211599   2.833   3.784   5.746
 3879TIP3   OH211600   4.799   3.135   1.459
 3879TIP3    H111601   4.890   3.106   1.449
 3879TIP3    H211602   4.764   3.080   1.529
 3880TIP3   OH211603   6.045   1.095   1.404
 3880TIP3    H111604   6.007   1.035   1.468
 3880TIP3    H211605   6.129   1.054   1.379
 3881TIP3   OH211606   4.528   6.744   1.112
 3881TIP3    H111607   4.606   6.705   1.152
 3881TIP3    H211608   4.478   6.778   1.186
 3882TIP3   OH211609   3.153   3.050   5.469
 3882TIP3    H111610   3.153   2.980   5.534
 3882TIP3    H211611   3.223   3.025   5.408
 3883TIP3   OH211612   6.391   5.490   3.518
 3883TIP3    H111613   6.358   5.577   3.543
 3883TIP3    H211614   6.414   5.500   3.425
 3884TIP3   OH211615   6.632   2.252   0.420
 3884TIP3    H111616   6.569   2.315   0.385
 3884TIP3    H211617   6.617   2.172   0.370
 3885TIP3   OH211618   4.660   4.389   3.561
 3885TIP3    H111619   4.746   4.359   3.588
 3885TIP3    H211620   4.678   4.459   3.498
 3886TIP3   OH211621   2.847   4.516   4.294
 3886TIP3    H111622   2.840   4.568   4.214
 3886TIP3    H211623   2.773   4.454   4.289
 3887TIP3   OH211624   3.822   4.401   0.225
 3887TIP3    H111625   3.880   4.456   0.173
 3887TIP3    H211626   3.735   4.416   0.188
 3888TIP3   OH211627   6.721   2.024   3.220
 3888TIP3    H111628   6.647   1.984   3.173
 3888TIP3    H211629   6.681   2.091   3.275
 3889TIP3   OH211630   5.805   5.082   0.624
 3889TIP3    H111631   5.714   5.105   0.643
 3889TIP3    H211632   5.801   4.996   0.583
 3890TIP3   OH211633   3.267   2.226   4.824
 3890TIP3    H111634   3.292   2.177   4.903
 3890TIP3    H211635   3.185   2.269   4.847
 3891TIP3   OH211636   2.443   4.070   2.090
 3891TIP3    H111637   2.460   4.147   2.144
 3891TIP3    H211638   2.404   4.106   2.010
 3892TIP3   OH211639   6.487   2.749   4.962
 3892TIP3    H111640   6.487   2.655   4.943
 3892TIP3    H211641   6.568   2.763   5.011
 3893TIP3   OH211642   4.086   2.124   3.140
 3893TIP3    H111643   4.067   2.139   3.047
 3893TIP3    H211644   4.163   2.179   3.158
 3894TIP3   OH211645   1.757   5.245   3.524
 3894TIP3    H111646   1.779   5.197   3.444
 3894TIP3    H211647   1.740   5.177   3.589
 3895TIP3   OH211648   1.708   1.917   0.537
 3895TIP3    H111649   1.793   1.961   0.536
 3895TIP3    H211650   1.690   1.902   0.630
 3896TIP3   OH211651   6.429   4.790   0.104
 3896TIP3    H111652   6.371   4.715   0.086
 3896TIP3    H211653   6.429   4.840   0.022
 3897TIP3   OH211654   4.379   4.190   1.485
 3897TIP3    H111655   4.407   4.137   1.410
 3897TIP3    H211656   4.460   4.225   1.522
 3898TIP3   OH211657   4.914   3.606   3.355
 3898TIP3    H111658   4.935   3.537   3.418
 3898TIP3    H211659   4.824   3.587   3.329
 3899TIP3   OH211660   0.920   0.453   0.364
 3899TIP3    H111661   1.002   0.439   0.412
 3899TIP3    H211662   0.946   0.503   0.286
 3900TIP3   OH211663   0.555   3.139   0.980
 3900TIP3    H111664   0.539   3.048   0.956
 3900TIP3    H211665   0.489   3.188   0.931
 3901TIP3   OH211666   6.703   2.386   0.101
 3901TIP3    H111667   6.616   2.351   0.122
 3901TIP3    H211668   6.732   2.427   0.183
 3902TIP3   OH211669   7.193   2.158   3.659
 3902TIP3    H111670   7.145   2.142   3.741
 3902TIP3    H211671   7.230   2.073   3.636
 3903TIP3   OH211672   5.646   4.419   3.466
 3903TIP3    H111673   5.676   4.455   3.549
 3903TIP3    H211674   5.727   4.403   3.416
 3904TIP3   OH211675   6.559   2.538   1.614
 3904TIP3    H111676   6.562   2.608   1.679
 3904TIP3    H211677   6.468   2.538   1.584
 3905TIP3   OH211678   6.763   0.937   4.632
 3905TIP3    H111679   6.680   0.911   4.592
 3905TIP3    H211680   6.758   0.906   4.722
 3906TIP3   OH211681   3.612  -0.044   5.443
 3906TIP3    H111682   3.697  -0.043   5.487
 3906TIP3    H211683   3.616   0.030   5.382
 3907TIP3   OH211684   5.431   3.029   2.046
 3907TIP3    H111685   5.521   3.034   2.077
 3907TIP3    H211686   5.409   3.119   2.020
 3908TIP3   OH211687   6.210   3.785   0.105
 3908TIP3    H111688   6.191   3.874   0.074
 3908TIP3    H211689   6.306   3.784   0.114
 3909TIP3   OH211690   0.521   1.821   3.998
 3909TIP3    H111691   0.475   1.904   4.011
 3909TIP3    H211692   0.480   1.783   3.920
 3910TIP3   OH211693   7.035   5.651   2.442
 3910TIP3    H111694   7.102   5.588   2.467
 3910TIP3    H211695   7.044   5.660   2.347
 3911TIP3   OH211696   1.418   4.988   5.745
 3911TIP3    H111697   1.385   5.025   5.827
 3911TIP3    H211698   1.342   4.945   5.706
 3912TIP3   OH211699   0.913   6.392   3.478
 3912TIP3    H111700   0.901   6.461   3.543
 3912TIP3    H211701   0.987   6.341   3.510
 3913TIP3   OH211702   3.349   6.025   3.468
 3913TIP3    H111703   3.321   6.115   3.486
 3913TIP3    H211704   3.394   6.030   3.384
 3914TIP3   OH211705   1.297   2.591   0.239
 3914TIP3    H111706   1.362   2.551   0.181
 3914TIP3    H211707   1.213   2.559   0.207
 3915TIP3   OH211708   6.957   0.082   5.517
 3915TIP3    H111709   6.881   0.029   5.539
 3915TIP3    H211710   6.992   0.112   5.601
 3916TIP3   OH211711   3.457   3.256   0.895
 3916TIP3    H111712   3.492   3.177   0.855
 3916TIP3    H211713   3.362   3.241   0.897
 3917TIP3   OH211714   5.342   0.547   2.497
 3917TIP3    H111715   5.300   0.461   2.491
 3917TIP3    H211716   5.288   0.596   2.558
 3918TIP3   OH211717   1.277   4.291   4.864
 3918TIP3    H111718   1.242   4.352   4.800
 3918TIP3    H211719   1.258   4.204   4.827
 3919TIP3   OH211720   1.728   0.139   1.160
 3919TIP3    H111721   1.822   0.123   1.157
 3919TIP3    H211722   1.703   0.127   1.251
 3920TIP3   OH211723   2.706   0.832   4.397
 3920TIP3    H111724   2.772   0.773   4.433
 3920TIP3    H211725   2.709   0.814   4.302
 3921TIP3   OH211726   2.321   2.798   3.394
 3921TIP3    H111727   2.332   2.783   3.300
 3921TIP3    H211728   2.271   2.879   3.401
 3922TIP3   OH211729   2.649   2.500   0.949
 3922TIP3    H111730   2.607   2.572   0.902
 3922TIP3    H211731   2.684   2.540   1.029
 3923TIP3   OH211732   5.309   1.393   3.573
 3923TIP3    H111733   5.391   1.343   3.570
 3923TIP3    H211734   5.308   1.442   3.492
 3924TIP3   OH211735   1.936   6.534   1.547
 3924TIP3    H111736   1.904   6.504   1.631
 3924TIP3    H211737   1.859   6.534   1.490
 3925TIP3   OH211738   2.449   5.042   1.342
 3925TIP3    H111739   2.444   4.962   1.291
 3925TIP3    H211740   2.483   5.014   1.427
 3926TIP3   OH211741   5.622   6.322   5.815
 3926TIP3    H111742   5.710   6.311   5.778
 3926TIP3    H211743   5.636   6.324   5.909
 3927TIP3   OH211744   2.567   4.624   3.774
 3927TIP3    H111745   2.534   4.553   3.720
 3927TIP3    H211746   2.646   4.654   3.729
 3928TIP3   OH211747   3.795   2.148   2.626
 3928TIP3    H111748   3.742   2.152   2.547
 3928TIP3    H211749   3.857   2.077   2.610
 3929TIP3   OH211750   3.942   1.912   4.853
 3929TIP3    H111751   3.942   1.848   4.782
 3929TIP3    H211752   3.989   1.987   4.818
 3930TIP3   OH211753   5.874   3.456   1.765
 3930TIP3    H111754   5.847   3.459   1.673
 3930TIP3    H211755   5.813   3.394   1.806
 3931TIP3   OH211756   4.703   6.759   2.023
 3931TIP3    H111757   4.703   6.854   2.013
 3931TIP3    H211758   4.653   6.743   2.103
 3932TIP3   OH211759   2.303   1.243   3.476
 3932TIP3    H111760   2.238   1.180   3.506
 3932TIP3    H211761   2.368   1.191   3.428
 3933TIP3   OH211762   6.141   1.695   1.266
 3933TIP3    H111763   6.189   1.762   1.219
 3933TIP3    H211764   6.191   1.681   1.347
 3934TIP3   OH211765   1.995   0.692   1.080
 3934TIP3    H111766   1.904   0.714   1.060
 3934TIP3    H211767   2.045   0.767   1.049
 3935TIP3   OH211768   1.116   4.496   5.434
 3935TIP3    H111769   1.145   4.439   5.505
 3935TIP3    H211770   1.033   4.459   5.404
 3936TIP3   OH211771   2.274   6.565   4.177
 3936TIP3    H111772   2.239   6.598   4.260
 3936TIP3    H211773   2.368   6.581   4.182
 3937TIP3   OH211774   5.934   5.632   0.442
 3937TIP3    H111775   5.943   5.575   0.366
 3937TIP3    H211776   5.906   5.573   0.513
 3938TIP3   OH211777   2.675   4.447   1.706
 3938TIP3    H111778   2.608   4.393   1.664
 3938TIP3    H211779   2.696   4.401   1.787
 3939TIP3   OH211780   4.759   2.897   1.972
 3939TIP3    H111781   4.663   2.899   1.964
 3939TIP3    H211782   4.783   2.808   1.949
 3940TIP3   OH211783   3.019   6.629   3.460
 3940TIP3    H111784   3.036   6.536   3.444
 3940TIP3    H211785   3.100   6.673   3.435
 3941TIP3   OH211786   6.508   3.934   0.909
 3941TIP3    H111787   6.543   3.890   0.987
 3941TIP3    H211788   6.582   3.985   0.876
 3942TIP3   OH211789   0.130   4.541   3.598
 3942TIP3    H111790   0.201   4.484   3.568
 3942TIP3    H211791   0.164   4.630   3.586
 3943TIP3   OH211792   6.250   0.940   2.688
 3943TIP3    H111793   6.286   0.962   2.774
 3943TIP3    H211794   6.218   1.023   2.653
 3944TIP3   OH211795   2.432   1.650   2.855
 3944TIP3    H111796   2.372   1.722   2.874
 3944TIP3    H211797   2.494   1.687   2.792
 3945TIP3   OH211798   5.236   0.397   3.294
 3945TIP3    H111799   5.307   0.439   3.341
 3945TIP3    H211800   5.196   0.337   3.358
 3946TIP3   OH211801   4.214   0.720   1.609
 3946TIP3    H111802   4.272   0.645   1.626
 3946TIP3    H211803   4.257   0.768   1.538
 3947TIP3   OH211804   2.689   0.179   3.697
 3947TIP3    H111805   2.723   0.251   3.644
 3947TIP3    H211806   2.597   0.172   3.672
 3948TIP3   OH211807   6.562   4.496   1.226
 3948TIP3    H111808   6.559   4.526   1.135
 3948TIP3    H211809   6.586   4.574   1.276
 3949TIP3   OH211810   0.238   0.689   0.828
 3949TIP3    H111811   0.208   0.681   0.737
 3949TIP3    H211812   0.331   0.709   0.821
 3950TIP3   OH211813   4.333   3.074   3.689
 3950TIP3    H111814   4.268   3.145   3.687
 3950TIP3    H211815   4.349   3.054   3.597
 3951TIP3   OH211816   0.757   5.730   2.931
 3951TIP3    H111817   0.686   5.692   2.879
 3951TIP3    H211818   0.723   5.730   3.021
 3952TIP3   OH211819   5.561   6.375   5.328
 3952TIP3    H111820   5.649   6.366   5.366
 3952TIP3    H211821   5.504   6.328   5.388
 3953TIP3   OH211822   4.618   0.398   4.946
 3953TIP3    H111823   4.563   0.331   4.904
 3953TIP3    H211824   4.566   0.428   5.021
 3954TIP3   OH211825   1.591   3.978   5.047
 3954TIP3    H111826   1.646   4.027   5.108
 3954TIP3    H211827   1.648   3.909   5.014
 3955TIP3   OH211828   2.846   3.047   1.114
 3955TIP3    H111829   2.827   3.139   1.134
 3955TIP3    H211830   2.891   3.015   1.192
 3956TIP3   OH211831   6.183   4.064   4.739
 3956TIP3    H111832   6.270   4.024   4.743
 3956TIP3    H211833   6.180   4.105   4.652
 3957TIP3   OH211834   3.153   0.630   4.549
 3957TIP3    H111835   3.248   0.640   4.553
 3957TIP3    H211836   3.130   0.657   4.460
 3958TIP3   OH211837   4.155   2.537   3.393
 3958TIP3    H111838   4.179   2.605   3.331
 3958TIP3    H211839   4.180   2.455   3.351
 3959TIP3   OH211840   0.352   3.726   1.797
 3959TIP3    H111841   0.362   3.812   1.838
 3959TIP3    H211842   0.286   3.740   1.729
 3960TIP3   OH211843   3.684   0.733   0.719
 3960TIP3    H111844   3.725   0.784   0.649
 3960TIP3    H211845   3.654   0.797   0.782
 3961TIP3   OH211846   0.266   6.506   1.741
 3961TIP3    H111847   0.173   6.530   1.747
 3961TIP3    H211848   0.306   6.581   1.698
 3962TIP3   OH211849   5.193   0.892   4.856
 3962TIP3    H111850   5.140   0.962   4.895
 3962TIP3    H211851   5.144   0.812   4.874
 3963TIP3   OH211852   6.974   1.031   1.190
 3963TIP3    H111853   6.883   1.062   1.187
 3963TIP3    H211854   7.025   1.110   1.209
 3964TIP3   OH211855   6.229   6.181   5.459
 3964TIP3    H111856   6.205   6.239   5.531
 3964TIP3    H211857   6.243   6.096   5.500
 3965TIP3   OH211858   3.413   5.426   4.816
 3965TIP3    H111859   3.321   5.454   4.818
 3965TIP3    H211860   3.463   5.504   4.841
 3966TIP3   OH211861   2.913   2.512   5.356
 3966TIP3    H111862   2.899   2.439   5.296
 3966TIP3    H211863   2.911   2.472   5.443
 3967TIP3   OH211864   2.881   2.336   0.579
 3967TIP3    H111865   2.968   2.332   0.618
 3967TIP3    H211866   2.887   2.405   0.513
 3968TIP3   OH211867   5.543   4.109   3.020
 3968TIP3    H111868   5.585   4.149   2.944
 3968TIP3    H211869   5.468   4.167   3.038
 3969TIP3   OH211870   1.043   0.425   3.548
 3969TIP3    H111871   1.002   0.505   3.578
 3969TIP3    H211872   0.979   0.356   3.565
 3970TIP3   OH211873   2.732   1.095   4.631
 3970TIP3    H111874   2.651   1.124   4.589
 3970TIP3    H211875   2.710   1.009   4.668
 3971TIP3   OH211876   3.435   6.013   5.839
 3971TIP3    H111877   3.353   6.046   5.802
 3971TIP3    H211878   3.417   6.004   5.932
 3972TIP3   OH211879   5.000   4.938   3.577
 3972TIP3    H111880   5.016   4.935   3.672
 3972TIP3    H211881   5.000   4.846   3.550
 3973TIP3   OH211882   6.638   4.229   1.019
 3973TIP3    H111883   6.614   4.292   1.087
 3973TIP3    H211884   6.619   4.275   0.937
 3974TIP3   OH211885   2.739   1.564   2.252
 3974TIP3    H111886   2.784   1.562   2.167
 3974TIP3    H211887   2.744   1.474   2.284
 3975TIP3   OH211888   5.869   0.400   1.773
 3975TIP3    H111889   5.945   0.375   1.825
 3975TIP3    H211890   5.853   0.491   1.796
 3976TIP3   OH211891   6.842   3.510   4.784
 3976TIP3    H111892   6.799   3.452   4.847
 3976TIP3    H211893   6.770   3.541   4.728
 3977TIP3   OH211894   0.899   3.831   5.313
 3977TIP3    H111895   0.991   3.819   5.291
 3977TIP3    H211896   0.870   3.905   5.259
 3978TIP3   OH211897   4.246   1.020   0.738
 3978TIP3    H111898   4.231   1.004   0.645
 3978TIP3    H211899   4.219   0.939   0.781
 3979TIP3   OH211900   3.742   0.890   2.322
 3979TIP3    H111901   3.789   0.841   2.389
 3979TIP3    H211902   3.650   0.889   2.350
 3980TIP3   OH211903   5.490   4.750   4.590
 3980TIP3    H111904   5.525   4.664   4.566
 3980TIP3    H211905   5.541   4.775   4.667
 3981TIP3   OH211906   4.670   4.566   0.979
 3981TIP3    H111907   4.670   4.524   1.065
 3981TIP3    H211908   4.635   4.653   0.996
 3982TIP3   OH211909   7.157   6.573   0.951
 3982TIP3    H111910   7.220   6.556   1.020
 3982TIP3    H211911   7.200   6.636   0.894
 3983TIP3   OH211912   2.818   5.177   5.510
 3983TIP3    H111913   2.852   5.159   5.423
 3983TIP3    H211914   2.822   5.273   5.519
 3984TIP3   OH211915   3.724   3.493   4.822
 3984TIP3    H111916   3.777   3.474   4.899
 3984TIP3    H211917   3.673   3.570   4.846
 3985TIP3   OH211918   5.663   2.163   4.378
 3985TIP3    H111919   5.743   2.149   4.429
 3985TIP3    H211920   5.685   2.234   4.318
 3986TIP3   OH211921   2.583   2.197   3.981
 3986TIP3    H111922   2.551   2.139   4.050
 3986TIP3    H211923   2.540   2.167   3.902
 3987TIP3   OH211924   6.732   2.808   2.754
 3987TIP3    H111925   6.655   2.783   2.806
 3987TIP3    H211926   6.806   2.765   2.798
 3988TIP3   OH211927   4.725   1.385   2.755
 3988TIP3    H111928   4.733   1.407   2.848
 3988TIP3    H211929   4.746   1.292   2.750
 3989TIP3   OH211930   2.477   1.473   4.190
 3989TIP3    H111931   2.422   1.452   4.114
 3989TIP3    H211932   2.457   1.405   4.254
 3990TIP3   OH211933   5.536   1.066   2.668
 3990TIP3    H111934   5.472   1.137   2.661
 3990TIP3    H211935   5.539   1.028   2.580
 3991TIP3   OH211936   6.882   5.242   2.352
 3991TIP3    H111937   6.940   5.220   2.425
 3991TIP3    H211938   6.815   5.299   2.391
 3992TIP3   OH211939   6.047   6.544   4.782
 3992TIP3    H111940   6.136   6.562   4.810
 3992TIP3    H211941   6.046   6.450   4.763
 3993TIP3   OH211942   5.209   4.391   4.762
 3993TIP3    H111943   5.305   4.390   4.763
 3993TIP3    H211944   5.183   4.304   4.792
 3994TIP3   OH211945   1.551   1.909   5.162
 3994TIP3    H111946   1.535   1.841   5.097
 3994TIP3    H211947   1.645   1.903   5.180
 3995TIP3   OH211948   6.274   1.334   1.923
 3995TIP3    H111949   6.325   1.266   1.880
 3995TIP3    H211950   6.197   1.346   1.868
 3996TIP3   OH211951   1.299   6.631   5.165
 3996TIP3    H111952   1.357   6.584   5.225
 3996TIP3    H211953   1.224   6.572   5.153
 3997TIP3   OH211954   2.460   4.680   4.981
 3997TIP3    H111955   2.539   4.639   4.947
 3997TIP3    H211956   2.395   4.668   4.911
 3998TIP3   OH211957   4.775   2.213   1.661
 3998TIP3    H111958   4.833   2.141   1.635
 3998TIP3    H211959   4.795   2.283   1.599
 3999TIP3   OH211960   5.630   4.292   1.035
 3999TIP3    H111961   5.610   4.385   1.021
 3999TIP3    H211962   5.698   4.272   0.970
 4000TIP3   OH211963   4.359   2.101   0.137
 4000TIP3    H111964   4.391   2.018   0.169
 4000TIP3    H211965   4.289   2.126   0.198
 4001TIP3   OH211966   2.775   1.048   0.434
 4001TIP3    H111967   2.815   1.014   0.514
 4001TIP3    H211968   2.761   0.970   0.379
 4002TIP3   OH211969   3.805   6.584   4.482
 4002TIP3    H111970   3.883   6.609   4.532
 4002TIP3    H211971   3.798   6.651   4.414
 4003TIP3   OH211972   3.291   5.636   3.901
 4003TIP3    H111973   3.280   5.593   3.816
 4003TIP3    H211974   3.384   5.625   3.922
 4004TIP3   OH211975   7.139   4.734   4.601
 4004TIP3    H111976   7.054   4.768   4.575
 4004TIP3    H211977   7.134   4.640   4.581
 4005TIP3   OH211978   4.361   1.989   1.260
 4005TIP3    H111979   4.273   2.024   1.270
 4005TIP3    H211980   4.419   2.058   1.293
 4006TIP3   OH211981   1.597   0.555   0.676
 4006TIP3    H111982   1.677   0.539   0.626
 4006TIP3    H211983   1.526   0.528   0.618
 4007TIP3   OH211984   4.577   3.836   0.110
 4007TIP3    H111985   4.502   3.826   0.051
 4007TIP3    H211986   4.648   3.787   0.067
 4008TIP3   OH211987   1.280   5.525   0.334
 4008TIP3    H111988   1.196   5.553   0.298
 4008TIP3    H211989   1.339   5.524   0.258
 4009TIP3   OH211990   6.011   5.668   0.000
 4009TIP3    H111991   6.091   5.703  -0.040
 4009TIP3    H211992   5.940   5.718  -0.040
 4010TIP3   OH211993   3.866   4.476   3.491
 4010TIP3    H111994   3.951   4.512   3.517
 4010TIP3    H211995   3.808   4.498   3.564
 4011TIP3   OH211996   1.735   5.863   0.518
 4011TIP3    H111997   1.809   5.881   0.460
 4011TIP3    H211998   1.666   5.832   0.460
 4012TIP3   OH211999   6.984   2.612   2.606
 4012TIP3    H112000   7.048   2.562   2.656
 4012TIP3    H212001   6.997   2.702   2.633
 4013TIP3   OH212002   6.224   0.396   4.780
 4013TIP3    H112003   6.292   0.442   4.731
 4013TIP3    H212004   6.143   0.417   4.734
 4014TIP3   OH212005   4.577   5.578   2.206
 4014TIP3    H112006   4.634   5.502   2.218
 4014TIP3    H212007   4.508   5.547   2.147
 4015TIP3   OH212008   3.260   5.481   0.809
 4015TIP3    H112009   3.205   5.550   0.846
 4015TIP3    H212010   3.201   5.406   0.800
 4016TIP3   OH212011   5.236   4.650   4.532
 4016TIP3    H112012   5.171   4.715   4.556
 4016TIP3    H212013   5.320   4.694   4.543
 4017TIP3   OH212014   1.246   2.777   1.770
 4017TIP3    H112015   1.291   2.860   1.760
 4017TIP3    H212016   1.211   2.758   1.683
 4018TIP3   OH212017   2.387   0.783   2.283
 4018TIP3    H112018   2.392   0.761   2.190
 4018TIP3    H212019   2.428   0.869   2.290
 4019TIP3   OH212020   4.356   4.813   5.710
 4019TIP3    H112021   4.266   4.792   5.734
 4019TIP3    H212022   4.385   4.874   5.778
 4020TIP3   OH212023   4.352   3.419   0.477
 4020TIP3    H112024   4.414   3.390   0.410
 4020TIP3    H212025   4.268   3.382   0.450
 4021TIP3   OH212026   1.069   1.792   2.886
 4021TIP3    H112027   1.091   1.776   2.978
 4021TIP3    H212028   1.067   1.888   2.878
 4022TIP3   OH212029   0.904   6.447   2.797
 4022TIP3    H112030   0.809   6.435   2.807
 4022TIP3    H212031   0.924   6.526   2.847
 4023TIP3   OH212032   6.793   2.917   0.214
 4023TIP3    H112033   6.810   3.004   0.180
 4023TIP3    H212034   6.867   2.899   0.272
 4024TIP3   OH212035   6.529   0.546   3.544
 4024TIP3    H112036   6.514   0.465   3.495
 4024TIP3    H212037   6.464   0.543   3.614
 4025TIP3   OH212038   4.353   2.494   0.364
 4025TIP3    H112039   4.348   2.528   0.274
 4025TIP3    H212040   4.431   2.536   0.401
 4026TIP3   OH212041   7.190   2.644   4.406
 4026TIP3    H112042   7.284   2.648   4.421
 4026TIP3    H212043   7.155   2.722   4.448
 4027TIP3   OH212044   7.083   3.473   2.091
 4027TIP3    H112045   7.041   3.516   2.165
 4027TIP3    H212046   7.045   3.385   2.089
 4028TIP3   OH212047   0.544   3.322   0.192
 4028TIP3    H112048   0.597   3.283   0.122
 4028TIP3    H212049   0.560   3.265   0.268
 4029TIP3   OH212050   3.002   1.168   3.422
 4029TIP3    H112051   3.038   1.208   3.343
 4029TIP3    H212052   3.078   1.129   3.465
 4030TIP3   OH212053   7.077   1.288   1.782
 4030TIP3    H112054   7.044   1.198   1.775
 4030TIP3    H212055   7.012   1.341   1.736
 4031TIP3   OH212056   0.209   2.470   5.018
 4031TIP3    H112057   0.134   2.530   5.012
 4031TIP3    H212058   0.286   2.528   5.022
 4032TIP3   OH212059   3.106   3.937   2.840
 4032TIP3    H112060   3.067   3.998   2.903
 4032TIP3    H212061   3.031   3.898   2.795
 4033TIP3   OH212062   0.819   2.416   3.491
 4033TIP3    H112063   0.791   2.345   3.433
 4033TIP3    H212064   0.854   2.371   3.568
 4034TIP3   OH212065   3.588   3.313   2.360
 4034TIP3    H112066   3.517   3.270   2.314
 4034TIP3    H212067   3.547   3.386   2.405
 4035TIP3   OH212068   2.138   6.248   3.961
 4035TIP3    H112069   2.108   6.338   3.968
 4035TIP3    H212070   2.073   6.197   4.009
 4036TIP3   OH212071   1.498   5.878   4.797
 4036TIP3    H112072   1.414   5.916   4.771
 4036TIP3    H212073   1.480   5.785   4.806
 4037TIP3   OH212074   0.322   1.871   1.768
 4037TIP3    H112075   0.271   1.823   1.833
 4037TIP3    H212076   0.405   1.891   1.813
 4038TIP3   OH212077   4.685   1.964   0.506
 4038TIP3    H112078   4.725   2.026   0.445
 4038TIP3    H212079   4.612   2.011   0.545
 4039TIP3   OH212080   5.195   0.777   0.296
 4039TIP3    H112081   5.104   0.806   0.300
 4039TIP3    H212082   5.190   0.681   0.296
 4040TIP3   OH212083   0.605   4.162   1.752
 4040TIP3    H112084   0.601   4.072   1.784
 4040TIP3    H212085   0.608   4.216   1.831
 4041TIP3   OH212086   6.842   4.640   1.685
 4041TIP3    H112087   6.784   4.678   1.752
 4041TIP3    H212088   6.815   4.549   1.679
 4042TIP3   OH212089   5.559   5.854   2.642
 4042TIP3    H112090   5.586   5.945   2.624
 4042TIP3    H212091   5.600   5.834   2.726
 4043TIP3   OH212092   1.800   2.229   3.181
 4043TIP3    H112093   1.829   2.181   3.258
 4043TIP3    H212094   1.746   2.167   3.133
 4044TIP3   OH212095   0.884   3.009   2.966
 4044TIP3    H112096   0.957   3.046   2.917
 4044TIP3    H212097   0.827   3.084   2.984
 4045TIP3   OH212098   3.007   0.367   0.498
 4045TIP3    H112099   2.980   0.275   0.497
 4045TIP3    H212100   3.100   0.365   0.522
 4046TIP3   OH212101   4.455   2.990   3.917
 4046TIP3    H112102   4.526   2.993   3.853
 4046TIP3    H212103   4.379   3.024   3.870
 4047TIP3   OH212104   0.139   1.627   0.833
 4047TIP3    H112105   0.071   1.578   0.786
 4047TIP3    H212106   0.211   1.564   0.843
 4048TIP3   OH212107   1.120   3.270   3.906
 4048TIP3    H112108   1.188   3.222   3.953
 4048TIP3    H212109   1.108   3.350   3.956
 4049TIP3   OH212110   5.311   3.242   5.776
 4049TIP3    H112111   5.237   3.268   5.722
 4049TIP3    H212112   5.329   3.152   5.752
 4050TIP3   OH212113   0.556   3.024   2.210
 4050TIP3    H112114   0.613   2.953   2.181
 4050TIP3    H212115   0.477   3.015   2.157
 4051TIP3   OH212116   2.680   5.306   5.192
 4051TIP3    H112117   2.716   5.347   5.113
 4051TIP3    H212118   2.734   5.228   5.206
 4052TIP3   OH212119   0.270   4.079   2.595
 4052TIP3    H112120   0.244   4.170   2.613
 4052TIP3    H212121   0.281   4.039   2.681
 4053TIP3   OH212122   1.629   5.237   5.048
 4053TIP3    H112123   1.547   5.237   5.098
 4053TIP3    H212124   1.626   5.318   4.998
 4054TIP3   OH212125   6.148   2.045   1.347
 4054TIP3    H112126   6.120   1.985   1.416
 4054TIP3    H212127   6.193   1.988   1.283
 4055TIP3   OH212128   0.348   5.539   4.371
 4055TIP3    H112129   0.443   5.545   4.380
 4055TIP3    H212130   0.322   5.623   4.333
 4056TIP3   OH212131   4.160   1.156   0.390
 4056TIP3    H112132   4.098   1.219   0.352
 4056TIP3    H212133   4.123   1.071   0.368
 4057TIP3   OH212134   1.523   5.574   3.415
 4057TIP3    H112135   1.548   5.651   3.365
 4057TIP3    H212136   1.594   5.564   3.480
 4058TIP3   OH212137   3.506   6.783   3.428
 4058TIP3    H112138   3.533   6.786   3.520
 4058TIP3    H212139   3.490   6.874   3.404
 4059TIP3   OH212140   3.541   4.813   5.619
 4059TIP3    H112141   3.455   4.805   5.660
 4059TIP3    H212142   3.579   4.891   5.660
 4060TIP3   OH212143   4.630   6.466   1.207
 4060TIP3    H112144   4.699   6.500   1.151
 4060TIP3    H212145   4.553   6.462   1.150
 4061TIP3   OH212146   0.791   1.799   4.048
 4061TIP3    H112147   0.800   1.890   4.076
 4061TIP3    H212148   0.698   1.790   4.027
 4062TIP3   OH212149   1.865   5.561   4.369
 4062TIP3    H112150   1.947   5.607   4.387
 4062TIP3    H212151   1.797   5.629   4.378
 4063TIP3   OH212152   5.603   5.144   0.156
 4063TIP3    H112153   5.681   5.088   0.152
 4063TIP3    H212154   5.530   5.084   0.143
 4064TIP3   OH212155   6.105   5.693   2.655
 4064TIP3    H112156   6.020   5.702   2.611
 4064TIP3    H212157   6.150   5.776   2.638
 4065TIP3   OH212158   3.782   1.515   3.550
 4065TIP3    H112159   3.711   1.474   3.600
 4065TIP3    H212160   3.861   1.476   3.586
 4066TIP3   OH212161   4.401   4.435   3.053
 4066TIP3    H112162   4.314   4.417   3.091
 4066TIP3    H212163   4.457   4.365   3.086
 4067TIP3   OH212164   3.979   1.816   1.626
 4067TIP3    H112165   3.904   1.769   1.664
 4067TIP3    H212166   3.952   1.908   1.626
 4068TIP3   OH212167   5.359   0.767   3.947
 4068TIP3    H112168   5.284   0.761   3.888
 4068TIP3    H212169   5.333   0.831   4.013
 4069TIP3   OH212170   1.584   4.583   4.952
 4069TIP3    H112171   1.556   4.672   4.972
 4069TIP3    H212172   1.566   4.572   4.859
 4070TIP3   OH212173   1.785   0.200   5.660
 4070TIP3    H112174   1.864   0.155   5.632
 4070TIP3    H212175   1.729   0.201   5.583
 4071TIP3   OH212176   2.876   4.990   2.479
 4071TIP3    H112177   2.790   5.011   2.516
 4071TIP3    H212178   2.938   5.020   2.546
 4072TIP3   OH212179   6.498   5.553   0.882
 4072TIP3    H112180   6.567   5.491   0.906
 4072TIP3    H212181   6.521   5.583   0.794
 4073TIP3   OH212182   0.917   0.928   1.294
 4073TIP3    H112183   0.971   0.950   1.369
 4073TIP3    H212184   0.870   1.009   1.274
 4074TIP3   OH212185   6.920   2.811   5.514
 4074TIP3    H112186   6.869   2.889   5.490
 4074TIP3    H212187   6.874   2.775   5.590
 4075TIP3   OH212188   3.931   0.300   4.453
 4075TIP3    H112189   3.861   0.251   4.496
 4075TIP3    H212190   4.006   0.291   4.512
 4076TIP3   OH212191   4.367   4.132   0.673
 4076TIP3    H112192   4.332   4.221   0.663
 4076TIP3    H212193   4.453   4.136   0.630
 4077TIP3   OH212194   0.669   0.915   3.869
 4077TIP3    H112195   0.739   0.859   3.903
 4077TIP3    H212196   0.589   0.876   3.903
 4078TIP3   OH212197   2.937   6.046   1.630
 4078TIP3    H112198   3.010   6.042   1.692
 4078TIP3    H212199   2.865   6.000   1.673
 4079TIP3   OH212200   1.049   6.262   5.034
 4079TIP3    H112201   0.960   6.233   5.055
 4079TIP3    H212202   1.060   6.238   4.942
 4080TIP3   OH212203   1.436   6.506   5.776
 4080TIP3    H112204   1.342   6.488   5.783
 4080TIP3    H212205   1.474   6.464   5.853
 4081TIP3   OH212206   5.268   6.150   5.273
 4081TIP3    H112207   5.181   6.183   5.295
 4081TIP3    H212208   5.312   6.139   5.357
 4082TIP3   OH212209   3.571   1.677   5.468
 4082TIP3    H112210   3.532   1.738   5.531
 4082TIP3    H212211   3.497   1.643   5.418
 4083TIP3   OH212212   6.843   5.821   0.627
 4083TIP3    H112213   6.819   5.912   0.608
 4083TIP3    H212214   6.869   5.822   0.719
 4084TIP3   OH212215   1.746   0.664   5.831
 4084TIP3    H112216   1.653   0.650   5.851
 4084TIP3    H212217   1.793   0.630   5.907
 4085TIP3   OH212218   2.327   1.854   5.511
 4085TIP3    H112219   2.238   1.887   5.504
 4085TIP3    H212220   2.379   1.910   5.453
 4086TIP3   OH212221   1.641   2.337   5.666
 4086TIP3    H112222   1.608   2.406   5.608
 4086TIP3    H212223   1.584   2.262   5.648
 4087TIP3   OH212224   6.558   1.977   5.517
 4087TIP3    H112225   6.531   2.069   5.514
 4087TIP3    H212226   6.519   1.938   5.438
 4088TIP3   OH212227   0.116   1.754   4.734
 4088TIP3    H112228   0.157   1.669   4.749
 4088TIP3    H212229   0.158   1.786   4.654
 4089TIP3   OH212230   1.300   4.629   4.515
 4089TIP3    H112231   1.394   4.624   4.536
 4089TIP3    H212232   1.268   4.540   4.529
 4090TIP3   OH212233   4.876   5.312   0.053
 4090TIP3    H112234   4.960   5.269   0.067
 4090TIP3    H212235   4.891   5.370  -0.021
 4091TIP3   OH212236   4.009   1.424   5.333
 4091TIP3    H112237   3.979   1.511   5.308
 4091TIP3    H212238   3.935   1.367   5.314
 4092TIP3   OH212239   3.448   4.172   3.573
 4092TIP3    H112240   3.368   4.219   3.548
 4092TIP3    H212241   3.426   4.128   3.655
 4093TIP3   OH212242   4.614   0.620   2.609
 4093TIP3    H112243   4.557   0.613   2.532
 4093TIP3    H212244   4.699   0.587   2.580
 4094TIP3   OH212245   6.869   3.021   1.761
 4094TIP3    H112246   6.815   3.065   1.695
 4094TIP3    H212247   6.956   3.016   1.721
 4095TIP3   OH212248   1.519   4.373   2.217
 4095TIP3    H112249   1.437   4.338   2.252
 4095TIP3    H212250   1.537   4.319   2.140
 4096TIP3   OH212251   6.607   1.080   4.292
 4096TIP3    H112252   6.606   1.164   4.246
 4096TIP3    H212253   6.531   1.034   4.258
 4097TIP3   OH212254   4.765   3.763   5.551
 4097TIP3    H112255   4.743   3.851   5.520
 4097TIP3    H212256   4.839   3.776   5.610
 4098TIP3   OH212257   0.641   6.373   2.558
 4098TIP3    H112258   0.586   6.340   2.629
 4098TIP3    H212259   0.619   6.318   2.483
 4099TIP3   OH212260   5.650   3.541   0.361
 4099TIP3    H112261   5.578   3.491   0.399
 4099TIP3    H212262   5.727   3.485   0.373
 4100TIP3   OH212263   0.539   1.229   4.631
 4100TIP3    H112264   0.499   1.305   4.674
 4100TIP3    H212265   0.610   1.266   4.580
 4101TIP3   OH212266   6.224   6.788   2.799
 4101TIP3    H112267   6.149   6.755   2.848
 4101TIP3    H212268   6.222   6.738   2.717
 4102TIP3   OH212269   6.725   4.280   3.804
 4102TIP3    H112270   6.717   4.238   3.889
 4102TIP3    H212271   6.812   4.322   3.806
 4103TIP3   OH212272   0.845   5.822   4.232
 4103TIP3    H112273   0.920   5.790   4.283
 4103TIP3    H212274   0.850   5.775   4.149
 4104TIP3   OH212275   1.719   5.737   0.761
 4104TIP3    H112276   1.711   5.744   0.666
 4104TIP3    H212277   1.630   5.754   0.793
 4105TIP3   OH212278   7.036   1.541   2.588
 4105TIP3    H112279   7.005   1.451   2.578
 4105TIP3    H212280   7.128   1.538   2.562
 4106TIP3   OH212281   0.592   0.804   4.759
 4106TIP3    H112282   0.588   0.709   4.748
 4106TIP3    H212283   0.686   0.824   4.755
 4107TIP3   OH212284   0.353   3.129   4.743
 4107TIP3    H112285   0.385   3.066   4.679
 4107TIP3    H212286   0.430   3.148   4.797
 4108TIP3   OH212287   0.746   6.149   4.237
 4108TIP3    H112288   0.812   6.168   4.170
 4108TIP3    H212289   0.711   6.064   4.212
 4109TIP3   OH212290   2.599   2.289   0.244
 4109TIP3    H112291   2.533   2.356   0.228
 4109TIP3    H212292   2.683   2.335   0.237
 4110TIP3   OH212293   2.546   4.780   4.021
 4110TIP3    H112294   2.532   4.720   3.947
 4110TIP3    H212295   2.634   4.815   4.007
 4111TIP3   OH212296   4.227   1.714   1.619
 4111TIP3    H112297   4.139   1.738   1.648
 4111TIP3    H212298   4.237   1.622   1.643
 4112TIP3   OH212299   5.106   1.066   3.179
 4112TIP3    H112300   5.033   1.039   3.124
 4112TIP3    H212301   5.132   0.987   3.226
 4113TIP3   OH212302   5.018   2.759   5.881
 4113TIP3    H112303   4.967   2.840   5.882
 4113TIP3    H212304   4.984   2.709   5.807
 4114TIP3   OH212305   6.908   5.560   3.801
 4114TIP3    H112306   6.934   5.473   3.829
 4114TIP3    H212307   6.814   5.553   3.786
 4115TIP3   OH212308   4.402   1.977   0.555
 4115TIP3    H112309   4.370   1.908   0.498
 4115TIP3    H212310   4.404   1.938   0.643
 4116TIP3   OH212311   2.420   4.566   1.961
 4116TIP3    H112312   2.504   4.604   1.987
 4116TIP3    H212313   2.417   4.577   1.866
 4117TIP3   OH212314   1.197   5.136   0.567
 4117TIP3    H112315   1.191   5.049   0.607
 4117TIP3    H212316   1.236   5.120   0.481
 4118TIP3   OH212317   3.881   1.852   0.852
 4118TIP3    H112318   3.921   1.767   0.834
 4118TIP3    H212319   3.954   1.914   0.845
 4119TIP3   OH212320   6.944   6.722   0.685
 4119TIP3    H112321   7.037   6.711   0.707
 4119TIP3    H212322   6.906   6.764   0.762
 4120TIP3   OH212323   0.946   0.279   3.219
 4120TIP3    H112324   1.029   0.277   3.268
 4120TIP3    H212325   0.958   0.348   3.154
 4121TIP3   OH212326   3.362   0.570   3.935
 4121TIP3    H112327   3.313   0.638   3.980
 4121TIP3    H212328   3.440   0.615   3.901
 4122TIP3   OH212329   0.995   6.658   4.053
 4122TIP3    H112330   1.012   6.661   3.959
 4122TIP3    H212331   0.992   6.749   4.080
 4123TIP3   OH212332   0.434   2.889   1.137
 4123TIP3    H112333   0.350   2.886   1.092
 4123TIP3    H212334   0.412   2.889   1.230
 4124TIP3   OH212335   1.562   5.526   0.919
 4124TIP3    H112336   1.540   5.514   1.011
 4124TIP3    H212337   1.477   5.531   0.874
 4125TIP3   OH212338   5.022   0.436   2.038
 4125TIP3    H112339   4.983   0.491   1.970
 4125TIP3    H212340   5.075   0.497   2.090
 4126TIP3   OH212341   6.825   3.442   1.354
 4126TIP3    H112342   6.869   3.422   1.437
 4126TIP3    H212343   6.865   3.382   1.290
 4127TIP3   OH212344   3.120   6.363   5.519
 4127TIP3    H112345   3.152   6.444   5.559
 4127TIP3    H212346   3.169   6.294   5.564
 4128TIP3   OH212347   6.532   5.258   1.104
 4128TIP3    H112348   6.581   5.251   1.186
 4128TIP3    H212349   6.443   5.229   1.127
 4129TIP3   OH212350   2.857   1.797   4.523
 4129TIP3    H112351   2.779   1.774   4.573
 4129TIP3    H212352   2.844   1.889   4.498
 4130TIP3   OH212353   6.029   4.925   3.220
 4130TIP3    H112354   6.115   4.921   3.262
 4130TIP3    H212355   5.990   5.006   3.252
 4131TIP3   OH212356   5.634   0.281   3.384
 4131TIP3    H112357   5.590   0.203   3.419
 4131TIP3    H212358   5.680   0.318   3.458
 4132TIP3   OH212359   6.722   0.602   1.672
 4132TIP3    H112360   6.731   0.659   1.595
 4132TIP3    H212361   6.787   0.635   1.733
 4133TIP3   OH212362   5.416   5.600   2.987
 4133TIP3    H112363   5.448   5.561   2.905
 4133TIP3    H212364   5.401   5.692   2.967
 4134TIP3   OH212365   6.834   6.314   5.673
 4134TIP3    H112366   6.921   6.353   5.675
 4134TIP3    H212367   6.774   6.388   5.685
 4135TIP3   OH212368   3.100   6.302   4.087
 4135TIP3    H112369   3.135   6.357   4.017
 4135TIP3    H212370   3.137   6.215   4.071
 4136TIP3   OH212371   4.597   5.877   0.087
 4136TIP3    H112372   4.640   5.799   0.120
 4136TIP3    H212373   4.629   5.948   0.143
 4137TIP3   OH212374   6.714   5.945   2.557
 4137TIP3    H112375   6.652   6.014   2.579
 4137TIP3    H212376   6.788   5.960   2.616
 4138TIP3   OH212377   5.603   1.047   1.449
 4138TIP3    H112378   5.526   1.066   1.502
 4138TIP3    H212379   5.652   1.129   1.448
 4139TIP3   OH212380   2.989   4.899   4.770
 4139TIP3    H112381   3.055   4.949   4.724
 4139TIP3    H212382   2.908   4.949   4.760
 4140TIP3   OH212383   3.162   2.938   3.416
 4140TIP3    H112384   3.241   2.903   3.457
 4140TIP3    H212385   3.188   3.023   3.382
 4141TIP3   OH212386   2.035   5.096   5.202
 4141TIP3    H112387   1.972   5.061   5.139
 4141TIP3    H212388   2.120   5.077   5.163
 4142TIP3   OH212389   0.646   2.411   2.030
 4142TIP3    H112390   0.644   2.369   2.116
 4142TIP3    H212391   0.570   2.468   2.029
 4143TIP3   OH212392   4.519   3.933   2.458
 4143TIP3    H112393   4.608   3.960   2.436
 4143TIP3    H212394   4.471   3.935   2.375
 4144TIP3   OH212395   6.877   0.341   5.400
 4144TIP3    H112396   6.890   0.246   5.401
 4144TIP3    H212397   6.858   0.363   5.491
 4145TIP3   OH212398   5.221   1.182   1.767
 4145TIP3    H112399   5.171   1.148   1.842
 4145TIP3    H212400   5.182   1.139   1.691
 4146TIP3   OH212401   1.634   5.287   1.171
 4146TIP3    H112402   1.566   5.353   1.160
 4146TIP3    H212403   1.649   5.283   1.265
 4147TIP3   OH212404   2.474   6.515   1.913
 4147TIP3    H112405   2.412   6.515   1.986
 4147TIP3    H212406   2.525   6.434   1.926
 4148TIP3   OH212407   5.160   6.178   4.381
 4148TIP3    H112408   5.134   6.153   4.470
 4148TIP3    H212409   5.252   6.153   4.375
 4149TIP3   OH212410   4.375   0.770   4.365
 4149TIP3    H112411   4.374   0.681   4.332
 4149TIP3    H212412   4.373   0.825   4.287
 4150TIP3   OH212413   3.355   5.990   1.509
 4150TIP3    H112414   3.405   5.913   1.482
 4150TIP3    H212415   3.278   5.954   1.554
 4151TIP3   OH212416   1.707   1.818   2.010
 4151TIP3    H112417   1.774   1.751   2.001
 4151TIP3    H212418   1.745   1.896   1.968
 4152TIP3   OH212419   2.176   0.387   5.179
 4152TIP3    H112420   2.137   0.380   5.091
 4152TIP3    H212421   2.146   0.472   5.211
 4153TIP3   OH212422   2.871   0.514   4.334
 4153TIP3    H112423   2.890   0.434   4.382
 4153TIP3    H212424   2.778   0.530   4.351
 4154TIP3   OH212425   4.141   5.119   1.026
 4154TIP3    H112426   4.059   5.107   1.075
 4154TIP3    H212427   4.115   5.113   0.935
 4155TIP3   OH212428   5.556   2.654   2.153
 4155TIP3    H112429   5.461   2.648   2.145
 4155TIP3    H212430   5.574   2.638   2.245
 4156TIP3   OH212431   5.021   1.786   3.713
 4156TIP3    H112432   5.061   1.700   3.719
 4156TIP3    H212433   4.957   1.778   3.642
 4157TIP3   OH212434   1.523   2.093   0.490
 4157TIP3    H112435   1.503   2.099   0.583
 4157TIP3    H212436   1.586   2.021   0.484
 4158TIP3   OH212437   0.893   2.293   1.125
 4158TIP3    H112438   0.812   2.252   1.154
 4158TIP3    H212439   0.880   2.311   1.032
 4159TIP3   OH212440   0.069   3.083   0.974
 4159TIP3    H112441   0.103   3.166   0.940
 4159TIP3    H212442   0.108   3.016   0.917
 4160TIP3   OH212443   5.975   5.096   4.909
 4160TIP3    H112444   5.957   5.017   4.959
 4160TIP3    H212445   5.984   5.066   4.818
 4161TIP3   OH212446   5.090   3.049   1.477
 4161TIP3    H112447   5.178   3.022   1.453
 4161TIP3    H212448   5.087   3.039   1.572
 4162TIP3   OH212449   2.944   1.027   2.061
 4162TIP3    H112450   2.997   0.947   2.068
 4162TIP3    H212451   2.953   1.053   1.969
 4163TIP3   OH212452   2.183   0.776   1.437
 4163TIP3    H112453   2.233   0.793   1.357
 4163TIP3    H212454   2.146   0.689   1.423
 4164TIP3   OH212455   6.466   0.223   3.382
 4164TIP3    H112456   6.520   0.149   3.354
 4164TIP3    H212457   6.435   0.262   3.300
 4165TIP3   OH212458   5.829   3.004   3.341
 4165TIP3    H112459   5.790   3.091   3.353
 4165TIP3    H212460   5.922   3.016   3.362
 4166TIP3   OH212461   4.593   4.407   5.608
 4166TIP3    H112462   4.580   4.330   5.664
 4166TIP3    H212463   4.632   4.372   5.528
 4167TIP3   OH212464   3.449   6.565   0.417
 4167TIP3    H112465   3.489   6.632   0.363
 4167TIP3    H212466   3.362   6.552   0.379
 4168TIP3   OH212467   0.626   2.534   4.327
 4168TIP3    H112468   0.547   2.527   4.381
 4168TIP3    H212469   0.624   2.456   4.272
 4169TIP3   OH212470   0.843   0.978   3.021
 4169TIP3    H112471   0.755   0.957   2.989
 4169TIP3    H212472   0.894   0.992   2.941
 4170TIP3   OH212473   2.777   0.065   5.861
 4170TIP3    H112474   2.709   0.075   5.929
 4170TIP3    H212475   2.777   0.150   5.816
 4171TIP3   OH212476   2.019   2.561   2.483
 4171TIP3    H112477   2.007   2.649   2.518
 4171TIP3    H212478   2.064   2.574   2.400
 4172TIP3   OH212479   5.717   0.812   0.096
 4172TIP3    H112480   5.639   0.758   0.102
 4172TIP3    H212481   5.745   0.824   0.187
 4173TIP3   OH212482   7.145   2.076   4.628
 4173TIP3    H112483   7.145   2.171   4.622
 4173TIP3    H212484   7.113   2.046   4.543
 4174TIP3   OH212485   1.796   1.285   0.743
 4174TIP3    H112486   1.772   1.368   0.782
 4174TIP3    H212487   1.772   1.293   0.651
 4175TIP3   OH212488   6.491   0.130   1.554
 4175TIP3    H112489   6.561   0.184   1.590
 4175TIP3    H212490   6.427   0.123   1.625
 4176TIP3   OH212491   1.768   2.341   1.031
 4176TIP3    H112492   1.823   2.337   0.953
 4176TIP3    H212493   1.680   2.320   1.000
 4177TIP3   OH212494   0.773   4.128   3.501
 4177TIP3    H112495   0.715   4.075   3.446
 4177TIP3    H212496   0.719   4.203   3.527
 4178TIP3   OH212497   4.487   4.561   5.019
 4178TIP3    H112498   4.415   4.623   5.027
 4178TIP3    H212499   4.557   4.598   5.074
 4179TIP3   OH212500   1.920   3.980   2.199
 4179TIP3    H112501   2.009   3.945   2.195
 4179TIP3    H212502   1.916   4.043   2.127
 4180TIP3   OH212503   5.556   2.993   5.712
 4180TIP3    H112504   5.560   3.008   5.618
 4180TIP3    H212505   5.648   2.981   5.738
 4181TIP3   OH212506   0.825   2.775   0.684
 4181TIP3    H112507   0.850   2.823   0.763
 4181TIP3    H212508   0.897   2.790   0.622
 4182TIP3   OH212509   3.090   2.488   4.490
 4182TIP3    H112510   3.153   2.421   4.466
 4182TIP3    H212511   3.143   2.560   4.525
 4183TIP3   OH212512   3.316   4.502   1.063
 4183TIP3    H112513   3.386   4.490   0.999
 4183TIP3    H212514   3.236   4.510   1.011
 4184TIP3   OH212515   0.546   2.439   0.465
 4184TIP3    H112516   0.548   2.344   0.451
 4184TIP3    H212517   0.593   2.452   0.547
 4185TIP3   OH212518   7.056   4.522   2.187
 4185TIP3    H112519   7.027   4.477   2.266
 4185TIP3    H212520   6.976   4.532   2.135
 4186TIP3   OH212521   6.034   4.906   4.119
 4186TIP3    H112522   6.028   4.832   4.179
 4186TIP3    H212523   6.052   4.981   4.175
 4187TIP3   OH212524   0.967   3.237   2.823
 4187TIP3    H112525   1.037   3.181   2.789
 4187TIP3    H212526   0.916   3.261   2.746
 4188TIP3   OH212527   0.412   0.178   1.974
 4188TIP3    H112528   0.341   0.235   1.944
 4188TIP3    H212529   0.421   0.112   1.905
 4189TIP3   OH212530   4.849   3.424   3.532
 4189TIP3    H112531   4.859   3.418   3.627
 4189TIP3    H212532   4.814   3.339   3.506
 4190TIP3   OH212533   5.578   1.765   1.262
 4190TIP3    H112534   5.507   1.829   1.258
 4190TIP3    H212535   5.637   1.789   1.191
 4191TIP3   OH212536   7.223   1.411   5.612
 4191TIP3    H112537   7.258   1.340   5.559
 4191TIP3    H212538   7.235   1.489   5.558
 4192TIP3   OH212539   5.096   4.978   1.058
 4192TIP3    H112540   5.160   4.919   1.016
 4192TIP3    H212541   5.017   4.968   1.006
 4193TIP3   OH212542   3.484   0.575   4.899
 4193TIP3    H112543   3.441   0.636   4.838
 4193TIP3    H212544   3.435   0.494   4.890
 4194TIP3   OH212545   5.119   5.721   4.576
 4194TIP3    H112546   5.070   5.638   4.578
 4194TIP3    H212547   5.171   5.719   4.656
 4195TIP3   OH212548   0.616   5.707   4.362
 4195TIP3    H112549   0.676   5.765   4.317
 4195TIP3    H212550   0.662   5.681   4.442
 4196TIP3   OH212551   6.694   2.836   2.417
 4196TIP3    H112552   6.667   2.765   2.359
 4196TIP3    H212553   6.678   2.803   2.505
 4197TIP3   OH212554   3.598   4.605   5.087
 4197TIP3    H112555   3.550   4.531   5.049
 4197TIP3    H212556   3.656   4.566   5.152
 4198TIP3   OH212557   6.897   4.597   3.287
 4198TIP3    H112558   6.894   4.693   3.293
 4198TIP3    H212559   6.817   4.573   3.241
 4199TIP3   OH212560   4.426   6.756   1.352
 4199TIP3    H112561   4.361   6.755   1.423
 4199TIP3    H212562   4.510   6.740   1.396
 4200TIP3   OH212563   6.963   2.298   0.975
 4200TIP3    H112564   6.950   2.215   1.020
 4200TIP3    H212565   6.983   2.360   1.045
 4201TIP3   OH212566   0.961   2.941   0.102
 4201TIP3    H112567   0.984   2.873   0.165
 4201TIP3    H212568   0.943   3.018   0.156
 4202TIP3   OH212569   3.788   6.580   5.583
 4202TIP3    H112570   3.849   6.646   5.551
 4202TIP3    H212571   3.733   6.626   5.646
 4203TIP3   OH212572   6.624   1.899   1.091
 4203TIP3    H112573   6.559   1.856   1.037
 4203TIP3    H212574   6.654   1.973   1.038
 4204TIP3   OH212575   4.721   1.327   2.043
 4204TIP3    H112576   4.724   1.417   2.009
 4204TIP3    H212577   4.812   1.307   2.066
 4205TIP3   OH212578   2.288   2.486   5.693
 4205TIP3    H112579   2.272   2.490   5.787
 4205TIP3    H212580   2.320   2.572   5.669
 4206TIP3   OH212581   1.255   0.588   4.333
 4206TIP3    H112582   1.310   0.665   4.346
 4206TIP3    H212583   1.169   0.614   4.364
 4207TIP3   OH212584   6.808   5.198   5.785
 4207TIP3    H112585   6.723   5.163   5.811
 4207TIP3    H212586   6.871   5.149   5.837
 4208TIP3   OH212587   5.147   3.123   2.077
 4208TIP3    H112588   5.237   3.155   2.089
 4208TIP3    H212589   5.128   3.139   1.985
 4209TIP3   OH212590   2.135   5.822   4.316
 4209TIP3    H112591   2.161   5.823   4.408
 4209TIP3    H212592   2.194   5.885   4.274
 4210TIP3   OH212593   0.919   4.179   0.398
 4210TIP3    H112594   0.833   4.207   0.428
 4210TIP3    H212595   0.970   4.169   0.478
 4211TIP3   OH212596   5.409   2.375   2.400
 4211TIP3    H112597   5.362   2.312   2.345
 4211TIP3    H212598   5.398   2.343   2.489
 4212TIP3   OH212599   6.832   6.254   1.138
 4212TIP3    H112600   6.819   6.333   1.085
 4212TIP3    H212601   6.923   6.260   1.167
 4213TIP3   OH212602   3.432   1.951   3.716
 4213TIP3    H112603   3.387   2.007   3.780
 4213TIP3    H212604   3.492   2.010   3.671
 4214TIP3   OH212605   7.054   4.304   1.719
 4214TIP3    H112606   7.056   4.213   1.747
 4214TIP3    H212607   6.964   4.332   1.735
 4215TIP3   OH212608   3.794   2.705   2.439
 4215TIP3    H112609   3.864   2.672   2.383
 4215TIP3    H212610   3.835   2.778   2.486
 4216TIP3   OH212611   6.740   2.559   0.301
 4216TIP3    H112612   6.824   2.569   0.346
 4216TIP3    H212613   6.716   2.647   0.273
 4217TIP3   OH212614   4.287   5.900   4.977
 4217TIP3    H112615   4.301   5.919   5.070
 4217TIP3    H212616   4.193   5.881   4.970
 4218TIP3   OH212617   2.266   3.677   2.965
 4218TIP3    H112618   2.224   3.734   3.029
 4218TIP3    H212619   2.357   3.670   2.995
 4219TIP3   OH212620   5.765   4.031   4.931
 4219TIP3    H112621   5.853   4.041   4.896
 4219TIP3    H212622   5.778   4.011   5.024
 4220TIP3   OH212623   2.591   1.705   1.228
 4220TIP3    H112624   2.678   1.741   1.248
 4220TIP3    H212625   2.571   1.649   1.302
 4221TIP3   OH212626   5.751   5.696   3.992
 4221TIP3    H112627   5.685   5.761   4.015
 4221TIP3    H212628   5.811   5.694   4.067
 4222TIP3   OH212629   1.488   0.235   5.839
 4222TIP3    H112630   1.498   0.270   5.751
 4222TIP3    H212631   1.500   0.310   5.897
 4223TIP3   OH212632   5.494   2.971   5.448
 4223TIP3    H112633   5.502   3.053   5.400
 4223TIP3    H212634   5.406   2.973   5.486
 4224TIP3   OH212635   0.263   6.761   1.054
 4224TIP3    H112636   0.337   6.796   1.004
 4224TIP3    H212637   0.210   6.838   1.074
 4225TIP3   OH212638   1.355   3.455   3.237
 4225TIP3    H112639   1.427   3.502   3.280
 4225TIP3    H212640   1.371   3.467   3.143
 4226TIP3   OH212641   2.305   1.642   2.454
 4226TIP3    H112642   2.284   1.656   2.362
 4226TIP3    H212643   2.399   1.624   2.455
 4227TIP3   OH212644   6.633   0.926   1.037
 4227TIP3    H112645   6.658   0.999   0.981
 4227TIP3    H212646   6.701   0.860   1.022
 4228TIP3   OH212647   3.623   0.957   0.874
 4228TIP3    H112648   3.573   1.036   0.855
 4228TIP3    H212649   3.712   0.987   0.893
 4229TIP3   OH212650   1.993   2.228   3.870
 4229TIP3    H112651   1.965   2.156   3.812
 4229TIP3    H212652   2.068   2.194   3.917
 4230TIP3   OH212653   3.886   4.933   1.990
 4230TIP3    H112654   3.792   4.947   2.001
 4230TIP3    H212655   3.911   4.992   1.919
 4231TIP3   OH212656   3.598   3.168   1.248
 4231TIP3    H112657   3.520   3.223   1.245
 4231TIP3    H212658   3.671   3.230   1.238
 4232TIP3   OH212659   0.736   3.720   1.122
 4232TIP3    H112660   0.775   3.744   1.038
 4232TIP3    H212661   0.777   3.637   1.144
 4233TIP3   OH212662   0.178   5.091   1.711
 4233TIP3    H112663   0.148   5.080   1.801
 4233TIP3    H212664   0.106   5.058   1.657
 4234TIP3   OH212665   0.899   6.397   3.200
 4234TIP3    H112666   0.885   6.400   3.295
 4234TIP3    H212667   0.932   6.308   3.184
 4235TIP3   OH212668   3.599   5.490   1.189
 4235TIP3    H112669   3.564   5.422   1.246
 4235TIP3    H212670   3.669   5.531   1.240
 4236TIP3   OH212671   6.865   5.326   2.651
 4236TIP3    H112672   6.847   5.412   2.615
 4236TIP3    H212673   6.941   5.338   2.707
 4237TIP3   OH212674   2.237   3.120   4.401
 4237TIP3    H112675   2.202   3.095   4.486
 4237TIP3    H212676   2.160   3.128   4.344
 4238TIP3   OH212677   5.482   6.598  -0.026
 4238TIP3    H112678   5.414   6.603  -0.093
 4238TIP3    H212679   5.455   6.525   0.030
 4239TIP3   OH212680   6.793   0.584   3.599
 4239TIP3    H112681   6.703   0.579   3.566
 4239TIP3    H212682   6.836   0.649   3.544
 4240TIP3   OH212683   5.255   6.472   2.580
 4240TIP3    H112684   5.188   6.536   2.602
 4240TIP3    H212685   5.211   6.408   2.523
 4241TIP3   OH212686   5.081   6.271   5.719
 4241TIP3    H112687   5.018   6.221   5.667
 4241TIP3    H212688   5.050   6.362   5.713
 4242TIP3   OH212689   0.221   0.963   1.415
 4242TIP3    H112690   0.126   0.976   1.417
 4242TIP3    H212691   0.232   0.868   1.413
 4243TIP3   OH212692   3.976   4.460   5.809
 4243TIP3    H112693   3.913   4.529   5.830
 4243TIP3    H212694   3.977   4.403   5.886
 4244TIP3   OH212695   5.891   4.531   0.192
 4244TIP3    H112696   5.959   4.468   0.217
 4244TIP3    H212697   5.939   4.609   0.167
 4245TIP3   OH212698   0.322   3.607   2.469
 4245TIP3    H112699   0.280   3.521   2.465
 4245TIP3    H212700   0.413   3.588   2.491
 4246TIP3   OH212701   4.750   3.001   0.892
 4246TIP3    H112702   4.761   3.007   0.797
 4246TIP3    H212703   4.761   3.091   0.923
 4247TIP3   OH212704   3.866   3.107   3.328
 4247TIP3    H112705   3.858   3.201   3.310
 4247TIP3    H212706   3.853   3.065   3.243
 4248TIP3   OH212707   0.995   6.380   1.024
 4248TIP3    H112708   0.919   6.396   0.968
 4248TIP3    H212709   1.047   6.461   1.018
 4249TIP3   OH212710   1.981   5.854   2.054
 4249TIP3    H112711   1.945   5.938   2.026
 4249TIP3    H212712   1.927   5.829   2.129
 4250TIP3   OH212713   3.112   5.881   3.916
 4250TIP3    H112714   3.163   5.805   3.887
 4250TIP3    H212715   3.101   5.933   3.837
 4251TIP3   OH212716   6.850   2.821   0.488
 4251TIP3    H112717   6.775   2.765   0.508
 4251TIP3    H212718   6.873   2.861   0.572
 4252TIP3   OH212719   0.246   2.010   5.298
 4252TIP3    H112720   0.271   2.103   5.294
 4252TIP3    H212721   0.298   1.968   5.229
 4253TIP3   OH212722   5.156   5.547   2.230
 4253TIP3    H112723   5.065   5.521   2.237
 4253TIP3    H212724   5.158   5.638   2.261
 4254TIP3   OH212725   3.181   2.725   4.131
 4254TIP3    H112726   3.108   2.684   4.084
 4254TIP3    H212727   3.156   2.721   4.223
 4255TIP3   OH212728   1.049   4.669   4.945
 4255TIP3    H112729   1.081   4.677   5.035
 4255TIP3    H212730   0.974   4.610   4.952
 4256TIP3   OH212731   3.259   4.384   0.615
 4256TIP3    H112732   3.260   4.417   0.525
 4256TIP3    H212733   3.178   4.333   0.621
 4257TIP3   OH212734   7.208   0.815   4.367
 4257TIP3    H112735   7.244   0.844   4.283
 4257TIP3    H212736   7.281   0.823   4.428
 4258TIP3   OH212737   1.794   1.296   5.110
 4258TIP3    H112738   1.774   1.389   5.099
 4258TIP3    H212739   1.845   1.292   5.190
 4259TIP3   OH212740   1.562   6.106   2.062
 4259TIP3    H112741   1.548   6.115   1.968
 4259TIP3    H212742   1.649   6.067   2.070
 4260TIP3   OH212743   1.249   2.504   4.164
 4260TIP3    H112744   1.317   2.552   4.210
 4260TIP3    H212745   1.170   2.519   4.215
 4261TIP3   OH212746   2.651   4.725   3.231
 4261TIP3    H112747   2.631   4.761   3.144
 4261TIP3    H212748   2.587   4.654   3.242
 4262TIP3   OH212749   2.185   3.535   2.302
 4262TIP3    H112750   2.176   3.617   2.349
 4262TIP3    H212751   2.280   3.521   2.295
 4263TIP3   OH212752   1.572   0.930   2.781
 4263TIP3    H112753   1.523   0.963   2.856
 4263TIP3    H212754   1.616   0.852   2.814
 4264TIP3   OH212755   6.811   1.213   2.745
 4264TIP3    H112756   6.850   1.285   2.794
 4264TIP3    H212757   6.719   1.212   2.771
 4265TIP3   OH212758   2.728   4.082   4.478
 4265TIP3    H112759   2.790   4.055   4.410
 4265TIP3    H212760   2.680   4.155   4.438
 4266TIP3   OH212761   0.348   2.546   5.736
 4266TIP3    H112762   0.400   2.619   5.701
 4266TIP3    H212763   0.333   2.489   5.662
 4267TIP3   OH212764  -0.003   3.031   0.109
 4267TIP3    H112765   0.024   3.118   0.137
 4267TIP3    H212766  -0.062   3.001   0.178
 4268TIP3   OH212767   1.744   3.224   0.874
 4268TIP3    H112768   1.810   3.248   0.808
 4268TIP3    H212769   1.687   3.161   0.830
 4269TIP3   OH212770   3.576   4.367   1.012
 4269TIP3    H112771   3.536   4.399   0.930
 4269TIP3    H212772   3.656   4.324   0.984
 4270TIP3   OH212773   1.120   6.531   0.724
 4270TIP3    H112774   1.033   6.549   0.688
 4270TIP3    H212775   1.151   6.454   0.675
 4271TIP3   OH212776   0.448   2.300   4.492
 4271TIP3    H112777   0.387   2.236   4.529
 4271TIP3    H212778   0.522   2.247   4.461
 4272TIP3   OH212779   6.454   2.034   3.184
 4272TIP3    H112780   6.486   2.124   3.184
 4272TIP3    H212781   6.362   2.041   3.158
 4273TIP3   OH212782   4.840   3.257   4.092
 4273TIP3    H112783   4.758   3.301   4.117
 4273TIP3    H212784   4.815   3.166   4.078
 4274TIP3   OH212785   2.311   1.197   5.636
 4274TIP3    H112786   2.240   1.141   5.666
 4274TIP3    H212787   2.391   1.148   5.657
 4275TIP3   OH212788   4.003   0.185   3.304
 4275TIP3    H112789   4.051   0.194   3.222
 4275TIP3    H212790   4.067   0.149   3.366
 4276TIP3   OH212791   4.883   4.915   0.904
 4276TIP3    H112792   4.888   4.840   0.845
 4276TIP3    H212793   4.789   4.929   0.917
 4277TIP3   OH212794   0.952   0.863   5.098
 4277TIP3    H112795   0.961   0.903   5.011
 4277TIP3    H212796   0.889   0.919   5.144
 4278TIP3   OH212797   5.178   0.350   1.073
 4278TIP3    H112798   5.253   0.294   1.093
 4278TIP3    H212799   5.211   0.439   1.083
 4279TIP3   OH212800   0.980   5.690   3.260
 4279TIP3    H112801   0.992   5.672   3.353
 4279TIP3    H212802   1.028   5.772   3.245
 4280TIP3   OH212803   4.774   1.235   3.027
 4280TIP3    H112804   4.858   1.191   3.017
 4280TIP3    H212805   4.712   1.166   3.050
 4281TIP3   OH212806   5.770   1.561   1.623
 4281TIP3    H112807   5.839   1.593   1.682
 4281TIP3    H212808   5.800   1.585   1.536
 4282TIP3   OH212809   2.440   3.949   4.332
 4282TIP3    H112810   2.382   3.881   4.298
 4282TIP3    H212811   2.387   3.994   4.398
 4283TIP3   OH212812   3.170   0.518   4.857
 4283TIP3    H112813   3.188   0.438   4.906
 4283TIP3    H212814   3.175   0.492   4.765
 4284TIP3   OH212815   4.337   4.692   0.949
 4284TIP3    H112816   4.379   4.754   0.890
 4284TIP3    H212817   4.345   4.608   0.905
 4285TIP3   OH212818   6.142   0.220   0.530
 4285TIP3    H112819   6.123   0.127   0.514
 4285TIP3    H212820   6.164   0.224   0.623
 4286TIP3   OH212821   4.092   2.299   5.711
 4286TIP3    H112822   4.086   2.299   5.807
 4286TIP3    H212823   4.123   2.212   5.689
 4287TIP3   OH212824   3.240   1.700   2.841
 4287TIP3    H112825   3.299   1.752   2.896
 4287TIP3    H212826   3.299   1.656   2.779
 4288TIP3   OH212827   6.915   6.803   0.956
 4288TIP3    H112828   6.981   6.741   0.989
 4288TIP3    H212829   6.897   6.861   1.030
 4289TIP3   OH212830   4.415   2.278   1.044
 4289TIP3    H112831   4.393   2.303   0.954
 4289TIP3    H212832   4.353   2.208   1.065
 4290TIP3   OH212833   4.378   1.988   4.975
 4290TIP3    H112834   4.446   1.922   4.964
 4290TIP3    H212835   4.423   2.071   4.964
 4291TIP3   OH212836   4.961   2.433   4.690
 4291TIP3    H112837   5.024   2.386   4.745
 4291TIP3    H212838   4.976   2.525   4.711
 4292TIP3   OH212839   1.298   5.759   2.702
 4292TIP3    H112840   1.235   5.752   2.630
 4292TIP3    H212841   1.325   5.669   2.719
 4293TIP3   OH212842   4.446   4.051   2.725
 4293TIP3    H112843   4.501   3.978   2.699
 4293TIP3    H212844   4.426   4.097   2.643
 4294TIP3   OH212845   6.616   4.447   5.852
 4294TIP3    H112846   6.652   4.389   5.919
 4294TIP3    H212847   6.586   4.524   5.901
 4295TIP3   OH212848   3.630   0.967   2.614
 4295TIP3    H112849   3.568   0.924   2.673
 4295TIP3    H212850   3.597   0.947   2.526
 4296TIP3   OH212851   5.993   0.776   0.760
 4296TIP3    H112852   5.984   0.811   0.848
 4296TIP3    H212853   6.010   0.683   0.772
 4297TIP3   OH212854   1.365   0.871   3.069
 4297TIP3    H112855   1.382   0.898   3.159
 4297TIP3    H212856   1.448   0.835   3.038
 4298TIP3   OH212857   1.607   3.960   1.569
 4298TIP3    H112858   1.570   3.958   1.481
 4298TIP3    H212859   1.702   3.959   1.555
 4299TIP3   OH212860   6.395   1.201   5.323
 4299TIP3    H112861   6.427   1.111   5.323
 4299TIP3    H212862   6.300   1.193   5.312
 4300TIP3   OH212863   1.720   3.328   3.929
 4300TIP3    H112864   1.682   3.414   3.912
 4300TIP3    H212865   1.796   3.324   3.871
 4301TIP3   OH212866   7.008   0.283   3.717
 4301TIP3    H112867   7.069   0.237   3.658
 4301TIP3    H212868   7.022   0.242   3.802
 4302TIP3   OH212869   7.080   0.127   3.964
 4302TIP3    H112870   7.045   0.061   4.024
 4302TIP3    H212871   7.130   0.186   4.020
 4303TIP3   OH212872   2.156   1.956   2.639
 4303TIP3    H112873   2.128   1.884   2.582
 4303TIP3    H212874   2.106   2.031   2.608
 4304TIP3   OH212875   2.054   3.524   0.166
 4304TIP3    H112876   1.977   3.491   0.120
 4304TIP3    H212877   2.072   3.459   0.234
 4305TIP3   OH212878   7.148   3.232   0.343
 4305TIP3    H112879   7.121   3.305   0.287
 4305TIP3    H212880   7.244   3.233   0.339
 4306TIP3   OH212881   3.789   0.332   2.040
 4306TIP3    H112882   3.849   0.261   2.018
 4306TIP3    H212883   3.830   0.411   2.004
 4307TIP3   OH212884   0.730   0.303   2.827
 4307TIP3    H112885   0.669   0.375   2.834
 4307TIP3    H212886   0.739   0.288   2.733
 4308TIP3   OH212887   0.988   2.862   3.667
 4308TIP3    H112888   1.004   2.918   3.743
 4308TIP3    H212889   0.913   2.903   3.622
 4309TIP3   OH212890   4.946   6.012   1.926
 4309TIP3    H112891   4.990   5.937   1.886
 4309TIP3    H212892   4.986   6.019   2.013
 4310TIP3   OH212893   5.126   4.110   4.285
 4310TIP3    H112894   5.104   4.170   4.213
 4310TIP3    H212895   5.197   4.056   4.250
 4311TIP3   OH212896   5.233   1.164   0.261
 4311TIP3    H112897   5.195   1.086   0.220
 4311TIP3    H212898   5.228   1.232   0.193
 4312TIP3   OH212899   3.584   4.258   4.570
 4312TIP3    H112900   3.519   4.327   4.582
 4312TIP3    H212901   3.571   4.230   4.479
 4313TIP3   OH212902   6.595   1.660   4.092
 4313TIP3    H112903   6.665   1.624   4.145
 4313TIP3    H212904   6.515   1.633   4.137
 4314TIP3   OH212905   6.506   0.949   5.371
 4314TIP3    H112906   6.595   0.975   5.348
 4314TIP3    H212907   6.488   0.872   5.315
 4315TIP3   OH212908   0.101   4.217   0.686
 4315TIP3    H112909   0.043   4.252   0.619
 4315TIP3    H212910   0.189   4.244   0.659
 4316TIP3   OH212911   3.914   4.293   3.295
 4316TIP3    H112912   3.916   4.349   3.373
 4316TIP3    H212913   4.002   4.256   3.290
 4317TIP3   OH212914   3.301   5.881   0.760
 4317TIP3    H112915   3.228   5.841   0.807
 4317TIP3    H212916   3.261   5.932   0.690
 4318TIP3   OH212917   6.454   6.065   5.695
 4318TIP3    H112918   6.472   5.987   5.748
 4318TIP3    H212919   6.368   6.095   5.725
 4319TIP3   OH212920   6.492   3.874   2.534
 4319TIP3    H112921   6.426   3.846   2.598
 4319TIP3    H212922   6.534   3.949   2.573
 4320TIP3   OH212923   3.793   0.474   2.655
 4320TIP3    H112924   3.848   0.423   2.596
 4320TIP3    H212925   3.704   0.463   2.622
 4321TIP3   OH212926   4.442   5.275   5.643
 4321TIP3    H112927   4.497   5.332   5.589
 4321TIP3    H212928   4.363   5.262   5.592
 4322TIP3   OH212929   7.013   1.945   2.709
 4322TIP3    H112930   6.943   1.881   2.706
 4322TIP3    H212931   7.034   1.962   2.617
 4323TIP3   OH212932   4.901   2.138   3.192
 4323TIP3    H112933   4.938   2.224   3.173
 4323TIP3    H212934   4.884   2.139   3.287
 4324TIP3   OH212935   4.530   1.018   1.170
 4324TIP3    H112936   4.594   1.082   1.140
 4324TIP3    H212937   4.536   0.946   1.107
 4325TIP3   OH212938   3.509   2.534   4.924
 4325TIP3    H112939   3.570   2.477   4.972
 4325TIP3    H212940   3.496   2.491   4.840
 4326TIP3   OH212941   6.219   4.385   4.010
 4326TIP3    H112942   6.278   4.355   3.940
 4326TIP3    H212943   6.193   4.473   3.983
 4327TIP3   OH212944   4.791   3.478   0.766
 4327TIP3    H112945   4.868   3.482   0.710
 4327TIP3    H212946   4.734   3.549   0.735
 4328TIP3   OH212947   4.829   6.036   4.913
 4328TIP3    H112948   4.805   6.118   4.870
 4328TIP3    H212949   4.751   5.981   4.904
 4329TIP3   OH212950   2.408   6.702   2.214
 4329TIP3    H112951   2.366   6.637   2.158
 4329TIP3    H212952   2.493   6.662   2.235
 4330TIP3   OH212953   2.857   6.616   1.611
 4330TIP3    H112954   2.789   6.553   1.638
 4330TIP3    H212955   2.851   6.686   1.676
 4331TIP3   OH212956   6.405   3.661   1.887
 4331TIP3    H112957   6.416   3.610   1.967
 4331TIP3    H212958   6.311   3.655   1.868
 4332TIP3   OH212959   0.243   6.135   1.842
 4332TIP3    H112960   0.153   6.105   1.857
 4332TIP3    H212961   0.262   6.192   1.917
 4333TIP3   OH212962   1.593   0.829   0.653
 4333TIP3    H112963   1.617   0.740   0.677
 4333TIP3    H212964   1.669   0.862   0.604
 4334TIP3   OH212965   3.099   3.865   0.464
 4334TIP3    H112966   3.029   3.860   0.399
 4334TIP3    H212967   3.056   3.844   0.547
 4335TIP3   OH212968   3.912   4.540   2.686
 4335TIP3    H112969   3.935   4.447   2.693
 4335TIP3    H212970   3.993   4.586   2.709
 4336TIP3   OH212971   4.922   1.867   0.589
 4336TIP3    H112972   4.961   1.814   0.658
 4336TIP3    H212973   4.830   1.873   0.612
 4337TIP3   OH212974   1.904   3.603   2.740
 4337TIP3    H112975   1.990   3.573   2.772
 4337TIP3    H212976   1.924   3.678   2.684
 4338TIP3   OH212977   0.414   5.064   1.978
 4338TIP3    H112978   0.347   5.120   1.938
 4338TIP3    H212979   0.463   5.122   2.036
 4339TIP3   OH212980   0.879   0.578   2.097
 4339TIP3    H112981   0.864   0.489   2.130
 4339TIP3    H212982   0.801   0.626   2.125
 4340TIP3   OH212983   1.715   3.619   5.441
 4340TIP3    H112984   1.761   3.601   5.524
 4340TIP3    H212985   1.661   3.541   5.426
 4341TIP3   OH212986   1.116   6.722   2.160
 4341TIP3    H112987   1.051   6.696   2.094
 4341TIP3    H212988   1.082   6.687   2.242
 4342TIP3   OH212989   1.261   4.256   1.767
 4342TIP3    H112990   1.206   4.186   1.731
 4342TIP3    H212991   1.350   4.229   1.746
 4343TIP3   OH212992   4.711   2.090   3.949
 4343TIP3    H112993   4.704   2.098   3.854
 4343TIP3    H212994   4.631   2.129   3.983
 4344TIP3   OH212995   6.407   5.952   5.265
 4344TIP3    H112996   6.341   5.915   5.323
 4344TIP3    H212997   6.372   5.940   5.177
 4345TIP3   OH212998   6.726   1.114   1.211
 4345TIP3    H112999   6.692   1.108   1.301
 4345TIP3    H213000   6.690   1.037   1.167
 4346TIP3   OH213001   3.351   2.944   5.302
 4346TIP3    H113002   3.442   2.968   5.285
 4346TIP3    H213003   3.310   2.944   5.215
 4347TIP3   OH213004   4.043   3.603   1.497
 4347TIP3    H113005   4.063   3.559   1.414
 4347TIP3    H213006   4.009   3.689   1.471
 4348TIP3   OH213007   5.475   2.557   0.616
 4348TIP3    H113008   5.466   2.628   0.553
 4348TIP3    H213009   5.447   2.595   0.699
 4349TIP3   OH213010   6.469   6.138   3.988
 4349TIP3    H113011   6.432   6.101   4.069
 4349TIP3    H213012   6.408   6.208   3.964
 4350TIP3   OH213013   3.571   2.988   4.316
 4350TIP3    H113014   3.493   3.016   4.365
 4350TIP3    H213015   3.549   2.902   4.281
 4351TIP3   OH213016   5.736   6.593   4.015
 4351TIP3    H113017   5.642   6.599   3.997
 4351TIP3    H213018   5.749   6.649   4.092
 4352TIP3   OH213019   3.270   4.154   5.704
 4352TIP3    H113020   3.207   4.141   5.775
 4352TIP3    H213021   3.305   4.067   5.687
 4353TIP3   OH213022   6.807   4.127   1.548
 4353TIP3    H113023   6.792   4.208   1.598
 4353TIP3    H213024   6.892   4.140   1.507
 4354TIP3   OH213025   5.668   5.236   2.447
 4354TIP3    H113026   5.588   5.287   2.460
 4354TIP3    H213027   5.695   5.211   2.535
 4355TIP3   OH213028   5.247   2.883   3.922
 4355TIP3    H113029   5.340   2.903   3.912
 4355TIP3    H213030   5.233   2.883   4.017
 4356TIP3   OH213031   0.517   5.228   3.974
 4356TIP3    H113032   0.571   5.227   3.895
 4356TIP3    H213033   0.542   5.309   4.019
 4357TIP3   OH213034   1.503   2.356   4.511
 4357TIP3    H113035   1.470   2.287   4.453
 4357TIP3    H213036   1.575   2.396   4.463
 4358TIP3   OH213037   4.107   6.078   2.801
 4358TIP3    H113038   4.202   6.083   2.791
 4358TIP3    H213039   4.094   6.036   2.887
 4359TIP3   OH213040   1.647   0.102   1.772
 4359TIP3    H113041   1.703   0.113   1.849
 4359TIP3    H213042   1.703   0.058   1.708
 4360TIP3   OH213043   6.751   3.732   1.600
 4360TIP3    H113044   6.720   3.660   1.654
 4360TIP3    H213045   6.831   3.700   1.560
 4361TIP3   OH213046   2.130   2.160   1.265
 4361TIP3    H113047   2.085   2.131   1.185
 4361TIP3    H213048   2.067   2.216   1.309
 4362TIP3   OH213049   2.797   4.223   2.115
 4362TIP3    H113050   2.741   4.218   2.192
 4362TIP3    H213051   2.810   4.132   2.089
 4363TIP3   OH213052   6.497   6.470   1.237
 4363TIP3    H113053   6.451   6.408   1.181
 4363TIP3    H213054   6.523   6.419   1.313
 4364TIP3   OH213055   6.030   4.783   1.729
 4364TIP3    H113056   6.105   4.836   1.755
 4364TIP3    H213057   6.045   4.698   1.772
 4365TIP3   OH213058   2.333   2.010   3.572
 4365TIP3    H113059   2.341   1.927   3.524
 4365TIP3    H213060   2.392   2.070   3.526
 4366TIP3   OH213061   5.051   2.509   1.819
 4366TIP3    H113062   5.111   2.548   1.884
 4366TIP3    H213063   5.002   2.443   1.869
 4367TIP3   OH213064   4.270   3.718   3.238
 4367TIP3    H113065   4.343   3.724   3.300
 4367TIP3    H213066   4.293   3.779   3.168
 4368TIP3   OH213067   4.105   4.324   2.157
 4368TIP3    H113068   4.025   4.333   2.209
 4368TIP3    H213069   4.084   4.254   2.094
 4369TIP3   OH213070   0.085   1.147   0.340
 4369TIP3    H113071   0.118   1.191   0.418
 4369TIP3    H213072   0.009   1.200   0.314
 4370TIP3   OH213073   5.989   6.304   1.708
 4370TIP3    H113074   6.011   6.215   1.733
 4370TIP3    H213075   5.897   6.299   1.681
 4371TIP3   OH213076   3.114   5.843   0.563
 4371TIP3    H113077   3.033   5.893   0.552
 4371TIP3    H213078   3.088   5.768   0.617
 4372TIP3   OH213079   6.283   3.217   2.472
 4372TIP3    H113080   6.206   3.207   2.528
 4372TIP3    H213081   6.271   3.301   2.428
 4373TIP3   OH213082   5.226   2.595   5.876
 4373TIP3    H113083   5.139   2.631   5.892
 4373TIP3    H213084   5.250   2.627   5.789
 4374TIP3   OH213085   5.494   3.496   0.702
 4374TIP3    H113086   5.528   3.411   0.729
 4374TIP3    H213087   5.400   3.482   0.692
 4375TIP3   OH213088   0.555   5.871   5.227
 4375TIP3    H113089   0.575   5.779   5.240
 4375TIP3    H213090   0.461   5.878   5.246
 4376TIP3   OH213091   6.252   2.695   1.326
 4376TIP3    H113092   6.313   2.732   1.390
 4376TIP3    H213093   6.182   2.759   1.319
 4377TIP3   OH213094   6.324   4.385   1.183
 4377TIP3    H113095   6.337   4.392   1.088
 4377TIP3    H213096   6.406   4.414   1.221
 4378TIP3   OH213097   0.162   4.280   1.466
 4378TIP3    H113098   0.225   4.252   1.399
 4378TIP3    H213099   0.112   4.201   1.486
 4379TIP3   OH213100   5.487   3.692   4.251
 4379TIP3    H113101   5.489   3.640   4.171
 4379TIP3    H213102   5.399   3.678   4.286
 4380TIP3   OH213103   7.167   0.521   1.345
 4380TIP3    H113104   7.100   0.586   1.323
 4380TIP3    H213105   7.175   0.467   1.267
 4381TIP3   OH213106   2.959   4.061   0.801
 4381TIP3    H113107   2.937   3.976   0.764
 4381TIP3    H213108   2.914   4.063   0.886
 4382TIP3   OH213109   1.031   1.693   1.126
 4382TIP3    H113110   1.010   1.786   1.138
 4382TIP3    H213111   0.965   1.661   1.064
 4383TIP3   OH213112   0.846   0.553   5.347
 4383TIP3    H113113   0.831   0.605   5.426
 4383TIP3    H213114   0.942   0.547   5.340
 4384TIP3   OH213115   1.189   4.190   3.752
 4384TIP3    H113116   1.191   4.114   3.695
 4384TIP3    H213117   1.095   4.207   3.766
 4385TIP3   OH213118   5.752   3.709   1.846
 4385TIP3    H113119   5.780   3.624   1.815
 4385TIP3    H213120   5.831   3.763   1.843
 4386TIP3   OH213121   3.834   5.442   1.048
 4386TIP3    H113122   3.755   5.473   1.093
 4386TIP3    H213123   3.901   5.440   1.116
 4387TIP3   OH213124   6.489   6.083   4.688
 4387TIP3    H113125   6.396   6.093   4.707
 4387TIP3    H213126   6.492   6.052   4.598
 4388TIP3   OH213127   7.170   3.182   1.897
 4388TIP3    H113128   7.144   3.120   1.829
 4388TIP3    H213129   7.183   3.265   1.852
 4389TIP3   OH213130   0.427   5.461   4.964
 4389TIP3    H113131   0.372   5.410   4.904
 4389TIP3    H213132   0.376   5.466   5.045
 4390TIP3   OH213133   3.682   6.541   1.577
 4390TIP3    H113134   3.595   6.570   1.550
 4390TIP3    H213135   3.689   6.452   1.543
 4391TIP3   OH213136   0.248   2.433   2.710
 4391TIP3    H113137   0.334   2.423   2.752
 4391TIP3    H213138   0.252   2.375   2.634
 4392TIP3   OH213139   1.941   1.475   1.782
 4392TIP3    H113140   1.998   1.542   1.745
 4392TIP3    H213141   1.859   1.484   1.735
 4393TIP3   OH213142   1.938   2.461   5.493
 4393TIP3    H113143   1.981   2.432   5.412
 4393TIP3    H213144   1.918   2.380   5.540
 4394TIP3   OH213145   3.880   1.422   3.294
 4394TIP3    H113146   3.894   1.330   3.275
 4394TIP3    H213147   3.887   1.428   3.390
 4395TIP3   OH213148   6.813   0.562   1.041
 4395TIP3    H113149   6.800   0.533   0.950
 4395TIP3    H213150   6.800   0.657   1.038
 4396TIP3   OH213151   1.699   0.638   2.118
 4396TIP3    H113152   1.622   0.585   2.097
 4396TIP3    H213153   1.754   0.631   2.040
 4397TIP3   OH213154   2.930   1.644   4.283
 4397TIP3    H113155   2.925   1.679   4.372
 4397TIP3    H213156   2.928   1.549   4.295
 4398TIP3   OH213157   1.008   2.987   0.660
 4398TIP3    H113158   0.958   3.022   0.734
 4398TIP3    H213159   0.995   3.051   0.590
 4399TIP3   OH213160   0.181   2.221   1.100
 4399TIP3    H113161   0.179   2.260   1.188
 4399TIP3    H213162   0.223   2.136   1.113
 4400TIP3   OH213163   3.399   4.339   5.273
 4400TIP3    H113164   3.466   4.278   5.242
 4400TIP3    H213165   3.446   4.402   5.328
 4401TIP3   OH213166   1.413   1.239   1.365
 4401TIP3    H113167   1.454   1.241   1.279
 4401TIP3    H213168   1.401   1.331   1.389
 4402TIP3   OH213169   2.056   6.211   5.822
 4402TIP3    H113170   2.010   6.285   5.861
 4402TIP3    H213171   2.002   6.135   5.845
 4403TIP3   OH213172   0.004   2.102   1.355
 4403TIP3    H113173  -0.087   2.099   1.384
 4403TIP3    H213174   0.042   2.175   1.405
 4404TIP3   OH213175   0.928   0.148   4.003
 4404TIP3    H113176   0.853   0.117   4.055
 4404TIP3    H213177   1.003   0.104   4.043
 4405TIP3   OH213178   1.659   5.187   4.232
 4405TIP3    H113179   1.696   5.193   4.143
 4405TIP3    H213180   1.646   5.094   4.247
 4406TIP3   OH213181   0.935   0.321   2.565
 4406TIP3    H113182   1.015   0.272   2.543
 4406TIP3    H213183   0.959   0.413   2.556
 4407TIP3   OH213184   5.052   4.837   1.714
 4407TIP3    H113185   5.131   4.834   1.768
 4407TIP3    H213186   4.992   4.774   1.754
 4408TIP3   OH213187   0.928   3.245   2.526
 4408TIP3    H113188   0.865   3.203   2.468
 4408TIP3    H213189   0.939   3.333   2.490
 4409TIP3   OH213190   4.448   6.269   4.072
 4409TIP3    H113191   4.449   6.307   3.984
 4409TIP3    H213192   4.387   6.196   4.066
 4410TIP3   OH213193   2.061   0.437   3.196
 4410TIP3    H113194   2.126   0.461   3.130
 4410TIP3    H213195   2.103   0.457   3.279
 4411TIP3   OH213196   3.270   5.816   1.705
 4411TIP3    H113197   3.272   5.827   1.800
 4411TIP3    H213198   3.180   5.788   1.687
 4412TIP3   OH213199   1.821   1.714   1.047
 4412TIP3    H113200   1.793   1.756   1.128
 4412TIP3    H213201   1.880   1.777   1.006
 4413TIP3   OH213202   4.682   5.554   1.853
 4413TIP3    H113203   4.673   5.645   1.881
 4413TIP3    H213204   4.615   5.542   1.786
 4414TIP3   OH213205   1.480   2.615   2.360
 4414TIP3    H113206   1.424   2.650   2.430
 4414TIP3    H213207   1.421   2.561   2.307
 4415TIP3   OH213208   2.147   4.501   1.923
 4415TIP3    H113209   2.175   4.586   1.890
 4415TIP3    H213210   2.104   4.520   2.007
 4416TIP3   OH213211   5.122   1.197   4.469
 4416TIP3    H113212   5.201   1.252   4.463
 4416TIP3    H213213   5.083   1.202   4.382
 4417TIP3   OH213214   6.721   3.843   0.636
 4417TIP3    H113215   6.731   3.928   0.594
 4417TIP3    H213216   6.770   3.850   0.718
 4418TIP3   OH213217   6.145   1.465   2.681
 4418TIP3    H113218   6.060   1.509   2.688
 4418TIP3    H213219   6.178   1.489   2.595
 4419TIP3   OH213220   3.651   6.529   5.299
 4419TIP3    H113221   3.721   6.594   5.302
 4419TIP3    H213222   3.683   6.456   5.353
 4420TIP3   OH213223   0.270   1.564   0.099
 4420TIP3    H113224   0.318   1.551   0.017
 4420TIP3    H213225   0.212   1.488   0.105
 4421TIP3   OH213226   6.206   3.889   1.641
 4421TIP3    H113227   6.160   3.960   1.596
 4421TIP3    H213228   6.251   3.841   1.572
 4422TIP3   OH213229   2.925   4.512   1.135
 4422TIP3    H113230   2.906   4.482   1.046
 4422TIP3    H213231   2.966   4.437   1.177
 4423TIP3   OH213232   4.869   0.978   4.335
 4423TIP3    H113233   4.945   0.925   4.361
 4423TIP3    H213234   4.907   1.062   4.308
 4424TIP3   OH213235   6.183   1.131   5.735
 4424TIP3    H113236   6.171   1.107   5.643
 4424TIP3    H213237   6.278   1.131   5.747
 4425TIP3   OH213238   6.899   6.771   3.125
 4425TIP3    H113239   6.933   6.706   3.186
 4425TIP3    H213240   6.946   6.851   3.146
 4426TIP3   OH213241   1.698   5.542   0.479
 4426TIP3    H113242   1.780   5.569   0.438
 4426TIP3    H213243   1.637   5.614   0.461
 4427TIP3   OH213244   3.439   5.480   5.799
 4427TIP3    H113245   3.396   5.424   5.734
 4427TIP3    H213246   3.393   5.462   5.881
 4428TIP3   OH213247   0.273   5.765   0.999
 4428TIP3    H113248   0.310   5.848   0.972
 4428TIP3    H213249   0.338   5.728   1.059
 4429TIP3   OH213250   4.357   2.678   4.781
 4429TIP3    H113251   4.263   2.658   4.783
 4429TIP3    H213252   4.372   2.729   4.861
 4430TIP3   OH213253   1.825   6.666   1.866
 4430TIP3    H113254   1.770   6.675   1.788
 4430TIP3    H213255   1.764   6.667   1.940
 4431TIP3   OH213256   0.594   2.241   1.439
 4431TIP3    H113257   0.538   2.172   1.474
 4431TIP3    H213258   0.607   2.217   1.347
 4432TIP3   OH213259   2.254   0.836   3.364
 4432TIP3    H113260   2.174   0.832   3.312
 4432TIP3    H213261   2.315   0.887   3.311
 4433TIP3   OH213262   0.299   5.319   1.912
 4433TIP3    H113263   0.291   5.341   2.005
 4433TIP3    H213264   0.363   5.382   1.878
 4434TIP3   OH213265   3.925   0.199   3.773
 4434TIP3    H113266   3.840   0.206   3.818
 4434TIP3    H213267   3.987   0.242   3.833
 4435TIP3   OH213268   6.992   6.265   3.401
 4435TIP3    H113269   7.056   6.328   3.431
 4435TIP3    H213270   6.910   6.314   3.397
 4436TIP3   OH213271   0.648   4.948   3.989
 4436TIP3    H113272   0.586   5.017   4.011
 4436TIP3    H213273   0.595   4.879   3.950
 4437TIP3   OH213274   1.748   1.646   3.513
 4437TIP3    H113275   1.731   1.556   3.485
 4437TIP3    H213276   1.784   1.638   3.601
 4438TIP3   OH213277   1.285   6.284   5.180
 4438TIP3    H113278   1.258   6.324   5.263
 4438TIP3    H213279   1.203   6.273   5.131
 4439TIP3   OH213280   4.631   4.105   4.433
 4439TIP3    H113281   4.698   4.166   4.403
 4439TIP3    H213282   4.620   4.125   4.526
 4440TIP3   OH213283   5.446   5.639   1.578
 4440TIP3    H113284   5.389   5.702   1.623
 4440TIP3    H213285   5.386   5.588   1.523
 4441TIP3   OH213286   2.832   3.708   0.056
 4441TIP3    H113287   2.767   3.742  -0.006
 4441TIP3    H213288   2.914   3.749   0.029
 4442TIP3   OH213289   6.017   5.964   2.787
 4442TIP3    H113290   6.046   6.051   2.813
 4442TIP3    H213291   6.097   5.914   2.777
 4443TIP3   OH213292   0.344   6.216   0.590
 4443TIP3    H113293   0.273   6.277   0.610
 4443TIP3    H213294   0.398   6.262   0.526
 4444TIP3   OH213295   2.908   2.572   0.871
 4444TIP3    H113296   2.826   2.537   0.908
 4444TIP3    H213297   2.939   2.503   0.812
 4445TIP3   OH213298   0.283   4.008   3.785
 4445TIP3    H113299   0.233   3.958   3.850
 4445TIP3    H213300   0.354   4.048   3.835
 4446TIP3   OH213301   5.686   1.430   5.930
 4446TIP3    H113302   5.601   1.459   5.961
 4446TIP3    H213303   5.735   1.511   5.916
 4447TIP3   OH213304   2.647   3.479   3.929
 4447TIP3    H113305   2.703   3.556   3.926
 4447TIP3    H213306   2.690   3.421   3.993
 4448TIP3   OH213307   5.154   6.539   0.890
 4448TIP3    H113308   5.086   6.530   0.956
 4448TIP3    H213309   5.229   6.492   0.926
 4449TIP3   OH213310   0.936   3.593   3.092
 4449TIP3    H113311   0.949   3.682   3.058
 4449TIP3    H213312   1.008   3.543   3.054
 4450TIP3   OH213313   1.252   2.244   2.838
 4450TIP3    H113314   1.271   2.332   2.807
 4450TIP3    H213315   1.319   2.227   2.905
 4451TIP3   OH213316   5.085   0.698   1.309
 4451TIP3    H113317   5.019   0.659   1.367
 4451TIP3    H213318   5.163   0.704   1.363
 4452TIP3   OH213319   7.041   1.503   5.198
 4452TIP3    H113320   7.076   1.559   5.129
 4452TIP3    H213321   7.100   1.427   5.198
 4453TIP3   OH213322   6.542   5.859   5.837
 4453TIP3    H113323   6.484   5.825   5.906
 4453TIP3    H213324   6.558   5.783   5.780
 4454TIP3   OH213325   4.677   4.492   1.760
 4454TIP3    H113326   4.712   4.573   1.723
 4454TIP3    H213327   4.583   4.510   1.773
 4455TIP3   OH213328   7.183   5.787   0.955
 4455TIP3    H113329   7.234   5.836   0.891
 4455TIP3    H213330   7.119   5.850   0.987
 4456TIP3   OH213331   1.050   5.218   5.698
 4456TIP3    H113332   0.961   5.244   5.677
 4456TIP3    H213333   1.078   5.280   5.766
 4457TIP3   OH213334   1.417   0.907   0.855
 4457TIP3    H113335   1.459   0.973   0.910
 4457TIP3    H213336   1.486   0.879   0.795
 4458TIP3   OH213337   3.474   1.168   3.559
 4458TIP3    H113338   3.387   1.162   3.520
 4458TIP3    H213339   3.479   1.258   3.592
 4459TIP3   OH213340   4.645   0.211   5.336
 4459TIP3    H113341   4.570   0.201   5.277
 4459TIP3    H213342   4.679   0.298   5.317
 4460TIP3   OH213343   4.064   2.984   3.089
 4460TIP3    H113344   4.017   3.060   3.054
 4460TIP3    H213345   4.121   3.021   3.157
 4461TIP3   OH213346   2.104   4.778   5.545
 4461TIP3    H113347   2.167   4.809   5.610
 4461TIP3    H213348   2.108   4.682   5.552
 4462TIP3   OH213349   6.670   2.729   2.142
 4462TIP3    H113350   6.742   2.688   2.191
 4462TIP3    H213351   6.708   2.810   2.108
 4463TIP3   OH213352   1.136   4.118   2.179
 4463TIP3    H113353   1.130   4.068   2.260
 4463TIP3    H213354   1.046   4.124   2.147
 4464TIP3   OH213355   0.144   3.341   0.080
 4464TIP3    H113356   0.203   3.348   0.006
 4464TIP3    H213357   0.073   3.402   0.061
 4465TIP3   OH213358   3.949   1.888   5.135
 4465TIP3    H113359   3.949   1.881   5.039
 4465TIP3    H213360   3.909   1.974   5.152
 4466TIP3   OH213361   3.861   4.727   5.142
 4466TIP3    H113362   3.766   4.714   5.147
 4466TIP3    H213363   3.871   4.810   5.094
 4467TIP3   OH213364   2.486   1.244   4.437
 4467TIP3    H113365   2.412   1.186   4.419
 4467TIP3    H213366   2.466   1.284   4.521
 4468TIP3   OH213367   7.235   0.041   5.489
 4468TIP3    H113368   7.202   0.062   5.402
 4468TIP3    H213369   7.207   0.115   5.544
 4469TIP3   OH213370   6.069  -0.007   1.804
 4469TIP3    H113371   6.063  -0.088   1.753
 4469TIP3    H213372   6.080   0.061   1.738
 4470TIP3   OH213373   4.604   0.199   0.765
 4470TIP3    H113374   4.622   0.127   0.826
 4470TIP3    H213375   4.690   0.221   0.728
 4471TIP3   OH213376   2.979   5.714   4.372
 4471TIP3    H113377   2.943   5.802   4.384
 4471TIP3    H213378   3.050   5.726   4.309
 4472TIP3   OH213379   0.743   1.128   4.152
 4472TIP3    H113380   0.744   1.033   4.146
 4472TIP3    H213381   0.823   1.156   4.107
 4473TIP3   OH213382   3.200   2.810   5.613
 4473TIP3    H113383   3.131   2.834   5.675
 4473TIP3    H213384   3.194   2.715   5.605
 4474TIP3   OH213385   0.607   6.658   3.436
 4474TIP3    H113386   0.613   6.669   3.531
 4474TIP3    H213387   0.666   6.725   3.401
 4475TIP3   OH213388   3.873   3.389   0.139
 4475TIP3    H113389   3.909   3.433   0.062
 4475TIP3    H213390   3.803   3.333   0.104
 4476TIP3   OH213391   6.539   3.914   2.036
 4476TIP3    H113392   6.501   3.846   1.980
 4476TIP3    H213393   6.502   3.996   2.002
 4477TIP3   OH213394   4.019   6.329   4.327
 4477TIP3    H113395   4.115   6.331   4.331
 4477TIP3    H213396   3.998   6.375   4.245
 4478TIP3   OH213397   3.210   1.764   5.605
 4478TIP3    H113398   3.204   1.801   5.517
 4478TIP3    H213399   3.119   1.741   5.628
 4479TIP3   OH213400   2.839   3.429   4.496
 4479TIP3    H113401   2.916   3.481   4.518
 4479TIP3    H213402   2.771   3.459   4.556
 4480TIP3   OH213403   5.352   2.181   3.408
 4480TIP3    H113404   5.354   2.266   3.454
 4480TIP3    H213405   5.297   2.198   3.331
 4481TIP3   OH213406   2.946   6.481   0.130
 4481TIP3    H113407   2.857   6.457   0.107
 4481TIP3    H213408   2.971   6.548   0.067
 4482TIP3   OH213409   4.084   0.941   3.068
 4482TIP3    H113410   3.998   0.974   3.041
 4482TIP3    H213411   4.092   0.856   3.024
 4483TIP3   OH213412   3.450   0.581   3.208
 4483TIP3    H113413   3.445   0.488   3.228
 4483TIP3    H213414   3.541   0.595   3.179
 4484TIP3   OH213415   6.513   4.753   5.499
 4484TIP3    H113416   6.536   4.792   5.584
 4484TIP3    H213417   6.590   4.767   5.445
 4485TIP3   OH213418   5.445   6.248   4.141
 4485TIP3    H113419   5.525   6.298   4.158
 4485TIP3    H213420   5.396   6.252   4.224
 4486TIP3   OH213421   2.004   5.517   0.620
 4486TIP3    H113422   2.064   5.520   0.695
 4486TIP3    H213423   2.000   5.607   0.589
 4487TIP3   OH213424   6.393   4.580   5.114
 4487TIP3    H113425   6.363   4.606   5.201
 4487TIP3    H213426   6.316   4.545   5.071
 4488TIP3   OH213427   1.461   3.434   1.242
 4488TIP3    H113428   1.555   3.444   1.262
 4488TIP3    H213429   1.431   3.523   1.225
 4489TIP3   OH213430   3.893   2.806   1.403
 4489TIP3    H113431   3.886   2.868   1.476
 4489TIP3    H213432   3.843   2.847   1.332
 4490TIP3   OH213433   7.087   3.390   3.691
 4490TIP3    H113434   7.092   3.393   3.786
 4490TIP3    H213435   7.037   3.310   3.672
 4491TIP3   OH213436   3.540   4.834   0.484
 4491TIP3    H113437   3.534   4.859   0.576
 4491TIP3    H213438   3.578   4.910   0.440
 4492TIP3   OH213439   5.751   0.664   2.388
 4492TIP3    H113440   5.799   0.745   2.370
 4492TIP3    H213441   5.676   0.692   2.440
 4493TIP3   OH213442   2.225   1.454   1.816
 4493TIP3    H113443   2.193   1.433   1.904
 4493TIP3    H213444   2.180   1.392   1.759
 4494TIP3   OH213445   0.551   0.520   0.241
 4494TIP3    H113446   0.519   0.558   0.159
 4494TIP3    H213447   0.645   0.509   0.227
 4495TIP3   OH213448   3.569   0.554   3.580
 4495TIP3    H113449   3.601   0.630   3.628
 4495TIP3    H213450   3.639   0.533   3.519
 4496TIP3   OH213451   1.796   4.592   2.574
 4496TIP3    H113452   1.757   4.626   2.654
 4496TIP3    H213453   1.732   4.610   2.506
 4497TIP3   OH213454   5.090   5.239   3.082
 4497TIP3    H113455   5.099   5.194   2.998
 4497TIP3    H213456   5.046   5.175   3.139
 4498TIP3   OH213457   4.255   4.338   0.903
 4498TIP3    H113458   4.346   4.312   0.891
 4498TIP3    H213459   4.250   4.370   0.993
 4499TIP3   OH213460   4.688   5.527   1.480
 4499TIP3    H113461   4.736   5.589   1.535
 4499TIP3    H213462   4.646   5.468   1.542
 4500TIP3   OH213463   6.590   6.792   2.486
 4500TIP3    H113464   6.597   6.703   2.452
 4500TIP3    H213465   6.600   6.783   2.581
 4501TIP3   OH213466   3.010   6.315   3.729
 4501TIP3    H113467   2.946   6.365   3.780
 4501TIP3    H213468   3.062   6.269   3.794
 4502TIP3   OH213469   6.003   3.792   0.319
 4502TIP3    H113470   6.089   3.774   0.280
 4502TIP3    H213471   5.948   3.719   0.290
 4503TIP3   OH213472   4.462   6.636   3.364
 4503TIP3    H113473   4.446   6.570   3.295
 4503TIP3    H213474   4.544   6.678   3.339
 4504TIP3   OH213475   3.585   3.293   5.008
 4504TIP3    H113476   3.676   3.320   5.023
 4504TIP3    H213477   3.544   3.300   5.094
 4505TIP3   OH213478   6.641   2.580   4.749
 4505TIP3    H113479   6.643   2.671   4.718
 4505TIP3    H213480   6.692   2.531   4.685
 4506TIP3   OH213481   5.129   3.690   2.022
 4506TIP3    H113482   5.063   3.622   2.006
 4506TIP3    H213483   5.078   3.765   2.052
 4507TIP3   OH213484   0.289   4.379   3.445
 4507TIP3    H113485   0.267   4.388   3.352
 4507TIP3    H213486   0.320   4.288   3.453
 4508TIP3   OH213487   3.701   2.493   5.316
 4508TIP3    H113488   3.751   2.438   5.376
 4508TIP3    H213489   3.631   2.436   5.284
 4509TIP3   OH213490   2.487   0.148   0.978
 4509TIP3    H113491   2.470   0.228   0.929
 4509TIP3    H213492   2.466   0.077   0.917
 4510TIP3   OH213493   4.758   1.544   1.126
 4510TIP3    H113494   4.832   1.551   1.065
 4510TIP3    H213495   4.719   1.632   1.126
 4511TIP3   OH213496   5.047   0.384   1.661
 4511TIP3    H113497   5.056   0.399   1.567
 4511TIP3    H213498   5.125   0.424   1.699
 4512TIP3   OH213499   5.639   0.802   5.355
 4512TIP3    H113500   5.623   0.721   5.307
 4512TIP3    H213501   5.627   0.778   5.447
 4513TIP3   OH213502   4.510   2.261   5.746
 4513TIP3    H113503   4.504   2.181   5.798
 4513TIP3    H213504   4.558   2.322   5.801
 4514TIP3   OH213505   3.493   0.908   3.456
 4514TIP3    H113506   3.461   0.994   3.481
 4514TIP3    H213507   3.542   0.924   3.375
 4515TIP3   OH213508   1.305   1.603   0.148
 4515TIP3    H113509   1.273   1.558   0.226
 4515TIP3    H213510   1.248   1.680   0.139
 4516TIP3   OH213511   4.939   2.350   1.017
 4516TIP3    H113512   4.938   2.254   1.012
 4516TIP3    H213513   4.856   2.377   0.977
 4517TIP3   OH213514   1.528   4.209   3.928
 4517TIP3    H113515   1.436   4.198   3.953
 4517TIP3    H213516   1.527   4.278   3.862
 4518TIP3   OH213517   2.129   3.543   5.381
 4518TIP3    H113518   2.130   3.611   5.448
 4518TIP3    H213519   2.076   3.580   5.310
 4519TIP3   OH213520   4.061   3.728   3.605
 4519TIP3    H113521   4.104   3.728   3.690
 4519TIP3    H213522   4.090   3.810   3.563
 4520TIP3   OH213523   5.144   2.667   5.296
 4520TIP3    H113524   5.210   2.637   5.359
 4520TIP3    H213525   5.183   2.742   5.253
 4521TIP3   OH213526   2.648   2.170   0.654
 4521TIP3    H113527   2.721   2.231   0.660
 4521TIP3    H213528   2.682   2.096   0.604
 4522TIP3   OH213529   1.225   4.688   1.208
 4522TIP3    H113530   1.177   4.648   1.281
 4522TIP3    H213531   1.190   4.776   1.201
 4523TIP3   OH213532   4.218   3.652   1.219
 4523TIP3    H113533   4.162   3.716   1.263
 4523TIP3    H213534   4.172   3.569   1.228
 4524TIP3   OH213535   4.691   0.749   5.167
 4524TIP3    H113536   4.717   0.778   5.080
 4524TIP3    H213537   4.768   0.765   5.222
 4525TIP3   OH213538   4.029   3.590   3.371
 4525TIP3    H113539   4.073   3.649   3.310
 4525TIP3    H213540   4.053   3.622   3.458
 4526TIP3   OH213541   4.323   5.118   2.826
 4526TIP3    H113542   4.370   5.194   2.792
 4526TIP3    H213543   4.381   5.082   2.893
 4527TIP3   OH213544   1.022   2.806   1.945
 4527TIP3    H113545   0.947   2.759   1.909
 4527TIP3    H213546   1.079   2.819   1.869
 4528TIP3   OH213547   4.326   6.493   5.500
 4528TIP3    H113548   4.264   6.429   5.535
 4528TIP3    H213549   4.377   6.443   5.436
 4529TIP3   OH213550   2.031   4.730   4.933
 4529TIP3    H113551   1.970   4.682   4.877
 4529TIP3    H213552   1.976   4.784   4.989
 4530TIP3   OH213553   1.464   1.214   0.758
 4530TIP3    H113554   1.458   1.285   0.822
 4530TIP3    H213555   1.377   1.174   0.757
 4531TIP3   OH213556   2.101   4.028   0.973
 4531TIP3    H113557   2.127   4.006   1.063
 4531TIP3    H213558   2.098   4.124   0.972
 4532TIP3   OH213559   0.432   2.378   2.403
 4532TIP3    H113560   0.452   2.298   2.452
 4532TIP3    H213561   0.344   2.403   2.432
 4533TIP3   OH213562   5.353   5.175   4.008
 4533TIP3    H113563   5.393   5.091   4.031
 4533TIP3    H213564   5.419   5.241   4.031
 4534TIP3   OH213565   6.288   6.255   5.197
 4534TIP3    H113566   6.243   6.215   5.272
 4534TIP3    H213567   6.381   6.242   5.215
 4535TIP3   OH213568   2.769   3.706   3.229
 4535TIP3    H113569   2.787   3.681   3.320
 4535TIP3    H213570   2.679   3.738   3.231
 4536TIP3   OH213571   2.935   5.101   1.948
 4536TIP3    H113572   2.992   5.042   1.997
 4536TIP3    H213573   2.945   5.186   1.990
 4537TIP3   OH213574   1.201   0.166   3.080
 4537TIP3    H113575   1.116   0.193   3.045
 4537TIP3    H213576   1.230   0.240   3.132
 4538TIP3   OH213577   0.538   0.382   3.398
 4538TIP3    H113578   0.455   0.421   3.426
 4538TIP3    H213579   0.605   0.434   3.443
 4539TIP3   OH213580   1.907   6.428   5.343
 4539TIP3    H113581   1.973   6.481   5.387
 4539TIP3    H213582   1.957   6.369   5.287
 4540TIP3   OH213583   4.608   4.093   0.562
 4540TIP3    H113584   4.636   4.008   0.527
 4540TIP3    H213585   4.685   4.127   0.607
 4541TIP3   OH213586   4.776   4.280   1.359
 4541TIP3    H113587   4.766   4.190   1.330
 4541TIP3    H213588   4.752   4.279   1.451
 4542TIP3   OH213589   1.463   1.621   5.705
 4542TIP3    H113590   1.537   1.622   5.766
 4542TIP3    H213591   1.470   1.703   5.656
 4543TIP3   OH213592   6.783   0.453   5.629
 4543TIP3    H113593   6.711   0.397   5.657
 4543TIP3    H213594   6.767   0.537   5.673
 4544TIP3   OH213595   3.898   2.079   3.968
 4544TIP3    H113596   3.807   2.095   3.942
 4544TIP3    H213597   3.950   2.125   3.903
 4545TIP3   OH213598   3.568   3.633   5.633
 4545TIP3    H113599   3.490   3.629   5.688
 4545TIP3    H213600   3.622   3.700   5.675
 4546TIP3   OH213601   0.981   2.920   5.421
 4546TIP3    H113602   0.912   2.854   5.415
 4546TIP3    H213603   1.026   2.915   5.336
 4547TIP3   OH213604   0.848   3.488   1.175
 4547TIP3    H113605   0.943   3.499   1.168
 4547TIP3    H213606   0.831   3.399   1.144
 4548TIP3   OH213607   0.106   4.173   2.117
 4548TIP3    H113608   0.106   4.168   2.213
 4548TIP3    H213609   0.014   4.171   2.093
 4549TIP3   OH213610   1.801   5.093   0.361
 4549TIP3    H113611   1.824   5.173   0.409
 4549TIP3    H213612   1.776   5.030   0.428
 4550TIP3   OH213613   1.210   3.166   5.267
 4550TIP3    H113614   1.234   3.187   5.177
 4550TIP3    H213615   1.117   3.191   5.274
 4551TIP3   OH213616   5.147   5.778   0.378
 4551TIP3    H113617   5.236   5.814   0.382
 4551TIP3    H213618   5.158   5.684   0.392
 4552TIP3   OH213619   0.652   2.273   2.261
 4552TIP3    H113620   0.576   2.299   2.313
 4552TIP3    H213621   0.724   2.267   2.324
 4553TIP3   OH213622   2.946   6.338   2.719
 4553TIP3    H113623   2.864   6.333   2.769
 4553TIP3    H213624   2.976   6.427   2.732
 4554TIP3   OH213625   5.948   4.303   2.605
 4554TIP3    H113626   5.934   4.217   2.643
 4554TIP3    H213627   6.032   4.332   2.639
 4555TIP3   OH213628   0.943   6.250   4.035
 4555TIP3    H113629   0.919   6.212   3.950
 4555TIP3    H213630   1.036   6.269   4.027
 4556TIP3   OH213631   3.194   6.541   0.333
 4556TIP3    H113632   3.153   6.489   0.264
 4556TIP3    H213633   3.146   6.624   0.333
 4557TIP3   OH213634   3.767   4.065   5.562
 4557TIP3    H113635   3.814   3.992   5.521
 4557TIP3    H213636   3.674   4.046   5.547
 4558TIP3   OH213637   1.227   5.584   1.579
 4558TIP3    H113638   1.247   5.541   1.662
 4558TIP3    H213639   1.222   5.677   1.601
 4559TIP3   OH213640   6.677   3.150   0.688
 4559TIP3    H113641   6.729   3.222   0.652
 4559TIP3    H213642   6.738   3.100   0.741
 4560TIP3   OH213643   0.968   1.543   4.856
 4560TIP3    H113644   1.008   1.595   4.786
 4560TIP3    H213645   0.932   1.467   4.811
 4561TIP3   OH213646   6.453   2.253   1.808
 4561TIP3    H113647   6.395   2.328   1.824
 4561TIP3    H213648   6.500   2.275   1.728
 4562TIP3   OH213649   6.324   2.460   5.311
 4562TIP3    H113650   6.261   2.440   5.381
 4562TIP3    H213651   6.358   2.375   5.284
 4563TIP3   OH213652   2.391   3.743   3.990
 4563TIP3    H113653   2.335   3.820   3.980
 4563TIP3    H213654   2.478   3.773   3.964
 4564TIP3   OH213655   6.014   2.226   4.751
 4564TIP3    H113656   6.085   2.199   4.811
 4564TIP3    H213657   6.003   2.319   4.768
 4565TIP3   OH213658   6.851   4.957   5.649
 4565TIP3    H113659   6.841   5.051   5.664
 4565TIP3    H213660   6.933   4.949   5.599
 4566TIP3   OH213661   2.413   5.486   1.772
 4566TIP3    H113662   2.465   5.413   1.738
 4566TIP3    H213663   2.322   5.461   1.754
 4567TIP3   OH213664   0.272   3.174   4.449
 4567TIP3    H113665   0.213   3.141   4.516
 4567TIP3    H213666   0.218   3.182   4.371
 4568TIP3   OH213667   4.875   3.043   3.584
 4568TIP3    H113668   4.950   2.993   3.617
 4568TIP3    H213669   4.903   3.074   3.498
 4569TIP3   OH213670   2.534   5.380   2.722
 4569TIP3    H113671   2.525   5.333   2.805
 4569TIP3    H213672   2.558   5.469   2.747
 4570TIP3   OH213673   1.578   4.321   5.331
 4570TIP3    H113674   1.495   4.296   5.371
 4570TIP3    H213675   1.557   4.338   5.239
 4571TIP3   OH213676   6.497   4.665   1.025
 4571TIP3    H113677   6.482   4.628   0.938
 4571TIP3    H213678   6.507   4.759   1.011
 4572TIP3   OH213679   5.003   6.576   1.501
 4572TIP3    H113680   4.923   6.527   1.486
 4572TIP3    H213681   5.028   6.610   1.415
 4573TIP3   OH213682   1.699   4.796   0.101
 4573TIP3    H113683   1.655   4.712   0.114
 4573TIP3    H213684   1.790   4.779   0.125
 4574TIP3   OH213685   5.554   5.281   4.985
 4574TIP3    H113686   5.592   5.358   5.026
 4574TIP3    H213687   5.538   5.221   5.058
 4575TIP3   OH213688   5.939   4.184   3.133
 4575TIP3    H113689   5.951   4.109   3.075
 4575TIP3    H213690   5.865   4.159   3.189
 4576TIP3   OH213691   1.509   5.204   1.865
 4576TIP3    H113692   1.583   5.194   1.804
 4576TIP3    H213693   1.435   5.166   1.818
 4577TIP3   OH213694   6.290   1.478   3.375
 4577TIP3    H113695   6.294   1.479   3.471
 4577TIP3    H213696   6.210   1.431   3.354
 4578TIP3   OH213697   0.865   3.584   4.900
 4578TIP3    H113698   0.913   3.502   4.889
 4578TIP3    H213699   0.931   3.653   4.887
 4579TIP3   OH213700   0.485   3.688   2.252
 4579TIP3    H113701   0.436   3.608   2.236
 4579TIP3    H213702   0.424   3.746   2.296
 4580TIP3   OH213703   3.870   6.264   3.565
 4580TIP3    H113704   3.829   6.192   3.614
 4580TIP3    H213705   3.886   6.331   3.631
 4581TIP3   OH213706   4.456   1.234   0.838
 4581TIP3    H113707   4.483   1.266   0.924
 4581TIP3    H213708   4.437   1.141   0.852
 4582TIP3   OH213709   0.635   3.540   5.037
 4582TIP3    H113710   0.660   3.510   5.125
 4582TIP3    H213711   0.719   3.561   4.995
 4583TIP3   OH213712   1.217   2.588   0.784
 4583TIP3    H113713   1.230   2.529   0.710
 4583TIP3    H213714   1.306   2.604   0.818
 4584TIP3   OH213715   6.847   6.346   0.544
 4584TIP3    H113716   6.940   6.338   0.522
 4584TIP3    H213717   6.820   6.429   0.505
 4585TIP3   OH213718   3.325   0.631   2.517
 4585TIP3    H113719   3.265   0.558   2.536
 4585TIP3    H213720   3.369   0.605   2.436
 4586TIP3   OH213721   4.822   1.124   2.288
 4586TIP3    H113722   4.799   1.048   2.340
 4586TIP3    H213723   4.896   1.164   2.334
 4587TIP3   OH213724   2.481   3.515   5.668
 4587TIP3    H113725   2.514   3.429   5.694
 4587TIP3    H213726   2.515   3.527   5.579
 4588TIP3   OH213727   5.295   3.454   5.010
 4588TIP3    H113728   5.383   3.423   5.032
 4588TIP3    H213729   5.285   3.533   5.063
 4589TIP3   OH213730   7.196   4.587   5.891
 4589TIP3    H113731   7.101   4.576   5.897
 4589TIP3    H213732   7.220   4.543   5.810
 4590TIP3   OH213733   5.779   5.199   2.195
 4590TIP3    H113734   5.710   5.193   2.260
 4590TIP3    H213735   5.842   5.131   2.221
 4591TIP3   OH213736   3.567   2.205   4.326
 4591TIP3    H113737   3.593   2.213   4.418
 4591TIP3    H213738   3.639   2.244   4.277
 4592TIP3   OH213739   4.515   6.736   2.758
 4592TIP3    H113740   4.505   6.641   2.757
 4592TIP3    H213741   4.524   6.759   2.850
 4593TIP3   OH213742   6.689   6.466   2.914
 4593TIP3    H113743   6.703   6.525   2.989
 4593TIP3    H213744   6.596   6.444   2.918
 4594TIP3   OH213745   6.815   1.780   3.731
 4594TIP3    H113746   6.845   1.856   3.781
 4594TIP3    H213747   6.732   1.809   3.692
 4595TIP3   OH213748   5.767   3.573   0.639
 4595TIP3    H113749   5.777   3.519   0.560
 4595TIP3    H213750   5.676   3.562   0.665
 4596TIP3   OH213751   4.501   2.957   2.266
 4596TIP3    H113752   4.560   3.025   2.299
 4596TIP3    H213753   4.422   3.004   2.239
 4597TIP3   OH213754   3.474   4.452   0.765
 4597TIP3    H113755   3.402   4.424   0.708
 4597TIP3    H213756   3.544   4.476   0.704
 4598TIP3   OH213757   2.861   1.649   0.292
 4598TIP3    H113758   2.803   1.701   0.348
 4598TIP3    H213759   2.933   1.709   0.270
 4599TIP3   OH213760   4.596   6.105   0.936
 4599TIP3    H113761   4.656   6.138   0.870
 4599TIP3    H213762   4.529   6.173   0.944
 4600TIP3   OH213763   6.443   0.078   4.521
 4600TIP3    H113764   6.360   0.123   4.537
 4600TIP3    H213765   6.431  -0.009   4.558
 4601TIP3   OH213766   4.865   3.602   1.398
 4601TIP3    H113767   4.834   3.572   1.484
 4601TIP3    H213768   4.900   3.523   1.357
 4602TIP3   OH213769   3.100   5.318   1.500
 4602TIP3    H113770   3.129   5.254   1.436
 4602TIP3    H213771   3.159   5.392   1.488
 4603TIP3   OH213772   0.430   2.965   3.505
 4603TIP3    H113773   0.496   3.025   3.538
 4603TIP3    H213774   0.476   2.881   3.494
 4604TIP3   OH213775   0.524   2.704   4.005
 4604TIP3    H113776   0.588   2.634   3.991
 4604TIP3    H213777   0.454   2.663   4.056
 4605TIP3   OH213778   5.172   3.665   5.869
 4605TIP3    H113779   5.172   3.600   5.939
 4605TIP3    H213780   5.207   3.618   5.793
 4606TIP3   OH213781   0.433   3.546   4.290
 4606TIP3    H113782   0.528   3.552   4.285
 4606TIP3    H213783   0.408   3.494   4.214
 4607TIP3   OH213784   5.457   5.520   1.175
 4607TIP3    H113785   5.424   5.454   1.237
 4607TIP3    H213786   5.411   5.500   1.093
 4608TIP3   OH213787   3.079   2.148   3.372
 4608TIP3    H113788   3.052   2.097   3.448
 4608TIP3    H213789   3.146   2.208   3.405
 4609TIP3   OH213790   2.985   5.315   3.550
 4609TIP3    H113791   2.967   5.350   3.637
 4609TIP3    H213792   3.076   5.339   3.533
 4610TIP3   OH213793   4.965   4.625   5.454
 4610TIP3    H113794   4.935   4.669   5.533
 4610TIP3    H213795   4.887   4.580   5.421
 4611TIP3   OH213796   4.671   1.250   0.378
 4611TIP3    H113797   4.657   1.267   0.471
 4611TIP3    H213798   4.612   1.310   0.333
 4612TIP3   OH213799   6.662   4.502   5.110
 4612TIP3    H113800   6.654   4.411   5.082
 4612TIP3    H213801   6.573   4.537   5.105
 4613TIP3   OH213802   1.493   3.342   2.967
 4613TIP3    H113803   1.424   3.282   2.996
 4613TIP3    H213804   1.571   3.314   3.014
 4614TIP3   OH213805   3.890   4.313   2.406
 4614TIP3    H113806   3.829   4.250   2.444
 4614TIP3    H213807   3.973   4.296   2.449
 4615TIP3   OH213808   1.309   3.221   4.997
 4615TIP3    H113809   1.369   3.152   4.967
 4615TIP3    H213810   1.325   3.294   4.937
 4616TIP3   OH213811   5.159   3.130   4.049
 4616TIP3    H113812   5.198   3.071   4.114
 4616TIP3    H213813   5.068   3.102   4.044
 4617TIP3   OH213814   6.280   4.362   4.346
 4617TIP3    H113815   6.302   4.420   4.419
 4617TIP3    H213816   6.276   4.420   4.270
 4618TIP3   OH213817   0.869   4.854   1.353
 4618TIP3    H113818   0.900   4.901   1.431
 4618TIP3    H213819   0.814   4.784   1.388
 4619TIP3   OH213820   7.146   1.452   1.428
 4619TIP3    H113821   7.064   1.405   1.412
 4619TIP3    H213822   7.141   1.528   1.370
 4620TIP3   OH213823   6.182   2.062   0.708
 4620TIP3    H113824   6.264   2.055   0.658
 4620TIP3    H213825   6.121   2.103   0.647
 4621TIP3   OH213826   1.917   1.932   3.821
 4621TIP3    H113827   1.822   1.929   3.832
 4621TIP3    H213828   1.931   1.910   3.728
 4622TIP3   OH213829   4.016   6.351   2.768
 4622TIP3    H113830   4.022   6.255   2.768
 4622TIP3    H213831   4.072   6.379   2.841
 4623TIP3   OH213832   0.925   4.578   3.959
 4623TIP3    H113833   0.907   4.647   4.023
 4623TIP3    H213834   0.982   4.516   4.006
 4624TIP3   OH213835   5.994   3.936   2.535
 4624TIP3    H113836   5.925   3.934   2.468
 4624TIP3    H213837   6.002   3.845   2.564
 4625TIP3   OH213838   5.077   0.120   4.891
 4625TIP3    H113839   5.170   0.143   4.881
 4625TIP3    H213840   5.077   0.052   4.959
 4626TIP3   OH213841   0.820   4.162   4.310
 4626TIP3    H113842   0.750   4.142   4.247
 4626TIP3    H213843   0.794   4.116   4.390
 4627TIP3   OH213844   0.111   6.579   3.065
 4627TIP3    H113845   0.094   6.666   3.030
 4627TIP3    H213846   0.199   6.584   3.102
 4628TIP3   OH213847   4.869   2.213   5.040
 4628TIP3    H113848   4.956   2.239   5.010
 4628TIP3    H213849   4.838   2.288   5.092
 4629TIP3   OH213850   5.281   3.987   2.536
 4629TIP3    H113851   5.355   4.026   2.490
 4629TIP3    H213852   5.319   3.918   2.590
 4630TIP3   OH213853   0.257   6.264   5.339
 4630TIP3    H113854   0.224   6.258   5.249
 4630TIP3    H213855   0.345   6.227   5.334
 4631TIP3   OH213856   0.326   2.325   0.118
 4631TIP3    H113857   0.320   2.332   0.023
 4631TIP3    H213858   0.272   2.249   0.140
 4632TIP3   OH213859   2.994   0.269   2.626
 4632TIP3    H113860   2.981   0.190   2.572
 4632TIP3    H213861   3.016   0.235   2.713
 4633TIP3   OH213862   6.329   0.856   0.231
 4633TIP3    H113863   6.380   0.860   0.151
 4633TIP3    H213864   6.261   0.923   0.221
 4634TIP3   OH213865   5.040   3.877   0.171
 4634TIP3    H113866   4.985   3.952   0.150
 4634TIP3    H213867   5.085   3.901   0.252
 4635TIP3   OH213868   5.692   0.751   3.509
 4635TIP3    H113869   5.725   0.694   3.579
 4635TIP3    H213870   5.652   0.690   3.446
 4636TIP3   OH213871   2.715   3.692   2.415
 4636TIP3    H113872   2.693   3.784   2.407
 4636TIP3    H213873   2.674   3.664   2.497
 4637TIP3   OH213874   1.807   2.942   0.145
 4637TIP3    H113875   1.777   2.852   0.145
 4637TIP3    H213876   1.728   2.994   0.161
 4638TIP3   OH213877   5.657   6.003   2.169
 4638TIP3    H113878   5.747   6.029   2.188
 4638TIP3    H213879   5.635   6.049   2.088
 4639TIP3   OH213880   3.458   0.290   0.221
 4639TIP3    H113881   3.492   0.290   0.310
 4639TIP3    H213882   3.385   0.229   0.222
 4640TIP3   OH213883   5.235   6.731   4.756
 4640TIP3    H113884   5.259   6.766   4.670
 4640TIP3    H213885   5.316   6.689   4.787
 4641TIP3   OH213886   2.098   4.185   4.624
 4641TIP3    H113887   2.171   4.135   4.660
 4641TIP3    H213888   2.027   4.173   4.687
 4642TIP3   OH213889   4.572   6.728   2.257
 4642TIP3    H113890   4.509   6.670   2.300
 4642TIP3    H213891   4.528   6.813   2.254
 4643TIP3   OH213892   0.084   0.003   2.382
 4643TIP3    H113893   0.063  -0.089   2.366
 4643TIP3    H213894   0.173   0.013   2.349
 4644TIP3   OH213895   3.231   0.456   1.899
 4644TIP3    H113896   3.225   0.370   1.859
 4644TIP3    H213897   3.304   0.499   1.853
 4645TIP3   OH213898   0.477   4.704   0.556
 4645TIP3    H113899   0.480   4.799   0.570
 4645TIP3    H213900   0.398   4.691   0.503
 4646TIP3   OH213901   6.091   1.947   4.555
 4646TIP3    H113902   6.072   2.017   4.493
 4646TIP3    H213903   6.006   1.911   4.578
 4647TIP3   OH213904   1.214   1.627   3.763
 4647TIP3    H113905   1.191   1.534   3.765
 4647TIP3    H213906   1.151   1.667   3.824
 4648TIP3   OH213907   6.472   1.994   4.470
 4648TIP3    H113908   6.440   1.960   4.387
 4648TIP3    H213909   6.550   1.941   4.490
 4649TIP3   OH213910   2.539   0.671   0.849
 4649TIP3    H113911   2.595   0.746   0.830
 4649TIP3    H213912   2.586   0.621   0.916
 4650TIP3   OH213913   1.956   4.052   3.391
 4650TIP3    H113914   1.956   3.997   3.469
 4650TIP3    H213915   2.045   4.087   3.386
 4651TIP3   OH213916   6.169   6.463   3.594
 4651TIP3    H113917   6.181   6.477   3.500
 4651TIP3    H213918   6.117   6.383   3.600
 4652TIP3   OH213919   3.450   0.973   4.373
 4652TIP3    H113920   3.378   1.016   4.418
 4652TIP3    H213921   3.420   0.962   4.283
 4653TIP3   OH213922   5.959   4.114   5.138
 4653TIP3    H113923   5.951   4.185   5.074
 4653TIP3    H213924   5.988   4.158   5.218
 4654TIP3   OH213925   0.983   2.828   4.460
 4654TIP3    H113926   0.956   2.762   4.524
 4654TIP3    H213927   1.067   2.797   4.427
 4655TIP3   OH213928   6.390   2.383   3.991
 4655TIP3    H113929   6.401   2.471   3.954
 4655TIP3    H213930   6.421   2.391   4.082
 4656TIP3   OH213931   0.818   2.325   0.055
 4656TIP3    H113932   0.768   2.248   0.029
 4656TIP3    H213933   0.775   2.398   0.010
 4657TIP3   OH213934   4.016   2.590   5.699
 4657TIP3    H113935   3.986   2.610   5.611
 4657TIP3    H213936   4.034   2.496   5.698
 4658TIP3   OH213937   3.243   4.212   1.376
 4658TIP3    H113938   3.193   4.252   1.447
 4658TIP3    H213939   3.308   4.278   1.352
 4659TIP3   OH213940   1.298   4.013   3.546
 4659TIP3    H113941   1.210   4.028   3.512
 4659TIP3    H213942   1.353   4.010   3.468
 4660TIP3   OH213943   6.473   4.921   1.264
 4660TIP3    H113944   6.519   4.994   1.305
 4660TIP3    H213945   6.382   4.951   1.257
 4661TIP3   OH213946   6.924   0.337   3.466
 4661TIP3    H113947   6.842   0.357   3.510
 4661TIP3    H213948   6.989   0.334   3.536
 4662TIP3   OH213949   4.447   4.294   3.792
 4662TIP3    H113950   4.515   4.278   3.727
 4662TIP3    H213951   4.493   4.336   3.865
 4663TIP3   OH213952   1.136   0.382   2.028
 4663TIP3    H113953   1.083   0.311   2.064
 4663TIP3    H213954   1.207   0.338   1.982
 4664TIP3   OH213955   4.291   5.336   3.048
 4664TIP3    H113956   4.201   5.367   3.057
 4664TIP3    H213957   4.307   5.286   3.128
 4665TIP3   OH213958   1.599   0.974   4.980
 4665TIP3    H113959   1.641   0.898   5.020
 4665TIP3    H213960   1.580   0.946   4.890
 4666TIP3   OH213961   6.698   0.228   2.791
 4666TIP3    H113962   6.708   0.157   2.855
 4666TIP3    H213963   6.626   0.281   2.825
 4667TIP3   OH213964   4.372   5.806   5.764
 4667TIP3    H113965   4.342   5.834   5.850
 4667TIP3    H213966   4.467   5.821   5.765
 4668TIP3   OH213967   1.231   4.471   1.578
 4668TIP3    H113968   1.250   4.410   1.649
 4668TIP3    H213969   1.144   4.447   1.547
 4669TIP3   OH213970   1.950   3.066   5.819
 4669TIP3    H113971   1.892   3.008   5.771
 4669TIP3    H213972   2.034   3.061   5.773
 4670TIP3   OH213973   2.841   6.195   1.085
 4670TIP3    H113974   2.852   6.255   1.158
 4670TIP3    H213975   2.808   6.250   1.013
 4671TIP3   OH213976   4.347   2.899   5.316
 4671TIP3    H113977   4.342   2.988   5.351
 4671TIP3    H213978   4.256   2.867   5.320
 4672TIP3   OH213979   5.277   6.202   2.492
 4672TIP3    H113980   5.282   6.144   2.568
 4672TIP3    H213981   5.349   6.264   2.504
 4673TIP3   OH213982   6.217   6.577   1.479
 4673TIP3    H113983   6.245   6.488   1.501
 4673TIP3    H213984   6.176   6.610   1.559
 4674TIP3   OH213985   6.199   6.799   0.181
 4674TIP3    H113986   6.259   6.728   0.161
 4674TIP3    H213987   6.240   6.846   0.254
 4675TIP3   OH213988   2.849   3.119   2.872
 4675TIP3    H113989   2.926   3.097   2.925
 4675TIP3    H213990   2.820   3.035   2.837
 4676TIP3   OH213991   2.188   6.101   1.665
 4676TIP3    H113992   2.240   6.056   1.598
 4676TIP3    H213993   2.174   6.189   1.630
 4677TIP3   OH213994   5.174   1.193   4.038
 4677TIP3    H113995   5.166   1.188   3.943
 4677TIP3    H213996   5.245   1.256   4.053
 4678TIP3   OH213997   1.241   0.312   3.751
 4678TIP3    H113998   1.208   0.321   3.662
 4678TIP3    H213999   1.181   0.364   3.805
 4679TIP3   OH214000   2.724   4.086   4.026
 4679TIP3    H114001   2.693   3.996   4.017
 4679TIP3    H214002   2.734   4.117   3.936
 4680TIP3   OH214003   2.541   6.600   4.536
 4680TIP3    H114004   2.453   6.628   4.562
 4680TIP3    H214005   2.586   6.584   4.618
 4681TIP3   OH214006   4.847   0.881   2.468
 4681TIP3    H114007   4.850   0.820   2.541
 4681TIP3    H214008   4.937   0.887   2.438
 4682TIP3   OH214009   5.524   2.483   2.825
 4682TIP3    H114010   5.578   2.405   2.813
 4682TIP3    H214011   5.439   2.459   2.789
 4683TIP3   OH214012   4.773   1.424   2.454
 4683TIP3    H114013   4.832   1.361   2.414
 4683TIP3    H214014   4.774   1.403   2.547
 4684TIP3   OH214015   6.615   5.908   5.468
 4684TIP3    H114016   6.660   5.991   5.487
 4684TIP3    H214017   6.594   5.912   5.375
 4685TIP3   OH214018   5.521   6.306   5.067
 4685TIP3    H114019   5.557   6.376   5.013
 4685TIP3    H214020   5.561   6.320   5.153
 4686TIP3   OH214021   2.659   6.564   4.779
 4686TIP3    H114022   2.733   6.585   4.835
 4686TIP3    H214023   2.590   6.537   4.839
 4687TIP3   OH214024   3.157   0.838   1.962
 4687TIP3    H114025   3.144   0.777   2.035
 4687TIP3    H214026   3.218   0.793   1.904
 4688TIP3   OH214027   7.127   6.336   0.556
 4688TIP3    H114028   7.176   6.338   0.474
 4688TIP3    H214029   7.188   6.370   0.621
 4689TIP3   OH214030   7.149   2.337   4.781
 4689TIP3    H114031   7.240   2.364   4.773
 4689TIP3    H214032   7.098   2.417   4.767
 4690TIP3   OH214033   5.286   2.457   0.970
 4690TIP3    H114034   5.344   2.530   0.950
 4690TIP3    H214035   5.330   2.380   0.933
 4691TIP3   OH214036   0.821   3.072   2.330
 4691TIP3    H114037   0.860   3.100   2.247
 4691TIP3    H214038   0.726   3.079   2.315
 4692TIP3   OH214039   2.479   2.879   5.808
 4692TIP3    H114040   2.389   2.856   5.789
 4692TIP3    H214041   2.478   2.910   5.899
 4693TIP3   OH214042   3.029   1.855   0.115
 4693TIP3    H114043   3.034   1.766   0.079
 4693TIP3    H214044   3.120   1.885   0.119
 4694TIP3   OH214045   3.063   5.495   0.324
 4694TIP3    H114046   3.146   5.540   0.306
 4694TIP3    H214047   3.088   5.402   0.331
 4695TIP3   OH214048   4.088   5.657   4.398
 4695TIP3    H114049   4.062   5.714   4.471
 4695TIP3    H214050   4.116   5.576   4.441
 4696TIP3   OH214051   3.104   6.066   3.209
 4696TIP3    H114052   3.189   6.048   3.170
 4696TIP3    H214053   3.085   6.156   3.186
 4697TIP3   OH214054   2.101   4.920   1.123
 4697TIP3    H114055   2.013   4.948   1.151
 4697TIP3    H214056   2.099   4.824   1.132
 4698TIP3   OH214057   1.054   2.774   2.602
 4698TIP3    H114058   0.988   2.841   2.619
 4698TIP3    H214059   1.006   2.704   2.559
 4699TIP3   OH214060   6.760   5.806   0.937
 4699TIP3    H114061   6.786   5.794   1.029
 4699TIP3    H214062   6.756   5.717   0.902
 4700TIP3   OH214063   4.698   2.326   0.651
 4700TIP3    H114064   4.737   2.259   0.595
 4700TIP3    H214065   4.773   2.373   0.688
 4701TIP3   OH214066   3.572   5.339   2.069
 4701TIP3    H114067   3.482   5.333   2.100
 4701TIP3    H214068   3.565   5.385   1.985
 4702TIP3   OH214069   2.695   6.580   1.359
 4702TIP3    H114070   2.749   6.551   1.433
 4702TIP3    H214071   2.736   6.540   1.283
 4703TIP3   OH214072   6.649   0.884   2.944
 4703TIP3    H114073   6.621   0.970   2.914
 4703TIP3    H214074   6.704   0.849   2.874
 4704TIP3   OH214075  -0.032   3.119   2.381
 4704TIP3    H114076   0.055   3.085   2.402
 4704TIP3    H214077  -0.093   3.053   2.416
 4705TIP3   OH214078   6.371   0.294   0.853
 4705TIP3    H114079   6.382   0.259   0.941
 4705TIP3    H214080   6.298   0.243   0.816
 4706TIP3   OH214081   1.343   0.987   0.449
 4706TIP3    H114082   1.436   0.978   0.431
 4706TIP3    H214083   1.301   0.974   0.364
 4707TIP3   OH214084   3.455   1.214   2.358
 4707TIP3    H114085   3.365   1.211   2.390
 4707TIP3    H214086   3.483   1.304   2.371
 4708TIP3   OH214087   6.148   4.466   5.738
 4708TIP3    H114088   6.174   4.459   5.646
 4708TIP3    H214089   6.093   4.545   5.741
 4709TIP3   OH214090   5.337   6.047   4.014
 4709TIP3    H114091   5.370   6.133   4.039
 4709TIP3    H214092   5.245   6.048   4.042
 4710TIP3   OH214093   6.910   2.611   0.897
 4710TIP3    H114094   6.905   2.685   0.957
 4710TIP3    H214095   6.840   2.627   0.834
 4711TIP3   OH214096   5.433   1.687   2.750
 4711TIP3    H114097   5.389   1.767   2.779
 4711TIP3    H214098   5.368   1.618   2.759
 4712TIP3   OH214099   6.353   1.926   4.238
 4712TIP3    H114100   6.341   1.841   4.197
 4712TIP3    H214101   6.276   1.976   4.212
 4713TIP3   OH214102   4.909   1.532   4.540
 4713TIP3    H114103   4.946   1.457   4.495
 4713TIP3    H214104   4.845   1.495   4.600
 4714TIP3   OH214105   1.679   6.500   5.181
 4714TIP3    H114106   1.689   6.491   5.086
 4714TIP3    H214107   1.756   6.457   5.218
 4715TIP3   OH214108   4.387   2.204   5.510
 4715TIP3    H114109   4.445   2.167   5.444
 4715TIP3    H214110   4.446   2.244   5.574
 4716TIP3   OH214111   6.382   1.932   3.447
 4716TIP3    H114112   6.443   1.949   3.376
 4716TIP3    H214113   6.305   1.896   3.404
 4717TIP3   OH214114   4.845   5.473   2.135
 4717TIP3    H114115   4.813   5.560   2.111
 4717TIP3    H214116   4.836   5.421   2.056
 4718TIP3   OH214117   0.674   5.544   5.778
 4718TIP3    H114118   0.670   5.481   5.706
 4718TIP3    H214119   0.724   5.618   5.743
 4719TIP3   OH214120   2.291   6.724   0.943
 4719TIP3    H114121   2.248   6.641   0.966
 4719TIP3    H214122   2.380   6.700   0.920
 4720TIP3   OH214123   4.234   3.087   5.656
 4720TIP3    H114124   4.228   3.159   5.718
 4720TIP3    H214125   4.269   3.126   5.576
 4721TIP3   OH214126   6.449   0.265   0.472
 4721TIP3    H114127   6.478   0.197   0.410
 4721TIP3    H214128   6.365   0.294   0.438
 4722TIP3   OH214129   3.836   3.381   3.282
 4722TIP3    H114130   3.923   3.421   3.284
 4722TIP3    H214131   3.776   3.455   3.286
 4723TIP3   OH214132   4.743   0.314   1.372
 4723TIP3    H114133   4.676   0.311   1.304
 4723TIP3    H214134   4.812   0.371   1.336
 4724TIP3   OH214135   0.454   4.585   4.222
 4724TIP3    H114136   0.441   4.675   4.251
 4724TIP3    H214137   0.549   4.573   4.223
 4725TIP3   OH214138   0.287   4.332   3.866
 4725TIP3    H114139   0.310   4.259   3.924
 4725TIP3    H214140   0.263   4.403   3.926
 4726TIP3   OH214141   4.057   6.672   0.965
 4726TIP3    H114142   4.149   6.688   0.942
 4726TIP3    H214143   4.037   6.587   0.926
 4727TIP3   OH214144   1.050   2.683   0.537
 4727TIP3    H114145   0.979   2.637   0.492
 4727TIP3    H214146   1.107   2.613   0.569
 4728TIP3   OH214147   3.653   4.645   4.376
 4728TIP3    H114148   3.628   4.688   4.458
 4728TIP3    H214149   3.661   4.552   4.400
 4729TIP3   OH214150   2.789   0.731   2.669
 4729TIP3    H114151   2.716   0.724   2.608
 4729TIP3    H214152   2.794   0.644   2.709
 4730TIP3   OH214153   6.509   1.425   5.221
 4730TIP3    H114154   6.470   1.345   5.255
 4730TIP3    H214155   6.537   1.403   5.133
 4731TIP3   OH214156   2.995   4.087   0.106
 4731TIP3    H114157   3.003   4.010   0.049
 4731TIP3    H214158   2.994   4.161   0.046
 4732TIP3   OH214159   4.685   6.421   4.575
 4732TIP3    H114160   4.596   6.392   4.553
 4732TIP3    H214161   4.739   6.392   4.501
 4733TIP3   OH214162   2.980   0.536   1.895
 4733TIP3    H114163   3.071   0.513   1.872
 4733TIP3    H214164   2.988   0.617   1.945
 4734TIP3   OH214165   1.436   3.011   5.324
 4734TIP3    H114166   1.403   2.923   5.303
 4734TIP3    H214167   1.357   3.065   5.331
 4735TIP3   OH214168   6.919   4.520   5.907
 4735TIP3    H114169   6.894   4.449   5.967
 4735TIP3    H214170   6.925   4.478   5.821
 4736TIP3   OH214171   2.195   5.206   1.133
 4736TIP3    H114172   2.123   5.262   1.158
 4736TIP3    H214173   2.161   5.117   1.143
 4737TIP3   OH214174   3.447   5.318   5.202
 4737TIP3    H114175   3.408   5.307   5.289
 4737TIP3    H214176   3.394   5.387   5.162
 4738TIP3   OH214177   6.145   4.607   3.110
 4738TIP3    H114178   6.108   4.535   3.060
 4738TIP3    H214179   6.070   4.662   3.134
 4739TIP3   OH214180   4.376   3.156   5.424
 4739TIP3    H114181   4.444   3.213   5.460
 4739TIP3    H214182   4.321   3.215   5.372
 4740TIP3   OH214183   1.977   1.846   2.165
 4740TIP3    H114184   2.027   1.805   2.095
 4740TIP3    H214185   1.931   1.774   2.208
 4741TIP3   OH214186   6.374   1.267   4.221
 4741TIP3    H114187   6.382   1.192   4.163
 4741TIP3    H214188   6.327   1.234   4.297
 4742TIP3   OH214189   1.072   1.068   4.182
 4742TIP3    H114190   1.090   0.999   4.245
 4742TIP3    H214191   1.105   1.148   4.224
 4743TIP3   OH214192   5.351   2.541   3.773
 4743TIP3    H114193   5.335   2.604   3.703
 4743TIP3    H214194   5.342   2.456   3.731
 4744TIP3   OH214195   6.638   1.182   3.097
 4744TIP3    H114196   6.726   1.143   3.094
 4744TIP3    H214197   6.625   1.220   3.010
 4745TIP3   OH214198   7.207   4.075   1.472
 4745TIP3    H114199   7.137   4.124   1.429
 4745TIP3    H214200   7.167   4.041   1.552
 4746TIP3   OH214201   1.846   5.752   5.202
 4746TIP3    H114202   1.867   5.809   5.275
 4746TIP3    H214203   1.750   5.744   5.204
 4747TIP3   OH214204   1.940   2.622   4.545
 4747TIP3    H114205   2.011   2.640   4.607
 4747TIP3    H214206   1.895   2.545   4.581
 4748TIP3   OH214207   3.917   5.581   5.219
 4748TIP3    H114208   3.926   5.491   5.252
 4748TIP3    H214209   3.997   5.596   5.169
 4749TIP3   OH214210   3.061   4.110   3.050
 4749TIP3    H114211   3.014   4.079   3.127
 4749TIP3    H214212   3.139   4.154   3.085
 4750TIP3   OH214213   0.399   0.188   3.745
 4750TIP3    H114214   0.333   0.228   3.802
 4750TIP3    H214215   0.468   0.160   3.805
 4751TIP3   OH214216   7.141   3.055   4.174
 4751TIP3    H114217   7.109   2.988   4.114
 4751TIP3    H214218   7.066   3.076   4.230
 4752TIP3   OH214219   1.164   2.745   1.515
 4752TIP3    H114220   1.128   2.713   1.432
 4752TIP3    H214221   1.257   2.758   1.498
 4753TIP3   OH214222   6.309   4.538   4.539
 4753TIP3    H114223   6.277   4.532   4.629
 4753TIP3    H214224   6.235   4.573   4.489
 4754TIP3   OH214225   3.065   5.264   5.071
 4754TIP3    H114226   3.040   5.356   5.071
 4754TIP3    H214227   3.005   5.223   5.008
 4755TIP3   OH214228   6.995   3.618   5.356
 4755TIP3    H114229   6.963   3.579   5.438
 4755TIP3    H214230   6.993   3.547   5.293
 4756TIP3   OH214231   1.304   5.190   1.346
 4756TIP3    H114232   1.376   5.127   1.347
 4756TIP3    H214233   1.285   5.205   1.254
 4757TIP3   OH214234   7.220   1.633   2.938
 4757TIP3    H114235   7.248   1.719   2.905
 4757TIP3    H214236   7.193   1.650   3.028
 4758TIP3   OH214237  -0.025   3.039   5.763
 4758TIP3    H114238  -0.066   2.975   5.822
 4758TIP3    H214239   0.007   3.108   5.820
 4759TIP3   OH214240   5.855   3.856   5.143
 4759TIP3    H114241   5.902   3.775   5.123
 4759TIP3    H214242   5.923   3.922   5.150
 4760TIP3   OH214243   6.509   4.859   2.769
 4760TIP3    H114244   6.571   4.931   2.758
 4760TIP3    H214245   6.425   4.895   2.744
 4761TIP3   OH214246   2.816   4.091   1.021
 4761TIP3    H114247   2.746   4.148   0.992
 4761TIP3    H214248   2.853   4.134   1.098
 4762TIP3   OH214249   1.757   4.936   0.589
 4762TIP3    H114250   1.847   4.908   0.608
 4762TIP3    H214251   1.732   4.990   0.663
 4763TIP3   OH214252   2.702   3.921   2.093
 4763TIP3    H114253   2.704   3.827   2.073
 4763TIP3    H214254   2.611   3.947   2.078
 4764TIP3   OH214255   5.244   4.402   2.004
 4764TIP3    H114256   5.293   4.385   2.084
 4764TIP3    H214257   5.270   4.331   1.945
 4765TIP3   OH214258  -0.015   4.861   1.117
 4765TIP3    H114259   0.066   4.867   1.067
 4765TIP3    H214260  -0.019   4.944   1.165
 4766TIP3   OH214261   4.075   4.374   1.329
 4766TIP3    H114262   4.034   4.291   1.352
 4766TIP3    H214263   4.009   4.420   1.277
 4767TIP3   OH214264   6.737   2.647   1.814
 4767TIP3    H114265   6.732   2.681   1.903
 4767TIP3    H214266   6.830   2.625   1.801
 4768TIP3   OH214267   3.468   3.026   3.975
 4768TIP3    H114268   3.557   2.997   3.994
 4768TIP3    H214269   3.472   3.055   3.884
 4769TIP3   OH214270   5.392   0.681   1.759
 4769TIP3    H114271   5.389   0.722   1.846
 4769TIP3    H214272   5.480   0.645   1.753
 4770TIP3   OH214273   3.740   3.374   4.457
 4770TIP3    H114274   3.769   3.283   4.453
 4770TIP3    H214275   3.646   3.368   4.471
 4771TIP3   OH214276   3.075   1.791   4.121
 4771TIP3    H114277   3.091   1.865   4.181
 4771TIP3    H214278   3.007   1.740   4.165
 4772TIP3   OH214279   7.118   1.850   1.419
 4772TIP3    H114280   7.152   1.936   1.394
 4772TIP3    H214281   7.188   1.810   1.470
 4773TIP3   OH214282   1.090   2.188   0.457
 4773TIP3    H114283   1.165   2.163   0.402
 4773TIP3    H214284   1.019   2.201   0.395
 4774TIP3   OH214285   2.674   6.088   0.069
 4774TIP3    H114286   2.742   6.039   0.115
 4774TIP3    H214287   2.687   6.066  -0.024
 4775TIP3   OH214288   7.127   4.312   3.539
 4775TIP3    H114289   7.183   4.265   3.600
 4775TIP3    H214290   7.151   4.404   3.551
 4776TIP3   OH214291   2.211   6.433   4.752
 4776TIP3    H114292   2.241   6.345   4.728
 4776TIP3    H214293   2.121   6.437   4.720
 4777TIP3   OH214294   3.154   3.191   1.226
 4777TIP3    H114295   3.152   3.121   1.160
 4777TIP3    H214296   3.075   3.242   1.210
 4778TIP3   OH214297   3.402   3.740   2.233
 4778TIP3    H114298   3.495   3.717   2.230
 4778TIP3    H214299   3.398   3.827   2.194
 4779TIP3   OH214300   3.972   4.928   2.244
 4779TIP3    H114301   3.882   4.950   2.268
 4779TIP3    H214302   3.973   4.933   2.149
 4780TIP3   OH214303   6.814   4.628   0.790
 4780TIP3    H114304   6.794   4.687   0.717
 4780TIP3    H214305   6.845   4.686   0.860
 4781TIP3   OH214306   5.873   0.151   0.162
 4781TIP3    H114307   5.889   0.229   0.216
 4781TIP3    H214308   5.931   0.084   0.198
 4782TIP3   OH214309   0.322   0.550   4.749
 4782TIP3    H114310   0.326   0.559   4.654
 4782TIP3    H214311   0.409   0.519   4.774
 4783TIP3   OH214312   0.779   6.131   3.833
 4783TIP3    H114313   0.702   6.096   3.879
 4783TIP3    H214314   0.763   6.110   3.741
 4784TIP3   OH214315   7.047   1.996   2.451
 4784TIP3    H114316   7.017   1.936   2.383
 4784TIP3    H214317   7.001   2.078   2.432
 4785TIP3   OH214318   6.549   0.049   4.857
 4785TIP3    H114319   6.586   0.135   4.875
 4785TIP3    H214320   6.624  -0.011   4.863
 4786TIP3   OH214321   7.174   3.410   2.837
 4786TIP3    H114322   7.116   3.449   2.772
 4786TIP3    H214323   7.116   3.389   2.911
 4787TIP3   OH214324   5.527   3.968   2.339
 4787TIP3    H114325   5.583   4.030   2.293
 4787TIP3    H214326   5.485   3.917   2.270
 4788TIP3   OH214327   5.949   0.994   1.002
 4788TIP3    H114328   5.902   0.937   1.062
 4788TIP3    H214329   5.965   1.074   1.052
 4789TIP3   OH214330   1.954   3.894   3.946
 4789TIP3    H114331   1.868   3.934   3.934
 4789TIP3    H214332   1.973   3.904   4.039
 4790TIP3   OH214333   3.318   2.680   3.255
 4790TIP3    H114334   3.390   2.684   3.192
 4790TIP3    H214335   3.351   2.726   3.332
 4791TIP3   OH214336   4.876   5.657  -0.015
 4791TIP3    H114337   4.821   5.588   0.023
 4791TIP3    H214338   4.893   5.716   0.058
 4792TIP3   OH214339   1.376   1.828   3.993
 4792TIP3    H114340   1.422   1.800   3.914
 4792TIP3    H214341   1.296   1.869   3.961
 4793TIP3   OH214342   4.852   5.660   4.811
 4793TIP3    H114343   4.769   5.633   4.774
 4793TIP3    H214344   4.915   5.597   4.777
 4794TIP3   OH214345   4.038   1.868   3.264
 4794TIP3    H114346   3.978   1.810   3.217
 4794TIP3    H214347   4.038   1.949   3.213
 4795TIP3   OH214348   0.291   5.754   3.336
 4795TIP3    H114349   0.235   5.832   3.342
 4795TIP3    H214350   0.250   5.691   3.395
 4796TIP3   OH214351   4.343   4.835   0.249
 4796TIP3    H114352   4.361   4.913   0.196
 4796TIP3    H214353   4.334   4.867   0.338
 4797TIP3   OH214354   6.317   6.091   1.329
 4797TIP3    H114355   6.310   6.035   1.251
 4797TIP3    H214356   6.412   6.102   1.341
 4798TIP3   OH214357   1.192   4.486   0.525
 4798TIP3    H114358   1.105   4.461   0.555
 4798TIP3    H214359   1.250   4.463   0.598
 4799TIP3   OH214360   0.637   4.134   2.169
 4799TIP3    H114361   0.550   4.154   2.204
 4799TIP3    H214362   0.659   4.049   2.206
 4800TIP3   OH214363   4.244   6.250   1.289
 4800TIP3    H114364   4.195   6.184   1.339
 4800TIP3    H214365   4.334   6.240   1.318
 4801TIP3   OH214366   5.340   2.106   1.636
 4801TIP3    H114367   5.349   2.201   1.631
 4801TIP3    H214368   5.256   2.087   1.594
 4802TIP3   OH214369   5.897   0.227   3.306
 4802TIP3    H114370   5.945   0.310   3.300
 4802TIP3    H214371   5.815   0.244   3.261
 4803TIP3   OH214372   3.041   4.255   1.863
 4803TIP3    H114373   3.116   4.197   1.879
 4803TIP3    H214374   2.965   4.201   1.881
 4804TIP3   OH214375   2.810   2.864   4.596
 4804TIP3    H114376   2.745   2.925   4.631
 4804TIP3    H214377   2.876   2.920   4.554
 4805TIP3   OH214378   2.674   2.758   3.562
 4805TIP3    H114379   2.769   2.745   3.559
 4805TIP3    H214380   2.651   2.738   3.653
 4806TIP3   OH214381   2.543   0.095   0.349
 4806TIP3    H114382   2.495   0.170   0.315
 4806TIP3    H214383   2.477   0.025   0.355
 4807TIP3   OH214384   0.909   2.188   3.137
 4807TIP3    H114385   0.894   2.283   3.132
 4807TIP3    H214386   0.981   2.179   3.200
 4808TIP3   OH214387   6.213   0.658   1.045
 4808TIP3    H114388   6.176   0.595   1.107
 4808TIP3    H214389   6.193   0.622   0.959
 4809TIP3   OH214390   1.352   0.390   2.276
 4809TIP3    H114391   1.385   0.336   2.204
 4809TIP3    H214392   1.421   0.455   2.291
 4810TIP3   OH214393   3.822   4.861   0.225
 4810TIP3    H114394   3.773   4.888   0.302
 4810TIP3    H214395   3.907   4.904   0.234
 4811TIP3   OH214396   0.384   1.643   2.284
 4811TIP3    H114397   0.425   1.565   2.320
 4811TIP3    H214398   0.308   1.658   2.340
 4812TIP3   OH214399   2.078   6.702   3.394
 4812TIP3    H114400   2.083   6.616   3.353
 4812TIP3    H214401   2.150   6.703   3.457
 4813TIP3   OH214402   6.144   1.911   4.858
 4813TIP3    H114403   6.179   1.955   4.781
 4813TIP3    H214404   6.208   1.930   4.928
 4814TIP3   OH214405   3.161   5.518   4.462
 4814TIP3    H114406   3.242   5.558   4.430
 4814TIP3    H214407   3.092   5.576   4.431
 4815TIP3   OH214408   5.801   1.282   1.982
 4815TIP3    H114409   5.863   1.209   1.972
 4815TIP3    H214410   5.740   1.271   1.908
 4816TIP3   OH214411   6.912   6.639   0.433
 4816TIP3    H114412   6.922   6.671   0.522
 4816TIP3    H214413   6.891   6.717   0.382
 4817TIP3   OH214414   2.142   1.243   1.006
 4817TIP3    H114415   2.166   1.167   1.059
 4817TIP3    H214416   2.080   1.291   1.059
 4818TIP3   OH214417   5.987   0.351   3.690
 4818TIP3    H114418   5.985   0.445   3.674
 4818TIP3    H214419   6.079   0.327   3.675
 4819TIP3   OH214420   3.565   4.721   1.600
 4819TIP3    H114421   3.477   4.698   1.568
 4819TIP3    H214422   3.558   4.718   1.695
 4820TIP3   OH214423   4.278   0.483   0.468
 4820TIP3    H114424   4.187   0.473   0.498
 4820TIP3    H214425   4.271   0.492   0.373
 4821TIP3   OH214426   3.329   2.578   5.242
 4821TIP3    H114427   3.312   2.500   5.295
 4821TIP3    H214428   3.273   2.567   5.166
 4822TIP3   OH214429   5.286   1.848   1.371
 4822TIP3    H114430   5.284   1.787   1.444
 4822TIP3    H214431   5.195   1.852   1.340
 4823TIP3   OH214432   6.323   3.496   0.371
 4823TIP3    H114433   6.375   3.566   0.408
 4823TIP3    H214434   6.333   3.423   0.433
 4824TIP3   OH214435   2.679   0.206   4.849
 4824TIP3    H114436   2.696   0.283   4.796
 4824TIP3    H214437   2.762   0.158   4.851
 4825TIP3   OH214438   0.252   1.721   3.625
 4825TIP3    H114439   0.343   1.704   3.649
 4825TIP3    H214440   0.201   1.693   3.702
 4826TIP3   OH214441   7.081   6.397   4.167
 4826TIP3    H114442   7.096   6.451   4.089
 4826TIP3    H214443   7.103   6.454   4.240
 4827TIP3   OH214444   1.882   3.022   5.456
 4827TIP3    H114445   1.957   3.024   5.516
 4827TIP3    H214446   1.851   2.931   5.459
 4828TIP3   OH214447   1.838   5.569   4.756
 4828TIP3    H114448   1.815   5.652   4.714
 4828TIP3    H214449   1.872   5.594   4.842
 4829TIP3   OH214450   2.539   4.352   5.197
 4829TIP3    H114451   2.459   4.349   5.144
 4829TIP3    H214452   2.526   4.285   5.264
 4830TIP3   OH214453   0.994   2.648   3.428
 4830TIP3    H114454   0.942   2.706   3.373
 4830TIP3    H214455   0.932   2.582   3.458
 4831TIP3   OH214456   2.685   3.319   5.015
 4831TIP3    H114457   2.654   3.363   4.936
 4831TIP3    H214458   2.775   3.348   5.025
 4832TIP3   OH214459   4.987   0.963   1.217
 4832TIP3    H114460   5.029   0.880   1.240
 4832TIP3    H214461   4.962   1.001   1.301
 4833TIP3   OH214462   1.020   5.621   5.304
 4833TIP3    H114463   0.943   5.675   5.317
 4833TIP3    H214464   0.991   5.532   5.324
 4834TIP3   OH214465   3.642   6.767   0.260
 4834TIP3    H114466   3.692   6.751   0.340
 4834TIP3    H214467   3.709   6.769   0.191
 4835TIP3   OH214468   4.303   5.059   0.395
 4835TIP3    H114469   4.304   5.153   0.374
 4835TIP3    H214470   4.322   5.056   0.489
 4836TIP3   OH214471   6.610   2.032   0.218
 4836TIP3    H114472   6.545   1.962   0.224
 4836TIP3    H214473   6.569   2.098   0.162
 4837TIP3   OH214474   1.581   4.391   2.489
 4837TIP3    H114475   1.573   4.405   2.395
 4837TIP3    H214476   1.673   4.408   2.508
 4838TIP3   OH214477   1.336   4.210   2.589
 4838TIP3    H114478   1.255   4.207   2.538
 4838TIP3    H214479   1.401   4.167   2.534
 4839TIP3   OH214480   1.750   1.478   4.673
 4839TIP3    H114481   1.784   1.391   4.694
 4839TIP3    H214482   1.734   1.476   4.579
 4840TIP3   OH214483   2.600   2.400   4.390
 4840TIP3    H114484   2.692   2.373   4.385
 4840TIP3    H214485   2.594   2.474   4.330
 4841TIP3   OH214486   2.292   5.728   1.224
 4841TIP3    H114487   2.223   5.781   1.264
 4841TIP3    H214488   2.253   5.696   1.143
 4842TIP3   OH214489   5.976   5.550   5.319
 4842TIP3    H114490   5.913   5.619   5.298
 4842TIP3    H214491   6.062   5.593   5.311
 4843TIP3   OH214492   2.843   3.249   1.973
 4843TIP3    H114493   2.840   3.335   1.931
 4843TIP3    H214494   2.928   3.213   1.946
 4844TIP3   OH214495   2.282   4.390   0.884
 4844TIP3    H114496   2.365   4.437   0.882
 4844TIP3    H214497   2.307   4.299   0.898
 4845TIP3   OH214498   1.339   5.404   3.858
 4845TIP3    H114499   1.389   5.367   3.785
 4845TIP3    H214500   1.297   5.329   3.899
 4846TIP3   OH214501   2.046   0.096   0.269
 4846TIP3    H114502   1.950   0.094   0.268
 4846TIP3    H214503   2.068   0.187   0.285
 4847TIP3   OH214504   0.939   1.371   5.167
 4847TIP3    H114505   0.871   1.409   5.223
 4847TIP3    H214506   0.893   1.305   5.114
 4848TIP3   OH214507   5.842   1.035   0.304
 4848TIP3    H114508   5.782   1.102   0.272
 4848TIP3    H214509   5.805   1.008   0.388
 4849TIP3   OH214510   6.005   1.292   2.914
 4849TIP3    H114511   5.950   1.311   2.838
 4849TIP3    H214512   6.085   1.342   2.900
 4850TIP3   OH214513   1.123   5.268   2.021
 4850TIP3    H114514   1.179   5.322   1.966
 4850TIP3    H214515   1.143   5.296   2.110
 4851TIP3   OH214516   2.631   4.672   2.077
 4851TIP3    H114517   2.686   4.741   2.041
 4851TIP3    H214518   2.692   4.602   2.099
 4852TIP3   OH214519   0.745   6.755   3.884
 4852TIP3    H114520   0.806   6.827   3.901
 4852TIP3    H214521   0.700   6.743   3.967
 4853TIP3   OH214522   3.295   1.886   0.071
 4853TIP3    H114523   3.314   1.798   0.103
 4853TIP3    H214524   3.363   1.941   0.111
 4854TIP3   OH214525   3.586   6.797   5.441
 4854TIP3    H114526   3.586   6.730   5.373
 4854TIP3    H214527   3.594   6.749   5.523
 4855TIP3   OH214528   0.002   1.174   1.211
 4855TIP3    H114529   0.016   1.219   1.294
 4855TIP3    H214530  -0.035   1.241   1.153
 4856TIP3   OH214531   6.100   5.596   4.945
 4856TIP3    H114532   6.153   5.524   4.912
 4856TIP3    H214533   6.097   5.659   4.872
 4857TIP3   OH214534   2.078   3.274   1.263
 4857TIP3    H114535   2.092   3.313   1.349
 4857TIP3    H214536   1.996   3.314   1.232
 4858TIP3   OH214537   1.132   2.150   4.200
 4858TIP3    H114538   1.162   2.141   4.109
 4858TIP3    H214539   1.122   2.060   4.230
 4859TIP3   OH214540   6.361   1.796   2.489
 4859TIP3    H114541   6.390   1.751   2.568
 4859TIP3    H214542   6.299   1.736   2.448
 4860TIP3   OH214543   2.424   5.000   4.982
 4860TIP3    H114544   2.512   4.962   4.989
 4860TIP3    H214545   2.368   4.926   4.961
 4861TIP3   OH214546   2.420   4.444   4.454
 4861TIP3    H114547   2.399   4.535   4.474
 4861TIP3    H214548   2.389   4.395   4.530
 4862TIP3   OH214549   0.472   6.454   1.939
 4862TIP3    H114550   0.520   6.507   1.876
 4862TIP3    H214551   0.391   6.430   1.895
 4863TIP3   OH214552   5.438   2.070   1.273
 4863TIP3    H114553   5.378   2.138   1.244
 4863TIP3    H214554   5.381   2.004   1.313
 4864TIP3   OH214555   0.366   1.714   4.981
 4864TIP3    H114556   0.292   1.668   5.020
 4864TIP3    H214557   0.328   1.791   4.940
 4865TIP3   OH214558   0.650   5.038   2.654
 4865TIP3    H114559   0.736   5.041   2.697
 4865TIP3    H214560   0.590   5.010   2.724
 4866TIP3   OH214561   4.851   2.097   4.233
 4866TIP3    H114562   4.795   2.126   4.161
 4866TIP3    H214563   4.872   2.006   4.213
 4867TIP3   OH214564   2.622   3.338   1.679
 4867TIP3    H114565   2.694   3.369   1.734
 4867TIP3    H214566   2.549   3.396   1.700
 4868TIP3   OH214567   3.273   0.719   0.709
 4868TIP3    H114568   3.309   0.711   0.621
 4868TIP3    H214569   3.187   0.676   0.705
 4869TIP3   OH214570   2.909   4.930   4.208
 4869TIP3    H114571   2.978   4.994   4.227
 4869TIP3    H214572   2.937   4.851   4.255
 4870TIP3   OH214573   2.655   2.902   5.556
 4870TIP3    H114574   2.743   2.907   5.518
 4870TIP3    H214575   2.670   2.901   5.650
 4871TIP3   OH214576   2.020   5.134   1.936
 4871TIP3    H114577   1.935   5.177   1.928
 4871TIP3    H214578   2.002   5.052   1.982
 4872TIP3   OH214579   0.840   6.089   4.906
 4872TIP3    H114580   0.917   6.122   4.861
 4872TIP3    H214581   0.871   6.011   4.952
 4873TIP3   OH214582   0.849   0.294   4.259
 4873TIP3    H114583   0.936   0.316   4.292
 4873TIP3    H214584   0.822   0.370   4.208
 4874TIP3   OH214585   5.153   5.239   0.225
 4874TIP3    H114586   5.243   5.241   0.258
 4874TIP3    H214587   5.123   5.149   0.241
 4875TIP3   OH214588   4.150   6.692   3.558
 4875TIP3    H114589   4.139   6.765   3.619
 4875TIP3    H214590   4.125   6.728   3.473
 4876TIP3   OH214591   2.795   3.076   3.478
 4876TIP3    H114592   2.838   3.031   3.552
 4876TIP3    H214593   2.735   3.010   3.443
 4877TIP3   OH214594   2.333   5.238   5.098
 4877TIP3    H114595   2.386   5.184   5.039
 4877TIP3    H214596   2.257   5.262   5.046
 4878TIP3   OH214597   7.094   6.192   2.430
 4878TIP3    H114598   7.000   6.199   2.449
 4878TIP3    H214599   7.134   6.169   2.514
 4879TIP3   OH214600   0.257   5.187   0.550
 4879TIP3    H114601   0.269   5.269   0.502
 4879TIP3    H214602   0.170   5.195   0.589
 4880TIP3   OH214603   0.446   1.325   5.511
 4880TIP3    H114604   0.410   1.414   5.510
 4880TIP3    H214605   0.444   1.297   5.419
 4881TIP3   OH214606   0.115   5.000   3.958
 4881TIP3    H114607   0.032   4.977   4.000
 4881TIP3    H214608   0.154   4.916   3.933
 4882TIP3   OH214609   3.976   0.935   0.250
 4882TIP3    H114610   3.890   0.916   0.212
 4882TIP3    H214611   4.035   0.873   0.209
 4883TIP3   OH214612   4.706   5.794   2.341
 4883TIP3    H114613   4.692   5.700   2.332
 4883TIP3    H214614   4.763   5.802   2.418
 4884TIP3   OH214615   0.041   6.616   4.101
 4884TIP3    H114616   0.109   6.553   4.126
 4884TIP3    H214617   0.038   6.611   4.005
 4885TIP3   OH214618   3.391   4.961   5.279
 4885TIP3    H114619   3.304   4.983   5.314
 4885TIP3    H214620   3.383   4.973   5.184
 4886TIP3   OH214621   6.333   0.970   2.928
 4886TIP3    H114622   6.401   1.014   2.979
 4886TIP3    H214623   6.253   0.982   2.980
 4887TIP3   OH214624   3.364   2.683   0.241
 4887TIP3    H114625   3.440   2.660   0.187
 4887TIP3    H214626   3.335   2.600   0.278
 4888TIP3   OH214627   2.626   2.416   4.658
 4888TIP3    H114628   2.617   2.405   4.563
 4888TIP3    H214629   2.702   2.473   4.669
 4889TIP3   OH214630   7.114   5.866   3.707
 4889TIP3    H114631   7.050   5.937   3.714
 4889TIP3    H214632   7.173   5.894   3.637
 4890TIP3   OH214633   5.924   6.285   0.871
 4890TIP3    H114634   6.010   6.307   0.835
 4890TIP3    H214635   5.933   6.297   0.966
 4891TIP3   OH214636   2.011   2.174   0.240
 4891TIP3    H114637   2.063   2.180   0.320
 4891TIP3    H214638   2.000   2.080   0.225
 4892TIP3   OH214639   4.353   0.940   0.198
 4892TIP3    H114640   4.410   0.992   0.253
 4892TIP3    H214641   4.409   0.868   0.168
 4893TIP3   OH214642   2.760   1.027   3.494
 4893TIP3    H114643   2.777   0.934   3.504
 4893TIP3    H214644   2.847   1.068   3.499
 4894TIP3   OH214645   6.062   4.735   2.569
 4894TIP3    H114646   6.041   4.690   2.487
 4894TIP3    H214647   6.021   4.682   2.637
 4895TIP3   OH214648   2.672   3.116   4.723
 4895TIP3    H114649   2.747   3.171   4.748
 4895TIP3    H214650   2.600   3.178   4.713
 4896TIP3   OH214651   3.195   0.470   3.006
 4896TIP3    H114652   3.157   0.488   3.092
 4896TIP3    H214653   3.165   0.543   2.951
 4897TIP3   OH214654   2.606   2.190  -0.021
 4897TIP3    H114655   2.679   2.129  -0.025
 4897TIP3    H214656   2.593   2.205   0.073
 4898TIP3   OH214657   0.417   4.616   5.364
 4898TIP3    H114658   0.325   4.627   5.388
 4898TIP3    H214659   0.417   4.614   5.268
 4899TIP3   OH214660   2.458   5.346   3.770
 4899TIP3    H114661   2.364   5.347   3.749
 4899TIP3    H214662   2.501   5.316   3.690
 4900TIP3   OH214663   3.183   3.691   5.455
 4900TIP3    H114664   3.173   3.750   5.530
 4900TIP3    H214665   3.110   3.713   5.397
 4901TIP3   OH214666   3.556   5.866   3.908
 4901TIP3    H114667   3.581   5.776   3.888
 4901TIP3    H214668   3.618   5.894   3.975
 4902TIP3   OH214669   6.971   6.110   3.649
 4902TIP3    H114670   6.992   6.150   3.565
 4902TIP3    H214671   6.881   6.139   3.667
 4903TIP3   OH214672   6.876   5.770   3.519
 4903TIP3    H114673   6.910   5.764   3.608
 4903TIP3    H214674   6.955   5.770   3.464
 4904TIP3   OH214675   6.301   1.285   0.346
 4904TIP3    H114676   6.232   1.244   0.293
 4904TIP3    H214677   6.314   1.225   0.418
 4905TIP3   OH214678   1.211   5.850   3.156
 4905TIP3    H114679   1.273   5.902   3.105
 4905TIP3    H214680   1.183   5.780   3.097
 4906TIP3   OH214681   3.651   0.215   5.355
 4906TIP3    H114682   3.715   0.209   5.426
 4906TIP3    H214683   3.650   0.307   5.330
 4907TIP3   OH214684   1.896   5.507   1.664
 4907TIP3    H114685   1.973   5.461   1.698
 4907TIP3    H214686   1.841   5.522   1.741
 4908TIP3   OH214687   0.750   0.861   4.180
 4908TIP3    H114688   0.680   0.818   4.131
 4908TIP3    H214689   0.813   0.792   4.198
 4909TIP3   OH214690   6.969   1.164   5.309
 4909TIP3    H114691   7.026   1.091   5.329
 4909TIP3    H214692   7.018   1.218   5.247
 4910TIP3   OH214693   1.581   5.174   0.698
 4910TIP3    H114694   1.568   5.215   0.612
 4910TIP3    H214695   1.623   5.242   0.751
 4911TIP3   OH214696   1.362   4.581   4.179
 4911TIP3    H114697   1.381   4.499   4.227
 4911TIP3    H214698   1.448   4.620   4.165
 4912TIP3   OH214699   2.221   0.677   2.981
 4912TIP3    H114700   2.140   0.690   2.932
 4912TIP3    H214701   2.208   0.726   3.063
 4913TIP3   OH214702   6.983   2.099   0.061
 4913TIP3    H114703   6.933   2.142  -0.008
 4913TIP3    H214704   7.056   2.158   0.078
 4914TIP3   OH214705   0.891   6.639   5.845
 4914TIP3    H114706   0.968   6.674   5.801
 4914TIP3    H214707   0.888   6.547   5.820
 4915TIP3   OH214708   0.348   6.752   3.590
 4915TIP3    H114709   0.287   6.685   3.622
 4915TIP3    H214710   0.314   6.833   3.627
 4916TIP3   OH214711   4.519   0.259   1.975
 4916TIP3    H114712   4.577   0.201   2.023
 4916TIP3    H214713   4.468   0.200   1.918
 4917TIP3   OH214714   3.546   2.969   2.173
 4917TIP3    H114715   3.523   2.921   2.093
 4917TIP3    H214716   3.483   3.041   2.176
 4918TIP3   OH214717   1.438   6.365   1.647
 4918TIP3    H114718   1.418   6.390   1.557
 4918TIP3    H214719   1.399   6.435   1.700
 4919TIP3   OH214720   3.104   3.571   1.208
 4919TIP3    H114721   3.012   3.554   1.224
 4919TIP3    H214722   3.124   3.526   1.126
 4920TIP3   OH214723   2.563   1.183   3.124
 4920TIP3    H114724   2.501   1.131   3.175
 4920TIP3    H214725   2.612   1.232   3.190
 4921TIP3   OH214726   6.010   2.271   0.513
 4921TIP3    H114727   6.081   2.324   0.548
 4921TIP3    H214728   5.931   2.320   0.536
 4922TIP3   OH214729   4.511   1.444   1.350
 4922TIP3    H114730   4.468   1.475   1.270
 4922TIP3    H214731   4.467   1.491   1.421
 4923TIP3   OH214732   1.396   2.666   1.147
 4923TIP3    H114733   1.460   2.612   1.101
 4923TIP3    H214734   1.360   2.724   1.080
 4924TIP3   OH214735   5.551   5.028   0.812
 4924TIP3    H114736   5.532   4.957   0.874
 4924TIP3    H214737   5.594   5.095   0.864
 4925TIP3   OH214738   5.878   1.198   5.069
 4925TIP3    H114739   5.844   1.258   5.003
 4925TIP3    H214740   5.817   1.125   5.069
 4926TIP3   OH214741   1.713   1.158   4.630
 4926TIP3    H114742   1.704   1.063   4.638
 4926TIP3    H214743   1.631   1.193   4.665
 4927TIP3   OH214744   6.888   1.430   0.928
 4927TIP3    H114745   6.874   1.358   0.867
 4927TIP3    H214746   6.821   1.417   0.995
 4928TIP3   OH214747   6.691   3.349   4.944
 4928TIP3    H114748   6.610   3.299   4.951
 4928TIP3    H214749   6.758   3.284   4.923
 4929TIP3   OH214750   7.019   3.275   1.256
 4929TIP3    H114751   7.096   3.223   1.278
 4929TIP3    H214752   7.054   3.353   1.214
 4930TIP3   OH214753   3.842   3.471   2.101
 4930TIP3    H114754   3.760   3.440   2.138
 4930TIP3    H214755   3.835   3.455   2.007
 4931TIP3   OH214756   5.417   2.256   4.900
 4931TIP3    H114757   5.447   2.188   4.839
 4931TIP3    H214758   5.486   2.322   4.899
 4932TIP3   OH214759   0.335   0.587   4.486
 4932TIP3    H114760   0.346   0.523   4.416
 4932TIP3    H214761   0.257   0.637   4.460
 4933TIP3   OH214762   5.676   0.234   5.345
 4933TIP3    H114763   5.622   0.199   5.274
 4933TIP3    H214764   5.627   0.310   5.376
 4934TIP3   OH214765   2.407   4.702   4.539
 4934TIP3    H114766   2.321   4.743   4.548
 4934TIP3    H214767   2.466   4.775   4.521
 4935TIP3   OH214768   5.399   4.960   4.302
 4935TIP3    H114769   5.317   5.004   4.280
 4935TIP3    H214770   5.399   4.955   4.397
 4936TIP3   OH214771   3.024   5.451   3.800
 4936TIP3    H114772   3.011   5.469   3.893
 4936TIP3    H214773   3.014   5.537   3.757
 4937TIP3   OH214774   4.035   3.933   1.596
 4937TIP3    H114775   4.040   4.002   1.663
 4937TIP3    H214776   4.119   3.887   1.604
 4938TIP3   OH214777   6.152   6.397   0.781
 4938TIP3    H114778   6.129   6.465   0.844
 4938TIP3    H214779   6.134   6.436   0.695
 4939TIP3   OH214780   1.686   0.610   4.398
 4939TIP3    H114781   1.645   0.644   4.478
 4939TIP3    H214782   1.758   0.671   4.380
 4940TIP3   OH214783   4.349   6.774   1.908
 4940TIP3    H114784   4.256   6.770   1.889
 4940TIP3    H214785   4.366   6.867   1.927
 4941TIP3   OH214786   1.555   4.143   4.832
 4941TIP3    H114787   1.460   4.137   4.818
 4941TIP3    H214788   1.570   4.094   4.913
 4942TIP3   OH214789   5.515   4.111   1.585
 4942TIP3    H114790   5.561   4.081   1.507
 4942TIP3    H214791   5.480   4.032   1.625
 4943TIP3   OH214792   6.573   5.611   1.153
 4943TIP3    H114793   6.541   5.523   1.174
 4943TIP3    H214794   6.516   5.640   1.082
 4944TIP3   OH214795   1.081   6.691   4.654
 4944TIP3    H114796   1.050   6.782   4.646
 4944TIP3    H214797   1.026   6.643   4.592
 4945TIP3   OH214798   6.716   2.712   3.253
 4945TIP3    H114799   6.792   2.703   3.310
 4945TIP3    H214800   6.670   2.629   3.260
 4946TIP3   OH214801   0.150   4.165   0.150
 4946TIP3    H114802   0.225   4.214   0.115
 4946TIP3    H214803   0.140   4.198   0.239
 4947TIP3   OH214804   3.976   1.861   4.455
 4947TIP3    H114805   3.891   1.890   4.488
 4947TIP3    H214806   3.962   1.846   4.362
 4948TIP3   OH214807   4.944   5.566   5.611
 4948TIP3    H114808   4.893   5.643   5.586
 4948TIP3    H214809   4.963   5.579   5.704
 4949TIP3   OH214810   6.351   2.014   0.311
 4949TIP3    H114811   6.277   1.962   0.342
 4949TIP3    H214812   6.311   2.084   0.259
 4950TIP3   OH214813   1.180   0.657   3.009
 4950TIP3    H114814   1.201   0.627   2.920
 4950TIP3    H214815   1.235   0.735   3.020
 4951TIP3   OH214816   1.063   0.395   1.392
 4951TIP3    H114817   0.972   0.423   1.398
 4951TIP3    H214818   1.082   0.396   1.298
 4952TIP3   OH214819   0.265   4.645   5.665
 4952TIP3    H114820   0.178   4.659   5.628
 4952TIP3    H214821   0.252   4.576   5.731
 4953TIP3   OH214822   0.775   1.269   3.271
 4953TIP3    H114823   0.697   1.217   3.288
 4953TIP3    H214824   0.839   1.239   3.335
 4954TIP3   OH214825   5.620   0.123   0.905
 4954TIP3    H114826   5.599   0.096   0.816
 4954TIP3    H214827   5.536   0.142   0.946
 4955TIP3   OH214828   1.518   0.282   3.375
 4955TIP3    H114829   1.426   0.259   3.388
 4955TIP3    H214830   1.562   0.248   3.453
 4956TIP3   OH214831   2.830   2.042   5.045
 4956TIP3    H114832   2.736   2.026   5.052
 4956TIP3    H214833   2.846   2.116   5.104
 4957TIP3   OH214834   2.409   0.393   3.028
 4957TIP3    H114835   2.504   0.383   3.025
 4957TIP3    H214836   2.379   0.373   2.939
 4958TIP3   OH214837   2.840   2.631   4.972
 4958TIP3    H114838   2.847   2.641   4.877
 4958TIP3    H214839   2.809   2.717   5.002
 4959TIP3   OH214840   0.490   2.239   5.662
 4959TIP3    H114841   0.422   2.298   5.628
 4959TIP3    H214842   0.507   2.271   5.751
 4960TIP3   OH214843   4.471   3.285   4.745
 4960TIP3    H114844   4.445   3.283   4.653
 4960TIP3    H214845   4.432   3.206   4.783
 4961TIP3   OH214846   5.155   4.326   3.804
 4961TIP3    H114847   5.251   4.322   3.811
 4961TIP3    H214848   5.124   4.285   3.885
 4962TIP3   OH214849   4.346   0.138   1.795
 4962TIP3    H114850   4.286   0.213   1.788
 4962TIP3    H214851   4.298   0.074   1.848
 4963TIP3   OH214852   2.279   2.865   1.142
 4963TIP3    H114853   2.238   2.792   1.188
 4963TIP3    H214854   2.216   2.889   1.075
 4964TIP3   OH214855   0.799   2.514   3.129
 4964TIP3    H114856   0.875   2.523   3.071
 4964TIP3    H214857   0.796   2.596   3.177
 4965TIP3   OH214858   6.700   2.511   0.572
 4965TIP3    H114859   6.628   2.571   0.553
 4965TIP3    H214860   6.683   2.435   0.517
 4966TIP3   OH214861   1.049   5.891   0.244
 4966TIP3    H114862   1.076   5.803   0.271
 4966TIP3    H214863   0.998   5.878   0.165
 4967TIP3   OH214864   6.996   5.314   5.049
 4967TIP3    H114865   6.938   5.390   5.055
 4967TIP3    H214866   7.016   5.307   4.955
 4968TIP3   OH214867   3.376   4.669   3.190
 4968TIP3    H114868   3.410   4.744   3.238
 4968TIP3    H214869   3.453   4.626   3.154
 4969TIP3   OH214870   3.894   2.481   1.301
 4969TIP3    H114871   3.934   2.460   1.385
 4969TIP3    H214872   3.871   2.574   1.308
 4970TIP3   OH214873   1.243   2.431   3.897
 4970TIP3    H114874   1.312   2.371   3.869
 4970TIP3    H214875   1.254   2.439   3.992
 4971TIP3   OH214876   6.946   2.905   1.494
 4971TIP3    H114877   6.928   2.942   1.408
 4971TIP3    H214878   6.862   2.870   1.523
 4972TIP3   OH214879   0.729   0.320   5.653
 4972TIP3    H114880   0.734   0.230   5.620
 4972TIP3    H214881   0.636   0.343   5.644
 4973TIP3   OH214882   1.199   6.258   3.447
 4973TIP3    H114883   1.286   6.257   3.487
 4973TIP3    H214884   1.197   6.179   3.392
 4974TIP3   OH214885   6.152   0.772   5.448
 4974TIP3    H114886   6.213   0.778   5.375
 4974TIP3    H214887   6.158   0.681   5.477
 4975TIP3   OH214888   2.813   2.478   5.653
 4975TIP3    H114889   2.846   2.402   5.702
 4975TIP3    H214890   2.733   2.503   5.700
 4976TIP3   OH214891   0.471   0.244   4.765
 4976TIP3    H114892   0.486   0.254   4.859
 4976TIP3    H214893   0.376   0.257   4.755
 4977TIP3   OH214894   0.681   6.042   3.225
 4977TIP3    H114895   0.680   5.946   3.218
 4977TIP3    H214896   0.762   6.068   3.181
 4978TIP3   OH214897   5.270   4.897   3.360
 4978TIP3    H114898   5.214   4.846   3.301
 4978TIP3    H214899   5.257   4.988   3.333
 4979TIP3   OH214900   0.784   1.719   2.995
 4979TIP3    H114901   0.791   1.766   2.912
 4979TIP3    H214902   0.857   1.658   2.994
 4980TIP3   OH214903   3.190   6.021   4.609
 4980TIP3    H114904   3.221   5.940   4.650
 4980TIP3    H214905   3.095   6.019   4.622
 4981TIP3   OH214906   1.134   5.324   2.642
 4981TIP3    H114907   1.040   5.311   2.657
 4981TIP3    H214908   1.171   5.335   2.730
 4982TIP3   OH214909   2.875   0.961   1.020
 4982TIP3    H114910   2.936   1.014   1.072
 4982TIP3    H214911   2.932   0.911   0.961
 4983TIP3   OH214912   6.658   3.464   3.727
 4983TIP3    H114913   6.704   3.540   3.691
 4983TIP3    H214914   6.568   3.474   3.698
 4984TIP3   OH214915   5.525   4.520   4.999
 4984TIP3    H114916   5.482   4.544   5.080
 4984TIP3    H214917   5.576   4.597   4.974
 4985TIP3   OH214918   0.209   3.429   3.861
 4985TIP3    H114919   0.154   3.353   3.842
 4985TIP3    H214920   0.228   3.468   3.776
 4986TIP3   OH214921   6.506   5.623   4.370
 4986TIP3    H114922   6.544   5.672   4.297
 4986TIP3    H214923   6.420   5.595   4.337
 4987TIP3   OH214924   3.809   2.566   1.994
 4987TIP3    H114925   3.879   2.586   2.055
 4987TIP3    H214926   3.854   2.553   1.910
 4988TIP3   OH214927   4.307   3.443   3.869
 4988TIP3    H114928   4.374   3.505   3.839
 4988TIP3    H214929   4.282   3.475   3.955
 4989TIP3   OH214930   0.745   6.615   3.125
 4989TIP3    H114931   0.825   6.565   3.136
 4989TIP3    H214932   0.677   6.563   3.168
 4990TIP3   OH214933   3.275   3.259   2.846
 4990TIP3    H114934   3.235   3.302   2.770
 4990TIP3    H214935   3.353   3.217   2.811
 4991TIP3   OH214936   3.786   5.113   1.470
 4991TIP3    H114937   3.758   5.197   1.507
 4991TIP3    H214938   3.752   5.048   1.532
 4992TIP3   OH214939   1.607   6.414   0.888
 4992TIP3    H114940   1.672   6.347   0.911
 4992TIP3    H214941   1.594   6.462   0.970
 4993TIP3   OH214942   1.679   2.853   0.913
 4993TIP3    H114943   1.640   2.766   0.901
 4993TIP3    H214944   1.747   2.858   0.846
 4994TIP3   OH214945   0.167   2.105   0.180
 4994TIP3    H114946   0.203   2.017   0.190
 4994TIP3    H214947   0.101   2.112   0.249
 4995TIP3   OH214948   1.867   2.160   5.125
 4995TIP3    H114949   1.874   2.197   5.213
 4995TIP3    H214950   1.831   2.073   5.138
 4996TIP3   OH214951   0.582   5.983   0.376
 4996TIP3    H114952   0.631   5.904   0.401
 4996TIP3    H214953   0.569   6.030   0.458
 4997TIP3   OH214954   0.920   1.383   0.853
 4997TIP3    H114955   1.000   1.334   0.869
 4997TIP3    H214956   0.853   1.317   0.841
 4998TIP3   OH214957   2.512   3.059   3.758
 4998TIP3    H114958   2.429   3.024   3.727
 4998TIP3    H214959   2.520   3.026   3.848
 4999TIP3   OH214960   3.471   2.782   3.695
 4999TIP3    H114961   3.479   2.877   3.705
 4999TIP3    H214962   3.559   2.749   3.713
 5000TIP3   OH214963   2.569   0.810   5.481
 5000TIP3    H114964   2.584   0.847   5.568
 5000TIP3    H214965   2.574   0.715   5.493
 5001TIP3   OH214966   7.186   0.274   0.183
 5001TIP3    H114967   7.279   0.294   0.195
 5001TIP3    H214968   7.140   0.347   0.223
 5002TIP3   OH214969   5.328   3.667   1.453
 5002TIP3    H114970   5.409   3.631   1.418
 5002TIP3    H214971   5.297   3.727   1.385
 5003TIP3   OH214972   0.484   2.151   0.521
 5003TIP3    H114973   0.551   2.200   0.569
 5003TIP3    H214974   0.409   2.149   0.580
 5004TIP3   OH214975   4.624   0.335   5.828
 5004TIP3    H114976   4.609   0.378   5.743
 5004TIP3    H214977   4.537   0.305   5.855
 5005TIP3   OH214978   6.418   1.772   4.753
 5005TIP3    H114979   6.419   1.744   4.844
 5005TIP3    H214980   6.375   1.858   4.755
 5006TIP3   OH214981   2.057   0.431   1.160
 5006TIP3    H114982   2.131   0.414   1.102
 5006TIP3    H214983   2.045   0.526   1.156
 5007TIP3   OH214984   5.306   4.263   3.034
 5007TIP3    H114985   5.241   4.195   3.018
 5007TIP3    H214986   5.259   4.332   3.079
 5008TIP3   OH214987   2.128   3.826   5.244
 5008TIP3    H114988   2.186   3.902   5.252
 5008TIP3    H214989   2.080   3.840   5.163
 5009TIP3   OH214990   1.701   4.756   4.588
 5009TIP3    H114991   1.700   4.827   4.524
 5009TIP3    H214992   1.783   4.710   4.571
 5010TIP3   OH214993   5.849   1.389   2.720
 5010TIP3    H114994   5.820   1.480   2.720
 5010TIP3    H214995   5.844   1.362   2.628
 5011TIP3   OH214996   2.994   5.965   1.034
 5011TIP3    H114997   3.059   5.976   1.103
 5011TIP3    H214998   2.937   6.041   1.042
 5012TIP3   OH214999   0.967   4.650   1.972
 5012TIP3    H115000   1.001   4.561   1.967
 5012TIP3    H215001   0.964   4.670   2.066
 5013TIP3   OH215002   2.621   3.408   2.819
 5013TIP3    H115003   2.696   3.393   2.876
 5013TIP3    H215004   2.554   3.347   2.852
 5014TIP3   OH215005   0.294   2.076   4.591
 5014TIP3    H115006   0.230   2.009   4.568
 5014TIP3    H215007   0.294   2.079   4.686
 5015TIP3   OH215008   1.964   0.338   5.818
 5015TIP3    H115009   1.969   0.256   5.868
 5015TIP3    H215010   1.876   0.337   5.780
 5016TIP3   OH215011   2.658   2.712   3.873
 5016TIP3    H115012   2.584   2.654   3.888
 5016TIP3    H215013   2.634   2.794   3.915
 5017TIP3   OH215014   7.108   6.190   0.840
 5017TIP3    H115015   7.079   6.281   0.830
 5017TIP3    H215016   7.061   6.143   0.771
 5018TIP3   OH215017   6.939   1.896   3.120
 5018TIP3    H115018   6.849   1.917   3.147
 5018TIP3    H215019   6.984   1.874   3.201
 5019TIP3   OH215020   7.278   5.209   3.603
 5019TIP3    H115021   7.191   5.240   3.628
 5019TIP3    H215022   7.261   5.126   3.558
 5020TIP3   OH215023   2.985   4.755   4.401
 5020TIP3    H115024   2.957   4.664   4.394
 5020TIP3    H215025   3.043   4.756   4.477
 5021TIP3   OH215026   3.371   0.362   5.159
 5021TIP3    H115027   3.463   0.378   5.140
 5021TIP3    H215028   3.358   0.398   5.247
 5022TIP3   OH215029   3.482   1.268   0.427
 5022TIP3    H115030   3.480   1.286   0.521
 5022TIP3    H215031   3.476   1.173   0.421
 5023TIP3   OH215032   6.594   3.800   2.283
 5023TIP3    H115033   6.547   3.849   2.351
 5023TIP3    H215034   6.573   3.847   2.202
 5024TIP3   OH215035   4.197   4.621   0.675
 5024TIP3    H115036   4.266   4.668   0.630
 5024TIP3    H215037   4.159   4.685   0.736
 5025TIP3   OH215038   4.717   0.427   0.535
 5025TIP3    H115039   4.779   0.498   0.549
 5025TIP3    H215040   4.745   0.358   0.595
 5026TIP3   OH215041   1.129   4.655   3.787
 5026TIP3    H115042   1.060   4.626   3.846
 5026TIP3    H215043   1.178   4.575   3.766
 5027TIP3   OH215044   3.159   0.485   5.759
 5027TIP3    H115045   3.160   0.533   5.842
 5027TIP3    H215046   3.066   0.485   5.734
 5028TIP3   OH215047   5.375   2.265   2.684
 5028TIP3    H115048   5.355   2.179   2.720
 5028TIP3    H215049   5.290   2.306   2.668
 5029TIP3   OH215050   6.746   5.626   5.294
 5029TIP3    H115051   6.838   5.630   5.320
 5029TIP3    H215052   6.737   5.697   5.230
 5030TIP3   OH215053   2.712   6.492   2.584
 5030TIP3    H115054   2.633   6.534   2.620
 5030TIP3    H215055   2.785   6.540   2.624
 5031TIP3   OH215056   1.823   4.369   3.585
 5031TIP3    H115057   1.835   4.394   3.677
 5031TIP3    H215058   1.812   4.274   3.588
 5032TIP3   OH215059   4.265   1.272   4.284
 5032TIP3    H115060   4.308   1.216   4.348
 5032TIP3    H215061   4.317   1.263   4.204
 5033TIP3   OH215062   6.309   5.827   0.647
 5033TIP3    H115063   6.238   5.884   0.676
 5033TIP3    H215064   6.389   5.874   0.669
 5034TIP3   OH215065   6.584   6.620   1.966
 5034TIP3    H115066   6.637   6.679   2.020
 5034TIP3    H215067   6.612   6.532   1.993
 5035TIP3   OH215068   1.025  -0.013   5.767
 5035TIP3    H115069   0.988  -0.051   5.846
 5035TIP3    H215070   1.072   0.065   5.797
 5036TIP3   OH215071   2.013   2.014   2.930
 5036TIP3    H115072   1.991   2.106   2.914
 5036TIP3    H215073   2.108   2.010   2.916
 5037TIP3   OH215074   6.228   1.540   2.432
 5037TIP3    H115075   6.219   1.450   2.400
 5037TIP3    H215076   6.205   1.595   2.357
 5038TIP3   OH215077   6.620   6.471   5.631
 5038TIP3    H115078   6.634   6.560   5.664
 5038TIP3    H215079   6.529   6.452   5.651
 5039TIP3   OH215080   6.378   3.912   4.226
 5039TIP3    H115081   6.473   3.924   4.225
 5039TIP3    H215082   6.363   3.851   4.298
 5040TIP3   OH215083   4.322   0.476   5.890
 5040TIP3    H115084   4.328   0.440   5.802
 5040TIP3    H215085   4.309   0.570   5.877
 5041TIP3   OH215086   0.861   3.269   3.614
 5041TIP3    H115087   0.878   3.344   3.558
 5041TIP3    H215088   0.788   3.297   3.670
 5042TIP3   OH215089   6.235   1.456   0.953
 5042TIP3    H115090   6.144   1.487   0.946
 5042TIP3    H215091   6.253   1.457   1.047
 5043TIP3   OH215092   6.929   4.404   2.415
 5043TIP3    H115093   6.958   4.315   2.396
 5043TIP3    H215094   6.882   4.396   2.499
 5044TIP3   OH215095   5.917   5.724   4.201
 5044TIP3    H115096   5.959   5.796   4.155
 5044TIP3    H215097   5.867   5.765   4.271
 5045TIP3   OH215098   2.254   0.210   0.593
 5045TIP3    H115099   2.163   0.193   0.616
 5045TIP3    H215100   2.303   0.138   0.633
 5046TIP3   OH215101   1.638   6.699   3.387
 5046TIP3    H115102   1.579   6.670   3.317
 5046TIP3    H215103   1.725   6.677   3.355
 5047TIP3   OH215104   2.448   4.006   1.443
 5047TIP3    H115105   2.473   4.061   1.517
 5047TIP3    H215106   2.429   4.068   1.372
 5048TIP3   OH215107   6.534   1.508   2.484
 5048TIP3    H115108   6.464   1.490   2.422
 5048TIP3    H215109   6.499   1.578   2.539
 5049TIP3   OH215110   5.359   1.504   3.279
 5049TIP3    H115111   5.307   1.427   3.258
 5049TIP3    H215112   5.435   1.499   3.221
 5050TIP3   OH215113   1.673   4.304   3.008
 5050TIP3    H115114   1.668   4.233   2.945
 5050TIP3    H215115   1.745   4.280   3.066
 5051TIP3   OH215116   1.292   2.229   5.221
 5051TIP3    H115117   1.255   2.277   5.147
 5051TIP3    H215118   1.257   2.141   5.213
 5052TIP3   OH215119   1.247   5.912   0.578
 5052TIP3    H115120   1.173   5.967   0.604
 5052TIP3    H215121   1.238   5.903   0.483
 5053TIP3   OH215122   2.802   5.928   4.911
 5053TIP3    H115123   2.814   5.845   4.865
 5053TIP3    H215124   2.870   5.986   4.875
 5054TIP3   OH215125   1.694   3.295   0.378
 5054TIP3    H115126   1.736   3.210   0.383
 5054TIP3    H215127   1.632   3.296   0.451
 5055TIP3   OH215128   5.382   3.239   3.936
 5055TIP3    H115129   5.381   3.324   3.980
 5055TIP3    H215130   5.298   3.199   3.960
 5056TIP3   OH215131   7.140   0.063   2.953
 5056TIP3    H115132   7.180   0.137   2.999
 5056TIP3    H215133   7.169   0.072   2.862
 5057TIP3   OH215134   1.462   2.229   3.438
 5057TIP3    H115135   1.469   2.320   3.466
 5057TIP3    H215136   1.379   2.198   3.474
 5058TIP3   OH215137   5.599   6.456   0.896
 5058TIP3    H115138   5.646   6.407   0.828
 5058TIP3    H215139   5.652   6.445   0.974
 5059TIP3   OH215140   1.330   5.377   2.442
 5059TIP3    H115141   1.293   5.446   2.387
 5059TIP3    H215142   1.265   5.361   2.510
 5060TIP3   OH215143   1.019   1.966   5.268
 5060TIP3    H115144   1.045   1.899   5.332
 5060TIP3    H215145   0.989   1.916   5.192
 5061TIP3   OH215146   2.984   0.093   0.462
 5061TIP3    H115147   2.919   0.052   0.520
 5061TIP3    H215148   3.064   0.043   0.477
 5062TIP3   OH215149   4.634   1.719   0.415
 5062TIP3    H115150   4.649   1.809   0.444
 5062TIP3    H215151   4.581   1.680   0.485
 5063TIP3   OH215152   4.072   2.634   0.285
 5063TIP3    H115153   4.071   2.604   0.376
 5063TIP3    H215154   4.022   2.569   0.237
 5064TIP3   OH215155   1.854   4.111   4.760
 5064TIP3    H115156   1.805   4.032   4.784
 5064TIP3    H215157   1.793   4.162   4.707
 5065TIP3   OH215158   4.968   3.170   0.220
 5065TIP3    H115159   5.044   3.157   0.162
 5065TIP3    H215160   5.006   3.185   0.306
 5066TIP3   OH215161   0.796   5.448   4.367
 5066TIP3    H115162   0.753   5.381   4.420
 5066TIP3    H215163   0.797   5.526   4.422
 5067TIP3   OH215164   0.438   2.639   2.900
 5067TIP3    H115165   0.438   2.613   2.992
 5067TIP3    H215166   0.346   2.637   2.874
 5068TIP3   OH215167   6.019   1.006   4.247
 5068TIP3    H115168   6.064   0.997   4.163
 5068TIP3    H215169   5.928   0.987   4.227
 5069TIP3   OH215170   4.338   3.751   5.079
 5069TIP3    H115171   4.314   3.828   5.027
 5069TIP3    H215172   4.417   3.779   5.127
 5070TIP3   OH215173   1.621   4.870   2.635
 5070TIP3    H115174   1.584   4.938   2.579
 5070TIP3    H215175   1.620   4.791   2.581
 5071TIP3   OH215176   4.517   4.767   4.402
 5071TIP3    H115177   4.585   4.804   4.347
 5071TIP3    H215178   4.564   4.722   4.472
 5072TIP3   OH215179   3.552   6.121   2.044
 5072TIP3    H115180   3.541   6.203   2.091
 5072TIP3    H215181   3.644   6.120   2.018
 5073TIP3   OH215182   2.221   2.201   2.090
 5073TIP3    H115183   2.151   2.169   2.148
 5073TIP3    H215184   2.178   2.214   2.006
 5074TIP3   OH215185   2.523   6.271   3.669
 5074TIP3    H115186   2.460   6.329   3.711
 5074TIP3    H215187   2.513   6.187   3.715
 5075TIP3   OH215188   2.816   4.202   3.772
 5075TIP3    H115189   2.759   4.190   3.696
 5075TIP3    H215190   2.829   4.296   3.778
 5076TIP3   OH215191   3.135   3.113   4.719
 5076TIP3    H115192   3.177   3.151   4.642
 5076TIP3    H215193   3.191   3.138   4.792
 5077TIP3   OH215194   5.432   3.950   4.679
 5077TIP3    H115195   5.440   4.001   4.598
 5077TIP3    H215196   5.517   3.958   4.722
 5078TIP3   OH215197   1.991   5.683   1.165
 5078TIP3    H115198   1.973   5.691   1.259
 5078TIP3    H215199   1.920   5.628   1.132
 5079TIP3   OH215200   4.768   5.853   3.247
 5079TIP3    H115201   4.727   5.938   3.267
 5079TIP3    H215202   4.697   5.801   3.211
 5080TIP3   OH215203   7.072   3.877   4.587
 5080TIP3    H115204   7.109   3.877   4.499
 5080TIP3    H215205   7.089   3.789   4.620
 5081TIP3   OH215206   1.020   4.584   1.374
 5081TIP3    H115207   0.945   4.599   1.431
 5081TIP3    H215208   1.024   4.488   1.365
 5082TIP3   OH215209   6.668   5.984   1.658
 5082TIP3    H115210   6.725   5.959   1.585
 5082TIP3    H215211   6.584   5.944   1.637
 5083TIP3   OH215212   1.639   0.201   3.615
 5083TIP3    H115213   1.572   0.190   3.682
 5083TIP3    H215214   1.650   0.114   3.577
 5084TIP3   OH215215   1.237   3.017   5.806
 5084TIP3    H115216   1.207   2.996   5.894
 5084TIP3    H215217   1.165   2.989   5.749
 5085TIP3   OH215218   2.581   4.432   2.928
 5085TIP3    H115219   2.577   4.520   2.964
 5085TIP3    H215220   2.491   4.399   2.937
 5086TIP3   OH215221   4.681   3.037   4.897
 5086TIP3    H115222   4.637   3.013   4.816
 5086TIP3    H215223   4.617   3.019   4.966
 5087TIP3   OH215224   5.670   3.344   1.963
 5087TIP3    H115225   5.593   3.347   1.906
 5087TIP3    H215226   5.641   3.383   2.046
 5088TIP3   OH215227   5.234   5.905   0.702
 5088TIP3    H115228   5.240   5.965   0.627
 5088TIP3    H215229   5.212   5.961   0.776
 5089TIP3   OH215230   5.923   5.660   3.699
 5089TIP3    H115231   5.834   5.696   3.702
 5089TIP3    H215232   5.943   5.638   3.790
 5090TIP3   OH215233   0.870   0.023   1.628
 5090TIP3    H115234   0.938   0.091   1.630
 5090TIP3    H215235   0.816   0.046   1.553
 5091TIP3   OH215236   5.009   5.489   2.975
 5091TIP3    H115237   4.986   5.562   3.033
 5091TIP3    H215238   5.040   5.420   3.033
 5092TIP3   OH215239   3.513   4.420   3.079
 5092TIP3    H115240   3.545   4.424   3.169
 5092TIP3    H215241   3.592   4.422   3.026
 5093TIP3   OH215242   5.692   6.243   1.605
 5093TIP3    H115243   5.701   6.279   1.517
 5093TIP3    H215244   5.633   6.169   1.595
 5094TIP3   OH215245   1.069   3.487   1.403
 5094TIP3    H115246   1.143   3.438   1.437
 5094TIP3    H215247   0.992   3.445   1.441
 5095TIP3   OH215248   4.611   4.136   4.700
 5095TIP3    H115249   4.534   4.081   4.686
 5095TIP3    H215250   4.667   4.085   4.759
 5096TIP3   OH215251   1.458   0.427   1.180
 5096TIP3    H115252   1.409   0.404   1.101
 5096TIP3    H215253   1.550   0.426   1.152
 5097TIP3   OH215254   1.332   5.105   0.848
 5097TIP3    H115255   1.300   5.033   0.792
 5097TIP3    H215256   1.415   5.131   0.808
 5098TIP3   OH215257   3.011   3.121   4.177
 5098TIP3    H115258   3.024   3.210   4.212
 5098TIP3    H215259   3.087   3.107   4.120
 5099TIP3   OH215260   0.117   4.117   3.411
 5099TIP3    H115261   0.039   4.062   3.406
 5099TIP3    H215262   0.124   4.142   3.503
 5100TIP3   OH215263   3.997   0.408   3.568
 5100TIP3    H115264   4.088   0.380   3.564
 5100TIP3    H215265   3.950   0.333   3.605
 5101TIP3   OH215266   0.329   6.794   1.713
 5101TIP3    H115267   0.398   6.796   1.780
 5101TIP3    H215268   0.367   6.838   1.637
 5102TIP3   OH215269   0.491   1.215   3.527
 5102TIP3    H115270   0.533   1.179   3.605
 5102TIP3    H215271   0.493   1.144   3.463
 5103TIP3   OH215272   4.993   2.528   0.234
 5103TIP3    H115273   4.976   2.616   0.268
 5103TIP3    H215274   4.959   2.529   0.145
 5104TIP3   OH215275   1.202   4.179   0.618
 5104TIP3    H115276   1.129   4.198   0.677
 5104TIP3    H215277   1.263   4.252   0.632
 5105TIP3   OH215278   4.147   2.153   3.541
 5105TIP3    H115279   4.220   2.149   3.480
 5105TIP3    H215280   4.069   2.160   3.486
 5106TIP3   OH215281   3.805   6.606   3.637
 5106TIP3    H115282   3.884   6.627   3.588
 5106TIP3    H215283   3.740   6.583   3.569
 5107TIP3   OH215284   6.836   2.311   2.972
 5107TIP3    H115285   6.895   2.240   2.946
 5107TIP3    H215286   6.784   2.273   3.044
 5108TIP3   OH215287   6.220   5.235   4.048
 5108TIP3    H115288   6.211   5.259   3.956
 5108TIP3    H215289   6.314   5.230   4.063
 5109TIP3   OH215290   6.250   3.327   4.064
 5109TIP3    H115291   6.162   3.366   4.069
 5109TIP3    H215292   6.309   3.403   4.057
 5110TIP3   OH215293   2.625   1.646   4.990
 5110TIP3    H115294   2.672   1.635   5.073
 5110TIP3    H215295   2.537   1.673   5.016
 5111TIP3   OH215296   0.507   0.490   2.433
 5111TIP3    H115297   0.523   0.433   2.359
 5111TIP3    H215298   0.539   0.576   2.405
 5112TIP3   OH215299   2.161   5.862   3.754
 5112TIP3    H115300   2.249   5.898   3.758
 5112TIP3    H215301   2.135   5.853   3.846
 5113TIP3   OH215302   2.938   3.366   5.058
 5113TIP3    H115303   2.944   3.386   5.151
 5113TIP3    H215304   3.024   3.390   5.023
 5114TIP3   OH215305   3.000   1.303   2.107
 5114TIP3    H115306   2.969   1.219   2.139
 5114TIP3    H215307   3.038   1.346   2.184
 5115TIP3   OH215308   2.479   0.945   1.348
 5115TIP3    H115309   2.475   1.010   1.278
 5115TIP3    H215310   2.542   0.880   1.317
 5116TIP3   OH215311   5.032   1.553   2.539
 5116TIP3    H115312   5.060   1.524   2.626
 5116TIP3    H215313   4.962   1.616   2.556
 5117TIP3   OH215314   3.914   2.267   5.221
 5117TIP3    H115315   3.988   2.222   5.261
 5117TIP3    H215316   3.884   2.328   5.289
 5118TIP3   OH215317   6.515   3.260   1.276
 5118TIP3    H115318   6.506   3.316   1.353
 5118TIP3    H215319   6.490   3.173   1.308
 5119TIP3   OH215320   2.259   6.429   5.770
 5119TIP3    H115321   2.312   6.422   5.850
 5119TIP3    H215322   2.192   6.361   5.780
 5120TIP3   OH215323   6.523   3.085   1.848
 5120TIP3    H115324   6.531   3.166   1.797
 5120TIP3    H215325   6.607   3.041   1.837
 5121TIP3   OH215326   0.345   0.331   5.175
 5121TIP3    H115327   0.267   0.319   5.121
 5121TIP3    H215328   0.321   0.293   5.260
 5122TIP3   OH215329   6.394   3.249   4.295
 5122TIP3    H115330   6.359   3.322   4.345
 5122TIP3    H215331   6.356   3.258   4.208
 5123TIP3   OH215332   6.661   4.908   4.692
 5123TIP3    H115333   6.580   4.856   4.687
 5123TIP3    H215334   6.645   4.982   4.635
 5124TIP3   OH215335   5.323   3.627   3.250
 5124TIP3    H115336   5.291   3.707   3.210
 5124TIP3    H215337   5.246   3.571   3.257
 5125TIP3   OH215338   6.795   2.893   1.061
 5125TIP3    H115339   6.753   2.964   1.110
 5125TIP3    H215340   6.886   2.922   1.052
 5126TIP3   OH215341   1.687   4.665   2.871
 5126TIP3    H115342   1.653   4.626   2.951
 5126TIP3    H215343   1.656   4.756   2.873
 5127TIP3   OH215344   6.868   0.079   0.024
 5127TIP3    H115345   6.910   0.007   0.071
 5127TIP3    H215346   6.891   0.064  -0.068
 5128TIP3   OH215347   2.358   2.702  -0.019
 5128TIP3    H115348   2.366   2.784   0.030
 5128TIP3    H215349   2.265   2.697  -0.042
 5129TIP3   OH215350   5.809   3.031   5.162
 5129TIP3    H115351   5.877   2.987   5.213
 5129TIP3    H215352   5.852   3.060   5.083
 5130TIP3   OH215353   7.204   6.540   1.697
 5130TIP3    H115354   7.109   6.530   1.691
 5130TIP3    H215355   7.239   6.457   1.664
 5131TIP3   OH215356   4.135   2.116   1.249
 5131TIP3    H115357   4.074   2.142   1.180
 5131TIP3    H215358   4.127   2.184   1.315
 5132TIP3   OH215359   6.489   2.366   2.606
 5132TIP3    H115360   6.570   2.395   2.564
 5132TIP3    H215361   6.419   2.407   2.554
 5133TIP3   OH215362   4.845   1.884   3.069
 5133TIP3    H115363   4.789   1.930   3.006
 5133TIP3    H215364   4.934   1.908   3.043
 5134TIP3   OH215365   1.557   5.629   2.595
 5134TIP3    H115366   1.583   5.597   2.509
 5134TIP3    H215367   1.588   5.720   2.597
 5135TIP3   OH215368   6.666   6.386   1.686
 5135TIP3    H115369   6.654   6.333   1.765
 5135TIP3    H215370   6.597   6.452   1.689
 5136TIP3   OH215371   5.667   4.345   5.221
 5136TIP3    H115372   5.620   4.356   5.138
 5136TIP3    H215373   5.735   4.413   5.220
 5137TIP3   OH215374   4.586   1.684   3.455
 5137TIP3    H115375   4.548   1.602   3.424
 5137TIP3    H215376   4.602   1.735   3.375
 5138TIP3   OH215377   5.271   1.004   5.118
 5138TIP3    H115378   5.333   1.036   5.184
 5138TIP3    H215379   5.299   1.045   5.036
 5139TIP3   OH215380   3.483   6.360   3.433
 5139TIP3    H115381   3.397   6.341   3.469
 5139TIP3    H215382   3.518   6.274   3.407
 5140TIP3   OH215383   4.923   3.358   2.444
 5140TIP3    H115384   4.835   3.385   2.471
 5140TIP3    H215385   4.958   3.434   2.397
 5141TIP3   OH215386   3.933   6.454   0.800
 5141TIP3    H115387   3.909   6.377   0.851
 5141TIP3    H215388   3.914   6.429   0.709
 5142TIP3   OH215389   7.024   4.610   4.156
 5142TIP3    H115390   7.108   4.611   4.201
 5142TIP3    H215391   6.966   4.561   4.215
 5143TIP3   OH215392   2.968   0.478   2.298
 5143TIP3    H115393   2.888   0.440   2.265
 5143TIP3    H215394   3.038   0.434   2.251
 5144TIP3   OH215395   6.386   0.468   2.213
 5144TIP3    H115396   6.444   0.488   2.140
 5144TIP3    H215397   6.393   0.373   2.225
 5145TIP3   OH215398   4.086   4.988   5.356
 5145TIP3    H115399   4.000   4.960   5.323
 5145TIP3    H215400   4.066   5.061   5.415
 5146TIP3   OH215401   3.424   6.061   3.119
 5146TIP3    H115402   3.514   6.065   3.151
 5146TIP3    H215403   3.425   6.112   3.038
 5147TIP3   OH215404   3.960   0.780   4.829
 5147TIP3    H115405   3.902   0.793   4.754
 5147TIP3    H215406   4.006   0.698   4.810
 5148TIP3   OH215407   3.341   0.968   0.369
 5148TIP3    H115408   3.395   0.966   0.289
 5148TIP3    H215409   3.259   0.926   0.343
 5149TIP3   OH215410   6.584   4.320   4.267
 5149TIP3    H115411   6.526   4.386   4.229
 5149TIP3    H215412   6.555   4.312   4.358
 5150TIP3   OH215413   2.588   1.861   1.900
 5150TIP3    H115414   2.527   1.869   1.974
 5150TIP3    H215415   2.657   1.924   1.919
 5151TIP3   OH215416   2.156   0.730   3.805
 5151TIP3    H115417   2.162   0.824   3.792
 5151TIP3    H215418   2.119   0.697   3.724
 5152TIP3   OH215419   0.862   4.120   2.607
 5152TIP3    H115420   0.789   4.136   2.667
 5152TIP3    H215421   0.883   4.027   2.618
 5153TIP3   OH215422   6.438   1.364   0.815
 5153TIP3    H115423   6.356   1.380   0.862
 5153TIP3    H215424   6.475   1.452   0.802
 5154TIP3   OH215425   6.477  -0.011   0.616
 5154TIP3    H115426   6.554   0.024   0.661
 5154TIP3    H215427   6.465   0.048   0.541
 5155TIP3   OH215428   3.042   0.727   3.413
 5155TIP3    H115429   3.071   0.740   3.323
 5155TIP3    H215430   3.120   0.698   3.460
 5156TIP3   OH215431   4.892   0.565   2.541
 5156TIP3    H115432   4.920   0.506   2.471
 5156TIP3    H215433   4.967   0.572   2.599
 5157TIP3   OH215434   5.029   1.128   1.961
 5157TIP3    H115435   5.048   1.040   1.992
 5157TIP3    H215436   5.018   1.181   2.040
 5158TIP3   OH215437   5.922   4.525   4.766
 5158TIP3    H115438   5.895   4.545   4.676
 5158TIP3    H215439   6.014   4.554   4.770
 5159TIP3   OH215440   1.140   3.618   3.757
 5159TIP3    H115441   1.185   3.611   3.841
 5159TIP3    H215442   1.111   3.528   3.739
 5160TIP3   OH215443   0.441   2.724   3.745
 5160TIP3    H115444   0.517   2.742   3.689
 5160TIP3    H215445   0.474   2.733   3.834
 5161TIP3   OH215446   1.193   3.583   2.820
 5161TIP3    H115447   1.175   3.557   2.729
 5161TIP3    H215448   1.287   3.601   2.822
 5162TIP3   OH215449   4.695   6.749   0.552
 5162TIP3    H115450   4.714   6.690   0.480
 5162TIP3    H215451   4.715   6.698   0.631
 5163TIP3   OH215452   6.455   1.253   3.781
 5163TIP3    H115453   6.375   1.209   3.809
 5163TIP3    H215454   6.462   1.330   3.838
 5164TIP3   OH215455   0.668   5.167   2.410
 5164TIP3    H115456   0.760   5.164   2.386
 5164TIP3    H215457   0.663   5.120   2.493
 5165TIP3   OH215458   6.087   5.511   1.082
 5165TIP3    H115459   5.992   5.504   1.074
 5165TIP3    H215460   6.110   5.444   1.147
 5166TIP3   OH215461   1.331   0.654   2.438
 5166TIP3    H115462   1.288   0.619   2.360
 5166TIP3    H215463   1.364   0.577   2.484
 5167TIP3   OH215464   5.408   4.897   5.172
 5167TIP3    H115465   5.315   4.914   5.156
 5167TIP3    H215466   5.452   4.925   5.092
 5168TIP3   OH215467   4.957   6.082   0.921
 5168TIP3    H115468   4.915   6.096   0.836
 5168TIP3    H215469   4.933   5.992   0.945
 5169TIP3   OH215470   0.205   5.752   2.093
 5169TIP3    H115471   0.216   5.776   2.001
 5169TIP3    H215472   0.205   5.835   2.140
 5170TIP3   OH215473   5.893   4.978   3.700
 5170TIP3    H115474   5.872   4.998   3.791
 5170TIP3    H215475   5.811   4.949   3.662
 5171TIP3   OH215476   3.610   0.149   4.316
 5171TIP3    H115477   3.666   0.074   4.295
 5171TIP3    H215478   3.535   0.139   4.258
 5172TIP3   OH215479   0.091   3.627   4.066
 5172TIP3    H115480   0.163   3.580   4.022
 5172TIP3    H215481   0.015   3.610   4.011
 5173TIP3   OH215482   3.676   0.662   2.106
 5173TIP3    H115483   3.755   0.607   2.108
 5173TIP3    H215484   3.692   0.729   2.172
 5174TIP3   OH215485   4.359   2.791   0.014
 5174TIP3    H115486   4.378   2.871   0.062
 5174TIP3    H215487   4.379   2.812  -0.077
 5175TIP3   OH215488   5.289   5.691   3.862
 5175TIP3    H115489   5.277   5.602   3.830
 5175TIP3    H215490   5.355   5.729   3.804
 5176TIP3   OH215491   5.282   2.764   2.589
 5176TIP3    H115492   5.211   2.718   2.633
 5176TIP3    H215493   5.283   2.851   2.630
 5177TIP3   OH215494   4.263   5.754   0.183
 5177TIP3    H115495   4.342   5.793   0.146
 5177TIP3    H215496   4.242   5.681   0.124
 5178TIP3   OH215497   3.359   3.009   1.721
 5178TIP3    H115498   3.432   2.962   1.681
 5178TIP3    H215499   3.392   3.099   1.731
 5179TIP3   OH215500   5.725   3.372   4.486
 5179TIP3    H115501   5.720   3.277   4.497
 5179TIP3    H215502   5.675   3.389   4.406
 5180TIP3   OH215503   6.131   3.527   1.873
 5180TIP3    H115504   6.073   3.455   1.847
 5180TIP3    H215505   6.099   3.553   1.959
 5181TIP3   OH215506   3.969   2.237   0.615
 5181TIP3    H115507   3.901   2.205   0.674
 5181TIP3    H215508   4.031   2.282   0.673
 5182TIP3   OH215509   3.794   1.778   3.488
 5182TIP3    H115510   3.782   1.684   3.499
 5182TIP3    H215511   3.827   1.788   3.399
 5183TIP3   OH215512   0.943   4.271   4.866
 5183TIP3    H115513   0.968   4.344   4.922
 5183TIP3    H215514   0.848   4.279   4.856
 5184TIP3   OH215515   2.860   3.608   0.896
 5184TIP3    H115516   2.945   3.569   0.875
 5184TIP3    H215517   2.798   3.536   0.887
 5185TIP3   OH215518   3.544   5.175   4.067
 5185TIP3    H115519   3.477   5.113   4.039
 5185TIP3    H215520   3.625   5.123   4.073
 5186TIP3   OH215521   3.144   1.689   3.608
 5186TIP3    H115522   3.132   1.743   3.686
 5186TIP3    H215523   3.127   1.600   3.637
 5187TIP3   OH215524   1.256   5.885   4.126
 5187TIP3    H115525   1.351   5.877   4.115
 5187TIP3    H215526   1.221   5.800   4.101
 5188TIP3   OH215527   4.871   1.785   2.615
 5188TIP3    H115528   4.900   1.797   2.705
 5188TIP3    H215529   4.776   1.784   2.620
 5189TIP3   OH215530   4.990   2.279   3.890
 5189TIP3    H115531   5.038   2.297   3.971
 5189TIP3    H215532   4.987   2.184   3.884
 5190TIP3   OH215533   6.937   0.664   4.881
 5190TIP3    H115534   6.886   0.641   4.959
 5190TIP3    H215535   6.946   0.759   4.886
 5191TIP3   OH215536   2.321   0.268   1.615
 5191TIP3    H115537   2.364   0.188   1.647
 5191TIP3    H215538   2.295   0.315   1.695
 5192TIP3   OH215539   0.983   2.165   5.437
 5192TIP3    H115540   0.973   2.101   5.366
 5192TIP3    H215541   0.960   2.117   5.516
 5193TIP3   OH215542   3.643   6.033   0.371
 5193TIP3    H115543   3.606   6.069   0.451
 5193TIP3    H215544   3.736   6.053   0.375
 5194TIP3   OH215545   2.402   5.474   0.569
 5194TIP3    H115546   2.476   5.472   0.509
 5194TIP3    H215547   2.442   5.462   0.656
 5195TIP3   OH215548   0.382   2.469   2.156
 5195TIP3    H115549   0.354   2.559   2.172
 5195TIP3    H215550   0.399   2.433   2.243
 5196TIP3   OH215551   0.819   0.238   0.471
 5196TIP3    H115552   0.851   0.318   0.429
 5196TIP3    H215553   0.748   0.208   0.415
 5197TIP3   OH215554   5.904   0.478   2.492
 5197TIP3    H115555   5.828   0.526   2.459
 5197TIP3    H215556   5.912   0.403   2.434
 5198TIP3   OH215557   4.805   2.050   2.721
 5198TIP3    H115558   4.768   2.028   2.635
 5198TIP3    H215559   4.829   2.143   2.713
 5199TIP3   OH215560   1.037   2.502   5.042
 5199TIP3    H115561   1.075   2.568   4.984
 5199TIP3    H215562   1.101   2.431   5.042
 5200TIP3   OH215563   4.103   2.150   4.813
 5200TIP3    H115564   4.039   2.205   4.858
 5200TIP3    H215565   4.186   2.195   4.826
 5201TIP3   OH215566   2.759   6.145   3.930
 5201TIP3    H115567   2.737   6.185   4.015
 5201TIP3    H215568   2.752   6.217   3.867
 5202TIP3   OH215569   3.612   2.987   5.207
 5202TIP3    H115570   3.625   2.910   5.153
 5202TIP3    H215571   3.680   2.981   5.275
 5203TIP3   OH215572   1.573   4.542   3.103
 5203TIP3    H115573   1.598   4.454   3.074
 5203TIP3    H215574   1.595   4.544   3.196
 5204TIP3   OH215575   5.633   2.718   4.148
 5204TIP3    H115576   5.679   2.783   4.095
 5204TIP3    H215577   5.695   2.698   4.219
 5205TIP3   OH215578   4.348   5.529   4.772
 5205TIP3    H115579   4.275   5.488   4.819
 5205TIP3    H215580   4.351   5.482   4.689
 5206TIP3   OH215581   1.500   6.048   0.618
 5206TIP3    H115582   1.567   5.981   0.606
 5206TIP3    H215583   1.419   6.006   0.590
 5207TIP3   OH215584   3.317   3.010   2.477
 5207TIP3    H115585   3.359   2.931   2.444
 5207TIP3    H215586   3.258   2.978   2.546
 5208TIP3   OH215587   2.622   5.552   5.282
 5208TIP3    H115588   2.531   5.547   5.253
 5208TIP3    H215589   2.655   5.462   5.272
 5209TIP3   OH215590   5.182   0.754   5.621
 5209TIP3    H115591   5.155   0.668   5.652
 5209TIP3    H215592   5.192   0.807   5.700
 5210TIP3   OH215593   1.039   5.624   4.718
 5210TIP3    H115594   1.019   5.575   4.798
 5210TIP3    H215595   1.086   5.562   4.663
 5211TIP3   OH215596   0.854   2.503   0.459
 5211TIP3    H115597   0.762   2.515   0.480
 5211TIP3    H215598   0.859   2.416   0.422
 5212TIP3   OH215599   4.225   4.185   3.238
 5212TIP3    H115600   4.195   4.209   3.326
 5212TIP3    H215601   4.175   4.105   3.218
 5213TIP3   OH215602   6.679   0.352   2.307
 5213TIP3    H115603   6.764   0.345   2.351
 5213TIP3    H215604   6.621   0.390   2.373
 5214TIP3   OH215605   3.892   3.774   1.109
 5214TIP3    H115606   3.984   3.777   1.134
 5214TIP3    H215607   3.892   3.794   1.016
 5215TIP3   OH215608   3.434   2.732   5.454
 5215TIP3    H115609   3.420   2.683   5.373
 5215TIP3    H215610   3.398   2.819   5.437
 5216TIP3   OH215611   5.610   4.983   2.667
 5216TIP3    H115612   5.695   4.946   2.689
 5216TIP3    H215613   5.571   4.919   2.607
 5217TIP3   OH215614   0.287   3.399   2.731
 5217TIP3    H115615   0.270   3.400   2.637
 5217TIP3    H215616   0.353   3.331   2.743
 5218TIP3   OH215617   1.147   3.341   2.313
 5218TIP3    H115618   1.220   3.284   2.288
 5218TIP3    H215619   1.172   3.427   2.277
 5219TIP3   OH215620   3.847   4.052   2.568
 5219TIP3    H115621   3.862   3.979   2.629
 5219TIP3    H215622   3.774   4.023   2.513
 5220TIP3   OH215623   0.084   4.977   4.570
 5220TIP3    H115624   0.169   4.990   4.530
 5220TIP3    H215625   0.065   4.884   4.556
 5221TIP3   OH215626   4.253   0.721   3.617
 5221TIP3    H115627   4.260   0.814   3.599
 5221TIP3    H215628   4.207   0.685   3.541
 5222TIP3   OH215629   2.829   2.300   5.195
 5222TIP3    H115630   2.784   2.364   5.140
 5222TIP3    H215631   2.772   2.290   5.271
 5223TIP3   OH215632   1.333   4.693   3.500
 5223TIP3    H115633   1.341   4.610   3.547
 5223TIP3    H215634   1.252   4.685   3.451
 5224TIP3   OH215635   0.660   2.954   3.826
 5224TIP3    H115636   0.684   2.955   3.733
 5224TIP3    H215637   0.717   2.887   3.864
 5225TIP3   OH215638   3.349   6.652   4.378
 5225TIP3    H115639   3.432   6.648   4.426
 5225TIP3    H215640   3.338   6.563   4.342
 5226TIP3   OH215641   1.916   4.471   5.324
 5226TIP3    H115642   1.962   4.485   5.407
 5226TIP3    H215643   1.981   4.434   5.266
 5227TIP3   OH215644   2.914   0.939   1.350
 5227TIP3    H115645   2.955   1.002   1.292
 5227TIP3    H215646   2.925   0.854   1.306
 5228TIP3   OH215647   3.433   1.653   1.574
 5228TIP3    H115648   3.501   1.644   1.642
 5228TIP3    H215649   3.420   1.747   1.565
 5229TIP3   OH215650   1.877   0.379   1.857
 5229TIP3    H115651   1.837   0.446   1.801
 5229TIP3    H215652   1.803   0.329   1.891
 5230TIP3   OH215653   0.083   6.283   0.338
 5230TIP3    H115654   0.165   6.321   0.309
 5230TIP3    H215655   0.087   6.192   0.308
 5231TIP3   OH215656   6.548   0.819   3.958
 5231TIP3    H115657   6.551   0.726   3.979
 5231TIP3    H215658   6.585   0.825   3.870
 5232TIP3   OH215659   0.903   5.987   2.542
 5232TIP3    H115660   0.892   6.076   2.575
 5232TIP3    H215661   0.901   5.997   2.447
 5233TIP3   OH215662   1.707   1.296   1.130
 5233TIP3    H115663   1.682   1.223   1.072
 5233TIP3    H215664   1.782   1.263   1.179
 5234TIP3   OH215665   3.402   3.175   5.800
 5234TIP3    H115666   3.479   3.198   5.852
 5234TIP3    H215667   3.331   3.170   5.864
 5235TIP3   OH215668   4.128   3.325   4.864
 5235TIP3    H115669   4.174   3.287   4.939
 5235TIP3    H215670   4.129   3.256   4.798
 5236TIP3   OH215671   0.480   1.845   4.716
 5236TIP3    H115672   0.454   1.932   4.687
 5236TIP3    H215673   0.520   1.859   4.802
 5237TIP3   OH215674   2.045   6.608   0.044
 5237TIP3    H115675   2.138   6.604   0.066
 5237TIP3    H215676   2.000   6.615   0.129
 5238TIP3   OH215677   0.302   5.032   2.283
 5238TIP3    H115678   0.387   5.045   2.241
 5238TIP3    H215679   0.247   4.996   2.213
 5239TIP3   OH215680   1.419   1.855   0.943
 5239TIP3    H115681   1.418   1.951   0.940
 5239TIP3    H215682   1.407   1.834   1.035
 5240TIP3   OH215683   5.787   4.839   1.942
 5240TIP3    H115684   5.810   4.761   1.891
 5240TIP3    H215685   5.871   4.869   1.978
 5241TIP3   OH215686   4.981   2.076   0.422
 5241TIP3    H115687   5.045   2.132   0.466
 5241TIP3    H215688   4.972   2.000   0.480
 5242TIP3   OH215689   2.740   3.170   0.285
 5242TIP3    H115690   2.701   3.120   0.212
 5242TIP3    H215691   2.784   3.105   0.338
 5243TIP3   OH215692   6.375   1.689   1.959
 5243TIP3    H115693   6.374   1.751   2.033
 5243TIP3    H215694   6.351   1.743   1.883
 5244TIP3   OH215695   2.012   0.968   1.814
 5244TIP3    H115696   1.952   1.041   1.810
 5244TIP3    H215697   1.963   0.897   1.856
 5245TIP3   OH215698   4.450   5.482   3.292
 5245TIP3    H115699   4.364   5.520   3.275
 5245TIP3    H215700   4.437   5.387   3.283
 5246TIP3   OH215701   6.233   4.942   0.235
 5246TIP3    H115702   6.210   4.936   0.328
 5246TIP3    H215703   6.329   4.931   0.234
 5247TIP3   OH215704   5.469   1.008   5.353
 5247TIP3    H115705   5.502   0.918   5.343
 5247TIP3    H215706   5.473   1.025   5.447
 5248TIP3   OH215707   1.805   5.729   4.013
 5248TIP3    H115708   1.754   5.745   4.092
 5248TIP3    H215709   1.882   5.786   4.022
 5249TIP3   OH215710   5.132   3.039   4.882
 5249TIP3    H115711   5.118   3.116   4.827
 5249TIP3    H215712   5.147   3.075   4.970
 5250TIP3   OH215713   5.167   1.430   1.918
 5250TIP3    H115714   5.116   1.495   1.871
 5250TIP3    H215715   5.196   1.369   1.850
 5251TIP3   OH215716   3.605   5.680   2.612
 5251TIP3    H115717   3.631   5.768   2.586
 5251TIP3    H215718   3.682   5.643   2.656
 5252TIP3   OH215719   7.279   4.408   1.222
 5252TIP3    H115720   7.227   4.474   1.177
 5252TIP3    H215721   7.217   4.365   1.281
 5253TIP3   OH215722   5.802   0.559   1.180
 5253TIP3    H115723   5.835   0.590   1.264
 5253TIP3    H215724   5.881   0.530   1.133
 5254TIP3   OH215725   2.935   0.074   4.830
 5254TIP3    H115726   2.920   0.008   4.763
 5254TIP3    H215727   2.991   0.031   4.894
 5255TIP3   OH215728   2.382   2.191   2.607
 5255TIP3    H115729   2.328   2.201   2.529
 5255TIP3    H215730   2.443   2.121   2.586
 5256TIP3   OH215731   2.750   5.993   2.638
 5256TIP3    H115732   2.740   6.058   2.570
 5256TIP3    H215733   2.791   5.918   2.594
 5257TIP3   OH215734   5.376   3.842   2.151
 5257TIP3    H115735   5.308   3.896   2.110
 5257TIP3    H215736   5.385   3.767   2.092
 5258TIP3   OH215737   5.725   4.886   2.276
 5258TIP3    H115738   5.812   4.921   2.292
 5258TIP3    H215739   5.736   4.823   2.205
 5259TIP3   OH215740   2.767   3.148   3.820
 5259TIP3    H115741   2.814   3.069   3.846
 5259TIP3    H215742   2.682   3.117   3.787
 5260TIP3   OH215743   2.275   3.044   0.835
 5260TIP3    H115744   2.289   2.977   0.768
 5260TIP3    H215745   2.200   3.012   0.885
 5261TIP3   OH215746   0.788   5.622   4.593
 5261TIP3    H115747   0.732   5.593   4.664
 5261TIP3    H215748   0.873   5.638   4.634
 5262TIP3   OH215749   3.616   1.997   0.143
 5262TIP3    H115750   3.602   1.904   0.158
 5262TIP3    H215751   3.688   2.020   0.202
 5263TIP3   OH215752   4.970   2.193   1.279
 5263TIP3    H115753   4.887   2.178   1.326
 5263TIP3    H215754   4.948   2.258   1.212
 5264TIP3   OH215755   6.803   3.828   5.398
 5264TIP3    H115756   6.862   3.755   5.381
 5264TIP3    H215757   6.731   3.815   5.336
 5265TIP3   OH215758   5.746   4.647   4.086
 5265TIP3    H115759   5.676   4.650   4.151
 5265TIP3    H215760   5.814   4.594   4.126
 5266TIP3   OH215761   1.998   3.567   4.620
 5266TIP3    H115762   2.077   3.606   4.658
 5266TIP3    H215763   2.028   3.488   4.577
 5267TIP3   OH215764   1.768   6.804   0.849
 5267TIP3    H115765   1.845   6.747   0.859
 5267TIP3    H215766   1.706   6.752   0.799
 5268TIP3   OH215767   0.771   5.071   4.980
 5268TIP3    H115768   0.705   5.021   5.029
 5268TIP3    H215769   0.759   5.161   5.009
 5269TIP3   OH215770   0.970   2.504   4.120
 5269TIP3    H115771   0.932   2.591   4.134
 5269TIP3    H215772   0.987   2.501   4.025
 5270TIP3   OH215773   3.773   6.460   0.328
 5270TIP3    H115774   3.702   6.410   0.287
 5270TIP3    H215775   3.842   6.460   0.262
 5271TIP3   OH215776   2.619   6.097   2.104
 5271TIP3    H115777   2.665   6.017   2.130
 5271TIP3    H215778   2.684   6.166   2.113
 5272TIP3   OH215779   2.663   5.733   3.449
 5272TIP3    H115780   2.672   5.721   3.354
 5272TIP3    H215781   2.725   5.671   3.487
 5273TIP3   OH215782   6.288   1.681   3.129
 5273TIP3    H115783   6.363   1.639   3.171
 5273TIP3    H215784   6.238   1.719   3.201
 5274TIP3   OH215785   4.000   4.987   4.294
 5274TIP3    H115786   4.014   5.012   4.202
 5274TIP3    H215787   4.081   4.944   4.319
 5275TIP3   OH215788   1.591   4.735   0.471
 5275TIP3    H115789   1.636   4.784   0.539
 5275TIP3    H215790   1.645   4.747   0.393
 5276TIP3   OH215791   1.463   6.272   2.254
 5276TIP3    H115792   1.422   6.352   2.221
 5276TIP3    H215793   1.500   6.230   2.177
 5277TIP3   OH215794   4.589   5.500   3.506
 5277TIP3    H115795   4.538   5.508   3.426
 5277TIP3    H215796   4.680   5.507   3.478
 5278TIP3   OH215797   3.141   3.162   2.063
 5278TIP3    H115798   3.202   3.221   2.019
 5278TIP3    H215799   3.131   3.198   2.151
 5279TIP3   OH215800   1.624   1.167   3.395
 5279TIP3    H115801   1.700   1.113   3.415
 5279TIP3    H215802   1.594   1.137   3.309
 5280TIP3   OH215803   1.125   1.612   1.834
 5280TIP3    H115804   1.044   1.571   1.805
 5280TIP3    H215805   1.192   1.577   1.775
 5281TIP3   OH215806   7.105   0.049   5.259
 5281TIP3    H115807   7.080  -0.020   5.198
 5281TIP3    H215808   7.027   0.063   5.313
 5282TIP3   OH215809   6.137   4.003   1.189
 5282TIP3    H115810   6.148   3.908   1.178
 5282TIP3    H215811   6.068   4.025   1.127
 5283TIP3   OH215812   4.449   5.575   2.461
 5283TIP3    H115813   4.372   5.520   2.447
 5283TIP3    H215814   4.475   5.603   2.374
 5284TIP3   OH215815   3.306   5.687   0.283
 5284TIP3    H115816   3.347   5.609   0.321
 5284TIP3    H215817   3.363   5.759   0.310
 5285TIP3   OH215818   2.466   1.750   4.046
 5285TIP3    H115819   2.535   1.778   3.986
 5285TIP3    H215820   2.455   1.656   4.028
 5286TIP3   OH215821   3.354   3.823   1.209
 5286TIP3    H115822   3.357   3.732   1.237
 5286TIP3    H215823   3.392   3.822   1.122
 5287TIP3   OH215824   0.748   2.437   5.038
 5287TIP3    H115825   0.696   2.500   5.088
 5287TIP3    H215826   0.838   2.470   5.044
 5288TIP3   OH215827   1.581   4.957   3.110
 5288TIP3    H115828   1.515   5.000   3.164
 5288TIP3    H215829   1.553   4.973   3.020
 5289TIP3   OH215830   3.944   2.596   3.134
 5289TIP3    H115831   4.031   2.623   3.161
 5289TIP3    H215832   3.886   2.666   3.163
 5290TIP3   OH215833   2.434   4.383   1.519
 5290TIP3    H115834   2.473   4.466   1.490
 5290TIP3    H215835   2.351   4.378   1.471
 5291TIP3   OH215836   4.211   0.656   2.229
 5291TIP3    H115837   4.208   0.570   2.187
 5291TIP3    H215838   4.233   0.716   2.158
 5292TIP3   OH215839   2.335   4.280   5.020
 5292TIP3    H115840   2.298   4.194   4.998
 5292TIP3    H215841   2.263   4.341   5.005
 5293TIP3   OH215842   4.636   3.381   2.515
 5293TIP3    H115843   4.646   3.417   2.603
 5293TIP3    H215844   4.547   3.404   2.490
 5294TIP3   OH215845   7.053   5.014   4.724
 5294TIP3    H115846   6.989   5.019   4.654
 5294TIP3    H215847   7.138   5.011   4.679
 5295TIP3   OH215848   4.640   0.983   1.951
 5295TIP3    H115849   4.559   0.952   1.912
 5295TIP3    H215850   4.664   1.060   1.899
 5296TIP3   OH215851   5.489   4.512   5.796
 5296TIP3    H115852   5.554   4.449   5.826
 5296TIP3    H215853   5.427   4.459   5.745
 5297TIP3   OH215854   1.939   2.984   2.374
 5297TIP3    H115855   1.907   3.072   2.355
 5297TIP3    H215856   1.878   2.926   2.328
 5298TIP3   OH215857   2.766   1.601   3.793
 5298TIP3    H115858   2.778   1.613   3.887
 5298TIP3    H215859   2.671   1.612   3.779
 5299TIP3   OH215860   2.417   0.330   0.316
 5299TIP3    H115861   2.323   0.344   0.330
 5299TIP3    H215862   2.456   0.340   0.403
 5300TIP3   OH215863   4.127   6.580   2.968
 5300TIP3    H115864   4.107   6.666   3.006
 5300TIP3    H215865   4.062   6.521   3.008
 5301TIP3   OH215866   0.686   4.962   5.313
 5301TIP3    H115867   0.744   4.889   5.335
 5301TIP3    H215868   0.627   4.926   5.247
 5302TIP3   OH215869   3.697   4.661   5.403
 5302TIP3    H115870   3.640   4.684   5.477
 5302TIP3    H215871   3.763   4.604   5.441
 5303TIP3   OH215872   4.534   3.427   2.766
 5303TIP3    H115873   4.565   3.465   2.849
 5303TIP3    H215874   4.476   3.356   2.792
 5304TIP3   OH215875   1.844   2.346   2.479
 5304TIP3    H115876   1.840   2.326   2.385
 5304TIP3    H215877   1.898   2.425   2.484
 5305TIP3   OH215878   3.281   1.718   4.993
 5305TIP3    H115879   3.369   1.753   4.980
 5305TIP3    H215880   3.223   1.790   4.968
 5306TIP3   OH215881   5.555   6.042   0.064
 5306TIP3    H115882   5.484   6.032   0.001
 5306TIP3    H215883   5.513   6.078   0.142
 5307TIP3   OH215884   4.923   4.360   1.781
 5307TIP3    H115885   4.831   4.387   1.781
 5307TIP3    H215886   4.972   4.442   1.777
 5308TIP3   OH215887   5.969   3.306   3.113
 5308TIP3    H115888   5.905   3.287   3.045
 5308TIP3    H215889   6.043   3.249   3.093
 5309TIP3   OH215890   2.492   2.892   4.759
 5309TIP3    H115891   2.533   2.978   4.752
 5309TIP3    H215892   2.460   2.873   4.670
 5310TIP3   OH215893   0.682   4.668   0.924
 5310TIP3    H115894   0.642   4.752   0.903
 5310TIP3    H215895   0.736   4.685   1.001
 5311TIP3   OH215896   1.680   3.213   5.865
 5311TIP3    H115897   1.671   3.226   5.770
 5311TIP3    H215898   1.766   3.174   5.876
 5312TIP3   OH215899   0.783   2.748   2.893
 5312TIP3    H115900   0.866   2.704   2.876
 5312TIP3    H215901   0.808   2.837   2.919
 5313TIP3   OH215902   0.434   4.879   3.617
 5313TIP3    H115903   0.503   4.935   3.582
 5313TIP3    H215904   0.464   4.855   3.704
 5314TIP3   OH215905   7.138   2.974   1.687
 5314TIP3    H115906   7.127   2.976   1.592
 5314TIP3    H215907   7.198   2.900   1.703
 5315TIP3   OH215908   3.271   0.776   4.876
 5315TIP3    H115909   3.222   0.694   4.881
 5315TIP3    H215910   3.240   0.817   4.795
 5316TIP3   OH215911   3.723   2.045   5.216
 5316TIP3    H115912   3.770   2.128   5.214
 5316TIP3    H215913   3.724   2.019   5.308
 5317TIP3   OH215914   4.722   5.386   2.453
 5317TIP3    H115915   4.693   5.431   2.532
 5317TIP3    H215916   4.809   5.422   2.435
 5318TIP3   OH215917   0.533   6.398   3.990
 5318TIP3    H115918   0.553   6.394   3.896
 5318TIP3    H215919   0.616   6.422   4.031
 5319TIP3   OH215920   3.921   3.180   2.931
 5319TIP3    H115921   3.853   3.187   2.864
 5319TIP3    H215922   3.950   3.270   2.945
 5320TIP3   OH215923   1.500   5.299   3.648
 5320TIP3    H115924   1.519   5.227   3.709
 5320TIP3    H215925   1.543   5.274   3.567
 5321TIP3   OH215926   2.837   4.097   3.217
 5321TIP3    H115927   2.823   4.042   3.141
 5321TIP3    H215928   2.758   4.150   3.223
 5322TIP3   OH215929   1.782   3.021   3.609
 5322TIP3    H115930   1.711   3.001   3.548
 5322TIP3    H215931   1.770   2.960   3.681
 5323TIP3   OH215932   2.079   4.914   3.168
 5323TIP3    H115933   2.027   4.871   3.101
 5323TIP3    H215934   2.118   4.843   3.218
 5324TIP3   OH215935   5.662   0.615   4.034
 5324TIP3    H115936   5.631   0.538   3.987
 5324TIP3    H215937   5.659   0.589   4.126
 5325TIP3   OH215938   6.221   5.354   2.398
 5325TIP3    H115939   6.311   5.381   2.376
 5325TIP3    H215940   6.210   5.380   2.489
 5326TIP3   OH215941   1.432   3.691   0.597
 5326TIP3    H115942   1.350   3.668   0.640
 5326TIP3    H215943   1.419   3.781   0.568
 5327TIP3   OH215944   5.732   4.729   1.300
 5327TIP3    H115945   5.724   4.754   1.392
 5327TIP3    H215946   5.713   4.635   1.299
 5328TIP3   OH215947   2.032   1.901   0.281
 5328TIP3    H115948   2.074   1.890   0.196
 5328TIP3    H215949   2.105   1.920   0.341
 5329TIP3   OH215950   4.977   5.385   0.528
 5329TIP3    H115951   5.044   5.317   0.519
 5329TIP3    H215952   4.927   5.359   0.605
 5330TIP3   OH215953   2.863   2.225   3.140
 5330TIP3    H115954   2.788   2.216   3.198
 5330TIP3    H215955   2.858   2.315   3.108
 5331TIP3   OH215956   5.966   6.355   3.190
 5331TIP3    H115957   5.896   6.400   3.142
 5331TIP3    H215958   5.973   6.269   3.147
 5332TIP3   OH215959   3.497   0.452   2.685
 5332TIP3    H115960   3.469   0.445   2.776
 5332TIP3    H215961   3.466   0.537   2.656
 5333TIP3   OH215962   0.915   5.483   3.091
 5333TIP3    H115963   0.933   5.446   3.178
 5333TIP3    H215964   0.923   5.578   3.104
 5334TIP3   OH215965   0.862   1.574   1.506
 5334TIP3    H115966   0.862   1.487   1.546
 5334TIP3    H215967   0.864   1.635   1.580
 5335TIP3   OH215968   4.789   6.031   2.218
 5335TIP3    H115969   4.782   5.947   2.264
 5335TIP3    H215970   4.742   6.016   2.136
 5336TIP3   OH215971   2.891   5.909   2.291
 5336TIP3    H115972   2.872   6.001   2.271
 5336TIP3    H215973   2.838   5.860   2.228
 5337TIP3   OH215974   2.434   4.433   0.112
 5337TIP3    H115975   2.510   4.443   0.054
 5337TIP3    H215976   2.430   4.340   0.131
 5338TIP3   OH215977   5.800   0.845   3.284
 5338TIP3    H115978   5.765   0.803   3.362
 5338TIP3    H215979   5.895   0.840   3.295
 5339TIP3   OH215980   4.433   4.791   4.089
 5339TIP3    H115981   4.370   4.809   4.159
 5339TIP3    H215982   4.516   4.777   4.134
 5340TIP3   OH215983   5.910   1.415   5.554
 5340TIP3    H115984   5.992   1.463   5.543
 5340TIP3    H215985   5.917   1.374   5.640
 5341TIP3   OH215986   0.761   6.562   2.252
 5341TIP3    H115987   0.798   6.593   2.334
 5341TIP3    H215988   0.668   6.550   2.270
 5342TIP3   OH215989   1.941   1.620   4.418
 5342TIP3    H115990   1.935   1.704   4.373
 5342TIP3    H215991   1.858   1.576   4.399
 5343TIP3   OH215992   5.279   2.653   4.637
 5343TIP3    H115993   5.322   2.621   4.558
 5343TIP3    H215994   5.206   2.705   4.605
 5344TIP3   OH215995   3.351   3.252   3.118
 5344TIP3    H115996   3.444   3.244   3.098
 5344TIP3    H215997   3.306   3.225   3.038
 5345TIP3   OH215998   0.828   2.179   2.716
 5345TIP3    H115999   0.905   2.224   2.751
 5345TIP3    H216000   0.781   2.148   2.793
 5346TIP3   OH216001   2.614   6.207   3.224
 5346TIP3    H116002   2.587   6.122   3.257
 5346TIP3    H216003   2.555   6.269   3.266
 5347TIP3   OH216004   5.949   2.292   2.286
 5347TIP3    H116005   5.979   2.291   2.377
 5347TIP3    H216006   5.854   2.302   2.292
 5348TIP3   OH216007   0.169   6.349   4.932
 5348TIP3    H116008   0.206   6.277   4.983
 5348TIP3    H216009   0.140   6.308   4.850
 5349TIP3   OH216010   6.550   2.439   3.685
 5349TIP3    H116011   6.603   2.420   3.762
 5349TIP3    H216012   6.538   2.534   3.687
 5350TIP3   OH216013   7.052   5.135   1.224
 5350TIP3    H116014   7.046   5.204   1.158
 5350TIP3    H216015   7.078   5.180   1.304
 5351TIP3   OH216016   1.103   1.460   4.504
 5351TIP3    H116017   1.039   1.394   4.531
 5351TIP3    H216018   1.077   1.539   4.552
 5352TIP3   OH216019   1.971   2.217   5.619
 5352TIP3    H116020   2.045   2.266   5.652
 5352TIP3    H216021   1.921   2.192   5.698
 5353TIP3   OH216022   5.415   5.869   0.419
 5353TIP3    H116023   5.432   5.951   0.464
 5353TIP3    H216024   5.498   5.846   0.378
 5354TIP3   OH216025   6.548   2.111   2.033
 5354TIP3    H116026   6.611   2.075   1.971
 5354TIP3    H216027   6.505   2.182   1.984
 5355TIP3   OH216028   1.794   0.860   4.385
 5355TIP3    H116029   1.766   0.858   4.476
 5355TIP3    H216030   1.738   0.925   4.344
 5356TIP3   OH216031   5.424   4.390   0.066
 5356TIP3    H116032   5.383   4.476   0.068
 5356TIP3    H216033   5.518   4.408   0.060
 5357TIP3   OH216034   3.672   3.819   2.532
 5357TIP3    H116035   3.730   3.745   2.550
 5357TIP3    H216036   3.635   3.800   2.446
 5358TIP3   OH216037   6.361   2.294   3.394
 5358TIP3    H116038   6.415   2.354   3.445
 5358TIP3    H216039   6.361   2.213   3.446
 5359TIP3   OH216040   6.854   3.908   1.792
 5359TIP3    H116041   6.802   3.891   1.714
 5359TIP3    H216042   6.832   3.836   1.852
 5360TIP3   OH216043   2.355   3.214   1.554
 5360TIP3    H116044   2.425   3.255   1.503
 5360TIP3    H216045   2.321   3.145   1.497
 5361TIP3   OH216046   5.237   5.292   0.576
 5361TIP3    H116047   5.303   5.254   0.518
 5361TIP3    H216048   5.228   5.382   0.545
 5362TIP3   OH216049   0.871   4.400   5.383
 5362TIP3    H116050   0.792   4.417   5.332
 5362TIP3    H216051   0.853   4.317   5.427
 5363TIP3   OH216052   6.420   3.499   0.690
 5363TIP3    H116053   6.479   3.520   0.763
 5363TIP3    H216054   6.442   3.563   0.622
 5364TIP3   OH216055   4.541   1.341   5.912
 5364TIP3    H116056   4.507   1.379   5.831
 5364TIP3    H216057   4.487   1.263   5.927
 5365TIP3   OH216058   1.917   4.511   4.737
 5365TIP3    H116059   1.936   4.493   4.645
 5365TIP3    H216060   1.848   4.449   4.759
 5366TIP3   OH216061   4.111   4.569   3.437
 5366TIP3    H116062   4.158   4.646   3.404
 5366TIP3    H216063   4.176   4.499   3.434
 5367TIP3   OH216064   3.821   3.262   3.649
 5367TIP3    H116065   3.729   3.289   3.660
 5367TIP3    H216066   3.869   3.317   3.710
 5368TIP3   OH216067   4.181   2.019   5.179
 5368TIP3    H116068   4.101   1.966   5.185
 5368TIP3    H216069   4.241   1.965   5.128
 5369TIP3   OH216070   4.623   6.382   5.400
 5369TIP3    H116071   4.616   6.287   5.411
 5369TIP3    H216072   4.702   6.394   5.347
 5370TIP3   OH216073   1.973   2.649   1.093
 5370TIP3    H116074   2.061   2.611   1.092
 5370TIP3    H216075   1.984   2.736   1.131
 5371TIP3   OH216076   4.263   6.136   4.855
 5371TIP3    H116077   4.168   6.145   4.859
 5371TIP3    H216078   4.280   6.045   4.880
 5372TIP3   OH216079   3.332   0.116   5.012
 5372TIP3    H116080   3.313   0.194   5.064
 5372TIP3    H216081   3.426   0.101   5.025
 5373TIP3   OH216082   4.036   4.505   0.903
 5373TIP3    H116083   4.112   4.450   0.884
 5373TIP3    H216084   4.065   4.594   0.882
 5374TIP3   OH216085   6.675   1.302   3.333
 5374TIP3    H116086   6.648   1.233   3.273
 5374TIP3    H216087   6.766   1.320   3.309
 5375TIP3   OH216088   5.657   1.942   4.138
 5375TIP3    H116089   5.562   1.947   4.127
 5375TIP3    H216090   5.683   2.030   4.161
 5376TIP3   OH216091   6.973   0.884   2.018
 5376TIP3    H116092   6.881   0.891   2.043
 5376TIP3    H216093   7.020   0.926   2.090
 5377TIP3   OH216094   0.116   2.316   3.253
 5377TIP3    H116095   0.041   2.266   3.220
 5377TIP3    H216096   0.182   2.250   3.274
 5378TIP3   OH216097   6.558   2.172   3.938
 5378TIP3    H116098   6.487   2.108   3.931
 5378TIP3    H216099   6.514   2.257   3.943
 5379TIP3   OH216100   7.031   5.290   3.916
 5379TIP3    H116101   7.008   5.200   3.897
 5379TIP3    H216102   7.075   5.321   3.836
 5380TIP3   OH216103   3.846   0.156   1.513
 5380TIP3    H116104   3.780   0.207   1.465
 5380TIP3    H216105   3.873   0.214   1.585
 5381TIP3   OH216106   6.270   2.970   2.168
 5381TIP3    H116107   6.188   2.935   2.202
 5381TIP3    H216108   6.338   2.931   2.223
 5382TIP3   OH216109   0.779   5.663   5.068
 5382TIP3    H116110   0.725   5.634   5.142
 5382TIP3    H216111   0.715   5.684   5.000
 5383TIP3   OH216112   1.818   5.056   2.708
 5383TIP3    H116113   1.823   5.063   2.804
 5383TIP3    H216114   1.745   4.997   2.692
 5384TIP3   OH216115   5.417   4.454   0.325
 5384TIP3    H116116   5.412   4.541   0.283
 5384TIP3    H216117   5.426   4.393   0.252
 5385TIP3   OH216118   4.262   4.048   1.052
 5385TIP3    H116119   4.285   3.957   1.033
 5385TIP3    H216120   4.201   4.073   0.982
 5386TIP3   OH216121   2.416   0.844   3.602
 5386TIP3    H116122   2.411   0.751   3.580
 5386TIP3    H216123   2.327   0.868   3.627
 5387TIP3   OH216124   0.831   0.165   0.726
 5387TIP3    H116125   0.823   0.202   0.637
 5387TIP3    H216126   0.758   0.104   0.733
 5388TIP3   OH216127   6.417   0.282   3.113
 5388TIP3    H116128   6.344   0.311   3.058
 5388TIP3    H216129   6.486   0.345   3.096
 5389TIP3   OH216130   6.300   2.107   4.681
 5389TIP3    H116131   6.226   2.079   4.628
 5389TIP3    H216132   6.377   2.088   4.626
 5390TIP3   OH216133   0.909   5.821   0.587
 5390TIP3    H116134   0.848   5.760   0.546
 5390TIP3    H216135   0.859   5.857   0.661
 5391TIP3   OH216136   6.735   6.415   3.433
 5391TIP3    H116137   6.656   6.455   3.398
 5391TIP3    H216138   6.715   6.399   3.526
 5392TIP3   OH216139   4.067   5.059   4.050
 5392TIP3    H116140   4.103   4.982   4.005
 5392TIP3    H216141   4.119   5.132   4.015
 5393TIP3   OH216142   3.226   2.138   2.582
 5393TIP3    H116143   3.214   2.183   2.498
 5393TIP3    H216144   3.210   2.046   2.563
 5394TIP3   OH216145   6.943   1.156   3.450
 5394TIP3    H116146   6.874   1.096   3.478
 5394TIP3    H216147   6.932   1.233   3.505
 5395TIP3   OH216148   0.702   3.061   5.531
 5395TIP3    H116149   0.721   2.987   5.589
 5395TIP3    H216150   0.788   3.092   5.503
 5396TIP3   OH216151   6.604   4.309   4.822
 5396TIP3    H116152   6.599   4.248   4.896
 5396TIP3    H216153   6.666   4.269   4.761
 5397TIP3   OH216154   5.022   3.407   1.999
 5397TIP3    H116155   5.040   3.339   1.934
 5397TIP3    H216156   5.063   3.374   2.079
 5398TIP3   OH216157   3.267   6.686   3.347
 5398TIP3    H116158   3.343   6.696   3.404
 5398TIP3    H216159   3.302   6.698   3.259
 5399TIP3   OH216160   4.014   6.635   4.647
 5399TIP3    H116161   4.039   6.630   4.740
 5399TIP3    H216162   4.042   6.551   4.610
 5400TIP3   OH216163   2.039   6.757   1.126
 5400TIP3    H116164   2.083   6.731   1.206
 5400TIP3    H216165   2.087   6.835   1.097
 5401TIP3   OH216166   1.234   6.200   3.941
 5401TIP3    H116167   1.316   6.154   3.925
 5401TIP3    H216168   1.233   6.271   3.877
 5402TIP3   OH216169   1.225   1.167   0.619
 5402TIP3    H116170   1.174   1.203   0.547
 5402TIP3    H216171   1.272   1.093   0.580
 5403TIP3   OH216172   1.170   3.879   5.332
 5403TIP3    H116173   1.250   3.877   5.280
 5403TIP3    H216174   1.197   3.912   5.417
 5404TIP3   OH216175   5.524   1.822   0.474
 5404TIP3    H116176   5.542   1.891   0.410
 5404TIP3    H216177   5.538   1.741   0.425
 5405TIP3   OH216178   5.279   0.516   0.447
 5405TIP3    H116179   5.228   0.452   0.397
 5405TIP3    H216180   5.345   0.464   0.492
 5406TIP3   OH216181   4.820   2.161   4.560
 5406TIP3    H116182   4.762   2.097   4.518
 5406TIP3    H216183   4.782   2.246   4.538
 5407TIP3   OH216184   1.869   0.927   5.295
 5407TIP3    H116185   1.955   0.929   5.337
 5407TIP3    H216186   1.809   0.897   5.362
 5408TIP3   OH216187   0.050   1.481   1.676
 5408TIP3    H116188   0.048   1.398   1.724
 5408TIP3    H216189   0.008   1.461   1.592
 5409TIP3   OH216190   3.722   2.435   5.671
 5409TIP3    H116191   3.738   2.524   5.702
 5409TIP3    H216192   3.627   2.432   5.655
 5410TIP3   OH216193   4.817   0.276   2.826
 5410TIP3    H116194   4.889   0.339   2.824
 5410TIP3    H216195   4.849   0.204   2.880
 5411TIP3   OH216196   1.454   6.565   3.250
 5411TIP3    H116197   1.400   6.607   3.183
 5411TIP3    H216198   1.392   6.526   3.311
 5412TIP3   OH216199   1.117   2.349   2.479
 5412TIP3    H116200   1.180   2.287   2.443
 5412TIP3    H216201   1.105   2.413   2.409
 5413TIP3   OH216202   2.968   5.137   2.915
 5413TIP3    H116203   2.947   5.191   2.838
 5413TIP3    H216204   3.039   5.080   2.885
 5414TIP3   OH216205   2.964   2.733   1.783
 5414TIP3    H116206   2.896   2.791   1.815
 5414TIP3    H216207   2.958   2.655   1.839
 5415TIP3   OH216208   3.988   6.650   5.004
 5415TIP3    H116209   4.033   6.567   4.989
 5415TIP3    H216210   4.058   6.714   5.015
 5416TIP3   OH216211   6.858   4.055   3.625
 5416TIP3    H116212   6.880   4.039   3.533
 5416TIP3    H216213   6.858   4.150   3.633
 5417TIP3   OH216214   0.197   5.291   3.075
 5417TIP3    H116215   0.273   5.244   3.109
 5417TIP3    H216216   0.142   5.306   3.152
 5418TIP3   OH216217   0.485   1.964   1.352
 5418TIP3    H116218   0.512   1.880   1.389
 5418TIP3    H216219   0.428   2.002   1.419
 5419TIP3   OH216220   4.979   5.919   4.406
 5419TIP3    H116221   4.980   5.862   4.329
 5419TIP3    H216222   5.054   5.891   4.458
 5420TIP3   OH216223   4.645   4.299   3.197
 5420TIP3    H116224   4.656   4.254   3.113
 5420TIP3    H216225   4.734   4.309   3.230
 5421TIP3   OH216226   0.851   4.456   3.420
 5421TIP3    H116227   0.768   4.408   3.424
 5421TIP3    H216228   0.893   4.426   3.339
 5422TIP3   OH216229   0.198   0.321   3.299
 5422TIP3    H116230   0.227   0.230   3.290
 5422TIP3    H216231   0.229   0.347   3.385
 5423TIP3   OH216232   2.916   6.651   4.948
 5423TIP3    H116233   2.941   6.577   5.002
 5423TIP3    H216234   2.986   6.715   4.961
 5424TIP3   OH216235   3.295   2.431   1.992
 5424TIP3    H116236   3.382   2.458   1.961
 5424TIP3    H216237   3.274   2.353   1.941
 5425TIP3   OH216238   5.885   0.405   2.806
 5425TIP3    H116239   5.963   0.349   2.812
 5425TIP3    H216240   5.868   0.410   2.712
 5426TIP3   OH216241   5.686   3.092   0.482
 5426TIP3    H116242   5.710   3.084   0.390
 5426TIP3    H216243   5.743   3.161   0.516
 5427TIP3   OH216244   3.455   3.893   2.671
 5427TIP3    H116245   3.400   3.820   2.644
 5427TIP3    H216246   3.541   3.874   2.633
 5428TIP3   OH216247   6.960   6.090   5.517
 5428TIP3    H116248   6.938   6.133   5.434
 5428TIP3    H216249   6.913   6.141   5.583
 5429TIP3   OH216250   3.941   5.618   3.958
 5429TIP3    H116251   3.915   5.682   4.024
 5429TIP3    H216252   3.990   5.552   4.006
 5430TIP3   OH216253   5.807   0.056   1.868
 5430TIP3    H116254   5.901   0.040   1.874
 5430TIP3    H216255   5.790   0.129   1.926
 5431TIP3   OH216256   7.007   0.749   1.797
 5431TIP3    H116257   7.018   0.812   1.869
 5431TIP3    H216258   7.070   0.680   1.816
 5432TIP3   OH216259   4.865   4.520   3.851
 5432TIP3    H116260   4.879   4.489   3.762
 5432TIP3    H216261   4.889   4.613   3.848
 5433TIP3   OH216262   0.744   5.509   1.527
 5433TIP3    H116263   0.743   5.574   1.458
 5433TIP3    H216264   0.674   5.448   1.504
 5434TIP3   OH216265   2.507   4.666   1.675
 5434TIP3    H116266   2.526   4.699   1.587
 5434TIP3    H216267   2.573   4.598   1.690
 5435TIP3   OH216268   4.975   0.741   3.947
 5435TIP3    H116269   5.047   0.728   3.885
 5435TIP3    H216270   5.017   0.776   4.026
 5436TIP3   OH216271   1.835   1.019   0.853
 5436TIP3    H116272   1.779   1.009   0.930
 5436TIP3    H216273   1.821   1.109   0.824
 5437TIP3   OH216274   2.867   6.276   1.750
 5437TIP3    H116275   2.906   6.196   1.715
 5437TIP3    H216276   2.929   6.345   1.727
 5438TIP3   OH216277   6.716   0.315   1.618
 5438TIP3    H116278   6.681   0.401   1.639
 5438TIP3    H216279   6.769   0.329   1.539
 5439TIP3   OH216280   2.133   0.495   5.669
 5439TIP3    H116281   2.144   0.422   5.608
 5439TIP3    H216282   2.062   0.467   5.727
 5440TIP3   OH216283   5.085   1.603   4.306
 5440TIP3    H116284   5.160   1.658   4.282
 5440TIP3    H216285   5.044   1.581   4.222
 5441TIP3   OH216286   2.529   5.102   2.338
 5441TIP3    H116287   2.615   5.091   2.298
 5441TIP3    H216288   2.468   5.100   2.265
 5442TIP3   OH216289   4.887   6.780   3.849
 5442TIP3    H116290   4.810   6.805   3.900
 5442TIP3    H216291   4.961   6.806   3.903
 5443TIP3   OH216292   1.831   1.881   5.206
 5443TIP3    H116293   1.862   1.817   5.271
 5443TIP3    H216294   1.897   1.880   5.137
 5444TIP3   OH216295   2.832   3.459   1.788
 5444TIP3    H116296   2.829   3.554   1.790
 5444TIP3    H216297   2.899   3.439   1.722
 5445TIP3   OH216298   6.859   1.511   4.740
 5445TIP3    H116299   6.763   1.516   4.743
 5445TIP3    H216300   6.877   1.422   4.709
 5446TIP3   OH216301   5.898   6.814   4.708
 5446TIP3    H116302   5.844   6.810   4.629
 5446TIP3    H216303   5.910   6.722   4.734
 5447TIP3   OH216304   5.535   0.456   5.417
 5447TIP3    H116305   5.530   0.413   5.502
 5447TIP3    H216306   5.463   0.519   5.417
 5448TIP3   OH216307   2.474   2.364   0.752
 5448TIP3    H116308   2.528   2.417   0.809
 5448TIP3    H216309   2.534   2.300   0.713
 5449TIP3   OH216310   3.501   4.593   3.534
 5449TIP3    H116311   3.411   4.624   3.525
 5449TIP3    H216312   3.554   4.673   3.539
 5450TIP3   OH216313   0.560   2.472   0.198
 5450TIP3    H116314   0.505   2.394   0.201
 5450TIP3    H216315   0.546   2.514   0.283
 5451TIP3   OH216316   5.725   6.355   3.419
 5451TIP3    H116317   5.638   6.375   3.384
 5451TIP3    H216318   5.709   6.333   3.511
 5452TIP3   OH216319   7.001   4.102   4.716
 5452TIP3    H116320   7.023   4.027   4.662
 5452TIP3    H216321   6.910   4.122   4.693
 5453TIP3   OH216322   2.497   6.535   1.158
 5453TIP3    H116323   2.499   6.439   1.153
 5453TIP3    H216324   2.565   6.564   1.097
 5454TIP3   OH216325   2.840   4.891   3.915
 5454TIP3    H116326   2.845   4.910   4.009
 5454TIP3    H216327   2.836   4.977   3.873
 5455TIP3   OH216328   1.674   1.027   4.220
 5455TIP3    H116329   1.749   1.051   4.165
 5455TIP3    H216330   1.662   1.101   4.279
 5456TIP3   OH216331   6.208   2.215   3.808
 5456TIP3    H116332   6.207   2.123   3.832
 5456TIP3    H216333   6.276   2.254   3.863
 5457TIP3   OH216334   5.315   4.458   2.283
 5457TIP3    H116335   5.221   4.466   2.302
 5457TIP3    H216336   5.357   4.511   2.350
 5458TIP3   OH216337   2.955   0.833   0.750
 5458TIP3    H116338   2.969   0.749   0.794
 5458TIP3    H216339   2.952   0.811   0.657
 5459TIP3   OH216340   4.277   0.803   4.946
 5459TIP3    H116341   4.339   0.738   4.912
 5459TIP3    H216342   4.198   0.752   4.965
 5460TIP3   OH216343   3.952   5.692   3.439
 5460TIP3    H116344   3.884   5.628   3.419
 5460TIP3    H216345   3.981   5.669   3.527
 5461TIP3   OH216346   0.773   5.202   5.705
 5461TIP3    H116347   0.711   5.272   5.683
 5461TIP3    H216348   0.729   5.122   5.677
 5462TIP3   OH216349   3.027   4.274   4.860
 5462TIP3    H116350   3.067   4.320   4.934
 5462TIP3    H216351   2.935   4.300   4.862
 5463TIP3   OH216352   3.256   4.432   3.392
 5463TIP3    H116353   3.278   4.524   3.376
 5463TIP3    H216354   3.238   4.397   3.304
 5464TIP3   OH216355   0.212   4.454   0.902
 5464TIP3    H116356   0.257   4.402   0.835
 5464TIP3    H216357   0.247   4.542   0.891
 5465TIP3   OH216358   0.899   1.991   0.128
 5465TIP3    H116359   0.899   1.913   0.183
 5465TIP3    H216360   0.808   2.001   0.099
 5466TIP3   OH216361   2.273   6.347   1.258
 5466TIP3    H116362   2.327   6.279   1.218
 5466TIP3    H216363   2.256   6.410   1.188
 5467TIP3   OH216364   6.323   5.280   2.044
 5467TIP3    H116365   6.298   5.210   2.104
 5467TIP3    H216366   6.409   5.308   2.074
 5468TIP3   OH216367   6.393   1.623   4.972
 5468TIP3    H116368   6.326   1.564   4.938
 5468TIP3    H216369   6.448   1.567   5.027
 5469TIP3   OH216370   4.047   4.385   0.392
 5469TIP3    H116371   3.966   4.389   0.340
 5469TIP3    H216372   4.097   4.461   0.364
 5470TIP3   OH216373   0.634   4.357   1.977
 5470TIP3    H116374   0.592   4.442   1.988
 5470TIP3    H216375   0.623   4.314   2.062
 5471TIP3   OH216376   1.655   6.705   5.668
 5471TIP3    H116377   1.602   6.633   5.704
 5471TIP3    H216378   1.645   6.776   5.730
 5472TIP3   OH216379   4.735   1.048   5.414
 5472TIP3    H116380   4.790   1.039   5.336
 5472TIP3    H216381   4.745   1.139   5.440
 5473TIP3   OH216382   2.146   0.590   0.532
 5473TIP3    H116383   2.145   0.676   0.489
 5473TIP3    H216384   2.193   0.605   0.614
 5474TIP3   OH216385   2.376   2.068   1.313
 5474TIP3    H116386   2.392   2.010   1.239
 5474TIP3    H216387   2.281   2.082   1.314
 5475TIP3   OH216388   0.263   2.575   1.524
 5475TIP3    H116389   0.352   2.543   1.510
 5475TIP3    H216390   0.254   2.649   1.464
 5476TIP3   OH216391   0.781   0.274   1.138
 5476TIP3    H116392   0.783   0.344   1.204
 5476TIP3    H216393   0.688   0.253   1.128
 5477TIP3   OH216394   5.002   3.470   4.676
 5477TIP3    H116395   5.035   3.417   4.749
 5477TIP3    H216396   4.950   3.409   4.624
 5478TIP3   OH216397   1.545   0.047   4.823
 5478TIP3    H116398   1.488   0.121   4.846
 5478TIP3    H216399   1.627   0.065   4.870
 5479TIP3   OH216400   2.788   0.199   4.118
 5479TIP3    H116401   2.694   0.206   4.131
 5479TIP3    H216402   2.809   0.268   4.054
 5480TIP3   OH216403   4.852   3.755   2.090
 5480TIP3    H116404   4.780   3.710   2.047
 5480TIP3    H216405   4.850   3.844   2.055
 5481TIP3   OH216406   4.439   1.180   1.381
 5481TIP3    H116407   4.490   1.146   1.308
 5481TIP3    H216408   4.471   1.269   1.394
 5482TIP3   OH216409   6.968   5.293   4.766
 5482TIP3    H116410   7.033   5.222   4.761
 5482TIP3    H216411   6.961   5.325   4.676
 5483TIP3   OH216412   2.561   6.638   3.929
 5483TIP3    H116413   2.621   6.665   3.999
 5483TIP3    H216414   2.489   6.701   3.933
 5484TIP3   OH216415   7.166   2.133   0.331
 5484TIP3    H116416   7.086   2.187   0.334
 5484TIP3    H216417   7.205   2.145   0.417
 5485TIP3   OH216418   3.175   0.727   3.156
 5485TIP3    H116419   3.191   0.785   3.081
 5485TIP3    H216420   3.248   0.665   3.154
 5486TIP3   OH216421   2.509   0.591   1.292
 5486TIP3    H116422   2.429   0.643   1.286
 5486TIP3    H216423   2.577   0.647   1.253
 5487TIP3   OH216424   4.243   0.497   4.541
 5487TIP3    H116425   4.306   0.500   4.613
 5487TIP3    H216426   4.241   0.406   4.514
 5488TIP3   OH216427   6.298   3.854   2.730
 5488TIP3    H116428   6.222   3.797   2.744
 5488TIP3    H216429   6.278   3.933   2.781
 5489TIP3   OH216430   0.919   2.728   1.669
 5489TIP3    H116431   0.865   2.780   1.609
 5489TIP3    H216432   1.007   2.733   1.632
 5490TIP3   OH216433   5.851   3.098   1.128
 5490TIP3    H116434   5.911   3.151   1.075
 5490TIP3    H216435   5.880   3.112   1.218
 5491TIP3   OH216436   2.042   0.227   2.012
 5491TIP3    H116437   1.973   0.283   1.978
 5491TIP3    H216438   2.024   0.141   1.972
 5492TIP3   OH216439   6.274   0.835   4.699
 5492TIP3    H116440   6.198   0.778   4.709
 5492TIP3    H216441   6.328   0.817   4.776
 5493TIP3   OH216442   2.445   6.072   0.712
 5493TIP3    H116443   2.464   6.001   0.774
 5493TIP3    H216444   2.530   6.091   0.672
 5494TIP3   OH216445   3.938   6.821   2.821
 5494TIP3    H116446   3.983   6.755   2.768
 5494TIP3    H216447   3.964   6.801   2.911
 5495TIP3   OH216448   5.497   2.363   5.532
 5495TIP3    H116449   5.589   2.385   5.541
 5495TIP3    H216450   5.453   2.446   5.515
 5496TIP3   OH216451   5.003   0.162   4.053
 5496TIP3    H116452   5.052   0.100   4.106
 5496TIP3    H216453   5.043   0.157   3.966
 5497TIP3   OH216454   0.748   5.741   1.338
 5497TIP3    H116455   0.731   5.828   1.375
 5497TIP3    H216456   0.842   5.739   1.321
 5498TIP3   OH216457   3.236   6.664   5.285
 5498TIP3    H116458   3.274   6.610   5.354
 5498TIP3    H216459   3.188   6.602   5.230
 5499TIP3   OH216460   3.713   4.933   4.066
 5499TIP3    H116461   3.669   4.855   4.100
 5499TIP3    H216462   3.795   4.899   4.029
 5500TIP3   OH216463   5.251   4.018   0.510
 5500TIP3    H116464   5.167   4.058   0.488
 5500TIP3    H216465   5.270   4.048   0.599
 5501TIP3   OH216466   4.216   0.647   2.517
 5501TIP3    H116467   4.280   0.583   2.549
 5501TIP3    H216468   4.196   0.619   2.428
 5502TIP3   OH216469   0.348   4.352   0.675
 5502TIP3    H116470   0.358   4.332   0.582
 5502TIP3    H216471   0.429   4.319   0.715
 5503TIP3   OH216472   1.646   2.453   2.181
 5503TIP3    H116473   1.695   2.520   2.134
 5503TIP3    H216474   1.556   2.484   2.183
 5504TIP3   OH216475   0.095   2.932   1.935
 5504TIP3    H116476   0.038   3.009   1.934
 5504TIP3    H216477   0.086   2.896   2.023
 5505TIP3   OH216478   2.895   0.657   4.633
 5505TIP3    H116479   2.916   0.730   4.691
 5505TIP3    H216480   2.971   0.650   4.575
 5506TIP3   OH216481   2.231   4.944   0.449
 5506TIP3    H116482   2.222   4.950   0.354
 5506TIP3    H216483   2.204   5.030   0.481
 5507TIP3   OH216484   1.973   4.641   0.484
 5507TIP3    H116485   1.910   4.677   0.547
 5507TIP3    H216486   1.956   4.689   0.403
 5508TIP3   OH216487   5.581   6.186   0.506
 5508TIP3    H116488   5.659   6.182   0.450
 5508TIP3    H216489   5.614   6.172   0.595
 5509TIP3   OH216490   3.758   3.236   0.450
 5509TIP3    H116491   3.797   3.289   0.380
 5509TIP3    H216492   3.828   3.175   0.475
 5510TIP3   OH216493   3.906   6.030   3.936
 5510TIP3    H116494   3.872   6.062   3.853
 5510TIP3    H216495   3.827   6.007   3.986
 5511TIP3   OH216496   6.003   0.798   4.748
 5511TIP3    H116497   6.004   0.849   4.667
 5511TIP3    H216498   5.916   0.814   4.784
 5512TIP3   OH216499   1.448   4.502   5.837
 5512TIP3    H116500   1.396   4.540   5.766
 5512TIP3    H216501   1.494   4.576   5.875
 5513TIP3   OH216502   2.327   5.430   2.532
 5513TIP3    H116503   2.278   5.350   2.512
 5513TIP3    H216504   2.387   5.404   2.603
 5514TIP3   OH216505   5.320   6.183   0.861
 5514TIP3    H116506   5.295   6.265   0.902
 5514TIP3    H216507   5.374   6.208   0.786
 5515TIP3   OH216508   4.465   4.122   1.209
 5515TIP3    H116509   4.540   4.086   1.161
 5515TIP3    H216510   4.392   4.118   1.146
 5516TIP3   OH216511   6.700   1.243   5.355
 5516TIP3    H116512   6.683   1.323   5.305
 5516TIP3    H216513   6.795   1.230   5.348
 5517TIP3   OH216514   5.949   4.690   5.397
 5517TIP3    H116515   6.011   4.736   5.454
 5517TIP3    H216516   5.882   4.656   5.456
 5518TIP3   OH216517   4.165   2.792   1.462
 5518TIP3    H116518   4.070   2.802   1.464
 5518TIP3    H216519   4.197   2.871   1.418
 5519TIP3   OH216520   5.030   3.635   0.970
 5519TIP3    H116521   5.123   3.659   0.974
 5519TIP3    H216522   5.029   3.542   0.992
 5520TIP3   OH216523   3.055   1.584   2.642
 5520TIP3    H116524   3.022   1.518   2.703
 5520TIP3    H216525   3.146   1.599   2.668
 5521TIP3   OH216526   3.708   5.687   2.279
 5521TIP3    H116527   3.720   5.778   2.306
 5521TIP3    H216528   3.628   5.660   2.324
 5522TIP3   OH216529   5.718   0.089   5.564
 5522TIP3    H116530   5.683   0.149   5.498
 5522TIP3    H216531   5.813   0.104   5.562
 5523TIP3   OH216532   3.029   3.047   0.642
 5523TIP3    H116533   2.944   3.091   0.640
 5523TIP3    H216534   3.008   2.954   0.627
 5524TIP3   OH216535   5.553   2.906   5.092
 5524TIP3    H116536   5.553   2.964   5.015
 5524TIP3    H216537   5.633   2.928   5.139
 5525TIP3   OH216538   6.280   4.687   5.334
 5525TIP3    H116539   6.242   4.766   5.296
 5525TIP3    H216540   6.343   4.719   5.399
 5526TIP3   OH216541   5.215   0.433   1.420
 5526TIP3    H116542   5.217   0.486   1.341
 5526TIP3    H216543   5.300   0.448   1.461
 5527TIP3   OH216544   6.362   4.288   5.830
 5527TIP3    H116545   6.431   4.354   5.821
 5527TIP3    H216546   6.283   4.332   5.798
 5528TIP3   OH216547   0.898   0.828   2.472
 5528TIP3    H116548   0.884   0.904   2.529
 5528TIP3    H216549   0.985   0.842   2.435
 5529TIP3   OH216550   3.804   4.375   0.802
 5529TIP3    H116551   3.752   4.423   0.737
 5529TIP3    H216552   3.888   4.420   0.804
 5530TIP3   OH216553   2.197   4.481   3.371
 5530TIP3    H116554   2.158   4.420   3.434
 5530TIP3    H216555   2.249   4.541   3.424
 5531TIP3   OH216556   4.526   4.543   5.853
 5531TIP3    H116557   4.611   4.575   5.885
 5531TIP3    H216558   4.532   4.551   5.758
 5532TIP3   OH216559   3.925   4.648   3.757
 5532TIP3    H116560   3.905   4.682   3.844
 5532TIP3    H216561   4.006   4.691   3.731
 5533TIP3   OH216562   7.160   0.203   4.633
 5533TIP3    H116563   7.089   0.150   4.598
 5533TIP3    H216564   7.119   0.255   4.703
 5534TIP3   OH216565   4.313   4.516   2.623
 5534TIP3    H116566   4.352   4.440   2.665
 5534TIP3    H216567   4.378   4.544   2.559
 5535TIP3   OH216568   4.385   4.602   2.348
 5535TIP3    H116569   4.306   4.627   2.395
 5535TIP3    H216570   4.370   4.511   2.323
 5536TIP3   OH216571   2.386   2.674   1.928
 5536TIP3    H116572   2.469   2.698   1.888
 5536TIP3    H216573   2.358   2.596   1.881
 5537TIP3   OH216574   1.945   3.098   4.857
 5537TIP3    H116575   1.941   3.043   4.935
 5537TIP3    H216576   1.909   3.182   4.885
 5538TIP3   OH216577   4.112   5.662   5.675
 5538TIP3    H116578   4.145   5.583   5.631
 5538TIP3    H216579   4.188   5.720   5.679
 5539TIP3   OH216580   2.412   2.694   4.984
 5539TIP3    H116581   2.475   2.734   4.924
 5539TIP3    H216582   2.337   2.754   4.983
 5540TIP3   OH216583   1.685   4.333   4.697
 5540TIP3    H116584   1.677   4.284   4.615
 5540TIP3    H216585   1.625   4.289   4.757
 5541TIP3   OH216586   6.541   2.724   3.617
 5541TIP3    H116587   6.624   2.747   3.575
 5541TIP3    H216588   6.478   2.724   3.545
 5542TIP3   OH216589   1.954   1.553   0.327
 5542TIP3    H116590   1.894   1.625   0.309
 5542TIP3    H216591   2.012   1.586   0.396
 5543TIP3   OH216592   0.288   4.322   1.782
 5543TIP3    H116593   0.208   4.350   1.738
 5543TIP3    H216594   0.353   4.388   1.758
 5544TIP3   OH216595   1.212   2.707   3.937
 5544TIP3    H116596   1.198   2.613   3.925
 5544TIP3    H216597   1.267   2.713   4.015
 5545TIP3   OH216598   2.896   2.719   5.573
 5545TIP3    H116599   2.891   2.634   5.615
 5545TIP3    H216600   2.914   2.781   5.644
 5546TIP3   OH216601   3.459   3.402   5.234
 5546TIP3    H116602   3.367   3.393   5.259
 5546TIP3    H216603   3.483   3.492   5.258
 5547TIP3   OH216604   3.912   4.485   4.552
 5547TIP3    H116605   3.870   4.428   4.487
 5547TIP3    H216606   3.948   4.424   4.617
 5548TIP3   OH216607   2.826   3.297   5.705
 5548TIP3    H116608   2.891   3.366   5.708
 5548TIP3    H216609   2.827   3.266   5.615
 5549TIP3   OH216610   1.070   5.750   1.056
 5549TIP3    H116611   1.100   5.798   1.133
 5549TIP3    H216612   0.991   5.796   1.027
 5550TIP3   OH216613   5.351   3.472   4.460
 5550TIP3    H116614   5.283   3.539   4.448
 5550TIP3    H216615   5.336   3.439   4.548
 5551TIP3   OH216616   2.614   6.420   5.799
 5551TIP3    H116617   2.688   6.359   5.796
 5551TIP3    H216618   2.567   6.397   5.879
 5552TIP3   OH216619   3.281   5.039   2.111
 5552TIP3    H116620   3.228   5.017   2.188
 5552TIP3    H216621   3.272   4.963   2.053
 5553TIP3   OH216622   4.387   6.445   3.197
 5553TIP3    H116623   4.333   6.466   3.120
 5553TIP3    H216624   4.324   6.413   3.262
 5554TIP3   OH216625   0.735   5.395   0.604
 5554TIP3    H116626   0.806   5.332   0.601
 5554TIP3    H216627   0.742   5.443   0.522
 5555TIP3   OH216628   2.634   4.325   0.989
 5555TIP3    H116629   2.575   4.392   0.955
 5555TIP3    H216630   2.597   4.302   1.074
 5556TIP3   OH216631   2.313   2.725   3.119
 5556TIP3    H116632   2.388   2.684   3.078
 5556TIP3    H216633   2.243   2.659   3.113
 5557TIP3   OH216634   1.551   2.528   5.488
 5557TIP3    H116635   1.505   2.591   5.544
 5557TIP3    H216636   1.483   2.467   5.459
 5558TIP3   OH216637   2.865   4.849   1.496
 5558TIP3    H116638   2.913   4.786   1.549
 5558TIP3    H216639   2.859   4.927   1.550
 5559TIP3   OH216640   5.579   4.475   1.852
 5559TIP3    H116641   5.515   4.445   1.787
 5559TIP3    H216642   5.654   4.504   1.801
 5560TIP3   OH216643   1.374   6.768   0.905
 5560TIP3    H116644   1.321   6.790   0.829
 5560TIP3    H216645   1.394   6.852   0.946
 5561TIP3   OH216646   6.155   1.805   3.322
 5561TIP3    H116647   6.120   1.750   3.391
 5561TIP3    H216648   6.092   1.877   3.314
 5562TIP3   OH216649   2.407   3.621   1.452
 5562TIP3    H116650   2.312   3.634   1.442
 5562TIP3    H216651   2.432   3.571   1.374
 5563TIP3   OH216652   5.070   4.505   2.700
 5563TIP3    H116653   5.005   4.442   2.732
 5563TIP3    H216654   5.144   4.451   2.674
 5564TIP3   OH216655   2.329   0.296   5.588
 5564TIP3    H116656   2.356   0.378   5.545
 5564TIP3    H216657   2.314   0.236   5.515
 5565TIP3   OH216658   2.898   1.363   5.474
 5565TIP3    H116659   2.920   1.326   5.560
 5565TIP3    H216660   2.839   1.436   5.495
 5566TIP3   OH216661   0.384   4.521   1.291
 5566TIP3    H116662   0.354   4.433   1.266
 5566TIP3    H216663   0.465   4.506   1.338
 5567TIP3   OH216664   3.217   6.030   4.165
 5567TIP3    H116665   3.211   5.938   4.142
 5567TIP3    H216666   3.268   6.069   4.094
 5568TIP3   OH216667   6.811   3.245   4.118
 5568TIP3    H116668   6.801   3.168   4.174
 5568TIP3    H216669   6.807   3.210   4.029
 5569TIP3   OH216670   0.406   3.133   5.603
 5569TIP3    H116671   0.487   3.100   5.565
 5569TIP3    H216672   0.353   3.158   5.527
 5570TIP3   OH216673   4.115   4.769   1.453
 5570TIP3    H116674   4.167   4.739   1.528
 5570TIP3    H216675   4.170   4.834   1.410
 5571TIP3   OH216676   1.525   1.919   2.422
 5571TIP3    H116677   1.525   1.937   2.328
 5571TIP3    H216678   1.617   1.926   2.448
 5572TIP3   OH216679   6.205   3.953   2.373
 5572TIP3    H116680   6.126   3.924   2.420
 5572TIP3    H216681   6.209   4.048   2.389
 5573TIP3   OH216682   1.989   4.834   0.714
 5573TIP3    H116683   1.998   4.920   0.756
 5573TIP3    H216684   2.032   4.773   0.774
 5574TIP3   OH216685   4.081   4.754   5.700
 5574TIP3    H116686   4.102   4.705   5.621
 5574TIP3    H216687   3.998   4.717   5.730
 5575TIP3   OH216688   3.250   1.159   5.782
 5575TIP3    H116689   3.339   1.154   5.746
 5575TIP3    H216690   3.201   1.093   5.733
 5576TIP3   OH216691   1.821   5.204   2.282
 5576TIP3    H116692   1.762   5.186   2.209
 5576TIP3    H216693   1.909   5.190   2.247
 5577TIP3   OH216694   2.854   3.832   0.311
 5577TIP3    H116695   2.806   3.912   0.332
 5577TIP3    H216696   2.820   3.804   0.226
 5578TIP3   OH216697   2.303   0.494   3.860
 5578TIP3    H116698   2.344   0.474   3.776
 5578TIP3    H216699   2.231   0.553   3.839
 5579TIP3   OH216700   2.868   4.537   2.680
 5579TIP3    H116701   2.916   4.532   2.763
 5579TIP3    H216702   2.795   4.477   2.691
 5580TIP3   OH216703   5.638   2.041   5.677
 5580TIP3    H116704   5.651   1.947   5.691
 5580TIP3    H216705   5.558   2.047   5.624
 5581TIP3   OH216706   6.604   3.591   5.098
 5581TIP3    H116707   6.659   3.513   5.105
 5581TIP3    H216708   6.574   3.591   5.007
 5582TIP3   OH216709   5.142   3.971   5.513
 5582TIP3    H116710   5.112   3.949   5.601
 5582TIP3    H216711   5.086   3.921   5.455
 5583TIP3   OH216712   1.465   6.045   5.231
 5583TIP3    H116713   1.416   6.127   5.237
 5583TIP3    H216714   1.553   6.068   5.262
 5584TIP3   OH216715   1.601   2.107   3.011
 5584TIP3    H116716   1.594   2.028   2.958
 5584TIP3    H216717   1.511   2.139   3.018
 5585TIP3   OH216718   1.091   5.398   4.338
 5585TIP3    H116719   1.008   5.381   4.293
 5585TIP3    H216720   1.125   5.311   4.359
 5586TIP3   OH216721   3.199   3.910   4.035
 5586TIP3    H116722   3.219   3.980   4.097
 5586TIP3    H216723   3.158   3.842   4.088
 5587TIP3   OH216724   0.198   1.176   4.551
 5587TIP3    H116725   0.221   1.084   4.538
 5587TIP3    H216726   0.108   1.184   4.518
 5588TIP3   OH216727   4.549   1.010   2.229
 5588TIP3    H116728   4.585   0.931   2.189
 5588TIP3    H216729   4.616   1.077   2.214
 5589TIP3   OH216730   7.100   4.593   1.142
 5589TIP3    H116731   7.135   4.680   1.120
 5589TIP3    H216732   7.052   4.607   1.224
 5590TIP3   OH216733   4.103   5.511   5.023
 5590TIP3    H116734   4.095   5.416   5.031
 5590TIP3    H216735   4.082   5.530   4.931
 5591TIP3   OH216736   1.812   4.258   2.075
 5591TIP3    H116737   1.825   4.212   1.993
 5591TIP3    H216738   1.753   4.202   2.125
 5592TIP3   OH216739   5.182   1.144   2.547
 5592TIP3    H116740   5.265   1.191   2.557
 5592TIP3    H216741   5.122   1.208   2.509
 5593TIP3   OH216742   4.382   2.905   2.650
 5593TIP3    H116743   4.312   2.897   2.585
 5593TIP3    H216744   4.336   2.918   2.733
 5594TIP3   OH216745   5.183   2.136   0.943
 5594TIP3    H116746   5.139   2.051   0.938
 5594TIP3    H216747   5.239   2.138   0.865
 5595TIP3   OH216748   5.073   2.987   4.313
 5595TIP3    H116749   5.005   2.939   4.265
 5595TIP3    H216750   5.155   2.946   4.286
 5596TIP3   OH216751   0.385   3.120   0.526
 5596TIP3    H116752   0.313   3.152   0.472
 5596TIP3    H216753   0.368   3.155   0.613
 5597TIP3   OH216754   7.113   3.941   3.379
 5597TIP3    H116755   7.029   3.975   3.351
 5597TIP3    H216756   7.100   3.914   3.470
 5598TIP3   OH216757   0.103   3.858   1.312
 5598TIP3    H116758   0.084   3.890   1.224
 5598TIP3    H216759   0.074   3.928   1.371
 5599TIP3   OH216760   0.494   0.051   5.271
 5599TIP3    H116761   0.550  -0.015   5.312
 5599TIP3    H216762   0.553   0.126   5.258
 5600TIP3   OH216763   3.242   5.597   3.627
 5600TIP3    H116764   3.256   5.524   3.567
 5600TIP3    H216765   3.324   5.645   3.626
 5601TIP3   OH216766   1.438   5.473   1.762
 5601TIP3    H116767   1.435   5.441   1.672
 5601TIP3    H216768   1.493   5.410   1.808
 5602TIP3   OH216769   1.160   4.948   5.678
 5602TIP3    H116770   1.115   5.033   5.671
 5602TIP3    H216771   1.095   4.884   5.649
 5603TIP3   OH216772   4.115   5.838   3.028
 5603TIP3    H116773   4.143   5.772   3.092
 5603TIP3    H216774   4.096   5.788   2.949
 5604TIP3   OH216775   1.910   5.097   3.325
 5604TIP3    H116776   1.969   5.029   3.291
 5604TIP3    H216777   1.827   5.080   3.282
 5605TIP3   OH216778   6.241   6.589   3.100
 5605TIP3    H116779   6.175   6.634   3.047
 5605TIP3    H216780   6.195   6.564   3.180
 5606TIP3   OH216781   4.299   2.339   4.796
 5606TIP3    H116782   4.253   2.412   4.755
 5606TIP3    H216783   4.363   2.381   4.854
 5607TIP3   OH216784   6.281   3.704   4.991
 5607TIP3    H116785   6.364   3.658   4.976
 5607TIP3    H216786   6.305   3.780   5.043
 5608TIP3   OH216787   2.988   1.314   2.395
 5608TIP3    H116788   3.010   1.354   2.480
 5608TIP3    H216789   2.892   1.319   2.391
 5609TIP3   OH216790   6.043   1.312   3.891
 5609TIP3    H116791   6.061   1.398   3.853
 5609TIP3    H216792   6.012   1.331   3.980
 5610TIP3   OH216793   5.329   3.324   2.379
 5610TIP3    H116794   5.332   3.394   2.445
 5610TIP3    H216795   5.266   3.356   2.314
 5611TIP3   OH216796   6.917   2.500   3.666
 5611TIP3    H116797   6.955   2.506   3.753
 5611TIP3    H216798   6.976   2.443   3.617
 5612TIP3   OH216799   3.284   5.372   5.609
 5612TIP3    H116800   3.276   5.337   5.520
 5612TIP3    H216801   3.238   5.308   5.664
 5613TIP3   OH216802   5.593   5.027   1.448
 5613TIP3    H116803   5.636   5.019   1.363
 5613TIP3    H216804   5.570   4.937   1.472
 5614TIP3   OH216805   5.449   5.492   5.692
 5614TIP3    H116806   5.417   5.553   5.626
 5614TIP3    H216807   5.371   5.468   5.742
 5615TIP3   OH216808   3.663   5.987   0.719
 5615TIP3    H116809   3.616   5.950   0.794
 5615TIP3    H216810   3.753   5.997   0.750
 5616TIP3   OH216811   6.853   1.942   0.280
 5616TIP3    H116812   6.764   1.969   0.258
 5616TIP3    H216813   6.905   2.023   0.276
 5617TIP3   OH216814   3.032   5.972   1.373
 5617TIP3    H116815   2.952   5.939   1.332
 5617TIP3    H216816   3.002   6.014   1.454
 5618TIP3   OH216817   0.412   6.166   1.357
 5618TIP3    H116818   0.420   6.199   1.447
 5618TIP3    H216819   0.458   6.082   1.359
 5619TIP3   OH216820   3.345   3.737   5.837
 5619TIP3    H116821   3.287   3.787   5.895
 5619TIP3    H216822   3.406   3.693   5.895
 5620TIP3   OH216823   4.769   6.736   1.274
 5620TIP3    H116824   4.862   6.737   1.249
 5620TIP3    H216825   4.768   6.765   1.365
 5621TIP3   OH216826   1.145   0.450   5.905
 5621TIP3    H116827   1.058   0.475   5.872
 5621TIP3    H216828   1.206   0.506   5.856
 5622TIP3   OH216829   0.106   1.024   2.560
 5622TIP3    H116830   0.097   1.119   2.548
 5622TIP3    H216831   0.114   1.013   2.655
 5623TIP3   OH216832   5.002   1.803   1.352
 5623TIP3    H116833   5.003   1.708   1.361
 5623TIP3    H216834   4.949   1.833   1.426
 5624TIP3   OH216835   0.819   3.711   0.871
 5624TIP3    H116836   0.858   3.787   0.827
 5624TIP3    H216837   0.735   3.699   0.828
 5625TIP3   OH216838   6.592   5.655   0.632
 5625TIP3    H116839   6.677   5.693   0.612
 5625TIP3    H216840   6.532   5.729   0.631
 5626TIP3   OH216841   1.629   4.368   5.686
 5626TIP3    H116842   1.636   4.277   5.715
 5626TIP3    H216843   1.566   4.407   5.747
 5627TIP3   OH216844   6.108   3.109   0.492
 5627TIP3    H116845   6.182   3.169   0.503
 5627TIP3    H216846   6.132   3.055   0.417
 5628TIP3   OH216847   3.644   0.654   5.554
 5628TIP3    H116848   3.703   0.594   5.600
 5628TIP3    H216849   3.688   0.672   5.471
 5629TIP3   OH216850   2.780   6.004   0.860
 5629TIP3    H116851   2.756   6.094   0.884
 5629TIP3    H216852   2.823   5.969   0.938
 5630TIP3   OH216853   5.833   2.319   1.949
 5630TIP3    H116854   5.740   2.340   1.943
 5630TIP3    H216855   5.872   2.358   1.871
 5631TIP3   OH216856   3.753   3.001   3.091
 5631TIP3    H116857   3.800   2.974   3.013
 5631TIP3    H216858   3.678   3.050   3.057
 5632TIP3   OH216859   0.575   1.763   1.515
 5632TIP3    H116860   0.605   1.766   1.606
 5632TIP3    H216861   0.521   1.684   1.511
 5633TIP3   OH216862   6.123   0.813   5.002
 5633TIP3    H116863   6.083   0.834   4.918
 5633TIP3    H216864   6.053   0.772   5.052
 5634TIP3   OH216865   5.092   2.130   5.316
 5634TIP3    H116866   5.094   2.082   5.398
 5634TIP3    H216867   5.037   2.206   5.333
 5635TIP3   OH216868   6.439   5.449   4.003
 5635TIP3    H116869   6.374   5.492   4.059
 5635TIP3    H216870   6.523   5.476   4.041
 5636TIP3   OH216871   1.244   3.735   4.947
 5636TIP3    H116872   1.307   3.775   5.007
 5636TIP3    H216873   1.213   3.657   4.993
 5637TIP3   OH216874   4.948   5.801   4.161
 5637TIP3    H116875   4.963   5.784   4.068
 5637TIP3    H216876   4.890   5.730   4.189
 5638TIP3   OH216877   3.185   0.082   3.164
 5638TIP3    H116878   3.172  -0.013   3.171
 5638TIP3    H216879   3.247   0.103   3.233
 5639TIP3   OH216880   4.375   1.558   1.138
 5639TIP3    H116881   4.317   1.626   1.175
 5639TIP3    H216882   4.317   1.504   1.085
 5640TIP3   OH216883   3.641   1.044   5.134
 5640TIP3    H116884   3.627   0.987   5.058
 5640TIP3    H216885   3.596   1.125   5.112
 5641TIP3   OH216886   5.806   5.052   1.757
 5641TIP3    H116887   5.820   4.980   1.819
 5641TIP3    H216888   5.716   5.080   1.773
 5642TIP3   OH216889   5.056   2.668   3.263
 5642TIP3    H116890   5.063   2.739   3.199
 5642TIP3    H216891   5.122   2.604   3.236
 5643TIP3   OH216892   6.895   2.554   5.007
 5643TIP3    H116893   6.819   2.496   4.998
 5643TIP3    H216894   6.925   2.568   4.917
 5644TIP3   OH216895   2.899   6.177   5.846
 5644TIP3    H116896   2.943   6.106   5.799
 5644TIP3    H216897   2.813   6.140   5.869
 5645TIP3   OH216898   2.208   0.482   4.806
 5645TIP3    H116899   2.172   0.398   4.834
 5645TIP3    H216900   2.136   0.527   4.762
 5646TIP3   OH216901   4.230   4.147   1.757
 5646TIP3    H116902   4.248   4.169   1.665
 5646TIP3    H216903   4.305   4.094   1.784
 5647TIP3   OH216904   0.730   2.835   2.123
 5647TIP3    H116905   0.800   2.869   2.178
 5647TIP3    H216906   0.775   2.797   2.047
 5648TIP3   OH216907   0.510   3.355   2.480
 5648TIP3    H116908   0.558   3.348   2.398
 5648TIP3    H216909   0.477   3.267   2.497
 5649TIP3   OH216910   2.719   3.578   4.279
 5649TIP3    H116911   2.787   3.618   4.225
 5649TIP3    H216912   2.762   3.502   4.319
 5650TIP3   OH216913   3.754   6.023   3.140
 5650TIP3    H116914   3.729   5.946   3.191
 5650TIP3    H216915   3.848   6.032   3.155
 5651TIP3   OH216916   5.564   3.981   3.628
 5651TIP3    H116917   5.548   4.069   3.594
 5651TIP3    H216918   5.493   3.928   3.593
 5652TIP3   OH216919   6.376   4.105   1.219
 5652TIP3    H116920   6.347   4.195   1.207
 5652TIP3    H216921   6.295   4.054   1.222
 5653TIP3   OH216922   0.527   4.110   1.246
 5653TIP3    H116923   0.475   4.036   1.276
 5653TIP3    H216924   0.474   4.187   1.268
 5654TIP3   OH216925   6.353   4.133   1.685
 5654TIP3    H116926   6.295   4.058   1.673
 5654TIP3    H216927   6.393   4.119   1.770
 5655TIP3   OH216928   2.652   5.249   1.409
 5655TIP3    H116929   2.736   5.251   1.364
 5655TIP3    H216930   2.608   5.171   1.376
 5656TIP3   OH216931   3.171   0.232   5.620
 5656TIP3    H116932   3.182   0.317   5.662
 5656TIP3    H216933   3.259   0.206   5.594
 5657TIP3   OH216934   2.811   4.814   5.272
 5657TIP3    H116935   2.778   4.750   5.336
 5657TIP3    H216936   2.733   4.849   5.230
 5658TIP3   OH216937   1.470   0.598   0.930
 5658TIP3    H116938   1.509   0.581   0.844
 5658TIP3    H216939   1.405   0.529   0.940
 5659TIP3   OH216940   1.029   1.478   5.833
 5659TIP3    H116941   1.097   1.467   5.766
 5659TIP3    H216942   1.070   1.447   5.914
 5660TIP3   OH216943   6.070   4.733   0.154
 5660TIP3    H116944   6.120   4.805   0.191
 5660TIP3    H216945   6.136   4.669   0.128
 5661TIP3   OH216946   3.262   2.933   0.202
 5661TIP3    H116947   3.239   2.977   0.283
 5661TIP3    H216948   3.295   2.847   0.229
 5662TIP3   OH216949   5.480   4.444   4.155
 5662TIP3    H116950   5.443   4.395   4.229
 5662TIP3    H216951   5.491   4.533   4.189
 5663TIP3   OH216952   0.042   4.831   2.901
 5663TIP3    H116953  -0.044   4.823   2.860
 5663TIP3    H216954   0.035   4.778   2.980
 5664TIP3   OH216955   0.711   2.532   5.456
 5664TIP3    H116956   0.759   2.608   5.423
 5664TIP3    H216957   0.743   2.520   5.545
 5665TIP3   OH216958   2.445   3.081   5.575
 5665TIP3    H116959   2.428   3.056   5.666
 5665TIP3    H216960   2.497   3.010   5.539
 5666TIP3   OH216961   2.485   3.177   1.297
 5666TIP3    H116962   2.571   3.206   1.327
 5666TIP3    H216963   2.501   3.141   1.209
 5667TIP3   OH216964   0.887   1.832   4.320
 5667TIP3    H116965   0.979   1.859   4.328
 5667TIP3    H216966   0.885   1.776   4.242
 5668TIP3   OH216967   4.737   6.356   0.173
 5668TIP3    H116968   4.722   6.397   0.258
 5668TIP3    H216969   4.678   6.401   0.114
 5669TIP3   OH216970   3.505   3.887   4.085
 5669TIP3    H116971   3.505   3.816   4.150
 5669TIP3    H216972   3.427   3.872   4.033
 5670TIP3   OH216973   7.081   6.689   2.095
 5670TIP3    H116974   7.176   6.683   2.101
 5670TIP3    H216975   7.053   6.603   2.062
 5671TIP3   OH216976   4.071   3.448   4.131
 5671TIP3    H116977   3.983   3.477   4.105
 5671TIP3    H216978   4.061   3.353   4.145
 5672TIP3   OH216979   4.386   3.437   4.263
 5672TIP3    H116980   4.394   3.375   4.336
 5672TIP3    H216981   4.327   3.394   4.201
 5673TIP3   OH216982   3.651   2.415   0.726
 5673TIP3    H116983   3.617   2.377   0.645
 5673TIP3    H216984   3.727   2.465   0.698
 5674TIP3   OH216985   2.540   3.578   0.750
 5674TIP3    H116986   2.623   3.591   0.705
 5674TIP3    H216987   2.474   3.610   0.688
 5675TIP3   OH216988   5.968   4.070   0.344
 5675TIP3    H116989   5.967   3.974   0.349
 5675TIP3    H216990   6.056   4.095   0.371
 5676TIP3   OH216991   1.697   0.362   4.536
 5676TIP3    H116992   1.692   0.448   4.495
 5676TIP3    H216993   1.608   0.346   4.569
 5677TIP3   OH216994   3.291   4.503   0.118
 5677TIP3    H116995   3.257   4.592   0.117
 5677TIP3    H216996   3.357   4.501   0.049
 5678TIP3   OH216997   2.668   3.368   3.145
 5678TIP3    H116998   2.676   3.273   3.139
 5678TIP3    H216999   2.741   3.395   3.199
 5679TIP3   OH217000   3.968   1.047   3.943
 5679TIP3    H117001   4.024   1.054   4.020
 5679TIP3    H217002   3.990   0.961   3.906
 5680TIP3   OH217003   6.954   2.521   3.127
 5680TIP3    H117004   6.896   2.593   3.102
 5680TIP3    H217005   6.923   2.447   3.075
 5681TIP3   OH217006   0.714   3.533   4.262
 5681TIP3    H117007   0.685   3.455   4.214
 5681TIP3    H217008   0.753   3.498   4.342
 5682TIP3   OH217009   4.935   4.786   2.664
 5682TIP3    H117010   4.972   4.715   2.717
 5682TIP3    H217011   4.857   4.813   2.713
 5683TIP3   OH217012   3.236   0.899   4.643
 5683TIP3    H117013   3.180   0.909   4.566
 5683TIP3    H217014   3.319   0.940   4.617
 5684TIP3   OH217015   5.392   3.646   1.977
 5684TIP3    H117016   5.431   3.611   1.897
 5684TIP3    H217017   5.298   3.634   1.964
 5685TIP3   OH217018   0.288   0.405   1.836
 5685TIP3    H117019   0.318   0.477   1.891
 5685TIP3    H217020   0.255   0.447   1.756
 5686TIP3   OH217021   0.523   5.223   2.190
 5686TIP3    H117022   0.557   5.195   2.275
 5686TIP3    H217023   0.593   5.276   2.152
 5687TIP3   OH217024   4.592   0.795   5.625
 5687TIP3    H117025   4.582   0.878   5.580
 5687TIP3    H217026   4.506   0.754   5.619
 5688TIP3   OH217027   2.551   1.931   5.648
 5688TIP3    H117028   2.485   1.878   5.605
 5688TIP3    H217029   2.634   1.887   5.628
 5689TIP3   OH217030   4.189   5.562   1.766
 5689TIP3    H117031   4.155   5.645   1.800
 5689TIP3    H217032   4.142   5.495   1.816
 5690TIP3   OH217033   6.824   3.909   2.386
 5690TIP3    H117034   6.750   3.861   2.349
 5690TIP3    H217035   6.801   3.921   2.478
 5691TIP3   OH217036   5.406   6.423   5.672
 5691TIP3    H117037   5.405   6.509   5.715
 5691TIP3    H217038   5.472   6.373   5.720
 5692TIP3   OH217039   6.256   0.624   2.432
 5692TIP3    H117040   6.281   0.579   2.351
 5692TIP3    H217041   6.290   0.713   2.420
 5693TIP3   OH217042   2.131   4.800   5.258
 5693TIP3    H117043   2.047   4.807   5.213
 5693TIP3    H217044   2.110   4.815   5.350
 5694TIP3   OH217045   0.439   3.638   2.789
 5694TIP3    H117046   0.533   3.622   2.780
 5694TIP3    H217047   0.400   3.551   2.786
 5695TIP3   OH217048   1.668   2.413   1.864
 5695TIP3    H117049   1.595   2.471   1.842
 5695TIP3    H217050   1.742   2.472   1.876
 5696TIP3   OH217051   7.129   5.149   2.684
 5696TIP3    H117052   7.158   5.141   2.593
 5696TIP3    H217053   7.078   5.070   2.701
 5697TIP3   OH217054   5.632   2.789   3.242
 5697TIP3    H117055   5.662   2.802   3.152
 5697TIP3    H217056   5.667   2.865   3.289
 5698TIP3   OH217057   6.740   5.859   4.539
 5698TIP3    H117058   6.826   5.824   4.516
 5698TIP3    H217059   6.751   5.954   4.537
 5699TIP3   OH217060   5.456   2.445   0.149
 5699TIP3    H117061   5.506   2.387   0.207
 5699TIP3    H217062   5.485   2.420   0.061
 5700TIP3   OH217063   5.748   2.901   4.853
 5700TIP3    H117064   5.723   2.974   4.910
 5700TIP3    H217065   5.799   2.942   4.783
 5701TIP3   OH217066   3.225   0.088   5.335
 5701TIP3    H117067   3.274   0.006   5.338
 5701TIP3    H217068   3.254   0.130   5.254
 5702TIP3   OH217069   5.158   6.363   1.322
 5702TIP3    H117070   5.253   6.375   1.315
 5702TIP3    H217071   5.130   6.339   1.234
 5703TIP3   OH217072   0.178   1.654   1.130
 5703TIP3    H117073   0.170   1.645   1.035
 5703TIP3    H217074   0.209   1.568   1.159
 5704TIP3   OH217075   3.413   6.260   1.482
 5704TIP3    H117076   3.372   6.174   1.469
 5704TIP3    H217077   3.431   6.263   1.576
 5705TIP3   OH217078   2.565   5.230   1.969
 5705TIP3    H117079   2.575   5.249   1.876
 5705TIP3    H217080   2.476   5.193   1.976
 5706TIP3   OH217081   5.061   0.029   5.348
 5706TIP3    H117082   4.976   0.020   5.390
 5706TIP3    H217083   5.047   0.001   5.257
 5707TIP3   OH217084   6.470   2.935   2.913
 5707TIP3    H117085   6.508   2.925   3.001
 5707TIP3    H217086   6.493   3.025   2.888
 5708TIP3   OH217087   3.824   1.899   3.733
 5708TIP3    H117088   3.845   1.862   3.648
 5708TIP3    H217089   3.885   1.973   3.742
 5709TIP3   OH217090   5.718   1.062   4.469
 5709TIP3    H117091   5.688   1.091   4.382
 5709TIP3    H217092   5.643   1.078   4.526
 5710TIP3   OH217093   0.005   4.627   4.319
 5710TIP3    H117094   0.077   4.570   4.349
 5710TIP3    H217095   0.011   4.704   4.376
 5711TIP3   OH217096   4.770   4.950   3.776
 5711TIP3    H117097   4.774   5.046   3.776
 5711TIP3    H217098   4.679   4.930   3.753
 5712TIP3   OH217099   4.352   6.717   5.656
 5712TIP3    H117100   4.360   6.675   5.742
 5712TIP3    H217101   4.346   6.644   5.594
 5713TIP3   OH217102   4.091   1.640   3.656
 5713TIP3    H117103   4.143   1.579   3.603
 5713TIP3    H217104   4.107   1.726   3.616
 5714TIP3   OH217105   2.584   1.667   5.828
 5714TIP3    H117106   2.596   1.651   5.921
 5714TIP3    H217107   2.496   1.634   5.808
 5715TIP3   OH217108   2.575   3.288   0.628
 5715TIP3    H117109   2.502   3.314   0.685
 5715TIP3    H217110   2.634   3.363   0.629
 5716TIP3   OH217111   6.536   5.445   5.314
 5716TIP3    H117112   6.535   5.387   5.238
 5716TIP3    H217113   6.590   5.520   5.287
 5717TIP3   OH217114   2.174   4.407   2.353
 5717TIP3    H117115   2.215   4.487   2.388
 5717TIP3    H217116   2.109   4.439   2.291
 5718TIP3   OH217117   1.612   3.834   3.197
 5718TIP3    H117118   1.639   3.814   3.107
 5718TIP3    H217119   1.604   3.748   3.238
 5719TIP3   OH217120   0.976   5.497   3.879
 5719TIP3    H117121   0.972   5.419   3.934
 5719TIP3    H217122   1.036   5.474   3.809
 5720TIP3   OH217123   4.313   0.161   0.678
 5720TIP3    H117124   4.251   0.131   0.744
 5720TIP3    H217125   4.384   0.201   0.728
 5721TIP3   OH217126   6.520   3.248   5.441
 5721TIP3    H117127   6.448   3.295   5.400
 5721TIP3    H217128   6.503   3.156   5.421
 5722TIP3   OH217129   4.465   1.864   0.257
 5722TIP3    H117130   4.526   1.824   0.318
 5722TIP3    H217131   4.407   1.792   0.231
 5723TIP3   OH217132   3.536   5.812   1.375
 5723TIP3    H117133   3.495   5.772   1.298
 5723TIP3    H217134   3.582   5.889   1.340
 5724TIP3   OH217135   3.392   1.943   0.404
 5724TIP3    H117136   3.476   1.942   0.449
 5724TIP3    H217137   3.385   2.032   0.368
 5725TIP3   OH217138   5.649   2.922   0.069
 5725TIP3    H117139   5.739   2.891   0.060
 5725TIP3    H217140   5.604   2.852   0.117
 5726TIP3   OH217141   0.182   1.358   0.469
 5726TIP3    H117142   0.261   1.388   0.514
 5726TIP3    H217143   0.129   1.436   0.458
 5727TIP3   OH217144   4.780   1.301   5.608
 5727TIP3    H117145   4.758   1.257   5.690
 5727TIP3    H217146   4.696   1.304   5.561
 5728TIP3   OH217147   0.555   4.184   0.249
 5728TIP3    H117148   0.568   4.092   0.227
 5728TIP3    H217149   0.509   4.221   0.174
 5729TIP3   OH217150   1.495   0.589   5.102
 5729TIP3    H117151   1.412   0.621   5.138
 5729TIP3    H217152   1.495   0.619   5.011
 5730TIP3   OH217153   6.414   1.584   1.460
 5730TIP3    H117154   6.480   1.567   1.393
 5730TIP3    H217155   6.422   1.510   1.520
 5731TIP3   OH217156   0.428   5.383   2.458
 5731TIP3    H117157   0.410   5.295   2.490
 5731TIP3    H217158   0.343   5.426   2.456
 5732TIP3   OH217159   4.469   6.198   0.054
 5732TIP3    H117160   4.533   6.189   0.125
 5732TIP3    H217161   4.387   6.165   0.092
 5733TIP3   OH217162   3.949   0.418   5.101
 5733TIP3    H117163   3.875   0.458   5.056
 5733TIP3    H217164   3.953   0.329   5.066
 5734TIP3   OH217165   6.398   4.348   3.437
 5734TIP3    H117166   6.470   4.313   3.489
 5734TIP3    H217167   6.355   4.271   3.400
 5735TIP3   OH217168   5.212   3.828   3.125
 5735TIP3    H117169   5.118   3.838   3.142
 5735TIP3    H217170   5.230   3.889   3.054
 5736TIP3   OH217171   7.132   4.555   5.194
 5736TIP3    H117172   7.081   4.604   5.258
 5736TIP3    H217173   7.170   4.482   5.244
 5737TIP3   OH217174   3.344   6.161   4.816
 5737TIP3    H117175   3.380   6.249   4.810
 5737TIP3    H217176   3.302   6.147   4.731
 5738TIP3   OH217177   3.607   4.723   0.848
 5738TIP3    H117178   3.572   4.637   0.824
 5738TIP3    H217179   3.670   4.704   0.918
 5739TIP3   OH217180   2.114   2.292   2.843
 5739TIP3    H117181   2.076   2.241   2.771
 5739TIP3    H217182   2.084   2.381   2.828
 5740TIP3   OH217183   3.787   0.021   3.443
 5740TIP3    H117184   3.876  -0.011   3.425
 5740TIP3    H217185   3.776   0.096   3.385
 5741TIP3   OH217186   0.723   6.577   5.543
 5741TIP3    H117187   0.647   6.616   5.586
 5741TIP3    H217188   0.774   6.652   5.511
 5742TIP3   OH217189   5.451   2.876   2.405
 5742TIP3    H117190   5.412   2.809   2.460
 5742TIP3    H217191   5.401   2.955   2.424
 5743TIP3   OH217192   5.724   6.387   1.355
 5743TIP3    H117193   5.744   6.479   1.338
 5743TIP3    H217194   5.708   6.349   1.269
 5744TIP3   OH217195   3.247   2.819   4.939
 5744TIP3    H117196   3.189   2.874   4.991
 5744TIP3    H217197   3.226   2.730   4.967
 5745TIP3   OH217198   1.219   4.902   0.694
 5745TIP3    H117199   1.224   4.830   0.631
 5745TIP3    H217200   1.156   4.872   0.760
 5746TIP3   OH217201   6.273   3.946   3.498
 5746TIP3    H117202   6.280   3.976   3.589
 5746TIP3    H217203   6.239   4.021   3.450
 5747TIP3   OH217204   3.647   5.285   1.635
 5747TIP3    H117205   3.602   5.347   1.692
 5747TIP3    H217206   3.591   5.208   1.633
 5748TIP3   OH217207   0.232   2.871   5.087
 5748TIP3    H117208   0.284   2.950   5.104
 5748TIP3    H217209   0.283   2.823   5.021
 5749TIP3   OH217210   5.241   0.973   4.394
 5749TIP3    H117211   5.176   1.024   4.441
 5749TIP3    H217212   5.218   0.882   4.412
 5750TIP3   OH217213   0.004   0.364   2.837
 5750TIP3    H117214  -0.009   0.353   2.931
 5750TIP3    H217215  -0.084   0.372   2.801
 5751TIP3   OH217216   0.684   2.703   5.116
 5751TIP3    H117217   0.638   2.766   5.171
 5751TIP3    H217218   0.634   2.700   5.034
 5752TIP3   OH217219   3.297   2.218   0.512
 5752TIP3    H117220   3.225   2.154   0.516
 5752TIP3    H217221   3.318   2.235   0.604
 5753TIP3   OH217222   0.799   3.894   2.001
 5753TIP3    H117223   0.879   3.882   1.949
 5753TIP3    H217224   0.799   3.987   2.023
 5754TIP3   OH217225   3.680   5.258   2.443
 5754TIP3    H117226   3.592   5.294   2.434
 5754TIP3    H217227   3.737   5.334   2.456
 5755TIP3   OH217228   6.158   2.577   0.908
 5755TIP3    H117229   6.112   2.636   0.967
 5755TIP3    H217230   6.120   2.595   0.822
 5756TIP3   OH217231   0.496   4.408   5.666
 5756TIP3    H117232   0.498   4.410   5.571
 5756TIP3    H217233   0.588   4.399   5.692
 5757TIP3   OH217234   6.159   5.780   5.316
 5757TIP3    H117235   6.227   5.812   5.375
 5757TIP3    H217236   6.077   5.814   5.353
 5758TIP3   OH217237   2.265   2.503   4.387
 5758TIP3    H117238   2.289   2.467   4.472
 5758TIP3    H217239   2.331   2.569   4.369
 5759TIP3   OH217240   6.000   2.490   4.853
 5759TIP3    H117241   5.980   2.582   4.835
 5759TIP3    H217242   5.983   2.479   4.946
 5760TIP3   OH217243   4.289   6.322   4.308
 5760TIP3    H117244   4.313   6.407   4.345
 5760TIP3    H217245   4.329   6.321   4.221
 5761TIP3   OH217246   5.228   1.899   0.539
 5761TIP3    H117247   5.274   1.958   0.478
 5761TIP3    H217248   5.158   1.860   0.486
 5762TIP3   OH217249   1.336   0.200   2.586
 5762TIP3    H117250   1.265   0.231   2.530
 5762TIP3    H217251   1.295   0.134   2.642
 5763TIP3   OH217252   7.183   2.556   0.858
 5763TIP3    H117253   7.090   2.536   0.845
 5763TIP3    H217254   7.187   2.596   0.944
 5764TIP3   OH217255   3.992   6.780   5.866
 5764TIP3    H117256   3.920   6.796   5.927
 5764TIP3    H217257   3.950   6.776   5.780
 5765TIP3   OH217258  -0.019   2.494   2.779
 5765TIP3    H117259  -0.047   2.404   2.763
 5765TIP3    H217260   0.076   2.492   2.769
 5766TIP3   OH217261   4.801   4.607   5.119
 5766TIP3    H117262   4.811   4.601   5.024
 5766TIP3    H217263   4.865   4.673   5.145
 5767TIP3   OH217264   0.455   5.645   3.887
 5767TIP3    H117265   0.389   5.712   3.904
 5767TIP3    H217266   0.405   5.564   3.878
 5768TIP3   OH217267   4.366   5.964   5.540
 5768TIP3    H117268   4.279   5.991   5.567
 5768TIP3    H217269   4.398   5.910   5.612
 5769TIP3   OH217270   3.717   5.729   5.082
 5769TIP3    H117271   3.794   5.762   5.128
 5769TIP3    H217272   3.739   5.639   5.059
 5770TIP3   OH217273   2.771   6.709   2.851
 5770TIP3    H117274   2.686   6.665   2.857
 5770TIP3    H217275   2.835   6.639   2.864
 5771TIP3   OH217276   6.205   6.256   4.914
 5771TIP3    H117277   6.235   6.287   4.829
 5771TIP3    H217278   6.244   6.316   4.977
 5772TIP3   OH217279   2.288   4.824   4.818
 5772TIP3    H117280   2.271   4.869   4.735
 5772TIP3    H217281   2.202   4.818   4.860
 5773TIP3   OH217282   4.839   2.739   3.893
 5773TIP3    H117283   4.914   2.680   3.903
 5773TIP3    H217284   4.764   2.688   3.924
 5774TIP3   OH217285   1.043   4.551   2.339
 5774TIP3    H117286   1.111   4.612   2.369
 5774TIP3    H217287   0.977   4.608   2.299
 5775TIP3   OH217288   1.272   5.651   2.345
 5775TIP3    H117289   1.326   5.720   2.384
 5775TIP3    H217290   1.203   5.635   2.410
 5776TIP3   OH217291   7.124   3.888   0.234
 5776TIP3    H117292   7.207   3.879   0.280
 5776TIP3    H217293   7.095   3.797   0.220
 5777TIP3   OH217294   0.675   0.432   3.740
 5777TIP3    H117295   0.710   0.344   3.756
 5777TIP3    H217296   0.721   0.463   3.662
 5778TIP3   OH217297   3.564   2.908   0.256
 5778TIP3    H117298   3.590   2.831   0.308
 5778TIP3    H217299   3.513   2.871   0.183
 5779TIP3   OH217300   3.281   6.506   2.770
 5779TIP3    H117301   3.230   6.507   2.852
 5779TIP3    H217302   3.371   6.519   2.798
 5780TIP3   OH217303   0.583   4.908   0.846
 5780TIP3    H117304   0.515   4.923   0.780
 5780TIP3    H217305   0.541   4.928   0.930
 5781TIP3   OH217306   3.132   3.443   1.448
 5781TIP3    H117307   3.142   3.504   1.376
 5781TIP3    H217308   3.097   3.495   1.520
 5782TIP3   OH217309   4.912   2.701   1.650
 5782TIP3    H117310   4.955   2.656   1.723
 5782TIP3    H217311   4.984   2.736   1.597
 5783TIP3   OH217312   4.719   1.808   4.010
 5783TIP3    H117313   4.771   1.831   4.087
 5783TIP3    H217314   4.748   1.721   3.985
 5784TIP3   OH217315   1.854   4.824   2.189
 5784TIP3    H117316   1.798   4.747   2.176
 5784TIP3    H217317   1.896   4.809   2.273
 5785TIP3   OH217318   5.551   4.073   0.519
 5785TIP3    H117319   5.469   4.032   0.493
 5785TIP3    H217320   5.615   4.043   0.454
 5786TIP3   OH217321   3.162   3.110   3.672
 5786TIP3    H117322   3.103   3.057   3.726
 5786TIP3    H217323   3.145   3.081   3.582
 5787TIP3   OH217324   2.029   1.560   0.057
 5787TIP3    H117325   1.999   1.533   0.143
 5787TIP3    H217326   2.041   1.654   0.064
 5788TIP3   OH217327   1.220   4.265   5.192
 5788TIP3    H117328   1.239   4.261   5.285
 5788TIP3    H217329   1.306   4.274   5.150
 5789TIP3   OH217330   2.800   1.968   3.533
 5789TIP3    H117331   2.773   2.047   3.578
 5789TIP3    H217332   2.718   1.926   3.507
 5790TIP3   OH217333   1.814   4.305   0.137
 5790TIP3    H117334   1.892   4.259   0.167
 5790TIP3    H217335   1.848   4.385   0.096
 5791TIP3   OH217336   5.505   2.197   4.608
 5791TIP3    H117337   5.559   2.145   4.547
 5791TIP3    H217338   5.569   2.249   4.656
 5792TIP3   OH217339   3.249   3.819   4.811
 5792TIP3    H117340   3.337   3.833   4.847
 5792TIP3    H217341   3.192   3.874   4.865
 5793TIP3   OH217342   0.728   4.810   4.538
 5793TIP3    H117343   0.726   4.793   4.444
 5793TIP3    H217344   0.654   4.761   4.574
 5794TIP3   OH217345   2.065   2.708   3.910
 5794TIP3    H117346   2.049   2.620   3.944
 5794TIP3    H217347   2.056   2.766   3.986
 5795TIP3   OH217348   5.409   5.285   3.625
 5795TIP3    H117349   5.503   5.301   3.616
 5795TIP3    H217350   5.402   5.191   3.640
 5796TIP3   OH217351   3.341   1.325   4.949
 5796TIP3    H117352   3.306   1.414   4.946
 5796TIP3    H217353   3.279   1.273   4.897
 5797TIP3   OH217354   3.234   5.731   4.165
 5797TIP3    H117355   3.311   5.693   4.208
 5797TIP3    H217356   3.238   5.698   4.076
 5798TIP3   OH217357   0.246   1.995   5.579
 5798TIP3    H117358   0.235   2.004   5.485
 5798TIP3    H217359   0.335   2.024   5.597
 5799TIP3   OH217360   1.164   0.076   5.015
 5799TIP3    H117361   1.167   0.011   5.085
 5799TIP3    H217362   1.135   0.027   4.938
 5800TIP3   OH217363   7.146   5.658   5.083
 5800TIP3    H117364   7.111   5.746   5.090
 5800TIP3    H217365   7.113   5.612   5.160
 5801TIP3   OH217366   5.392   0.564   5.705
 5801TIP3    H117367   5.335   0.518   5.766
 5801TIP3    H217368   5.354   0.548   5.618
 5802TIP3   OH217369   6.394   3.086   5.671
 5802TIP3    H117370   6.374   3.079   5.764
 5802TIP3    H217371   6.473   3.033   5.659
 5803TIP3   OH217372   7.155   0.791   2.569
 5803TIP3    H117373   7.081   0.848   2.589
 5803TIP3    H217374   7.222   0.850   2.535
 5804TIP3   OH217375   3.441   0.643   4.604
 5804TIP3    H117376   3.493   0.565   4.585
 5804TIP3    H217377   3.444   0.693   4.522
 5805TIP3   OH217378   5.379   6.673   1.299
 5805TIP3    H117379   5.331   6.665   1.217
 5805TIP3    H217380   5.428   6.755   1.290
 5806TIP3   OH217381   0.311   3.483   4.535
 5806TIP3    H117382   0.329   3.476   4.441
 5806TIP3    H217383   0.249   3.412   4.553
 5807TIP3   OH217384   4.675   0.838   1.661
 5807TIP3    H117385   4.619   0.915   1.675
 5807TIP3    H217386   4.667   0.819   1.568
 5808TIP3   OH217387   6.805   4.857   3.329
 5808TIP3    H117388   6.736   4.923   3.322
 5808TIP3    H217389   6.856   4.884   3.406
 5809TIP3   OH217390   4.322   0.412   0.188
 5809TIP3    H117391   4.404   0.460   0.197
 5809TIP3    H217392   4.343   0.340   0.128
 5810TIP3   OH217393   0.325   3.957   4.753
 5810TIP3    H117394   0.351   3.874   4.714
 5810TIP3    H217395   0.371   4.023   4.702
 5811TIP3   OH217396   6.108   2.192   5.247
 5811TIP3    H117397   6.141   2.185   5.157
 5811TIP3    H217398   6.111   2.102   5.280
 5812TIP3   OH217399   3.087   1.599   1.324
 5812TIP3    H117400   3.020   1.649   1.370
 5812TIP3    H217401   3.133   1.664   1.271
 5813TIP3   OH217402   3.575   2.993   5.563
 5813TIP3    H117403   3.520   3.032   5.632
 5813TIP3    H217404   3.545   2.903   5.556
 5814TIP3   OH217405   6.816   5.354   2.109
 5814TIP3    H117406   6.796   5.446   2.126
 5814TIP3    H217407   6.855   5.322   2.190
 5815TIP3   OH217408   2.891   5.559   2.690
 5815TIP3    H117409   2.980   5.550   2.724
 5815TIP3    H217410   2.891   5.644   2.646
 5816TIP3   OH217411   6.552   2.416   4.216
 5816TIP3    H117412   6.620   2.351   4.230
 5816TIP3    H217413   6.547   2.463   4.300
 5817TIP3   OH217414   0.566   2.969   1.737
 5817TIP3    H117415   0.582   2.923   1.654
 5817TIP3    H217416   0.470   2.967   1.747
 5818TIP3   OH217417   4.950   0.103   2.545
 5818TIP3    H117418   4.905   0.080   2.626
 5818TIP3    H217419   5.021   0.162   2.572
 5819TIP3   OH217420   5.745   0.535   3.016
 5819TIP3    H117421   5.761   0.495   2.931
 5819TIP3    H217422   5.813   0.499   3.073
 5820TIP3   OH217423   5.217   1.312   5.416
 5820TIP3    H117424   5.201   1.323   5.322
 5820TIP3    H217425   5.311   1.327   5.426
 5821TIP3   OH217426   4.018   3.328   2.272
 5821TIP3    H117427   4.053   3.277   2.199
 5821TIP3    H217428   3.954   3.386   2.233
 5822TIP3   OH217429   1.704   2.644   1.502
 5822TIP3    H117430   1.780   2.650   1.445
 5822TIP3    H217431   1.716   2.714   1.566
 5823TIP3   OH217432   2.440   4.995   4.157
 5823TIP3    H117433   2.470   4.987   4.248
 5823TIP3    H217434   2.458   4.910   4.118
 5824TIP3   OH217435   7.137   5.024   4.974
 5824TIP3    H117436   7.126   4.933   5.001
 5824TIP3    H217437   7.089   5.031   4.892
 5825TIP3   OH217438   3.386   0.049   1.720
 5825TIP3    H117439   3.432  -0.033   1.705
 5825TIP3    H217440   3.432   0.090   1.794
 5826TIP3   OH217441   2.812   0.472   2.774
 5826TIP3    H117442   2.846   0.393   2.731
 5826TIP3    H217443   2.730   0.444   2.814
 5827TIP3   OH217444   3.951   0.576   2.278
 5827TIP3    H117445   4.036   0.609   2.248
 5827TIP3    H217446   3.969   0.487   2.309
 5828TIP3   OH217447   3.618   3.718   0.240
 5828TIP3    H117448   3.576   3.771   0.172
 5828TIP3    H217449   3.581   3.750   0.322
 5829TIP3   OH217450   0.119   5.501   3.975
 5829TIP3    H117451   0.131   5.416   3.933
 5829TIP3    H217452   0.067   5.482   4.054
 5830TIP3   OH217453   3.785   3.060   4.474
 5830TIP3    H117454   3.772   3.011   4.555
 5830TIP3    H217455   3.711   3.035   4.419
 5831TIP3   OH217456   0.062   3.133   1.246
 5831TIP3    H117457   0.073   3.048   1.288
 5831TIP3    H217458   0.075   3.115   1.153
 5832TIP3   OH217459   1.377   5.497   0.712
 5832TIP3    H117460   1.288   5.489   0.675
 5832TIP3    H217461   1.430   5.439   0.658
 5833TIP3   OH217462   7.128   0.464   1.048
 5833TIP3    H117463   7.109   0.383   1.096
 5833TIP3    H217464   7.046   0.514   1.052
 5834TIP3   OH217465   6.832   5.550   4.999
 5834TIP3    H117466   6.744   5.517   5.017
 5834TIP3    H217467   6.829   5.642   5.026
 5835TIP3   OH217468   5.907   1.917   5.027
 5835TIP3    H117469   5.894   2.008   5.051
 5835TIP3    H217470   5.976   1.919   4.960
 5836TIP3   OH217471   7.075   3.998   1.687
 5836TIP3    H117472   6.984   3.998   1.715
 5836TIP3    H217473   7.126   3.981   1.766
 5837TIP3   OH217474   4.786   0.528   4.755
 5837TIP3    H117475   4.743   0.487   4.829
 5837TIP3    H217476   4.854   0.466   4.729
 5838TIP3   OH217477   5.986   5.989   2.020
 5838TIP3    H117478   6.076   5.996   2.050
 5838TIP3    H217479   5.957   5.903   2.051
 5839TIP3   OH217480   6.121   1.115   0.816
 5839TIP3    H117481   6.054   1.064   0.863
 5839TIP3    H217482   6.204   1.088   0.856
 5840TIP3   OH217483   6.487   3.078   0.877
 5840TIP3    H117484   6.553   3.077   0.808
 5840TIP3    H217485   6.481   2.987   0.907
 5841TIP3   OH217486   0.334   2.339   4.149
 5841TIP3    H117487   0.274   2.286   4.097
 5841TIP3    H217488   0.420   2.298   4.138
 5842TIP3   OH217489   4.052   2.813   4.591
 5842TIP3    H117490   3.984   2.793   4.656
 5842TIP3    H217491   4.092   2.729   4.571
 5843TIP3   OH217492   5.701   4.132   3.238
 5843TIP3    H117493   5.635   4.113   3.305
 5843TIP3    H217494   5.653   4.130   3.156
 5844TIP3   OH217495   4.223   3.366   5.287
 5844TIP3    H117496   4.293   3.429   5.304
 5844TIP3    H217497   4.144   3.409   5.321
 5845TIP3   OH217498   0.826   1.860   4.747
 5845TIP3    H117499   0.865   1.855   4.834
 5845TIP3    H217500   0.813   1.954   4.733
 5846TIP3   OH217501   5.283   4.866   2.488
 5846TIP3    H117502   5.332   4.909   2.418
 5846TIP3    H217503   5.213   4.820   2.443
 5847TIP3   OH217504   1.260   5.186   0.119
 5847TIP3    H117505   1.198   5.243   0.165
 5847TIP3    H217506   1.327   5.167   0.184
 5848TIP3   OH217507   0.127   1.781   3.991
 5848TIP3    H117508   0.048   1.799   3.938
 5848TIP3    H217509   0.093   1.759   4.077
 5849TIP3   OH217510   1.139   3.768   0.108
 5849TIP3    H117511   1.165   3.722   0.187
 5849TIP3    H217512   1.074   3.832   0.139
 5850TIP3   OH217513   6.709   5.405   0.671
 5850TIP3    H117514   6.659   5.483   0.647
 5850TIP3    H217515   6.658   5.332   0.636
 5851TIP3   OH217516   3.498   3.543   1.853
 5851TIP3    H117517   3.443   3.602   1.905
 5851TIP3    H217518   3.493   3.577   1.764
 5852TIP3   OH217519   3.335   0.675   3.441
 5852TIP3    H117520   3.378   0.641   3.363
 5852TIP3    H217521   3.361   0.767   3.445
 5853TIP3   OH217522   4.574   0.385   1.147
 5853TIP3    H117523   4.574   0.291   1.129
 5853TIP3    H217524   4.540   0.425   1.066
 5854TIP3   OH217525   3.946   0.899   4.550
 5854TIP3    H117526   3.856   0.925   4.527
 5854TIP3    H217527   3.981   0.974   4.599
 5855TIP3   OH217528   3.734   5.938   4.797
 5855TIP3    H117529   3.695   5.984   4.723
 5855TIP3    H217530   3.660   5.921   4.856
 5856TIP3   OH217531   3.507   0.328   3.727
 5856TIP3    H117532   3.574   0.305   3.791
 5856TIP3    H217533   3.526   0.419   3.704
 5857TIP3   OH217534   1.470   6.488   3.783
 5857TIP3    H117535   1.378   6.496   3.809
 5857TIP3    H217536   1.486   6.565   3.728
 5858TIP3   OH217537   3.896   0.040   5.498
 5858TIP3    H117538   3.963  -0.012   5.541
 5858TIP3    H217539   3.847   0.081   5.569
 5859TIP3   OH217540   5.323   5.169   3.261
 5859TIP3    H117541   5.327   5.185   3.167
 5859TIP3    H217542   5.378   5.238   3.299
 5860TIP3   OH217543   4.051   1.387   4.965
 5860TIP3    H117544   4.084   1.303   4.997
 5860TIP3    H217545   3.984   1.412   5.029
 5861TIP3   OH217546   7.174   3.880   3.679
 5861TIP3    H117547   7.226   3.882   3.599
 5861TIP3    H217548   7.139   3.791   3.683
 5862TIP3   OH217549   5.171   1.146   3.734
 5862TIP3    H117550   5.241   1.203   3.701
 5862TIP3    H217551   5.198   1.058   3.709
 5863TIP3   OH217552   0.450   3.166   1.279
 5863TIP3    H117553   0.451   3.176   1.184
 5863TIP3    H217554   0.540   3.180   1.306
 5864TIP3   OH217555   5.358   2.602   5.466
 5864TIP3    H117556   5.356   2.667   5.537
 5864TIP3    H217557   5.392   2.649   5.391
 5865TIP3   OH217558   6.877   1.677   0.308
 5865TIP3    H117559   6.866   1.772   0.310
 5865TIP3    H217560   6.972   1.665   0.311
 5866TIP3   OH217561   6.569   6.269  -0.001
 5866TIP3    H117562   6.614   6.303   0.076
 5866TIP3    H217563   6.490   6.226   0.033
 5867TIP3   OH217564   4.674   6.192   3.613
 5867TIP3    H117565   4.588   6.195   3.655
 5867TIP3    H217566   4.719   6.118   3.655
 5868TIP3   OH217567   6.402   4.096   0.151
 5868TIP3    H117568   6.485   4.126   0.113
 5868TIP3    H217569   6.335   4.142   0.100
 5869TIP3   OH217570   2.480   0.382   3.660
 5869TIP3    H117571   2.434   0.441   3.600
 5869TIP3    H217572   2.572   0.409   3.654
 5870TIP3   OH217573   2.333   5.112   2.055
 5870TIP3    H117574   2.269   5.101   1.984
 5870TIP3    H217575   2.293   5.071   2.131
 5871TIP3   OH217576   3.329   2.342   2.390
 5871TIP3    H117577   3.312   2.407   2.458
 5871TIP3    H217578   3.251   2.345   2.335
 5872TIP3   OH217579   5.208   6.587   3.757
 5872TIP3    H117580   5.207   6.621   3.846
 5872TIP3    H217581   5.117   6.563   3.739
 5873TIP3   OH217582   0.542   0.169   0.045
 5873TIP3    H117583   0.449   0.146   0.035
 5873TIP3    H217584   0.557   0.236  -0.022
 5874TIP3   OH217585   3.207   4.563   4.815
 5874TIP3    H117586   3.235   4.640   4.865
 5874TIP3    H217587   3.119   4.544   4.849
 5875TIP3   OH217588   2.500   4.967   1.856
 5875TIP3    H117589   2.478   4.989   1.947
 5875TIP3    H217590   2.581   4.917   1.863
 5876TIP3   OH217591   4.511   0.543   3.989
 5876TIP3    H117592   4.596   0.575   4.018
 5876TIP3    H217593   4.449   0.580   4.052
 5877TIP3   OH217594   5.606   4.823   5.375
 5877TIP3    H117595   5.559   4.879   5.313
 5877TIP3    H217596   5.687   4.871   5.394
 5878TIP3   OH217597   0.158   0.366   1.081
 5878TIP3    H117598   0.101   0.443   1.089
 5878TIP3    H217599   0.195   0.354   1.168
 5879TIP3   OH217600   0.459   1.253   3.950
 5879TIP3    H117601   0.420   1.199   3.881
 5879TIP3    H217602   0.548   1.271   3.918
 5880TIP3   OH217603   2.289   0.748   5.322
 5880TIP3    H117604   2.273   0.654   5.329
 5880TIP3    H217605   2.382   0.755   5.303
 5881TIP3   OH217606   2.264   3.193   0.509
 5881TIP3    H117607   2.328   3.176   0.439
 5881TIP3    H217608   2.310   3.252   0.569
 5882TIP3   OH217609   2.235   4.085   5.289
 5882TIP3    H117610   2.310   4.142   5.307
 5882TIP3    H217611   2.175   4.100   5.362
 5883TIP3   OH217612   3.090   5.634   3.303
 5883TIP3    H117613   3.056   5.706   3.355
 5883TIP3    H217614   3.185   5.649   3.301
 5884TIP3   OH217615   3.626   4.597   1.347
 5884TIP3    H117616   3.718   4.601   1.323
 5884TIP3    H217617   3.623   4.625   1.438
 5885TIP3   OH217618   1.720   3.730   2.956
 5885TIP3    H117619   1.644   3.672   2.946
 5885TIP3    H217620   1.795   3.675   2.934
 5886TIP3   OH217621   5.741   3.451   4.913
 5886TIP3    H117622   5.808   3.414   4.855
 5886TIP3    H217623   5.729   3.540   4.881
 5887TIP3   OH217624   3.101   4.996   5.375
 5887TIP3    H117625   3.082   4.939   5.301
 5887TIP3    H217626   3.112   4.937   5.449
 5888TIP3   OH217627   0.905   1.461   3.026
 5888TIP3    H117628   0.996   1.438   3.044
 5888TIP3    H217629   0.857   1.426   3.101
 5889TIP3   OH217630   7.014   3.418   3.101
 5889TIP3    H117631   6.978   3.501   3.071
 5889TIP3    H217632   7.056   3.438   3.185
 5890TIP3   OH217633   2.478   5.299   4.469
 5890TIP3    H117634   2.455   5.356   4.395
 5890TIP3    H217635   2.394   5.271   4.505
 5891TIP3   OH217636   2.128   6.695   1.383
 5891TIP3    H117637   2.077   6.643   1.445
 5891TIP3    H217638   2.119   6.785   1.413
 5892TIP3   OH217639   6.061   2.363   1.199
 5892TIP3    H117640   6.094   2.452   1.190
 5892TIP3    H217641   6.079   2.321   1.115
 5893TIP3   OH217642   1.168   5.298   3.226
 5893TIP3    H117643   1.093   5.331   3.276
 5893TIP3    H217644   1.244   5.331   3.273
 5894TIP3   OH217645   0.503   4.609   2.028
 5894TIP3    H117646   0.481   4.699   2.006
 5894TIP3    H217647   0.427   4.576   2.076
 5895TIP3   OH217648   6.726   5.284   2.937
 5895TIP3    H117649   6.762   5.355   2.989
 5895TIP3    H217650   6.724   5.318   2.848
 5896TIP3   OH217651   7.108   4.750   5.025
 5896TIP3    H117652   7.127   4.682   5.090
 5896TIP3    H217653   7.016   4.739   5.005
 5897TIP3   OH217654   3.158   0.650   1.594
 5897TIP3    H117655   3.095   0.716   1.623
 5897TIP3    H217656   3.227   0.652   1.660
 5898TIP3   OH217657   1.737   0.394   1.052
 5898TIP3    H117658   1.705   0.310   1.085
 5898TIP3    H217659   1.832   0.383   1.047
 5899TIP3   OH217660   5.867   3.554   5.473
 5899TIP3    H117661   5.871   3.647   5.496
 5899TIP3    H217662   5.841   3.511   5.554
 5900TIP3   OH217663   1.824   0.617   5.583
 5900TIP3    H117664   1.814   0.592   5.675
 5900TIP3    H217665   1.878   0.695   5.585
 5901TIP3   OH217666   3.713   0.664   1.225
 5901TIP3    H117667   3.771   0.649   1.151
 5901TIP3    H217668   3.661   0.741   1.200
 5902TIP3   OH217669   1.369   0.911   1.320
 5902TIP3    H117670   1.385   1.002   1.295
 5902TIP3    H217671   1.457   0.872   1.323
 5903TIP3   OH217672   4.810   2.802   0.592
 5903TIP3    H117673   4.781   2.891   0.611
 5903TIP3    H217674   4.858   2.809   0.510
 5904TIP3   OH217675   5.338   2.252   3.079
 5904TIP3    H117676   5.255   2.267   3.035
 5904TIP3    H217677   5.350   2.157   3.074
 5905TIP3   OH217678   5.540   3.310   5.046
 5905TIP3    H117679   5.623   3.353   5.027
 5905TIP3    H217680   5.546   3.225   5.003
 5906TIP3   OH217681   6.769   2.196   3.757
 5906TIP3    H117682   6.692   2.185   3.814
 5906TIP3    H217683   6.738   2.172   3.670
 5907TIP3   OH217684   7.045   0.959   0.394
 5907TIP3    H117685   6.955   0.927   0.383
 5907TIP3    H217686   7.043   1.008   0.477
 5908TIP3   OH217687   1.001   5.148   0.911
 5908TIP3    H117688   1.059   5.201   0.855
 5908TIP3    H217689   0.913   5.164   0.877
 5909TIP3   OH217690   5.313   3.911   0.800
 5909TIP3    H117691   5.313   3.842   0.866
 5909TIP3    H217692   5.372   3.879   0.731
 5910TIP3   OH217693   3.445   5.503   2.869
 5910TIP3    H117694   3.478   5.579   2.821
 5910TIP3    H217695   3.523   5.453   2.893
 5911TIP3   OH217696   0.570   5.553   1.146
 5911TIP3    H117697   0.623   5.489   1.099
 5911TIP3    H217698   0.627   5.629   1.155
 5912TIP3   OH217699   0.377   3.798   4.182
 5912TIP3    H117700   0.383   3.707   4.213
 5912TIP3    H217701   0.429   3.798   4.101
 5913TIP3   OH217702   6.712   2.826   1.604
 5913TIP3    H117703   6.685   2.900   1.658
 5913TIP3    H217704   6.720   2.753   1.665
 5914TIP3   OH217705   5.330   1.687   4.144
 5914TIP3    H117706   5.260   1.748   4.120
 5914TIP3    H217707   5.376   1.669   4.062
 5915TIP3   OH217708   0.267   5.879   5.137
 5915TIP3    H117709   0.281   5.938   5.063
 5915TIP3    H217710   0.248   5.794   5.097
 5916TIP3   OH217711   1.928   5.385   5.210
 5916TIP3    H117712   1.880   5.382   5.293
 5916TIP3    H217713   1.954   5.295   5.193
 5917TIP3   OH217714   1.925   3.938   4.231
 5917TIP3    H117715   2.015   3.959   4.257
 5917TIP3    H217716   1.873   3.955   4.310
 5918TIP3   OH217717   4.552   6.097   2.012
 5918TIP3    H117718   4.492   6.025   2.032
 5918TIP3    H217719   4.546   6.154   2.089
 5919TIP3   OH217720   2.857   3.366   2.569
 5919TIP3    H117721   2.790   3.374   2.638
 5919TIP3    H217722   2.812   3.320   2.498
 5920TIP3   OH217723   3.957   6.082   5.865
 5920TIP3    H117724   3.868   6.117   5.856
 5920TIP3    H217725   3.945   5.991   5.893
 5921TIP3   OH217726   1.683   2.245   1.603
 5921TIP3    H117727   1.607   2.283   1.648
 5921TIP3    H217728   1.660   2.249   1.510
 5922TIP3   OH217729   4.445   5.834   2.033
 5922TIP3    H117730   4.536   5.806   2.019
 5922TIP3    H217731   4.402   5.818   1.949
 5923TIP3   OH217732   3.635   5.435   5.053
 5923TIP3    H117733   3.584   5.376   5.108
 5923TIP3    H217734   3.705   5.381   5.017
 5924TIP3   OH217735   4.341   2.531   0.099
 5924TIP3    H117736   4.269   2.494   0.048
 5924TIP3    H217737   4.345   2.623   0.073
 5925TIP3   OH217738   3.300   1.695   5.293
 5925TIP3    H117739   3.292   1.787   5.318
 5925TIP3    H217740   3.311   1.697   5.198
 5926TIP3   OH217741   5.326   4.321   4.408
 5926TIP3    H117742   5.266   4.311   4.482
 5926TIP3    H217743   5.364   4.235   4.395
 5927TIP3   OH217744   6.292   4.876   3.335
 5927TIP3    H117745   6.341   4.820   3.276
 5927TIP3    H217746   6.297   4.832   3.420
 5928TIP3   OH217747   4.498   1.743   4.932
 5928TIP3    H117748   4.550   1.723   4.854
 5928TIP3    H217749   4.418   1.691   4.922
 5929TIP3   OH217750   0.462   3.578   0.117
 5929TIP3    H117751   0.498   3.493   0.093
 5929TIP3    H217752   0.442   3.570   0.210
 5930TIP3   OH217753   5.255   0.342   3.871
 5930TIP3    H117754   5.266   0.248   3.858
 5930TIP3    H217755   5.163   0.359   3.852
 5931TIP3   OH217756   5.869   5.139   3.285
 5931TIP3    H117757   5.861   5.219   3.338
 5931TIP3    H217758   5.784   5.096   3.295
 5932TIP3   OH217759   4.763   2.679   4.968
 5932TIP3    H117760   4.798   2.753   4.919
 5932TIP3    H217761   4.711   2.719   5.038
 5933TIP3   OH217762   0.629   2.802   0.484
 5933TIP3    H117763   0.558   2.774   0.543
 5933TIP3    H217764   0.705   2.813   0.542
 5934TIP3   OH217765   2.746   6.693   3.347
 5934TIP3    H117766   2.822   6.679   3.404
 5934TIP3    H217767   2.780   6.739   3.271
 5935TIP3   OH217768   2.579   2.263   4.867
 5935TIP3    H117769   2.565   2.330   4.800
 5935TIP3    H217770   2.642   2.302   4.927
 5936TIP3   OH217771   4.364   2.089   3.380
 5936TIP3    H117772   4.427   2.141   3.331
 5936TIP3    H217773   4.337   2.021   3.318
 5937TIP3   OH217774   6.607   4.859   5.734
 5937TIP3    H117775   6.695   4.870   5.698
 5937TIP3    H217776   6.590   4.942   5.779
 5938TIP3   OH217777   1.425   2.197   3.889
 5938TIP3    H117778   1.496   2.256   3.914
 5938TIP3    H217779   1.466   2.135   3.828
 5939TIP3   OH217780   2.206   1.325   2.401
 5939TIP3    H117781   2.190   1.388   2.471
 5939TIP3    H217782   2.122   1.279   2.390
 5940TIP3   OH217783   3.269   4.231   4.786
 5940TIP3    H117784   3.178   4.248   4.811
 5940TIP3    H217785   3.318   4.308   4.817
 5941TIP3   OH217786   3.498   4.332   0.267
 5941TIP3    H117787   3.405   4.353   0.259
 5941TIP3    H217788   3.533   4.402   0.323
 5942TIP3   OH217789   0.114   0.260   1.373
 5942TIP3    H117790   0.210   0.259   1.371
 5942TIP3    H217791   0.093   0.282   1.464
 5943TIP3   OH217792   5.308   2.668   1.653
 5943TIP3    H117793   5.267   2.748   1.686
 5943TIP3    H217794   5.264   2.597   1.700
 5944TIP3   OH217795   4.952   5.259   5.657
 5944TIP3    H117796   5.026   5.206   5.688
 5944TIP3    H217797   4.991   5.343   5.633
 5945TIP3   OH217798   0.154   5.258   3.878
 5945TIP3    H117799   0.151   5.171   3.917
 5945TIP3    H217800   0.136   5.243   3.785
 5946TIP3   OH217801   4.776   4.371   5.424
 5946TIP3    H117802   4.782   4.277   5.441
 5946TIP3    H217803   4.697   4.382   5.372
 5947TIP3   OH217804   2.615   3.845   3.910
 5947TIP3    H117805   2.681   3.786   3.947
 5947TIP3    H217806   2.655   3.879   3.830
 5948TIP3   OH217807   0.770   0.556   0.068
 5948TIP3    H117808   0.747   0.628   0.009
 5948TIP3    H217809   0.864   0.566   0.083
 5949TIP3   OH217810   5.580   0.300   5.847
 5949TIP3    H117811   5.523   0.309   5.771
 5949TIP3    H217812   5.543   0.360   5.912
 5950TIP3   OH217813   5.355   5.676   2.543
 5950TIP3    H117814   5.279   5.731   2.562
 5950TIP3    H217815   5.430   5.734   2.555
 5951TIP3   OH217816   4.787   0.072   3.929
 5951TIP3    H117817   4.698   0.061   3.964
 5951TIP3    H217818   4.836   0.113   4.000
 5952TIP3   OH217819   4.937   3.481   4.264
 5952TIP3    H117820   4.843   3.468   4.256
 5952TIP3    H217821   4.969   3.400   4.303
 5953TIP3   OH217822   5.152   4.473   5.580
 5953TIP3    H117823   5.076   4.527   5.559
 5953TIP3    H217824   5.157   4.409   5.508
 5954TIP3   OH217825   5.114   4.868   5.942
 5954TIP3    H117826   5.103   4.812   5.865
 5954TIP3    H217827   5.029   4.911   5.953
 5955TIP3   OH217828   6.306   2.629   5.758
 5955TIP3    H117829   6.376   2.569   5.731
 5955TIP3    H217830   6.267   2.657   5.675
 5956TIP3   OH217831   0.235   2.495   4.459
 5956TIP3    H117832   0.302   2.436   4.426
 5956TIP3    H217833   0.250   2.498   4.554
 5957TIP3   OH217834   5.980   4.155   1.001
 5957TIP3    H117835   5.921   4.186   0.933
 5957TIP3    H217836   5.970   4.218   1.073
 5958TIP3   OH217837   1.332   3.399   0.122
 5958TIP3    H117838   1.349   3.493   0.132
 5958TIP3    H217839   1.309   3.369   0.210
 5959TIP3   OH217840   6.265   4.557   0.056
 5959TIP3    H117841   6.244   4.544  -0.037
 5959TIP3    H217842   6.280   4.469   0.090
 5960TIP3   OH217843   4.435   5.110   4.014
 5960TIP3    H117844   4.514   5.112   4.069
 5960TIP3    H217845   4.392   5.028   4.038
 5961TIP3   OH217846   4.726   6.221   2.717
 5961TIP3    H117847   4.683   6.175   2.645
 5961TIP3    H217848   4.722   6.160   2.791
 5962TIP3   OH217849   5.908   5.934   5.133
 5962TIP3    H117850   5.920   5.920   5.039
 5962TIP3    H217851   5.915   6.028   5.144
 5963TIP3   OH217852   1.505   3.546   0.929
 5963TIP3    H117853   1.564   3.574   0.859
 5963TIP3    H217854   1.537   3.592   1.007
 5964TIP3   OH217855   0.458   0.560   1.021
 5964TIP3    H117856   0.494   0.612   0.949
 5964TIP3    H217857   0.364   0.579   1.020
 5965TIP3   OH217858   4.269   1.650   3.340
 5965TIP3    H117859   4.322   1.583   3.295
 5965TIP3    H217860   4.278   1.629   3.433
 5966TIP3   OH217861   6.321   5.942   1.110
 5966TIP3    H117862   6.263   5.986   1.048
 5966TIP3    H217863   6.279   5.858   1.127
 5967TIP3   OH217864   3.122   2.336   1.366
 5967TIP3    H117865   3.054   2.270   1.354
 5967TIP3    H217866   3.093   2.386   1.443
 5968TIP3   OH217867   3.220   6.465   3.925
 5968TIP3    H117868   3.248   6.544   3.879
 5968TIP3    H217869   3.270   6.395   3.883
 5969TIP3   OH217870   5.014   0.682   3.502
 5969TIP3    H117871   4.987   0.723   3.584
 5969TIP3    H217872   4.950   0.712   3.437
 5970TIP3   OH217873   3.987   2.340   4.944
 5970TIP3    H117874   3.991   2.310   5.034
 5970TIP3    H217875   3.895   2.331   4.919
 5971TIP3   OH217876   1.707   3.989   3.978
 5971TIP3    H117877   1.639   3.922   3.980
 5971TIP3    H217878   1.661   4.070   3.959
 5972TIP3   OH217879   0.625   0.744   2.417
 5972TIP3    H117880   0.574   0.767   2.494
 5972TIP3    H217881   0.712   0.724   2.451
 5973TIP3   OH217882   4.639   5.235   2.232
 5973TIP3    H117883   4.673   5.277   2.311
 5973TIP3    H217884   4.544   5.232   2.246
 5974TIP3   OH217885   1.751   4.246   2.684
 5974TIP3    H117886   1.741   4.164   2.734
 5974TIP3    H217887   1.679   4.245   2.622
 5975TIP3   OH217888   1.187   1.326   5.252
 5975TIP3    H117889   1.094   1.336   5.228
 5975TIP3    H217890   1.234   1.333   5.170
 5976TIP3   OH217891   3.909   6.679   1.624
 5976TIP3    H117892   3.936   6.671   1.532
 5976TIP3    H217893   3.835   6.618   1.632
 5977TIP3   OH217894   6.132   0.487   5.043
 5977TIP3    H117895   6.168   0.451   4.962
 5977TIP3    H217896   6.126   0.412   5.102
 5978TIP3   OH217897   7.184   2.390   2.470
 5978TIP3    H117898   7.122   2.404   2.398
 5978TIP3    H217899   7.129   2.362   2.543
 5979TIP3   OH217900   0.369   2.747   0.630
 5979TIP3    H117901   0.359   2.689   0.554
 5979TIP3    H217902   0.358   2.689   0.705
 5980TIP3   OH217903   0.236   4.453   4.097
 5980TIP3    H117904   0.207   4.390   4.164
 5980TIP3    H217905   0.319   4.485   4.130
 5981TIP3   OH217906   3.155   1.048   4.398
 5981TIP3    H117907   3.096   1.004   4.336
 5981TIP3    H217908   3.097   1.097   4.456
 5982TIP3   OH217909   5.607   5.584   4.783
 5982TIP3    H117910   5.686   5.607   4.733
 5982TIP3    H217911   5.640   5.565   4.871
 5983TIP3   OH217912   0.671   4.943   5.689
 5983TIP3    H117913   0.597   4.982   5.642
 5983TIP3    H217914   0.656   4.849   5.683
 5984TIP3   OH217915   4.198   2.959   3.475
 5984TIP3    H117916   4.147   3.039   3.489
 5984TIP3    H217917   4.142   2.890   3.511
 5985TIP3   OH217918   2.737   4.373   0.641
 5985TIP3    H117919   2.687   4.363   0.723
 5985TIP3    H217920   2.672   4.404   0.578
 5986TIP3   OH217921   3.129   4.549   0.851
 5986TIP3    H117922   3.193   4.495   0.805
 5986TIP3    H217923   3.058   4.489   0.873
 5987TIP3   OH217924   0.007   6.301   2.102
 5987TIP3    H117925  -0.015   6.239   2.033
 5987TIP3    H217926  -0.063   6.367   2.099
 5988TIP3   OH217927   5.874   6.803   3.514
 5988TIP3    H117928   5.856   6.769   3.601
 5988TIP3    H217929   5.918   6.730   3.468
 5989TIP3   OH217930   6.903   3.309   4.554
 5989TIP3    H117931   6.927   3.228   4.599
 5989TIP3    H217932   6.901   3.375   4.623
 5990TIP3   OH217933   4.642   4.109   5.489
 5990TIP3    H117934   4.559   4.068   5.516
 5990TIP3    H217935   4.695   4.110   5.569
 5991TIP3   OH217936   6.128   2.899   1.160
 5991TIP3    H117937   6.033   2.884   1.152
 5991TIP3    H217938   6.136   2.994   1.171
 5992TIP3   OH217939   2.187   0.977   4.878
 5992TIP3    H117940   2.261   1.005   4.824
 5992TIP3    H217941   2.207   0.886   4.901
 5993TIP3   OH217942   6.844   5.779   3.144
 5993TIP3    H117943   6.847   5.868   3.107
 5993TIP3    H217944   6.771   5.782   3.206
 5994TIP3   OH217945   1.980   5.336   4.685
 5994TIP3    H117946   1.931   5.411   4.720
 5994TIP3    H217947   1.916   5.266   4.679
 5995TIP3   OH217948   6.915   3.766   3.061
 5995TIP3    H117949   6.902   3.749   3.155
 5995TIP3    H217950   6.860   3.700   3.018
 5996TIP3   OH217951   5.239   3.238   5.478
 5996TIP3    H117952   5.262   3.180   5.405
 5996TIP3    H217953   5.197   3.314   5.436
 5997TIP3   OH217954   6.250   3.250   2.114
 5997TIP3    H117955   6.156   3.236   2.124
 5997TIP3    H217956   6.290   3.167   2.139
 5998TIP3   OH217957   1.792   2.001   2.399
 5998TIP3    H117958   1.762   2.081   2.356
 5998TIP3    H217959   1.809   1.940   2.328
 5999TIP3   OH217960   5.738   6.315   4.100
 5999TIP3    H117961   5.798   6.295   4.028
 5999TIP3    H217962   5.713   6.406   4.086
 6000TIP3   OH217963   5.365   2.675   4.178
 6000TIP3    H117964   5.459   2.660   4.171
 6000TIP3    H217965   5.339   2.627   4.257
 6001TIP3   OH217966   6.013   5.982   4.089
 6001TIP3    H117967   6.082   5.998   4.154
 6001TIP3    H217968   6.031   6.045   4.020
 6002TIP3   OH217969   0.070   6.408  -0.007
 6002TIP3    H117970   0.013   6.366   0.058
 6002TIP3    H217971   0.043   6.500  -0.006
 6003TIP3   OH217972   2.590   0.108   1.941
 6003TIP3    H117973   2.663   0.141   1.889
 6003TIP3    H217974   2.525   0.080   1.876
 6004TIP3   OH217975   1.884   1.585   2.010
 6004TIP3    H117976   1.968   1.631   2.011
 6004TIP3    H217977   1.890   1.525   1.937
 6005TIP3   OH217978   3.567   6.292   1.249
 6005TIP3    H117979   3.531   6.289   1.338
 6005TIP3    H217980   3.491   6.307   1.193
 6006TIP3   OH217981   3.549   6.307   0.472
 6006TIP3    H117982   3.522   6.396   0.447
 6006TIP3    H217983   3.638   6.317   0.505
 6007TIP3   OH217984   2.442   4.175   0.660
 6007TIP3    H117985   2.402   4.180   0.747
 6007TIP3    H217986   2.408   4.093   0.623
 6008TIP3   OH217987   0.953   3.091   4.439
 6008TIP3    H117988   0.891   3.129   4.502
 6008TIP3    H217989   0.944   2.996   4.451
 6009TIP3   OH217990   4.664   3.479   4.155
 6009TIP3    H117991   4.585   3.428   4.170
 6009TIP3    H217992   4.633   3.568   4.138
 6010TIP3   OH217993   2.691   5.809   5.368
 6010TIP3    H117994   2.655   5.763   5.292
 6010TIP3    H217995   2.616   5.826   5.424
 6011TIP3   OH217996   3.574   5.098   3.212
 6011TIP3    H117997   3.583   5.192   3.222
 6011TIP3    H217998   3.483   5.084   3.187
 6012TIP3   OH217999   1.717   4.038   5.640
 6012TIP3    H118000   1.752   4.065   5.555
 6012TIP3    H218001   1.792   4.000   5.686
 6013TIP3   OH218002   1.668   1.014   1.076
 6013TIP3    H118003   1.575   1.026   1.098
 6013TIP3    H218004   1.708   0.982   1.157
 6014TIP3   OH218005   2.626   0.453   4.425
 6014TIP3    H118006   2.652   0.464   4.517
 6014TIP3    H218007   2.547   0.506   4.416
 6015TIP3   OH218008   2.315   2.885   4.215
 6015TIP3    H118009   2.230   2.874   4.257
 6015TIP3    H218010   2.309   2.969   4.169
 6016TIP3   OH218011   0.708   0.728   0.422
 6016TIP3    H118012   0.680   0.680   0.500
 6016TIP3    H218013   0.670   0.679   0.349
 6017TIP3   OH218014   0.025   4.525   3.336
 6017TIP3    H118015   0.026   4.431   3.321
 6017TIP3    H218016   0.046   4.535   3.429
 6018TIP3   OH218017   0.936   5.488   4.934
 6018TIP3    H118018   0.865   5.536   4.977
 6018TIP3    H218019   0.893   5.419   4.884
 6019TIP3   OH218020   6.712   3.438   5.357
 6019TIP3    H118021   6.648   3.506   5.335
 6019TIP3    H218022   6.660   3.371   5.401
 6020TIP3   OH218023   0.582   3.856   5.722
 6020TIP3    H118024   0.494   3.833   5.752
 6020TIP3    H218025   0.636   3.850   5.800
 6021TIP3   OH218026   2.365   5.963   3.904
 6021TIP3    H118027   2.443   5.973   3.849
 6021TIP3    H218028   2.360   6.044   3.954
 6022TIP3   OH218029   4.154   1.374   3.832
 6022TIP3    H118030   4.223   1.309   3.820
 6022TIP3    H218031   4.200   1.457   3.839
 6023TIP3   OH218032   4.083   1.775   1.105
 6023TIP3    H118033   3.999   1.758   1.063
 6023TIP3    H218034   4.066   1.759   1.198
 6024TIP3   OH218035   6.948   5.517   0.588
 6024TIP3    H118036   6.857   5.494   0.606
 6024TIP3    H218037   6.984   5.539   0.674
 6025TIP3   OH218038   1.972   4.133   5.031
 6025TIP3    H118039   1.916   4.169   4.962
 6025TIP3    H218040   1.910   4.101   5.097
 6026TIP3   OH218041   4.853   5.755   1.586
 6026TIP3    H118042   4.814   5.837   1.555
 6026TIP3    H218043   4.936   5.781   1.627
 6027TIP3   OH218044   3.530   6.278   5.532
 6027TIP3    H118045   3.497   6.301   5.619
 6027TIP3    H218046   3.580   6.198   5.546
 6028TIP3   OH218047   6.000   6.381   0.290
 6028TIP3    H118048   5.939   6.312   0.316
 6028TIP3    H218049   6.073   6.334   0.249
 6029TIP3   OH218050   0.325   1.366   3.686
 6029TIP3    H118051   0.389   1.323   3.631
 6029TIP3    H218052   0.241   1.328   3.660
 6030TIP3   OH218053   3.151   0.019   4.437
 6030TIP3    H118054   3.107   0.082   4.380
 6030TIP3    H218055   3.208   0.073   4.492
 6031TIP3   OH218056   2.021   2.477   4.010
 6031TIP3    H118057   1.999   2.462   4.102
 6031TIP3    H218058   1.996   2.396   3.966
 6032TIP3   OH218059   0.115   3.259   4.253
 6032TIP3    H118060   0.064   3.186   4.217
 6032TIP3    H218061   0.050   3.325   4.275
 6033TIP3   OH218062   5.398   3.668   2.591
 6033TIP3    H118063   5.377   3.728   2.662
 6033TIP3    H218064   5.324   3.607   2.588
 6034TIP3   OH218065   6.539   5.664   0.076
 6034TIP3    H118066   6.493   5.647   0.159
 6034TIP3    H218067   6.586   5.746   0.092
 6035TIP3   OH218068   2.451   0.632   4.066
 6035TIP3    H118069   2.409   0.718   4.071
 6035TIP3    H218070   2.395   0.581   4.008
 6036TIP3   OH218071   0.993   5.996   3.368
 6036TIP3    H118072   0.975   6.035   3.453
 6036TIP3    H218073   1.061   5.930   3.385
 6037TIP3   OH218074   7.039   6.743   4.214
 6037TIP3    H118075   7.102   6.697   4.160
 6037TIP3    H218076   7.072   6.733   4.303
 6038TIP3   OH218077   1.942   3.710   3.220
 6038TIP3    H118078   1.971   3.621   3.240
 6038TIP3    H218079   1.846   3.704   3.219
 6039TIP3   OH218080   0.382   0.804   0.232
 6039TIP3    H118081   0.304   0.849   0.266
 6039TIP3    H218082   0.373   0.714   0.263
 6040TIP3   OH218083   4.878   1.063   3.503
 6040TIP3    H118084   4.852   1.018   3.423
 6040TIP3    H218085   4.869   0.998   3.572
 6041TIP3   OH218086   6.847   1.611   5.796
 6041TIP3    H118087   6.798   1.679   5.751
 6041TIP3    H218088   6.872   1.550   5.727
 6042TIP3   OH218089   6.201   3.302   5.794
 6042TIP3    H118090   6.157   3.372   5.843
 6042TIP3    H218091   6.129   3.247   5.762
 6043TIP3   OH218092   0.345   4.930   4.448
 6043TIP3    H118093   0.349   4.870   4.522
 6043TIP3    H218094   0.417   4.903   4.391
 6044TIP3   OH218095   1.645   1.870   0.800
 6044TIP3    H118096   1.720   1.894   0.855
 6044TIP3    H218097   1.569   1.883   0.857
 6045TIP3   OH218098   5.945   2.655   5.486
 6045TIP3    H118099   5.851   2.637   5.481
 6045TIP3    H218100   5.986   2.574   5.457
 6046TIP3   OH218101   4.064   1.406   2.578
 6046TIP3    H118102   4.076   1.328   2.632
 6046TIP3    H218103   4.119   1.391   2.501
 6047TIP3   OH218104   0.618   2.942   4.592
 6047TIP3    H118105   0.638   2.998   4.517
 6047TIP3    H218106   0.589   2.859   4.553
 6048TIP3   OH218107   4.991   1.862   5.560
 6048TIP3    H118108   4.905   1.882   5.523
 6048TIP3    H218109   5.016   1.941   5.607
 6049TIP3   OH218110   4.847   5.248   2.744
 6049TIP3    H118111   4.909   5.249   2.671
 6049TIP3    H218112   4.828   5.340   2.761
 6050TIP3   OH218113   0.881   4.219   0.974
 6050TIP3    H118114   0.869   4.176   1.059
 6050TIP3    H218115   0.840   4.305   0.985
 6051TIP3   OH218116   4.698   0.115   2.089
 6051TIP3    H118117   4.718   0.029   2.126
 6051TIP3    H218118   4.782   0.161   2.087
 6052TIP3   OH218119   5.545   1.649   1.809
 6052TIP3    H118120   5.594   1.604   1.740
 6052TIP3    H218121   5.513   1.579   1.866
 6053TIP3   OH218122   2.607   5.982   3.776
 6053TIP3    H118123   2.639   5.892   3.767
 6053TIP3    H218124   2.683   6.032   3.805
 6054TIP3   OH218125   3.390   0.137   4.579
 6054TIP3    H118126   3.310   0.187   4.600
 6054TIP3    H218127   3.438   0.193   4.519
 6055TIP3   OH218128   2.087   5.186   5.858
 6055TIP3    H118129   2.166   5.216   5.813
 6055TIP3    H218130   2.084   5.238   5.938
 6056TIP3   OH218131   1.950   3.291   1.869
 6056TIP3    H118132   2.017   3.239   1.913
 6056TIP3    H218133   1.967   3.279   1.776
 6057TIP3   OH218134   3.490   0.500   4.184
 6057TIP3    H118135   3.586   0.493   4.186
 6057TIP3    H218136   3.468   0.499   4.091
 6058TIP3   OH218137   2.191   5.625   2.897
 6058TIP3    H118138   2.123   5.561   2.920
 6058TIP3    H218139   2.262   5.607   2.959
 6059TIP3   OH218140   3.363   5.417   3.111
 6059TIP3    H118141   3.379   5.455   3.024
 6059TIP3    H218142   3.285   5.363   3.098
 6060TIP3   OH218143   5.140   3.341   2.887
 6060TIP3    H118144   5.130   3.436   2.875
 6060TIP3    H218145   5.233   3.325   2.874
 6061TIP3   OH218146   3.446   1.696   0.548
 6061TIP3    H118147   3.512   1.714   0.614
 6061TIP3    H218148   3.401   1.779   0.534
 6062TIP3   OH218149   5.437   6.512   1.887
 6062TIP3    H118150   5.525   6.537   1.861
 6062TIP3    H218151   5.379   6.567   1.834
 6063TIP3   OH218152   4.638   0.408   1.782
 6063TIP3    H118153   4.661   0.348   1.711
 6063TIP3    H218154   4.593   0.352   1.846
 6064TIP3   OH218155   1.293   3.338   1.435
 6064TIP3    H118156   1.352   3.378   1.371
 6064TIP3    H218157   1.322   3.247   1.441
 6065TIP3   OH218158   4.435   2.156   1.912
 6065TIP3    H118159   4.365   2.128   1.971
 6065TIP3    H218160   4.393   2.158   1.826
 6066TIP3   OH218161   3.691   2.712   0.397
 6066TIP3    H118162   3.732   2.788   0.438
 6066TIP3    H218163   3.723   2.637   0.448
 6067TIP3   OH218164   1.655   2.843   1.173
 6067TIP3    H118165   1.685   2.846   1.082
 6067TIP3    H218166   1.658   2.751   1.197
 6068TIP3   OH218167   1.853   6.214   1.503
 6068TIP3    H118168   1.934   6.261   1.480
 6068TIP3    H218169   1.800   6.217   1.423
 6069TIP3   OH218170   3.377   2.580   0.684
 6069TIP3    H118171   3.304   2.635   0.657
 6069TIP3    H218172   3.448   2.641   0.700
 6070TIP3   OH218173   2.620   4.367   4.292
 6070TIP3    H118174   2.574   4.325   4.219
 6070TIP3    H218175   2.551   4.383   4.357
 6071TIP3   OH218176   3.237   0.116   2.116
 6071TIP3    H118177   3.270   0.040   2.069
 6071TIP3    H218178   3.236   0.090   2.208
 6072TIP3   OH218179   4.474   6.269   4.508
 6072TIP3    H118180   4.423   6.262   4.428
 6072TIP3    H218181   4.528   6.190   4.510
 6073TIP3   OH218182   5.109   2.667   0.530
 6073TIP3    H118183   5.184   2.625   0.488
 6073TIP3    H218184   5.131   2.668   0.623
 6074TIP3   OH218185   3.466   5.080   1.651
 6074TIP3    H118186   3.502   5.023   1.720
 6074TIP3    H218187   3.434   5.019   1.585
 6075TIP3   OH218188   1.545   0.446   2.000
 6075TIP3    H118189   1.511   0.357   1.993
 6075TIP3    H218190   1.487   0.498   1.944
 6076TIP3   OH218191   6.143   4.427   2.164
 6076TIP3    H118192   6.231   4.451   2.194
 6076TIP3    H218193   6.147   4.332   2.151
 6077TIP3   OH218194   2.753   4.931   3.379
 6077TIP3    H118195   2.694   4.864   3.344
 6077TIP3    H218196   2.726   5.012   3.336
 6078TIP3   OH218197   0.511   6.360   0.062
 6078TIP3    H118198   0.590   6.398   0.101
 6078TIP3    H218199   0.543   6.290   0.007
 6079TIP3   OH218200   1.927   5.924   0.310
 6079TIP3    H118201   1.999   5.952   0.252
 6079TIP3    H218202   1.867   5.998   0.311
 6080TIP3   OH218203   5.273   1.658   1.578
 6080TIP3    H118204   5.186   1.622   1.563
 6080TIP3    H218205   5.267   1.700   1.664
 6081TIP3   OH218206   5.762   5.306   4.646
 6081TIP3    H118207   5.833   5.352   4.691
 6081TIP3    H218208   5.708   5.270   4.717
 6082TIP3   OH218209   4.603   6.379   1.840
 6082TIP3    H118210   4.623   6.468   1.809
 6082TIP3    H218211   4.523   6.390   1.893
 6083TIP3   OH218212   5.898   0.995   2.596
 6083TIP3    H118213   5.845   1.001   2.675
 6083TIP3    H218214   5.963   0.927   2.616
 6084TIP3   OH218215   1.730   4.861   4.847
 6084TIP3    H118216   1.708   4.813   4.768
 6084TIP3    H218217   1.650   4.857   4.900
 6085TIP3   OH218218   5.865   3.718   3.114
 6085TIP3    H118219   5.797   3.785   3.119
 6085TIP3    H218220   5.924   3.750   3.045
 6086TIP3   OH218221   4.278   3.792   1.693
 6086TIP3    H118222   4.326   3.711   1.712
 6086TIP3    H218223   4.338   3.862   1.715
 6087TIP3   OH218224   6.196   6.585   1.839
 6087TIP3    H118225   6.117   6.533   1.823
 6087TIP3    H218226   6.169   6.676   1.824
 6088TIP3   OH218227   5.441   4.492   0.930
 6088TIP3    H118228   5.463   4.425   0.865
 6088TIP3    H218229   5.395   4.560   0.880
 6089TIP3   OH218230   1.034   0.967   1.573
 6089TIP3    H118231   1.020   1.003   1.661
 6089TIP3    H218232   1.115   1.007   1.543
 6090TIP3   OH218233   6.156   5.904   3.407
 6090TIP3    H118234   6.085   5.851   3.371
 6090TIP3    H218235   6.155   5.884   3.501
 6091TIP3   OH218236   4.691   2.440   4.654
 6091TIP3    H118237   4.664   2.527   4.625
 6091TIP3    H218238   4.787   2.440   4.646
 6092TIP3   OH218239   6.684   1.925   2.629
 6092TIP3    H118240   6.719   1.837   2.624
 6092TIP3    H218241   6.611   1.926   2.567
 6093TIP3   OH218242   5.617   1.186   4.232
 6093TIP3    H118243   5.632   1.180   4.137
 6093TIP3    H218244   5.556   1.114   4.251
 6094TIP3   OH218245   4.995   1.573   0.660
 6094TIP3    H118246   4.933   1.564   0.588
 6094TIP3    H218247   5.080   1.549   0.623
 6095TIP3   OH218248   2.733   5.585   4.130
 6095TIP3    H118249   2.691   5.627   4.055
 6095TIP3    H218250   2.668   5.589   4.200
 6096TIP3   OH218251   1.994   3.163   0.182
 6096TIP3    H118252   2.044   3.188   0.104
 6096TIP3    H218253   1.956   3.078   0.159
 6097TIP3   OH218254   3.304   2.311   4.402
 6097TIP3    H118255   3.348   2.303   4.317
 6097TIP3    H218256   3.336   2.237   4.453
 6098TIP3   OH218257   2.073   2.624   1.815
 6098TIP3    H118258   2.140   2.563   1.845
 6098TIP3    H218259   1.991   2.588   1.849
 6099TIP3   OH218260   4.413   1.768   1.415
 6099TIP3    H118261   4.381   1.832   1.352
 6099TIP3    H218262   4.340   1.756   1.476
 6100TIP3   OH218263   3.909   0.989   2.553
 6100TIP3    H118264   3.821   0.990   2.592
 6100TIP3    H218265   3.925   0.897   2.533
 6101TIP3   OH218266   2.469   0.252   3.906
 6101TIP3    H118267   2.451   0.306   3.828
 6101TIP3    H218268   2.452   0.311   3.980
 6102TIP3   OH218269   6.877   5.308   4.163
 6102TIP3    H118270   6.820   5.233   4.145
 6102TIP3    H218271   6.932   5.315   4.086
 6103TIP3   OH218272   0.201   5.965   2.467
 6103TIP3    H118273   0.186   6.008   2.551
 6103TIP3    H218274   0.294   5.977   2.449
 6104TIP3   OH218275   1.149   0.709   1.900
 6104TIP3    H118276   1.195   0.791   1.884
 6104TIP3    H218277   1.057   0.730   1.888
 6105TIP3   OH218278   4.307   3.520   4.783
 6105TIP3    H118279   4.374   3.471   4.736
 6105TIP3    H218280   4.235   3.458   4.795
 6106TIP3   OH218281   5.478   0.331   2.695
 6106TIP3    H118282   5.540   0.268   2.733
 6106TIP3    H218283   5.417   0.277   2.645
 6107TIP3   OH218284   3.006   4.927   5.081
 6107TIP3    H118285   3.007   4.899   4.990
 6107TIP3    H218286   2.945   4.867   5.124
 6108TIP3   OH218287   6.990   5.515   0.126
 6108TIP3    H118288   6.901   5.481   0.124
 6108TIP3    H218289   6.990   5.575   0.201
 6109TIP3   OH218290   5.489   5.767   3.689
 6109TIP3    H118291   5.548   5.801   3.622
 6109TIP3    H218292   5.467   5.678   3.659
 6110TIP3   OH218293   2.562   5.349   0.745
 6110TIP3    H118294   2.519   5.281   0.797
 6110TIP3    H218295   2.603   5.302   0.673
 6111TIP3   OH218296   0.118   3.832   1.664
 6111TIP3    H118297   0.042   3.833   1.722
 6111TIP3    H218298   0.155   3.920   1.672
 6112TIP3   OH218299   4.740   1.317   4.128
 6112TIP3    H118300   4.751   1.349   4.039
 6112TIP3    H218301   4.709   1.393   4.177
 6113TIP3   OH218302   1.657   6.774   4.703
 6113TIP3    H118303   1.698   6.790   4.788
 6113TIP3    H218304   1.586   6.712   4.721
 6114TIP3   OH218305   3.137   5.277   3.105
 6114TIP3    H118306   3.093   5.252   3.024
 6114TIP3    H218307   3.068   5.279   3.171
 6115TIP3   OH218308   6.143   1.568   5.525
 6115TIP3    H118309   6.159   1.532   5.612
 6115TIP3    H218310   6.230   1.577   5.486
 6116TIP3   OH218311   0.455   2.737   5.518
 6116TIP3    H118312   0.428   2.724   5.427
 6116TIP3    H218313   0.377   2.772   5.562
 6117TIP3   OH218314   6.470   1.706   2.718
 6117TIP3    H118315   6.425   1.767   2.777
 6117TIP3    H218316   6.556   1.695   2.757
 6118TIP3   OH218317   2.686   0.510   5.510
 6118TIP3    H118318   2.764   0.566   5.514
 6118TIP3    H218319   2.717   0.422   5.529
 6119TIP3   OH218320   1.961   6.208   1.790
 6119TIP3    H118321   1.927   6.189   1.703
 6119TIP3    H218322   2.052   6.179   1.788
 6120TIP3   OH218323   7.233   6.772   2.507
 6120TIP3    H118324   7.155   6.759   2.454
 6120TIP3    H218325   7.305   6.741   2.451
 6121TIP3   OH218326   0.678   3.991   2.403
 6121TIP3    H118327   0.603   4.051   2.402
 6121TIP3    H218328   0.742   4.034   2.459
 6122TIP3   OH218329   2.149   6.427   0.597
 6122TIP3    H118330   2.151   6.522   0.589
 6122TIP3    H218331   2.240   6.402   0.612
 6123TIP3   OH218332   3.852   1.676   3.188
 6123TIP3    H118333   3.795   1.635   3.122
 6123TIP3    H218334   3.883   1.604   3.241
 6124TIP3   OH218335   6.987   0.918   5.103
 6124TIP3    H118336   7.049   0.848   5.121
 6124TIP3    H218337   7.013   0.952   5.017
 6125TIP3   OH218338   0.679   3.140   2.675
 6125TIP3    H118339   0.750   3.079   2.655
 6125TIP3    H218340   0.615   3.126   2.605
 6126TIP3   OH218341   0.678   1.010   2.317
 6126TIP3    H118342   0.710   0.920   2.321
 6126TIP3    H218343   0.587   1.001   2.287
 6127TIP3   OH218344   1.986   1.361   3.545
 6127TIP3    H118345   1.890   1.356   3.539
 6127TIP3    H218346   2.017   1.304   3.475
 6128TIP3   OH218347   2.787   2.518   2.706
 6128TIP3    H118348   2.750   2.437   2.671
 6128TIP3    H218349   2.710   2.572   2.725
 6129TIP3   OH218350   0.134   0.939   3.547
 6129TIP3    H118351   0.065   0.995   3.513
 6129TIP3    H218352   0.089   0.879   3.607
 6130TIP3   OH218353   6.643   3.406   0.111
 6130TIP3    H118354   6.675   3.470   0.174
 6130TIP3    H218355   6.686   3.430   0.028
 6131TIP3   OH218356   0.661   5.416   2.039
 6131TIP3    H118357   0.619   5.402   1.954
 6131TIP3    H218358   0.753   5.390   2.025
 6132TIP3   OH218359   4.022   6.360   4.596
 6132TIP3    H118360   4.028   6.329   4.505
 6132TIP3    H218361   4.010   6.281   4.647
 6133TIP3   OH218362   3.476   0.553   0.804
 6133TIP3    H118363   3.413   0.626   0.798
 6133TIP3    H218364   3.561   0.593   0.785
 6134TIP3   OH218365   1.464   6.748   2.259
 6134TIP3    H118366   1.465   6.722   2.352
 6134TIP3    H218367   1.444   6.842   2.261
 6135TIP3   OH218368   5.280   2.870   0.340
 6135TIP3    H118369   5.218   2.846   0.271
 6135TIP3    H218370   5.235   2.937   0.390
 6136TIP3   OH218371   5.951   6.525   5.580
 6136TIP3    H118372   5.999   6.605   5.601
 6136TIP3    H218373   5.861   6.544   5.606
 6137TIP3   OH218374   1.184   6.374   2.532
 6137TIP3    H118375   1.195   6.306   2.599
 6137TIP3    H218376   1.267   6.372   2.484
 6138TIP3   OH218377   3.388   0.753   1.431
 6138TIP3    H118378   3.378   0.777   1.339
 6138TIP3    H218379   3.351   0.827   1.479
 6139TIP3   OH218380   3.213   2.207   1.744
 6139TIP3    H118381   3.275   2.275   1.720
 6139TIP3    H218382   3.236   2.133   1.688
 6140TIP3   OH218383   0.252   2.422   4.730
 6140TIP3    H118384   0.339   2.392   4.755
 6140TIP3    H218385   0.201   2.416   4.811
 6141TIP3   OH218386   5.975   5.963   2.500
 6141TIP3    H118387   5.975   5.967   2.596
 6141TIP3    H218388   5.932   5.879   2.480
 6142TIP3   OH218389   3.470   3.509   2.534
 6142TIP3    H118390   3.427   3.591   2.559
 6142TIP3    H218391   3.466   3.455   2.613
 6143TIP3   OH218392   6.970   2.931   5.895
 6143TIP3    H118393   6.880   2.961   5.881
 6143TIP3    H218394   6.980   2.858   5.834
 6144TIP3   OH218395   1.243   6.091   0.320
 6144TIP3    H118396   1.171   6.030   0.305
 6144TIP3    H218397   1.275   6.112   0.232
 6145TIP3   OH218398   7.083   5.801   0.035
 6145TIP3    H118399   7.107   5.775   0.124
 6145TIP3    H218400   7.048   5.890   0.045
 6146TIP3   OH218401   0.464   1.093   4.196
 6146TIP3    H118402   0.468   1.144   4.276
 6146TIP3    H218403   0.554   1.095   4.162
 6147TIP3   OH218404   3.551   1.297   5.324
 6147TIP3    H118405   3.561   1.352   5.246
 6147TIP3    H218406   3.458   1.272   5.324
 6148TIP3   OH218407   5.524   3.424   3.112
 6148TIP3    H118408   5.578   3.476   3.052
 6148TIP3    H218409   5.466   3.489   3.154
 6149TIP3   OH218410  -0.032   6.500   1.359
 6149TIP3    H118411  -0.013   6.457   1.443
 6149TIP3    H218412   0.040   6.472   1.301
 6150TIP3   OH218413   0.781   0.040   0.031
 6150TIP3    H118414   0.728  -0.038   0.021
 6150TIP3    H218415   0.719   0.109   0.056
 6151TIP3   OH218416   6.236   5.324   4.441
 6151TIP3    H118417   6.163   5.281   4.398
 6151TIP3    H218418   6.195   5.390   4.498
 6152TIP3   OH218419   7.056   5.898   4.704
 6152TIP3    H118420   7.057   5.970   4.642
 6152TIP3    H218421   6.992   5.836   4.668
 6153TIP3   OH218422   0.254   1.095   5.865
 6153TIP3    H118423   0.263   1.190   5.863
 6153TIP3    H218424   0.342   1.063   5.886
 6154TIP3   OH218425   0.571   4.013   4.260
 6154TIP3    H118426   0.509   3.946   4.234
 6154TIP3    H218427   0.532   4.055   4.337
 6155TIP3   OH218428   3.565   3.922   3.447
 6155TIP3    H118429   3.560   4.010   3.485
 6155TIP3    H218430   3.644   3.884   3.484
 6156TIP3   OH218431   6.389   0.282   5.767
 6156TIP3    H118432   6.425   0.366   5.795
 6156TIP3    H218433   6.323   0.261   5.833
 6157TIP3   OH218434   1.945   1.320   5.326
 6157TIP3    H118435   1.931   1.295   5.417
 6157TIP3    H218436   1.990   1.404   5.330
 6158TIP3   OH218437   6.672   3.307   3.038
 6158TIP3    H118438   6.605   3.371   3.059
 6158TIP3    H218439   6.627   3.244   2.981
 6159TIP3   OH218440   4.771   3.955   3.758
 6159TIP3    H118441   4.775   3.999   3.673
 6159TIP3    H218442   4.790   3.863   3.739
 6160TIP3   OH218443   0.970   3.905   5.868
 6160TIP3    H118444   0.897   3.866   5.821
 6160TIP3    H218445   0.935   3.928   5.953
 6161TIP3   OH218446   1.057   6.686   3.787
 6161TIP3    H118447   0.966   6.690   3.757
 6161TIP3    H218448   1.103   6.750   3.732
 6162TIP3   OH218449   3.814   3.019   0.177
 6162TIP3    H118450   3.748   2.961   0.214
 6162TIP3    H218451   3.897   2.982   0.207
 6163TIP3   OH218452   6.872   3.324   0.672
 6163TIP3    H118453   6.954   3.279   0.656
 6163TIP3    H218454   6.889   3.415   0.646
 6164TIP3   OH218455   4.891   6.248   0.514
 6164TIP3    H118456   4.926   6.162   0.493
 6164TIP3    H218457   4.960   6.309   0.490
 6165TIP3   OH218458   1.103   0.066   1.265
 6165TIP3    H118459   1.109   0.117   1.184
 6165TIP3    H218460   1.193   0.045   1.288
 6166TIP3   OH218461   7.132   2.908   4.437
 6166TIP3    H118462   7.042   2.934   4.457
 6166TIP3    H218463   7.143   2.931   4.345
 6167TIP3   OH218464   3.093   5.966   5.481
 6167TIP3    H118465   3.085   5.873   5.505
 6167TIP3    H218466   3.123   5.965   5.390
 6168TIP3   OH218467   2.693   5.031   0.198
 6168TIP3    H118468   2.640   5.005   0.273
 6168TIP3    H218469   2.632   5.079   0.141
 6169TIP3   OH218470   5.224   5.939   3.682
 6169TIP3    H118471   5.237   5.861   3.736
 6169TIP3    H218472   5.284   6.004   3.720
 6170TIP3   OH218473   6.271   5.336   3.159
 6170TIP3    H118474   6.256   5.261   3.216
 6170TIP3    H218475   6.366   5.344   3.155
 6171TIP3   OH218476   6.856   0.915   0.046
 6171TIP3    H118477   6.929   0.976   0.038
 6171TIP3    H218478   6.781   0.963   0.013
 6172TIP3   OH218479   7.152   2.832   5.363
 6172TIP3    H118480   7.080   2.825   5.426
 6172TIP3    H218481   7.219   2.882   5.408
 6173TIP3   OH218482   6.457   0.366   2.511
 6173TIP3    H118483   6.362   0.375   2.512
 6173TIP3    H218484   6.473   0.277   2.543
 6174TIP3   OH218485   2.911   6.531   2.212
 6174TIP3    H118486   2.920   6.622   2.182
 6174TIP3    H218487   2.824   6.529   2.253
 6175TIP3   OH218488   3.892   0.721   2.501
 6175TIP3    H118489   3.960   0.682   2.556
 6175TIP3    H218490   3.886   0.662   2.426
 6176TIP3   OH218491   3.544   6.667   4.567
 6176TIP3    H118492   3.569   6.758   4.547
 6176TIP3    H218493   3.627   6.619   4.567
 6177TIP3   OH218494   4.072   2.599   1.108
 6177TIP3    H118495   4.110   2.670   1.055
 6177TIP3    H218496   3.978   2.610   1.099
 6178TIP3   OH218497   1.460   2.457   2.799
 6178TIP3    H118498   1.538   2.481   2.748
 6178TIP3    H218499   1.387   2.495   2.751
 6179TIP3   OH218500   5.672   1.611   2.207
 6179TIP3    H118501   5.594   1.593   2.154
 6179TIP3    H218502   5.745   1.595   2.147
 6180TIP3   OH218503   3.622   5.586   5.341
 6180TIP3    H118504   3.632   5.594   5.246
 6180TIP3    H218505   3.603   5.494   5.355
 6181TIP3   OH218506   1.776   1.697   1.641
 6181TIP3    H118507   1.871   1.706   1.649
 6181TIP3    H218508   1.746   1.786   1.621
 6182TIP3   OH218509   3.899   4.916   4.567
 6182TIP3    H118510   3.962   4.930   4.497
 6182TIP3    H218511   3.936   4.844   4.619
 6183TIP3   OH218512   5.258   3.075   2.440
 6183TIP3    H118513   5.285   3.162   2.410
 6183TIP3    H218514   5.293   3.069   2.529
 6184TIP3   OH218515   1.146   4.676   3.300
 6184TIP3    H118516   1.215   4.685   3.234
 6184TIP3    H218517   1.091   4.605   3.268
 6185TIP3   OH218518   2.240   1.522   4.705
 6185TIP3    H118519   2.207   1.606   4.737
 6185TIP3    H218520   2.167   1.487   4.654
 6186TIP3   OH218521   0.787   2.174   5.078
 6186TIP3    H118522   0.760   2.263   5.057
 6186TIP3    H218523   0.734   2.150   5.154
 6187TIP3   OH218524   2.653   1.813   3.358
 6187TIP3    H118525   2.647   1.791   3.265
 6187TIP3    H218526   2.563   1.811   3.389
 6188TIP3   OH218527   1.987   4.808   1.707
 6188TIP3    H118528   1.946   4.845   1.785
 6188TIP3    H218529   2.081   4.820   1.720
 6189TIP3   OH218530   4.591   3.125   3.003
 6189TIP3    H118531   4.514   3.170   2.967
 6189TIP3    H218532   4.608   3.054   2.942
 6190TIP3   OH218533   5.158   6.398   5.048
 6190TIP3    H118534   5.194   6.337   5.112
 6190TIP3    H218535   5.177   6.485   5.085
 6191TIP3   OH218536   2.585   1.732   3.060
 6191TIP3    H118537   2.675   1.709   3.037
 6191TIP3    H218538   2.532   1.697   2.988
 6192TIP3   OH218539   2.568   2.909   1.105
 6192TIP3    H118540   2.616   2.897   1.187
 6192TIP3    H218541   2.476   2.913   1.132
 6193TIP3   OH218542   2.093   3.780   1.821
 6193TIP3    H118543   2.111   3.706   1.879
 6193TIP3    H218544   2.012   3.755   1.776
 6194TIP3   OH218545   4.954   3.253   5.214
 6194TIP3    H118546   4.922   3.303   5.289
 6194TIP3    H218547   4.891   3.270   5.144
 6195TIP3   OH218548   4.192   1.322   0.120
 6195TIP3    H118549   4.097   1.308   0.122
 6195TIP3    H218550   4.211   1.350   0.031
 6196TIP3   OH218551   4.883   1.650   3.221
 6196TIP3    H118552   4.870   1.738   3.186
 6196TIP3    H218553   4.969   1.654   3.264
 6197TIP3   OH218554   1.456   1.433   4.994
 6197TIP3    H118555   1.480   1.349   5.033
 6197TIP3    H218556   1.365   1.420   4.965
 6198TIP3   OH218557   4.978   2.379   3.202
 6198TIP3    H118558   4.888   2.407   3.187
 6198TIP3    H218559   5.010   2.437   3.271
 6199TIP3   OH218560   1.358   4.649   0.819
 6199TIP3    H118561   1.337   4.735   0.782
 6199TIP3    H218562   1.403   4.669   0.902
 6200TIP3   OH218563   5.460   2.002   2.798
 6200TIP3    H118564   5.550   2.011   2.765
 6200TIP3    H218565   5.471   1.992   2.892
 6201TIP3   OH218566   2.988   0.024   5.634
 6201TIP3    H118567   2.931   0.060   5.702
 6201TIP3    H218568   3.042   0.098   5.606
 6202TIP3   OH218569   2.143   5.977   1.331
 6202TIP3    H118570   2.094   6.034   1.272
 6202TIP3    H218571   2.083   5.961   1.404
 6203TIP3   OH218572   0.363   1.187   2.480
 6203TIP3    H118573   0.361   1.094   2.456
 6203TIP3    H218574   0.417   1.190   2.559
 6204TIP3   OH218575   5.927   3.958   2.178
 6204TIP3    H118576   5.871   3.881   2.177
 6204TIP3    H218577   5.924   3.991   2.088
 6205TIP3   OH218578   3.978   0.351   2.454
 6205TIP3    H118579   3.904   0.302   2.419
 6205TIP3    H218580   4.055   0.301   2.426
 6206TIP3   OH218581   1.054   0.880   0.287
 6206TIP3    H118582   0.995   0.877   0.363
 6206TIP3    H218583   1.108   0.958   0.302
 6207TIP3   OH218584   0.192   3.373   2.485
 6207TIP3    H118585   0.102   3.396   2.465
 6207TIP3    H218586   0.211   3.298   2.428
 6208TIP3   OH218587   6.813   3.237   2.102
 6208TIP3    H118588   6.888   3.178   2.096
 6208TIP3    H218589   6.833   3.295   2.175
 6209TIP3   OH218590   6.779   4.343   1.725
 6209TIP3    H118591   6.758   4.357   1.817
 6209TIP3    H218592   6.709   4.387   1.677
 6210TIP3   OH218593   5.542   4.320   2.403
 6210TIP3    H118594   5.476   4.349   2.340
 6210TIP3    H218595   5.590   4.251   2.357
 6211TIP3   OH218596   6.006   6.214   5.129
 6211TIP3    H118597   5.969   6.255   5.207
 6211TIP3    H218598   6.101   6.215   5.144
 6212TIP3   OH218599   3.558   1.704   0.116
 6212TIP3    H118600   3.640   1.660   0.138
 6212TIP3    H218601   3.502   1.690   0.192
 6213TIP3   OH218602   2.823   1.380   4.029
 6213TIP3    H118603   2.731   1.358   4.012
 6213TIP3    H218604   2.826   1.476   4.024
 6214TIP3   OH218605   3.417   4.409   1.335
 6214TIP3    H118606   3.495   4.466   1.341
 6214TIP3    H218607   3.375   4.436   1.253
 6215TIP3   OH218608   0.360   3.348   4.098
 6215TIP3    H118609   0.294   3.292   4.138
 6215TIP3    H218610   0.320   3.376   4.015
 6216TIP3   OH218611   1.636   3.187   4.351
 6216TIP3    H118612   1.657   3.223   4.437
 6216TIP3    H218613   1.631   3.092   4.365
 6217TIP3   OH218614   1.100   5.788   5.647
 6217TIP3    H118615   1.063   5.700   5.653
 6217TIP3    H218616   1.187   5.774   5.609
 6218TIP3   OH218617   2.222   0.554   2.215
 6218TIP3    H118618   2.211   0.461   2.196
 6218TIP3    H218619   2.200   0.598   2.132
 6219TIP3   OH218620   6.018   5.465   0.185
 6219TIP3    H118621   6.044   5.529   0.119
 6219TIP3    H218622   6.100   5.426   0.215
 6220TIP3   OH218623   7.002   5.574   2.756
 6220TIP3    H118624   7.018   5.586   2.663
 6220TIP3    H218625   6.921   5.621   2.774
 6221TIP3   OH218626   6.661   6.528   0.383
 6221TIP3    H118627   6.733   6.584   0.355
 6221TIP3    H218628   6.603   6.585   0.432
 6222TIP3   OH218629   6.120   3.525   0.196
 6222TIP3    H118630   6.191   3.565   0.146
 6222TIP3    H218631   6.157   3.514   0.284
 6223TIP3   OH218632   4.389   1.879   3.195
 6223TIP3    H118633   4.344   1.809   3.243
 6223TIP3    H218634   4.482   1.864   3.212
 6224TIP3   OH218635   2.227   1.205   1.313
 6224TIP3    H118636   2.199   1.291   1.345
 6224TIP3    H218637   2.316   1.219   1.281
 6225TIP3   OH218638   1.900   0.242   4.739
 6225TIP3    H118639   1.976   0.187   4.721
 6225TIP3    H218640   1.884   0.289   4.656
 6226TIP3   OH218641   1.773   1.977   1.605
 6226TIP3    H118642   1.710   2.046   1.583
 6226TIP3    H218643   1.842   1.987   1.541
 6227TIP3   OH218644   3.547   3.141   0.636
 6227TIP3    H118645   3.567   3.079   0.707
 6227TIP3    H218646   3.632   3.177   0.611
 6228TIP3   OH218647   2.518   0.851   1.996
 6228TIP3    H118648   2.569   0.932   1.987
 6228TIP3    H218649   2.439   0.867   1.946
 6229TIP3   OH218650   1.043   1.768   3.921
 6229TIP3    H118651   0.959   1.761   3.966
 6229TIP3    H218652   1.068   1.860   3.932
 6230TIP3   OH218653   4.984   1.300   3.590
 6230TIP3    H118654   4.936   1.219   3.578
 6230TIP3    H218655   5.063   1.275   3.639
 6231TIP3   OH218656   4.089   0.799   1.827
 6231TIP3    H118657   4.129   0.785   1.741
 6231TIP3    H218658   4.011   0.852   1.809
 6232TIP3   OH218659   5.284   0.733   5.143
 6232TIP3    H118660   5.195   0.720   5.109
 6232TIP3    H218661   5.291   0.827   5.157
 6233TIP3   OH218662   7.117   1.171   0.892
 6233TIP3    H118663   7.165   1.254   0.894
 6233TIP3    H218664   7.183   1.106   0.917
 6234TIP3   OH218665   6.772   3.036   5.450
 6234TIP3    H118666   6.691   3.011   5.406
 6234TIP3    H218667   6.750   3.118   5.495
 6235TIP3   OH218668   0.039   1.433   2.285
 6235TIP3    H118669  -0.029   1.366   2.284
 6235TIP3    H218670   0.062   1.443   2.378
 6236TIP3   OH218671   4.889   3.502   5.367
 6236TIP3    H118672   4.822   3.558   5.407
 6236TIP3    H218673   4.892   3.531   5.276
 6237TIP3   OH218674   3.634   5.565   3.462
 6237TIP3    H118675   3.630   5.490   3.521
 6237TIP3    H218676   3.565   5.624   3.493
 6238TIP3   OH218677   3.920   5.958   2.614
 6238TIP3    H118678   3.903   5.890   2.679
 6238TIP3    H218679   3.971   6.024   2.662
 6239TIP3   OH218680   4.708   0.475   5.324
 6239TIP3    H118681   4.797   0.486   5.356
 6239TIP3    H218682   4.687   0.557   5.280
 6240TIP3   OH218683   6.362   4.691   0.787
 6240TIP3    H118684   6.273   4.669   0.813
 6240TIP3    H218685   6.356   4.781   0.754
 6241TIP3   OH218686   1.374   6.230   3.146
 6241TIP3    H118687   1.385   6.136   3.164
 6241TIP3    H218688   1.463   6.265   3.150
 6242TIP3   OH218689   3.720   5.379   2.941
 6242TIP3    H118690   3.736   5.437   2.867
 6242TIP3    H218691   3.678   5.301   2.903
 6243TIP3   OH218692   2.584   2.716   2.328
 6243TIP3    H118693   2.611   2.645   2.385
 6243TIP3    H218694   2.490   2.726   2.343
 6244TIP3   OH218695   4.434   5.478   0.883
 6244TIP3    H118696   4.431   5.391   0.843
 6244TIP3    H218697   4.520   5.483   0.924
 6245TIP3   OH218698   3.523   4.100   5.064
 6245TIP3    H118699   3.489   4.034   5.124
 6245TIP3    H218700   3.519   4.059   4.978
 6246TIP3   OH218701   3.794   2.949   1.201
 6246TIP3    H118702   3.714   2.992   1.232
 6246TIP3    H218703   3.850   3.020   1.172
 6247TIP3   OH218704   6.645   6.166   5.541
 6247TIP3    H118705   6.569   6.152   5.597
 6247TIP3    H218706   6.688   6.244   5.577
 6248TIP3   OH218707   0.858   0.994   2.085
 6248TIP3    H118708   0.842   1.013   2.178
 6248TIP3    H218709   0.786   1.037   2.039
 6249TIP3   OH218710   6.726   2.330   5.618
 6249TIP3    H118711   6.818   2.346   5.638
 6249TIP3    H218712   6.728   2.280   5.536
 6250TIP3   OH218713   1.544   5.040   1.343
 6250TIP3    H118714   1.619   5.027   1.285
 6250TIP3    H218715   1.489   4.963   1.329
 6251TIP3   OH218716   2.233   4.128   0.202
 6251TIP3    H118717   2.300   4.141   0.136
 6251TIP3    H218718   2.267   4.172   0.280
 6252TIP3   OH218719   0.706   2.997   4.332
 6252TIP3    H118720   0.683   3.035   4.247
 6252TIP3    H218721   0.799   3.018   4.344
 6253TIP3   OH218722   5.091   2.645   0.809
 6253TIP3    H118723   5.130   2.580   0.868
 6253TIP3    H218724   5.112   2.729   0.850
 6254TIP3   OH218725   0.197   3.352   1.171
 6254TIP3    H118726   0.272   3.396   1.213
 6254TIP3    H218727   0.164   3.293   1.239
 6255TIP3   OH218728   6.333   3.491   4.418
 6255TIP3    H118729   6.253   3.544   4.424
 6255TIP3    H218730   6.386   3.536   4.353
 6256TIP3   OH218731   1.993   2.448   2.031
 6256TIP3    H118732   1.939   2.516   2.072
 6256TIP3    H218733   2.079   2.458   2.073
 6257TIP3   OH218734   3.646   2.254   1.597
 6257TIP3    H118735   3.561   2.281   1.631
 6257TIP3    H218736   3.640   2.270   1.503
 6258TIP3   OH218737   3.275   5.824   3.023
 6258TIP3    H118738   3.321   5.905   3.047
 6258TIP3    H218739   3.312   5.799   2.939
 6259TIP3   OH218740   3.402   4.365   5.600
 6259TIP3    H118741   3.344   4.407   5.537
 6259TIP3    H218742   3.357   4.284   5.624
 6260TIP3   OH218743   6.887   6.549   5.040
 6260TIP3    H118744   6.825   6.477   5.026
 6260TIP3    H218745   6.961   6.528   4.984
 6261TIP3   OH218746   2.096   5.220   2.771
 6261TIP3    H118747   2.034   5.276   2.817
 6261TIP3    H218748   2.068   5.225   2.679
 6262TIP3   OH218749   3.485   4.866   2.972
 6262TIP3    H118750   3.533   4.819   3.039
 6262TIP3    H218751   3.447   4.941   3.017
 6263TIP3   OH218752   5.260   5.967   4.814
 6263TIP3    H118753   5.286   6.032   4.879
 6263TIP3    H218754   5.186   5.920   4.854
 6264TIP3   OH218755   0.346   5.943   0.604
 6264TIP3    H118756   0.257   5.915   0.581
 6264TIP3    H218757   0.351   6.034   0.575
 6265TIP3   OH218758   5.098   0.377   0.260
 6265TIP3    H118759   5.034   0.314   0.293
 6265TIP3    H218760   5.153   0.327   0.200
 6266TIP3   OH218761   0.253   5.468   2.862
 6266TIP3    H118762   0.245   5.395   2.924
 6266TIP3    H218763   0.248   5.426   2.775
 6267TIP3   OH218764   1.441   5.472   1.161
 6267TIP3    H118765   1.357   5.443   1.124
 6267TIP3    H218766   1.418   5.513   1.244
 6268TIP3   OH218767   4.679   2.798   1.044
 6268TIP3    H118768   4.702   2.883   1.004
 6268TIP3    H218769   4.651   2.744   0.970
 6269TIP3   OH218770   1.870   3.088   1.166
 6269TIP3    H118771   1.910   3.162   1.213
 6269TIP3    H218772   1.792   3.126   1.126
 6270TIP3   OH218773   0.888   1.553   0.458
 6270TIP3    H118774   0.979   1.581   0.450
 6270TIP3    H218775   0.844   1.592   0.382
 6271TIP3   OH218776   5.135   5.182   1.903
 6271TIP3    H118777   5.039   5.182   1.910
 6271TIP3    H218778   5.158   5.091   1.882
 6272TIP3   OH218779   3.289   5.506   1.416
 6272TIP3    H118780   3.351   5.551   1.474
 6272TIP3    H218781   3.240   5.577   1.374
 6273TIP3   OH218782   7.052   5.897   1.301
 6273TIP3    H118783   7.131   5.891   1.247
 6273TIP3    H218784   6.982   5.920   1.240
 6274TIP3   OH218785   1.955   1.263   0.302
 6274TIP3    H118786   1.976   1.357   0.300
 6274TIP3    H218787   1.871   1.256   0.256
 6275TIP3   OH218788   4.509   5.230   2.635
 6275TIP3    H118789   4.486   5.188   2.552
 6275TIP3    H218790   4.538   5.318   2.609
 6276TIP3   OH218791   1.630   5.291   0.022
 6276TIP3    H118792   1.589   5.253  -0.056
 6276TIP3    H218793   1.628   5.220   0.086
 6277TIP3   OH218794   6.691   0.662   4.473
 6277TIP3    H118795   6.752   0.719   4.520
 6277TIP3    H218796   6.613   0.716   4.460
 6278TIP3   OH218797   5.619   1.112   3.372
 6278TIP3    H118798   5.689   1.046   3.370
 6278TIP3    H218799   5.548   1.073   3.321
 6279TIP3   OH218800   3.231   3.376   1.918
 6279TIP3    H118801   3.244   3.437   1.991
 6279TIP3    H218802   3.297   3.401   1.853
 6280TIP3   OH218803   1.793   5.679   5.626
 6280TIP3    H118804   1.703   5.672   5.594
 6280TIP3    H218805   1.807   5.774   5.636
 6281TIP3   OH218806   3.684   1.168   4.808
 6281TIP3    H118807   3.757   1.109   4.826
 6281TIP3    H218808   3.670   1.215   4.890
 6282TIP3   OH218809   1.553   1.997   3.668
 6282TIP3    H118810   1.507   1.923   3.708
 6282TIP3    H218811   1.551   1.979   3.574
 6283TIP3   OH218812   1.600   6.408   1.980
 6283TIP3    H118813   1.691   6.380   1.979
 6283TIP3    H218814   1.571   6.399   1.889
 6284TIP3   OH218815   6.009   1.442   4.403
 6284TIP3    H118816   5.937   1.459   4.343
 6284TIP3    H218817   5.966   1.431   4.489
 6285TIP3   OH218818   3.783   5.516   1.371
 6285TIP3    H118819   3.868   5.544   1.403
 6285TIP3    H218820   3.725   5.525   1.447
 6286TIP3   OH218821   5.730   0.987   1.991
 6286TIP3    H118822   5.784   0.924   2.038
 6286TIP3    H218823   5.773   0.996   1.906
 6287TIP3   OH218824   1.655   6.598   0.702
 6287TIP3    H118825   1.608   6.542   0.764
 6287TIP3    H218826   1.712   6.539   0.654
 6288TIP3   OH218827   6.128   6.126   0.371
 6288TIP3    H118828   6.128   6.041   0.326
 6288TIP3    H218829   6.183   6.112   0.448
 6289TIP3   OH218830   6.080   1.049   2.995
 6289TIP3    H118831   6.012   0.994   2.955
 6289TIP3    H218832   6.061   1.137   2.962
 6290TIP3   OH218833   6.153   0.864   1.220
 6290TIP3    H118834   6.061   0.875   1.246
 6290TIP3    H218835   6.152   0.791   1.158
 6291TIP3   OH218836   7.183   3.000   2.922
 6291TIP3    H118837   7.092   3.026   2.934
 6291TIP3    H218838   7.214   2.982   3.011
 6292TIP3   OH218839   5.611   5.991   5.842
 6292TIP3    H118840   5.651   6.029   5.921
 6292TIP3    H218841   5.568   6.064   5.799
 6293TIP3   OH218842   4.075   5.743   2.117
 6293TIP3    H118843   4.071   5.757   2.022
 6293TIP3    H218844   4.085   5.648   2.127
 6294TIP3   OH218845   1.884   3.053   2.947
 6294TIP3    H118846   1.890   3.025   2.855
 6294TIP3    H218847   1.943   3.128   2.953
 6295TIP3   OH218848   1.005   6.347   0.391
 6295TIP3    H118849   0.956   6.279   0.344
 6295TIP3    H218850   1.088   6.305   0.414
 6296TIP3   OH218851   3.133   2.427   0.732
 6296TIP3    H118852   3.176   2.455   0.813
 6296TIP3    H218853   3.204   2.427   0.667
 6297TIP3   OH218854   3.262   0.958   5.066
 6297TIP3    H118855   3.267   0.911   4.983
 6297TIP3    H218856   3.193   1.024   5.051
 6298TIP3   OH218857   7.028   2.846   2.733
 6298TIP3    H118858   7.113   2.864   2.775
 6298TIP3    H218859   6.965   2.850   2.804
 6299TIP3   OH218860   5.436   0.942   3.145
 6299TIP3    H118861   5.480   0.864   3.112
 6299TIP3    H218862   5.346   0.913   3.162
 6300TIP3   OH218863   0.810   2.848   3.267
 6300TIP3    H118864   0.878   2.890   3.214
 6300TIP3    H218865   0.745   2.917   3.282
 6301TIP3   OH218866   0.746   3.417   0.901
 6301TIP3    H118867   0.815   3.409   0.967
 6301TIP3    H218868   0.676   3.465   0.946
 6302TIP3   OH218869   3.179   5.576   4.872
 6302TIP3    H118870   3.107   5.534   4.918
 6302TIP3    H218871   3.155   5.669   4.869
 6303TIP3   OH218872   3.849   2.682   5.454
 6303TIP3    H118873   3.800   2.673   5.536
 6303TIP3    H218874   3.800   2.630   5.391
 6304TIP3   OH218875   4.362   1.412   0.512
 6304TIP3    H118876   4.268   1.423   0.498
 6304TIP3    H218877   4.388   1.346   0.448
 6305TIP3   OH218878   3.156   4.645   5.282
 6305TIP3    H118879   3.248   4.642   5.256
 6305TIP3    H218880   3.156   4.698   5.362
 6306TIP3   OH218881   6.078   5.558   4.518
 6306TIP3    H118882   6.030   5.561   4.435
 6306TIP3    H218883   6.148   5.623   4.506
 6307TIP3   OH218884   0.519   1.788   0.694
 6307TIP3    H118885   0.590   1.840   0.656
 6307TIP3    H218886   0.547   1.769   0.783
 6308TIP3   OH218887   5.993   4.581   2.814
 6308TIP3    H118888   6.010   4.657   2.868
 6308TIP3    H218889   5.984   4.508   2.876
 6309TIP3   OH218890   2.069   2.648   0.002
 6309TIP3    H118891   2.067   2.577   0.066
 6309TIP3    H218892   1.994   2.702   0.024
 6310TIP3   OH218893   0.170   4.225   5.842
 6310TIP3    H118894   0.257   4.186   5.838
 6310TIP3    H218895   0.111   4.151   5.827
 6311TIP3   OH218896   4.073   5.448   4.128
 6311TIP3    H118897   4.051   5.414   4.215
 6311TIP3    H218898   4.141   5.389   4.096
 6312TIP3   OH218899   2.404   4.025   3.123
 6312TIP3    H118900   2.438   3.947   3.167
 6312TIP3    H218901   2.449   4.026   3.038
 6313TIP3   OH218902   1.053   0.570   0.685
 6313TIP3    H118903   0.972   0.560   0.736
 6313TIP3    H218904   1.101   0.639   0.731
 6314TIP3   OH218905   0.551   4.528   3.301
 6314TIP3    H118906   0.500   4.578   3.238
 6314TIP3    H218907   0.514   4.552   3.386
 6315TIP3   OH218908   4.233   1.745   2.960
 6315TIP3    H118909   4.258   1.744   2.868
 6315TIP3    H218910   4.294   1.805   3.002
 6316TIP3   OH218911   5.605   3.429   2.203
 6316TIP3    H118912   5.527   3.474   2.236
 6316TIP3    H218913   5.645   3.390   2.281
 6317TIP3   OH218914   0.267   2.860   5.682
 6317TIP3    H118915   0.293   2.951   5.667
 6317TIP3    H218916   0.171   2.863   5.689
 6318TIP3   OH218917   2.642   1.101   0.986
 6318TIP3    H118918   2.636   1.149   0.903
 6318TIP3    H218919   2.736   1.091   1.001
 6319TIP3   OH218920   2.563   0.163   1.409
 6319TIP3    H118921   2.627   0.195   1.345
 6319TIP3    H218922   2.479   0.167   1.364
 6320TIP3   OH218923   3.974   3.852   4.493
 6320TIP3    H118924   3.955   3.761   4.516
 6320TIP3    H218925   4.069   3.853   4.477
 6321TIP3   OH218926   2.960   2.256   2.503
 6321TIP3    H118927   2.885   2.224   2.553
 6321TIP3    H218928   3.000   2.322   2.559
 6322TIP3   OH218929   1.854   0.904   5.831
 6322TIP3    H118930   1.804   0.829   5.800
 6322TIP3    H218931   1.834   0.910   5.924
 6323TIP3   OH218932   6.769   5.527   0.921
 6323TIP3    H118933   6.858   5.539   0.952
 6323TIP3    H218934   6.778   5.481   0.838
 6324TIP3   OH218935   4.945   1.879   1.040
 6324TIP3    H118936   4.982   1.881   1.128
 6324TIP3    H218937   4.968   1.792   1.006
 6325TIP3   OH218938   5.435   6.598   2.209
 6325TIP3    H118939   5.437   6.563   2.298
 6325TIP3    H218940   5.501   6.548   2.162
 6326TIP3   OH218941   6.337   4.629   5.887
 6326TIP3    H118942   6.302   4.651   5.801
 6326TIP3    H218943   6.292   4.548   5.911
 6327TIP3   OH218944   1.750   1.427   3.917
 6327TIP3    H118945   1.786   1.486   3.850
 6327TIP3    H218946   1.662   1.407   3.886
 6328TIP3   OH218947   5.739   3.807   1.517
 6328TIP3    H118948   5.674   3.797   1.587
 6328TIP3    H218949   5.773   3.719   1.502
 6329TIP3   OH218950   6.800   1.001   4.014
 6329TIP3    H118951   6.768   1.024   3.926
 6329TIP3    H218952   6.732   0.945   4.050
 6330TIP3   OH218953   6.161   3.855   3.057
 6330TIP3    H118954   6.246   3.858   3.100
 6330TIP3    H218955   6.157   3.936   3.006
 6331TIP3   OH218956   6.986   2.702   2.170
 6331TIP3    H118957   7.013   2.659   2.088
 6331TIP3    H218958   6.969   2.629   2.230
 6332TIP3   OH218959   1.853   3.693   1.709
 6332TIP3    H118960   1.800   3.613   1.713
 6332TIP3    H218961   1.865   3.709   1.616
 6333TIP3   OH218962   3.685   2.275   4.565
 6333TIP3    H118963   3.768   2.240   4.596
 6333TIP3    H218964   3.704   2.368   4.548
 6334TIP3   OH218965   5.022   4.111   0.361
 6334TIP3    H118966   4.952   4.100   0.425
 6334TIP3    H218967   4.990   4.179   0.302
 6335TIP3   OH218968   6.682   0.083   4.386
 6335TIP3    H118969   6.744   0.148   4.421
 6335TIP3    H218970   6.606   0.090   4.443
 6336TIP3   OH218971   2.184   1.393   2.077
 6336TIP3    H118972   2.171   1.298   2.068
 6336TIP3    H218973   2.180   1.408   2.172
 6337TIP3   OH218974   1.873   5.862   4.482
 6337TIP3    H118975   1.954   5.845   4.432
 6337TIP3    H218976   1.819   5.914   4.423
 6338TIP3   OH218977   3.424   4.558   2.044
 6338TIP3    H118978   3.328   4.553   2.048
 6338TIP3    H218979   3.445   4.645   2.078
 6339TIP3   OH218980   4.034   3.785   0.833
 6339TIP3    H118981   4.109   3.727   0.849
 6339TIP3    H218982   4.072   3.874   0.838
 6340TIP3   OH218983   1.394   1.400   0.950
 6340TIP3    H118984   1.342   1.472   0.915
 6340TIP3    H218985   1.446   1.439   1.020
 6341TIP3   OH218986   0.712   3.376   0.477
 6341TIP3    H118987   0.744   3.437   0.410
 6341TIP3    H218988   0.704   3.293   0.432
 6342TIP3   OH218989   6.307   5.816   4.781
 6342TIP3    H118990   6.287   5.843   4.870
 6342TIP3    H218991   6.402   5.822   4.775
 6343TIP3   OH218992   1.590   1.272   0.525
 6343TIP3    H118993   1.553   1.226   0.601
 6343TIP3    H218994   1.555   1.361   0.531
 6344TIP3   OH218995   5.787   6.070   3.387
 6344TIP3    H118996   5.862   6.076   3.328
 6344TIP3    H218997   5.753   6.159   3.393
 6345TIP3   OH218998   7.166   2.386   5.276
 6345TIP3    H118999   7.082   2.421   5.302
 6345TIP3    H219000   7.178   2.415   5.185
 6346TIP3   OH219001   6.031   4.469   1.598
 6346TIP3    H119002   6.003   4.386   1.635
 6346TIP3    H219003   6.126   4.470   1.611
 6347TIP3   OH219004   4.618   6.772   4.343
 6347TIP3    H119005   4.582   6.757   4.255
 6347TIP3    H219006   4.703   6.727   4.341
 6348TIP3   OH219007   0.053   3.620   1.444
 6348TIP3    H119008   0.094   3.666   1.517
 6348TIP3    H219009   0.072   3.674   1.368
 6349TIP3   OH219010   1.882   0.118   4.117
 6349TIP3    H119011   1.873   0.188   4.182
 6349TIP3    H219012   1.945   0.152   4.054
 6350TIP3   OH219013   3.773   0.575   4.970
 6350TIP3    H119014   3.687   0.570   4.928
 6350TIP3    H219015   3.806   0.661   4.945
 6351TIP3   OH219016   1.654   6.784   2.743
 6351TIP3    H119017   1.641   6.871   2.780
 6351TIP3    H219018   1.646   6.795   2.649
 6352TIP3   OH219019   2.809   2.343   1.955
 6352TIP3    H119020   2.818   2.345   1.860
 6352TIP3    H219021   2.863   2.416   1.986
 6353TIP3   OH219022   3.712   2.206   1.336
 6353TIP3    H119023   3.707   2.146   1.261
 6353TIP3    H219024   3.737   2.290   1.299
 6354TIP3   OH219025   0.633   0.122   0.310
 6354TIP3    H119026   0.668   0.033   0.298
 6354TIP3    H219027   0.589   0.141   0.228
 6355TIP3   OH219028   6.048   4.384   2.977
 6355TIP3    H119029   6.110   4.314   2.996
 6355TIP3    H219030   5.963   4.351   3.006
 6356TIP3   OH219031   2.396   1.416   2.695
 6356TIP3    H119032   2.400   1.448   2.785
 6356TIP3    H219033   2.431   1.487   2.642
 6357TIP3   OH219034   1.976   1.101   4.371
 6357TIP3    H119035   2.016   1.044   4.306
 6357TIP3    H219036   1.894   1.129   4.331
 6358TIP3   OH219037   3.479   5.101   0.968
 6358TIP3    H119038   3.491   5.196   0.971
 6358TIP3    H219039   3.536   5.067   1.037
 6359TIP3   OH219040   1.098   1.693   4.665
 6359TIP3    H119041   1.079   1.787   4.664
 6359TIP3    H219042   1.191   1.688   4.688
 6360TIP3   OH219043   5.806   4.408   1.989
 6360TIP3    H119044   5.710   4.408   1.982
 6360TIP3    H219045   5.831   4.316   1.983
 6361TIP3   OH219046   0.156   5.546   0.865
 6361TIP3    H119047   0.117   5.486   0.929
 6361TIP3    H219048   0.191   5.618   0.918
 6362TIP3   OH219049   5.925   6.551   3.375
 6362TIP3    H119050   5.850   6.498   3.402
 6362TIP3    H219051   5.965   6.501   3.304
 6363TIP3   OH219052   6.325   3.724   2.392
 6363TIP3    H119053   6.285   3.811   2.388
 6363TIP3    H219054   6.402   3.736   2.448
 6364TIP3   OH219055   3.616   1.777   0.790
 6364TIP3    H119056   3.643   1.712   0.854
 6364TIP3    H219057   3.688   1.840   0.788
 6365TIP3   OH219058   5.094   6.212   0.163
 6365TIP3    H119059   5.127   6.258   0.240
 6365TIP3    H219060   5.100   6.277   0.092
 6366TIP3   OH219061   5.508   0.416   4.650
 6366TIP3    H119062   5.597   0.440   4.675
 6366TIP3    H219063   5.453   0.488   4.681
 6367TIP3   OH219064   6.338   4.545   2.330
 6367TIP3    H119065   6.316   4.530   2.422
 6367TIP3    H219066   6.396   4.622   2.331
 6368TIP3   OH219067   1.368   2.159   4.363
 6368TIP3    H119068   1.280   2.184   4.336
 6368TIP3    H219069   1.385   2.078   4.316
 6369TIP3   OH219070   0.908   4.240   3.746
 6369TIP3    H119071   0.870   4.328   3.752
 6369TIP3    H219072   0.850   4.192   3.688
 6370TIP3   OH219073   5.115   3.944   1.750
 6370TIP3    H119074   5.030   3.987   1.740
 6370TIP3    H219075   5.093   3.851   1.763
 6371TIP3   OH219076   5.771   2.652   1.253
 6371TIP3    H119077   5.817   2.715   1.197
 6371TIP3    H219078   5.758   2.576   1.197
 6372TIP3   OH219079   6.271   3.046   3.993
 6372TIP3    H119080   6.279   3.135   4.028
 6372TIP3    H219081   6.189   3.048   3.943
 6373TIP3   OH219082   4.966   5.874   5.683
 6373TIP3    H119083   5.006   5.830   5.608
 6373TIP3    H219084   4.971   5.967   5.661
 6374TIP3   OH219085   6.775   2.189   2.667
 6374TIP3    H119086   6.744   2.098   2.667
 6374TIP3    H219087   6.725   2.232   2.736
 6375TIP3   OH219088   0.245   3.865   4.407
 6375TIP3    H119089   0.287   3.814   4.476
 6375TIP3    H219090   0.294   3.845   4.328
 6376TIP3   OH219091   4.689   2.536   5.631
 6376TIP3    H119092   4.640   2.602   5.582
 6376TIP3    H219093   4.646   2.533   5.717
 6377TIP3   OH219094   3.229   1.912   1.816
 6377TIP3    H119095   3.249   1.821   1.838
 6377TIP3    H219096   3.280   1.963   1.879
 6378TIP3   OH219097   5.531   0.858   4.203
 6378TIP3    H119098   5.536   0.907   4.121
 6378TIP3    H219099   5.622   0.841   4.226
 6379TIP3   OH219100   4.185   2.980   1.261
 6379TIP3    H119101   4.279   2.971   1.248
 6379TIP3    H219102   4.175   3.063   1.308
 6380TIP3   OH219103   5.562   5.940   1.577
 6380TIP3    H119104   5.634   5.932   1.640
 6380TIP3    H219105   5.488   5.898   1.621
 6381TIP3   OH219106   0.795   0.338   2.216
 6381TIP3    H119107   0.735   0.276   2.174
 6381TIP3    H219108   0.852   0.283   2.269
 6382TIP3   OH219109   0.413   4.766   3.901
 6382TIP3    H119110   0.417   4.678   3.863
 6382TIP3    H219111   0.340   4.762   3.962
 6383TIP3   OH219112   5.962   5.376   4.834
 6383TIP3    H119113   5.947   5.292   4.878
 6383TIP3    H219114   6.057   5.382   4.824
 6384TIP3   OH219115   1.946   1.714   2.903
 6384TIP3    H119116   1.944   1.698   2.998
 6384TIP3    H219117   1.854   1.721   2.878
 6385TIP3   OH219118   3.606   0.033   2.589
 6385TIP3    H119119   3.540   0.101   2.600
 6385TIP3    H219120   3.564  -0.032   2.533
 6386TIP3   OH219121   2.293   3.712   5.807
 6386TIP3    H119122   2.371   3.662   5.785
 6386TIP3    H219123   2.251   3.663   5.878
 6387TIP3   OH219124   7.182   1.343   3.340
 6387TIP3    H119125   7.183   1.251   3.368
 6387TIP3    H219126   7.249   1.385   3.394
 6388TIP3   OH219127   4.342   1.167   5.295
 6388TIP3    H119128   4.377   1.238   5.241
 6388TIP3    H219129   4.391   1.090   5.267
 6389TIP3   OH219130   6.777   4.227   5.635
 6389TIP3    H119131   6.746   4.314   5.610
 6389TIP3    H219132   6.862   4.218   5.591
 6390TIP3   OH219133   0.407   0.844   5.617
 6390TIP3    H119134   0.485   0.884   5.580
 6390TIP3    H219135   0.440   0.787   5.687
 6391TIP3   OH219136   3.249   3.633   2.928
 6391TIP3    H119137   3.202   3.575   2.988
 6391TIP3    H219138   3.235   3.721   2.962
 6392TIP3   OH219139   3.591   0.908   4.897
 6392TIP3    H119140   3.622   0.853   4.825
 6392TIP3    H219141   3.509   0.946   4.864
 6393TIP3   OH219142   3.826   4.241   4.704
 6393TIP3    H119143   3.742   4.276   4.675
 6393TIP3    H219144   3.858   4.191   4.629
 6394TIP3   OH219145   6.870   1.394   5.623
 6394TIP3    H119146   6.944   1.373   5.566
 6394TIP3    H219147   6.800   1.421   5.562
 6395TIP3   OH219148   0.541   3.374   3.233
 6395TIP3    H119149   0.485   3.299   3.214
 6395TIP3    H219150   0.600   3.343   3.302
 6396TIP3   OH219151   6.282   5.915   2.695
 6396TIP3    H119152   6.299   5.943   2.605
 6396TIP3    H219153   6.368   5.918   2.737
 6397TIP3   OH219154   2.907   5.151   0.576
 6397TIP3    H119155   2.979   5.177   0.519
 6397TIP3    H219156   2.920   5.057   0.588
 6398TIP3   OH219157   5.178   5.760   0.048
 6398TIP3    H119158   5.099   5.793   0.091
 6398TIP3    H219159   5.177   5.666   0.065
 6399TIP3   OH219160   2.501   6.685   4.289
 6399TIP3    H119161   2.552   6.766   4.294
 6399TIP3    H219162   2.523   6.638   4.370
 6400TIP3   OH219163   5.826   5.729   2.501
 6400TIP3    H119164   5.745   5.748   2.548
 6400TIP3    H219165   5.813   5.641   2.465
 6401TIP3   OH219166   6.360   6.121   0.071
 6401TIP3    H119167   6.356   6.089   0.161
 6401TIP3    H219168   6.351   6.043   0.017
 6402TIP3   OH219169   1.041   5.614   0.257
 6402TIP3    H119170   1.020   5.615   0.164
 6402TIP3    H219171   0.972   5.560   0.296
 6403TIP3   OH219172   6.821   4.968   1.200
 6403TIP3    H119173   6.906   5.011   1.214
 6403TIP3    H219174   6.816   4.901   1.268
 6404TIP3   OH219175   6.623   2.317   3.146
 6404TIP3    H119176   6.598   2.302   3.055
 6404TIP3    H219177   6.564   2.387   3.176
 6405TIP3   OH219178   3.138   1.351   1.731
 6405TIP3    H119179   3.091   1.429   1.700
 6405TIP3    H219180   3.071   1.298   1.775
 6406TIP3   OH219181   1.393   1.962   4.625
 6406TIP3    H119182   1.381   2.015   4.704
 6406TIP3    H219183   1.373   2.021   4.553
 6407TIP3   OH219184   3.617   1.802   4.412
 6407TIP3    H119185   3.626   1.849   4.328
 6407TIP3    H219186   3.652   1.863   4.477
 6408TIP3   OH219187   6.923   5.755   5.583
 6408TIP3    H119188   6.858   5.820   5.556
 6408TIP3    H219189   6.891   5.725   5.669
 6409TIP3   OH219190   1.720   1.122   1.636
 6409TIP3    H119191   1.753   1.144   1.723
 6409TIP3    H219192   1.730   1.027   1.630
 6410TIP3   OH219193   2.868   3.975   2.317
 6410TIP3    H119194   2.783   3.987   2.359
 6410TIP3    H219195   2.848   3.942   2.230
 6411TIP3   OH219196   1.008   2.895   3.980
 6411TIP3    H119197   0.962   2.860   4.055
 6411TIP3    H219198   1.078   2.832   3.963
 6412TIP3   OH219199   2.326   0.978   1.575
 6412TIP3    H119200   2.308   0.886   1.554
 6412TIP3    H219201   2.400   1.001   1.518
 6413TIP3   OH219202   3.607   3.209   1.811
 6413TIP3    H119203   3.649   3.122   1.805
 6413TIP3    H219204   3.640   3.256   1.734
 6414TIP3   OH219205   6.590   6.308   5.268
 6414TIP3    H119206   6.592   6.231   5.212
 6414TIP3    H219207   6.602   6.273   5.357
 6415TIP3   OH219208   3.389   2.538   2.625
 6415TIP3    H119209   3.294   2.540   2.638
 6415TIP3    H219210   3.422   2.483   2.696
 6416TIP3   OH219211   3.108   6.170   4.984
 6416TIP3    H119212   3.185   6.190   4.931
 6416TIP3    H219213   3.139   6.177   5.074
 6417TIP3   OH219214   0.655   1.324   4.987
 6417TIP3    H119215   0.583   1.349   4.929
 6417TIP3    H219216   0.628   1.240   5.023
 6418TIP3   OH219217   0.384   1.554   1.743
 6418TIP3    H119218   0.388   1.615   1.817
 6418TIP3    H219219   0.320   1.593   1.683
 6419TIP3   OH219220  -0.017   3.715   5.753
 6419TIP3    H119221   0.003   3.637   5.701
 6419TIP3    H219222  -0.074   3.682   5.823
 6420TIP3   OH219223   5.745   0.774   4.836
 6420TIP3    H119224   5.743   0.691   4.883
 6420TIP3    H219225   5.658   0.812   4.849
 6421TIP3   OH219226   1.666   1.186   2.089
 6421TIP3    H119227   1.678   1.104   2.136
 6421TIP3    H219228   1.596   1.167   2.026
 6422TIP3   OH219229   5.565   4.211   1.973
 6422TIP3    H119230   5.491   4.153   1.990
 6422TIP3    H219231   5.542   4.257   1.892
 6423TIP3   OH219232   2.652   1.328   4.932
 6423TIP3    H119233   2.628   1.314   5.024
 6423TIP3    H219234   2.708   1.406   4.934
 6424TIP3   OH219235   0.277   3.052   3.991
 6424TIP3    H119236   0.299   3.066   4.083
 6424TIP3    H219237   0.241   2.964   3.988
 6425TIP3   OH219238   5.451   1.587   5.008
 6425TIP3    H119239   5.507   1.568   5.083
 6425TIP3    H219240   5.385   1.518   5.008
 6426TIP3   OH219241   1.607   5.498   4.971
 6426TIP3    H119242   1.550   5.548   4.911
 6426TIP3    H219243   1.694   5.506   4.933
 6427TIP3   OH219244   5.601   1.132   3.958
 6427TIP3    H119245   5.606   1.045   3.918
 6427TIP3    H219246   5.565   1.188   3.889
 6428TIP3   OH219247   1.670   4.210   3.304
 6428TIP3    H119248   1.699   4.286   3.355
 6428TIP3    H219249   1.742   4.194   3.242
 6429TIP3   OH219250   2.354   3.132   2.506
 6429TIP3    H119251   2.338   3.040   2.487
 6429TIP3    H219252   2.292   3.154   2.575
 6430TIP3   OH219253   5.676   1.367   4.903
 6430TIP3    H119254   5.616   1.437   4.927
 6430TIP3    H219255   5.623   1.307   4.851
 6431TIP3   OH219256   6.871   1.076   3.180
 6431TIP3    H119257   6.893   0.983   3.190
 6431TIP3    H219258   6.935   1.122   3.236
 6432TIP3   OH219259   5.094   4.957   0.170
 6432TIP3    H119260   5.171   4.918   0.130
 6432TIP3    H219261   5.088   4.915   0.256
 6433TIP3   OH219262   5.214   5.203   5.716
 6433TIP3    H119263   5.189   5.126   5.664
 6433TIP3    H219264   5.266   5.167   5.788
 6434TIP3   OH219265   2.135   4.816   4.251
 6434TIP3    H119266   2.224   4.782   4.251
 6434TIP3    H219267   2.122   4.851   4.163
 6435TIP3   OH219268   3.359   1.771   4.092
 6435TIP3    H119269   3.265   1.783   4.100
 6435TIP3    H219270   3.397   1.851   4.129
 6436TIP3   OH219271   2.859   6.267   4.931
 6436TIP3    H119272   2.807   6.284   5.010
 6436TIP3    H219273   2.933   6.215   4.961
 6437TIP3   OH219274   6.622   5.060   0.635
 6437TIP3    H119275   6.675   4.995   0.588
 6437TIP3    H219276   6.612   5.025   0.723
 6438TIP3   OH219277   5.639   5.310   1.369
 6438TIP3    H119278   5.572   5.261   1.417
 6438TIP3    H219279   5.631   5.279   1.279
 6439TIP3   OH219280   4.983   4.879   0.426
 6439TIP3    H119281   4.923   4.954   0.424
 6439TIP3    H219282   5.032   4.889   0.507
 6440TIP3   OH219283   3.177   0.857   2.443
 6440TIP3    H119284   3.212   0.775   2.479
 6440TIP3    H219285   3.082   0.842   2.437
 6441TIP3   OH219286   6.283   5.588   4.194
 6441TIP3    H119287   6.242   5.634   4.121
 6441TIP3    H219288   6.210   5.554   4.246
 6442TIP3   OH219289   2.686   5.280   5.826
 6442TIP3    H119290   2.607   5.331   5.810
 6442TIP3    H219291   2.655   5.197   5.861
 6443TIP3   OH219292   1.316   4.382   2.924
 6443TIP3    H119293   1.313   4.477   2.910
 6443TIP3    H219294   1.393   4.353   2.874
 6444TIP3   OH219295   5.515   5.795   2.257
 6444TIP3    H119296   5.556   5.876   2.226
 6444TIP3    H219297   5.493   5.813   2.349
 6445TIP3   OH219298   2.814   6.450   3.896
 6445TIP3    H119299   2.824   6.416   3.985
 6445TIP3    H219300   2.730   6.496   3.897
 6446TIP3   OH219301   6.425   4.084   0.646
 6446TIP3    H119302   6.366   4.058   0.716
 6446TIP3    H219303   6.511   4.048   0.671
 6447TIP3   OH219304   7.195   2.276   0.552
 6447TIP3    H119305   7.224   2.275   0.643
 6447TIP3    H219306   7.157   2.364   0.540
 6448TIP3   OH219307   3.666   1.041   5.721
 6448TIP3    H119308   3.610   1.115   5.699
 6448TIP3    H219309   3.747   1.056   5.673
 6449TIP3   OH219310   3.927   3.935   0.239
 6449TIP3    H119311   3.978   3.968   0.166
 6449TIP3    H219312   3.919   3.841   0.223
 6450TIP3   OH219313   6.946   2.963   2.472
 6450TIP3    H119314   6.972   2.923   2.556
 6450TIP3    H219315   6.867   2.917   2.447
 6451TIP3   OH219316   2.157   5.846   0.954
 6451TIP3    H119317   2.112   5.807   1.029
 6451TIP3    H219318   2.190   5.771   0.903
 6452TIP3   OH219319   5.252   0.191   2.851
 6452TIP3    H119320   5.298   0.203   2.768
 6452TIP3    H219321   5.247   0.096   2.861
 6453TIP3   OH219322   4.781   6.459   3.545
 6453TIP3    H119323   4.767   6.478   3.452
 6453TIP3    H219324   4.749   6.369   3.557
 6454TIP3   OH219325   4.359   2.733   1.647
 6454TIP3    H119326   4.292   2.762   1.584
 6454TIP3    H219327   4.442   2.758   1.607
 6455TIP3   OH219328   5.419   4.708   0.723
 6455TIP3    H119329   5.461   4.749   0.648
 6455TIP3    H219330   5.347   4.657   0.686
 6456TIP3   OH219331   4.010   0.690   3.283
 6456TIP3    H119332   4.005   0.697   3.188
 6456TIP3    H219333   3.989   0.778   3.315
 6457TIP3   OH219334   2.650   5.352   2.478
 6457TIP3    H119335   2.605   5.278   2.437
 6457TIP3    H219336   2.591   5.382   2.546
 6458TIP3   OH219337   5.589   5.589   0.848
 6458TIP3    H119338   5.534   5.648   0.797
 6458TIP3    H219339   5.535   5.511   0.862
 6459TIP3   OH219340   3.651   2.974   2.502
 6459TIP3    H119341   3.617   2.885   2.490
 6459TIP3    H219342   3.697   2.993   2.421
 6460TIP3   OH219343   4.042   3.910   5.621
 6460TIP3    H119344   4.111   3.915   5.687
 6460TIP3    H219345   3.970   3.866   5.665
 6461TIP3   OH219346   4.684   6.249   0.716
 6461TIP3    H119347   4.647   6.337   0.730
 6461TIP3    H219348   4.754   6.262   0.652
 6462TIP3   OH219349   2.518   4.236   1.269
 6462TIP3    H119350   2.571   4.309   1.299
 6462TIP3    H219351   2.429   4.257   1.297
 6463TIP3   OH219352   6.783   4.654   4.706
 6463TIP3    H119353   6.770   4.746   4.726
 6463TIP3    H219354   6.834   4.654   4.625
 6464TIP3   OH219355   5.798   5.465   4.426
 6464TIP3    H119356   5.801   5.388   4.483
 6464TIP3    H219357   5.712   5.461   4.385
 6465TIP3   OH219358   0.385   6.295   1.643
 6465TIP3    H119359   0.351   6.216   1.685
 6465TIP3    H219360   0.330   6.366   1.676
 6466TIP3   OH219361   1.043   3.274   1.038
 6466TIP3    H119362   1.056   3.364   1.006
 6466TIP3    H219363   1.124   3.253   1.084
 6467TIP3   OH219364   4.868   2.885   4.160
 6467TIP3    H119365   4.865   2.812   4.098
 6467TIP3    H219366   4.866   2.843   4.246
 6468TIP3   OH219367   4.236   0.039   4.315
 6468TIP3    H119368   4.163   0.088   4.278
 6468TIP3    H219369   4.309   0.100   4.313
 6469TIP3   OH219370   7.138   5.005   0.784
 6469TIP3    H119371   7.046   4.982   0.786
 6469TIP3    H219372   7.150   5.065   0.858
 6470TIP3   OH219373   6.139   1.627   1.561
 6470TIP3    H119374   6.172   1.542   1.534
 6470TIP3    H219375   6.103   1.612   1.649
 6471TIP3   OH219376   2.100   4.810   2.395
 6471TIP3    H119377   2.130   4.725   2.427
 6471TIP3    H219378   2.083   4.860   2.475
 6472TIP3   OH219379   0.669   6.375   1.244
 6472TIP3    H119380   0.677   6.398   1.152
 6472TIP3    H219381   0.583   6.408   1.270
 6473TIP3   OH219382   2.781   2.315   1.229
 6473TIP3    H119383   2.807   2.282   1.143
 6473TIP3    H219384   2.723   2.389   1.210
 6474TIP3   OH219385   1.866   3.889   1.147
 6474TIP3    H119386   1.918   3.809   1.157
 6474TIP3    H219387   1.875   3.911   1.054
 6475TIP3   OH219388   1.091   2.641   5.811
 6475TIP3    H119389   1.078   2.681   5.897
 6475TIP3    H219390   1.186   2.627   5.806
 6476TIP3   OH219391   7.086   1.056   0.060
 6476TIP3    H119392   7.131   1.138   0.083
 6476TIP3    H219393   7.069   1.014   0.144
 6477TIP3   OH219394   6.995   1.606   4.024
 6477TIP3    H119395   6.981   1.687   4.073
 6477TIP3    H219396   6.918   1.553   4.042
 6478TIP3   OH219397   2.660   6.715   5.090
 6478TIP3    H119398   2.740   6.668   5.112
 6478TIP3    H219399   2.597   6.647   5.069
 6479TIP3   OH219400   6.323   1.625   5.338
 6479TIP3    H119401   6.381   1.565   5.291
 6479TIP3    H219402   6.239   1.618   5.293
 6480TIP3   OH219403   1.922   4.773   5.815
 6480TIP3    H119404   1.871   4.845   5.779
 6480TIP3    H219405   2.013   4.802   5.807
 6481TIP3   OH219406   0.290   0.975   2.796
 6481TIP3    H119407   0.235   0.933   2.862
 6481TIP3    H219408   0.287   1.068   2.819
 6482TIP3   OH219409   4.490   4.525   1.415
 6482TIP3    H119410   4.458   4.598   1.361
 6482TIP3    H219411   4.411   4.480   1.443
 6483TIP3   OH219412   5.860   2.235   4.068
 6483TIP3    H119413   5.946   2.210   4.103
 6483TIP3    H219414   5.854   2.190   3.984
 6484TIP3   OH219415   1.060   5.698   2.543
 6484TIP3    H119416   1.011   5.674   2.623
 6484TIP3    H219417   0.994   5.697   2.474
 6485TIP3   OH219418   1.480   0.156   2.987
 6485TIP3    H119419   1.403   0.194   3.028
 6485TIP3    H219420   1.445   0.096   2.921
 6486TIP3   OH219421   6.250   6.703   3.718
 6486TIP3    H119422   6.212   6.648   3.649
 6486TIP3    H219423   6.304   6.643   3.770
 6487TIP3   OH219424   6.134   5.892   0.169
 6487TIP3    H119425   6.058   5.944   0.142
 6487TIP3    H219426   6.102   5.802   0.169
 6488TIP3   OH219427   1.050   6.635   1.253
 6488TIP3    H119428   1.118   6.617   1.187
 6488TIP3    H219429   1.088   6.704   1.307
 6489TIP3   OH219430   5.821   5.463   2.415
 6489TIP3    H119431   5.762   5.427   2.348
 6489TIP3    H219432   5.887   5.511   2.365
 6490TIP3   OH219433   1.586   1.487   1.707
 6490TIP3    H119434   1.609   1.434   1.631
 6490TIP3    H219435   1.636   1.568   1.697
 6491TIP3   OH219436   5.648   0.094   3.893
 6491TIP3    H119437   5.694   0.077   3.975
 6491TIP3    H219438   5.659   0.014   3.842
 6492TIP3   OH219439   2.441   0.364   4.162
 6492TIP3    H119440   2.346   0.357   4.170
 6492TIP3    H219441   2.460   0.457   4.171
 6493TIP3   OH219442   2.880   6.179   2.244
 6493TIP3    H119443   2.840   6.236   2.177
 6493TIP3    H219444   2.835   6.203   2.325
 6494TIP3   OH219445   5.029   5.631   3.662
 6494TIP3    H119446   5.052   5.546   3.625
 6494TIP3    H219447   4.979   5.675   3.593
 6495TIP3   OH219448   6.614   4.453   5.561
 6495TIP3    H119449   6.602   4.539   5.522
 6495TIP3    H219450   6.628   4.470   5.654
 6496TIP3   OH219451   0.472   3.715   3.673
 6496TIP3    H119452   0.481   3.735   3.766
 6496TIP3    H219453   0.548   3.662   3.652
 6497TIP3   OH219454   7.148   1.193   4.453
 6497TIP3    H119455   7.158   1.139   4.375
 6497TIP3    H219456   7.066   1.241   4.440
 6498TIP3   OH219457   1.454   3.631   2.896
 6498TIP3    H119458   1.482   3.642   2.805
 6498TIP3    H219459   1.481   3.541   2.918
 6499TIP3   OH219460   2.241   2.347   0.436
 6499TIP3    H119461   2.320   2.358   0.384
 6499TIP3    H219462   2.265   2.280   0.501
 6500TIP3   OH219463   1.555   5.940   3.360
 6500TIP3    H119464   1.534   5.909   3.272
 6500TIP3    H219465   1.644   5.909   3.376
 6501TIP3   OH219466   4.476   6.836   3.678
 6501TIP3    H119467   4.530   6.757   3.669
 6501TIP3    H219468   4.540   6.908   3.676
 6502TIP3   OH219469   1.781   5.256   1.940
 6502TIP3    H119470   1.752   5.348   1.939
 6502TIP3    H219471   1.706   5.208   1.976
 6503TIP3   OH219472   5.138   1.006   1.555
 6503TIP3    H119473   5.063   1.036   1.504
 6503TIP3    H219474   5.100   0.955   1.626
 6504TIP3   OH219475   2.917   0.992   3.107
 6504TIP3    H119476   2.995   1.025   3.063
 6504TIP3    H219477   2.928   1.020   3.198
 6505TIP3   OH219478   1.687   1.705   2.711
 6505TIP3    H119479   1.616   1.675   2.653
 6505TIP3    H219480   1.691   1.638   2.779
 6506TIP3   OH219481   3.416   6.564   1.015
 6506TIP3    H119482   3.426   6.659   1.007
 6506TIP3    H219483   3.405   6.534   0.925
 6507TIP3   OH219484   2.340   1.666   2.178
 6507TIP3    H119485   2.390   1.744   2.154
 6507TIP3    H219486   2.377   1.596   2.124
 6508TIP3   OH219487   0.038   0.575   4.164
 6508TIP3    H119488  -0.045   0.622   4.176
 6508TIP3    H219489   0.085   0.626   4.098
 6509TIP3   OH219490   0.916   0.020   3.103
 6509TIP3    H119491   0.869  -0.040   3.159
 6509TIP3    H219492   0.917   0.103   3.151
 6510TIP3   OH219493   1.521   3.083   0.895
 6510TIP3    H119494   1.515   3.129   0.979
 6510TIP3    H219495   1.570   3.003   0.914
 6511TIP3   OH219496   2.581   6.097   5.285
 6511TIP3    H119497   2.571   6.078   5.378
 6511TIP3    H219498   2.597   6.011   5.245
 6512TIP3   OH219499   4.072   3.971   3.195
 6512TIP3    H119500   4.019   3.977   3.274
 6512TIP3    H219501   4.037   3.897   3.146
 6513TIP3   OH219502   1.849   0.514   2.789
 6513TIP3    H119503   1.824   0.442   2.846
 6513TIP3    H219504   1.835   0.480   2.700
 6514TIP3   OH219505   4.750   5.032   0.578
 6514TIP3    H119506   4.737   4.937   0.589
 6514TIP3    H219507   4.674   5.061   0.529
 6515TIP3   OH219508   1.456   4.029   3.305
 6515TIP3    H119509   1.482   3.969   3.235
 6515TIP3    H219510   1.534   4.083   3.319
 6516TIP3   OH219511   4.650   5.658   5.523
 6516TIP3    H119512   4.576   5.637   5.466
 6516TIP3    H219513   4.694   5.731   5.479
 6517TIP3   OH219514   6.718   2.588   5.297
 6517TIP3    H119515   6.813   2.598   5.308
 6517TIP3    H219516   6.708   2.511   5.241
 6518TIP3   OH219517   5.384   1.809   1.995
 6518TIP3    H119518   5.362   1.892   1.953
 6518TIP3    H219519   5.438   1.763   1.931
 6519TIP3   OH219520   0.528   0.729   0.817
 6519TIP3    H119521   0.605   0.771   0.853
 6519TIP3    H219522   0.537   0.737   0.722
 6520TIP3   OH219523   6.192   4.148   3.343
 6520TIP3    H119524   6.180   4.171   3.251
 6520TIP3    H219525   6.107   4.111   3.369
 6521TIP3   OH219526   5.402   0.117   4.824
 6521TIP3    H119527   5.412   0.212   4.812
 6521TIP3    H219528   5.490   0.086   4.845
 6522TIP3   OH219529   4.476   2.326  -0.006
 6522TIP3    H119530   4.443   2.266   0.060
 6522TIP3    H219531   4.442   2.412   0.020
 6523TIP3   OH219532   1.494   2.621   0.894
 6523TIP3    H119533   1.495   2.672   0.812
 6523TIP3    H219534   1.547   2.544   0.874
 6524TIP3   OH219535   2.420   0.126   3.580
 6524TIP3    H119536   2.334   0.118   3.619
 6524TIP3    H219537   2.433   0.220   3.566
 6525TIP3   OH219538   6.832   1.566   4.245
 6525TIP3    H119539   6.758   1.509   4.267
 6525TIP3    H219540   6.900   1.542   4.308
 6526TIP3   OH219541   3.422   5.759   3.481
 6526TIP3    H119542   3.381   5.754   3.395
 6526TIP3    H219543   3.389   5.840   3.519
 6527TIP3   OH219544   3.707   6.162   5.820
 6527TIP3    H119545   3.683   6.253   5.834
 6527TIP3    H219546   3.625   6.114   5.830
 6528TIP3   OH219547   0.522   5.743   5.537
 6528TIP3    H119548   0.510   5.703   5.623
 6528TIP3    H219549   0.434   5.752   5.502
 6529TIP3   OH219550   1.747   2.159   4.423
 6529TIP3    H119551   1.812   2.140   4.355
 6529TIP3    H219552   1.731   2.075   4.465
 6530TIP3   OH219553   1.353   1.610   5.351
 6530TIP3    H119554   1.401   1.549   5.407
 6530TIP3    H219555   1.362   1.574   5.263
 6531TIP3   OH219556   1.216   4.768   2.749
 6531TIP3    H119557   1.137   4.816   2.775
 6531TIP3    H219558   1.186   4.679   2.734
 6532TIP3   OH219559   7.136   1.649   1.213
 6532TIP3    H119560   7.119   1.731   1.259
 6532TIP3    H219561   7.225   1.660   1.178
 6533TIP3   OH219562   0.401   4.969   0.634
 6533TIP3    H119563   0.357   5.044   0.675
 6533TIP3    H219564   0.407   4.993   0.541
 6534TIP3   OH219565   6.731   1.079   5.578
 6534TIP3    H119566   6.709   0.998   5.532
 6534TIP3    H219567   6.726   1.146   5.510
 6535TIP3   OH219568   2.954   2.863   3.553
 6535TIP3    H119569   3.023   2.886   3.491
 6535TIP3    H219570   2.998   2.861   3.638
 6536TIP3   OH219571   0.027   4.484   0.160
 6536TIP3    H119572   0.031   4.442   0.074
 6536TIP3    H219573   0.113   4.522   0.173
 6537TIP3   OH219574   3.477   6.840   2.844
 6537TIP3    H119575   3.503   6.791   2.766
 6537TIP3    H219576   3.502   6.930   2.825
 6538TIP3   OH219577   0.800   2.228   1.828
 6538TIP3    H119578   0.714   2.267   1.812
 6538TIP3    H219579   0.799   2.203   1.920
 6539TIP3   OH219580   5.071   3.070   0.834
 6539TIP3    H119581   5.067   2.999   0.898
 6539TIP3    H219582   4.991   3.120   0.849
 6540TIP3   OH219583   2.086   0.687   3.531
 6540TIP3    H119584   2.137   0.713   3.454
 6540TIP3    H219585   1.997   0.674   3.498
 6541TIP3   OH219586   2.192   5.683   3.407
 6541TIP3    H119587   2.172   5.687   3.501
 6541TIP3    H219588   2.253   5.609   3.399
 6542TIP3   OH219589   0.795   4.631   1.529
 6542TIP3    H119590   0.727   4.698   1.539
 6542TIP3    H219591   0.799   4.589   1.615
 6543TIP3   OH219592   2.967   2.573   2.916
 6543TIP3    H119593   2.930   2.554   3.003
 6543TIP3    H219594   2.896   2.552   2.855
 6544TIP3   OH219595   6.898   3.033   4.321
 6544TIP3    H119596   6.824   3.070   4.369
 6544TIP3    H219597   6.858   2.974   4.257
 6545TIP3   OH219598   1.817   3.525   2.017
 6545TIP3    H119599   1.857   3.506   2.101
 6545TIP3    H219600   1.856   3.462   1.956
 6546TIP3   OH219601   6.217   4.901   2.937
 6546TIP3    H119602   6.136   4.950   2.922
 6546TIP3    H219603   6.280   4.968   2.963
 6547TIP3   OH219604   0.539   3.295   4.518
 6547TIP3    H119605   0.467   3.237   4.493
 6547TIP3    H219606   0.497   3.377   4.544
 6548TIP3   OH219607   2.937   1.919   0.968
 6548TIP3    H119608   2.994   1.995   0.958
 6548TIP3    H219609   2.997   1.844   0.976
 6549TIP3   OH219610   6.132   4.439   3.716
 6549TIP3    H119611   6.163   4.467   3.630
 6549TIP3    H219612   6.098   4.518   3.757
 6550TIP3   OH219613   3.671   2.707   2.765
 6550TIP3    H119614   3.761   2.725   2.794
 6550TIP3    H219615   3.682   2.656   2.684
 6551TIP3   OH219616   0.258   4.963   1.008
 6551TIP3    H119617   0.275   5.038   0.951
 6551TIP3    H219618   0.305   4.985   1.089
 6552TIP3   OH219619   0.390   0.499   2.711
 6552TIP3    H119620   0.456   0.513   2.779
 6552TIP3    H219621   0.441   0.489   2.631
 6553TIP3   OH219622   5.373   2.781   5.721
 6553TIP3    H119623   5.463   2.810   5.709
 6553TIP3    H219624   5.320   2.849   5.680
 6554TIP3   OH219625   6.528   4.633   4.841
 6554TIP3    H119626   6.484   4.605   4.921
 6554TIP3    H219627   6.595   4.566   4.827
 6555TIP3   OH219628   4.941   3.092   2.532
 6555TIP3    H119629   4.920   3.174   2.487
 6555TIP3    H219630   5.003   3.048   2.474
 6556TIP3   OH219631   5.927   5.230   4.150
 6556TIP3    H119632   5.989   5.303   4.145
 6556TIP3    H219633   5.919   5.199   4.060
 6557TIP3   OH219634   4.921   5.796   0.213
 6557TIP3    H119635   4.890   5.883   0.238
 6557TIP3    H219636   4.952   5.758   0.295
 6558TIP3   OH219637   2.481   1.955   2.491
 6558TIP3    H119638   2.532   1.950   2.410
 6558TIP3    H219639   2.397   1.915   2.468
 6559TIP3   OH219640   3.349   1.425   3.500
 6559TIP3    H119641   3.398   1.497   3.539
 6559TIP3    H219642   3.389   1.412   3.414
 6560TIP3   OH219643   1.199   3.905   1.300
 6560TIP3    H119644   1.220   3.983   1.350
 6560TIP3    H219645   1.103   3.904   1.295
 6561TIP3   OH219646   0.881   5.294   1.920
 6561TIP3    H119647   0.964   5.301   1.967
 6561TIP3    H219648   0.904   5.311   1.828
 6562TIP3   OH219649   2.863   0.728   3.098
 6562TIP3    H119650   2.869   0.823   3.107
 6562TIP3    H219651   2.953   0.698   3.098
 6563TIP3   OH219652   2.353   1.074   5.360
 6563TIP3    H119653   2.316   1.038   5.441
 6563TIP3    H219654   2.425   1.130   5.388
 6564TIP3   OH219655   6.347   3.771   4.470
 6564TIP3    H119656   6.375   3.780   4.561
 6564TIP3    H219657   6.258   3.737   4.476
 6565TIP3   OH219658   3.398   1.899   0.905
 6565TIP3    H119659   3.327   1.837   0.888
 6565TIP3    H219660   3.468   1.871   0.847
 6566TIP3   OH219661   2.002   0.616   5.016
 6566TIP3    H119662   1.957   0.699   5.003
 6566TIP3    H219663   2.094   0.635   4.997
 6567TIP3   OH219664   4.355   6.316   0.764
 6567TIP3    H119665   4.346   6.400   0.719
 6567TIP3    H219666   4.265   6.295   0.791
 6568TIP3   OH219667   3.841   2.046   1.544
 6568TIP3    H119668   3.762   2.098   1.560
 6568TIP3    H219669   3.848   2.044   1.448
 6569TIP3   OH219670   3.306   0.180   3.874
 6569TIP3    H119671   3.353   0.217   3.799
 6569TIP3    H219672   3.224   0.230   3.878
 6570TIP3   OH219673   0.062   0.904   0.638
 6570TIP3    H119674   0.157   0.910   0.645
 6570TIP3    H219675   0.045   0.812   0.620
 6571TIP3   OH219676   2.049   6.171   4.347
 6571TIP3    H119677   2.070   6.263   4.357
 6571TIP3    H219678   2.042   6.138   4.437
 6572TIP3   OH219679   1.703   6.757   1.146
 6572TIP3    H119680   1.742   6.768   1.060
 6572TIP3    H219681   1.761   6.805   1.205
 6573TIP3   OH219682   3.297   0.311   3.418
 6573TIP3    H119683   3.286   0.369   3.493
 6573TIP3    H219684   3.390   0.313   3.399
 6574TIP3   OH219685   6.598   1.199   4.562
 6574TIP3    H119686   6.512   1.178   4.599
 6574TIP3    H219687   6.610   1.136   4.491
 6575TIP3   OH219688   3.850   0.902   1.672
 6575TIP3    H119689   3.770   0.935   1.632
 6575TIP3    H219690   3.874   0.826   1.619
 6576TIP3   OH219691   2.685   2.171   3.329
 6576TIP3    H119692   2.740   2.135   3.399
 6576TIP3    H219693   2.690   2.105   3.259
 6577TIP3   OH219694   3.238   3.202   4.483
 6577TIP3    H119695   3.294   3.277   4.505
 6577TIP3    H219696   3.298   3.127   4.482
 6578TIP3   OH219697   1.829   6.094   3.858
 6578TIP3    H119698   1.750   6.047   3.883
 6578TIP3    H219699   1.880   6.102   3.939
 6579TIP3   OH219700   4.387   5.611   5.104
 6579TIP3    H119701   4.328   5.660   5.045
 6579TIP3    H219702   4.364   5.519   5.089
 6580TIP3   OH219703   2.868   1.922   2.171
 6580TIP3    H119704   2.945   1.957   2.126
 6580TIP3    H219705   2.905   1.868   2.241
 6581TIP3   OH219706   2.780   4.848   1.907
 6581TIP3    H119707   2.812   4.783   1.844
 6581TIP3    H219708   2.827   4.928   1.884
 6582TIP3   OH219709   5.876   1.300   2.448
 6582TIP3    H119710   5.821   1.253   2.386
 6582TIP3    H219711   5.934   1.353   2.394
 6583TIP3   OH219712   4.240   4.843   5.174
 6583TIP3    H119713   4.226   4.913   5.238
 6583TIP3    H219714   4.183   4.772   5.202
 6584TIP3   OH219715   2.851   0.775   5.881
 6584TIP3    H119716   2.864   0.732   5.965
 6584TIP3    H219717   2.914   0.848   5.881
 6585TIP3   OH219718   3.797   4.975   3.274
 6585TIP3    H119719   3.717   5.026   3.257
 6585TIP3    H219720   3.811   4.983   3.369
 6586TIP3   OH219721   1.327   2.237   2.297
 6586TIP3    H119722   1.352   2.230   2.389
 6586TIP3    H219723   1.392   2.183   2.251
 6587TIP3   OH219724   3.310   5.982   1.940
 6587TIP3    H119725   3.399   6.016   1.949
 6587TIP3    H219726   3.272   5.992   2.027
 6588TIP3   OH219727   5.197   2.526   2.086
 6588TIP3    H119728   5.213   2.621   2.082
 6588TIP3    H219729   5.229   2.500   2.172
 6589TIP3   OH219730   3.605   2.274   2.397
 6589TIP3    H119731   3.514   2.301   2.388
 6589TIP3    H219732   3.649   2.312   2.321
 6590TIP3   OH219733   3.054   0.539   0.865
 6590TIP3    H119734   3.096   0.513   0.947
 6590TIP3    H219735   3.084   0.475   0.801
 6591TIP3   OH219736   0.801   5.434   0.330
 6591TIP3    H119737   0.852   5.368   0.377
 6591TIP3    H219738   0.777   5.392   0.248
 6592TIP3   OH219739   2.184   6.662   4.411
 6592TIP3    H119740   2.156   6.749   4.382
 6592TIP3    H219741   2.236   6.679   4.490
 6593TIP3   OH219742   4.192   4.025   0.400
 6593TIP3    H119743   4.219   4.061   0.484
 6593TIP3    H219744   4.102   3.996   0.414
 6594TIP3   OH219745   3.637   3.898   1.762
 6594TIP3    H119746   3.637   3.834   1.833
 6594TIP3    H219747   3.703   3.864   1.701
 6595TIP3   OH219748   7.194   5.217   0.582
 6595TIP3    H119749   7.148   5.214   0.666
 6595TIP3    H219750   7.143   5.161   0.525
 6596TIP3   OH219751   1.493   5.362   0.444
 6596TIP3    H119752   1.575   5.409   0.456
 6596TIP3    H219753   1.428   5.431   0.426
 6597TIP3   OH219754   4.690   0.757   1.004
 6597TIP3    H119755   4.624   0.731   1.069
 6597TIP3    H219756   4.640   0.771   0.924
 6598TIP3   OH219757   6.963   0.373   2.767
 6598TIP3    H119758   6.893   0.313   2.744
 6598TIP3    H219759   6.925   0.431   2.833
 6599TIP3   OH219760   5.090   5.906   1.708
 6599TIP3    H119761   5.184   5.915   1.725
 6599TIP3    H219762   5.059   5.996   1.698
 6600TIP3   OH219763   1.329   3.132   0.359
 6600TIP3    H119764   1.280   3.057   0.391
 6600TIP3    H219765   1.275   3.208   0.380
 6601TIP3   OH219766   3.684   1.137   1.576
 6601TIP3    H119767   3.614   1.150   1.512
 6601TIP3    H219768   3.650   1.174   1.657
 6602TIP3   OH219769   5.956   5.001   2.186
 6602TIP3    H119770   6.048   4.983   2.200
 6602TIP3    H219771   5.954   5.074   2.124
 6603TIP3   OH219772   0.610   2.755   3.512
 6603TIP3    H119773   0.686   2.802   3.477
 6603TIP3    H219774   0.614   2.669   3.470
 6604TIP3   OH219775   1.399   2.629   3.313
 6604TIP3    H119776   1.417   2.719   3.287
 6604TIP3    H219777   1.401   2.579   3.232
 6605TIP3   OH219778   4.208   2.223   4.195
 6605TIP3    H119779   4.287   2.277   4.191
 6605TIP3    H219780   4.222   2.155   4.129
 6606TIP3   OH219781   5.841   1.732   4.568
 6606TIP3    H119782   5.787   1.801   4.607
 6606TIP3    H219783   5.877   1.685   4.642
 6607TIP3   OH219784   1.521   1.946   3.402
 6607TIP3    H119785   1.533   2.034   3.366
 6607TIP3    H219786   1.550   1.887   3.333
 6608TIP3   OH219787   2.848   2.931   0.423
 6608TIP3    H119788   2.792   2.958   0.496
 6608TIP3    H219789   2.794   2.872   0.372
 6609TIP3   OH219790   1.206   4.936   1.571
 6609TIP3    H119791   1.263   4.877   1.522
 6609TIP3    H219792   1.249   4.946   1.656
 6610TIP3   OH219793   6.855   1.253   4.651
 6610TIP3    H119794   6.886   1.163   4.639
 6610TIP3    H219795   6.760   1.247   4.637
 6611TIP3   OH219796   2.561   6.119   1.576
 6611TIP3    H119797   2.539   6.174   1.652
 6611TIP3    H219798   2.476   6.091   1.542
 6612TIP3   OH219799   2.798   0.760   3.557
 6612TIP3    H119800   2.885   0.739   3.521
 6612TIP3    H219801   2.740   0.762   3.481
 6613TIP3   OH219802   1.147   4.269   1.090
 6613TIP3    H119803   1.085   4.238   1.025
 6613TIP3    H219804   1.159   4.362   1.069
 6614TIP3   OH219805   6.689   5.042   3.788
 6614TIP3    H119806   6.776   5.081   3.797
 6614TIP3    H219807   6.628   5.115   3.805
 6615TIP3   OH219808   3.434   5.330   4.540
 6615TIP3    H119809   3.393   5.383   4.471
 6615TIP3    H219810   3.426   5.383   4.619
 6616TIP3   OH219811   6.131   1.564   2.939
 6616TIP3    H119812   6.175   1.600   3.015
 6616TIP3    H219813   6.172   1.607   2.864
 6617TIP3   OH219814   5.575   1.570   5.466
 6617TIP3    H119815   5.573   1.630   5.541
 6617TIP3    H219816   5.561   1.484   5.504
 6618TIP3   OH219817   3.481   1.628   4.601
 6618TIP3    H119818   3.509   1.657   4.514
 6618TIP3    H219819   3.429   1.549   4.584
 6619TIP3   OH219820   6.185   1.388   5.055
 6619TIP3    H119821   6.221   1.364   4.970
 6619TIP3    H219822   6.188   1.307   5.106
 6620TIP3   OH219823   6.633   1.643   1.694
 6620TIP3    H119824   6.555   1.697   1.709
 6620TIP3    H219825   6.664   1.669   1.607
 6621TIP3   OH219826   4.900   3.650   2.965
 6621TIP3    H119827   4.859   3.580   3.015
 6621TIP3    H219828   4.855   3.729   2.993
 6622TIP3   OH219829   2.060   2.329   3.415
 6622TIP3    H119830   2.058   2.268   3.488
 6622TIP3    H219831   1.979   2.379   3.423
 6623TIP3   OH219832   3.780   4.353   4.350
 6623TIP3    H119833   3.686   4.356   4.335
 6623TIP3    H219834   3.819   4.376   4.266
 6624TIP3   OH219835   4.702   5.943   0.665
 6624TIP3    H119836   4.616   5.907   0.683
 6624TIP3    H219837   4.692   6.037   0.679
 6625TIP3   OH219838   2.714   1.318   2.359
 6625TIP3    H119839   2.705   1.224   2.344
 6625TIP3    H219840   2.641   1.340   2.416
 6626TIP3   OH219841   4.051   4.776   0.865
 6626TIP3    H119842   4.082   4.791   0.954
 6626TIP3    H219843   4.065   4.860   0.821
 6627TIP3   OH219844   2.688   3.816   1.470
 6627TIP3    H119845   2.614   3.815   1.409
 6627TIP3    H219846   2.659   3.870   1.543
 6628TIP3   OH219847   5.203   2.368   1.507
 6628TIP3    H119848   5.245   2.381   1.593
 6628TIP3    H219849   5.122   2.321   1.527
 6629TIP3   OH219850   5.602   2.646   4.881
 6629TIP3    H119851   5.624   2.739   4.884
 6629TIP3    H219852   5.513   2.642   4.916
 6630TIP3   OH219853   6.964   0.256   4.321
 6630TIP3    H119854   6.946   0.249   4.228
 6630TIP3    H219855   6.983   0.167   4.349
 6631TIP3   OH219856   2.578   4.996   1.575
 6631TIP3    H119857   2.528   4.998   1.656
 6631TIP3    H219858   2.657   5.048   1.594
 6632TIP3   OH219859   1.059   2.387   5.556
 6632TIP3    H119860   0.988   2.422   5.611
 6632TIP3    H219861   1.019   2.313   5.510
 6633TIP3   OH219862   0.872   1.742   5.564
 6633TIP3    H119863   0.967   1.732   5.566
 6633TIP3    H219864   0.838   1.655   5.583
 6634TIP3   OH219865   0.911   4.665   0.786
 6634TIP3    H119866   0.976   4.714   0.837
 6634TIP3    H219867   0.829   4.678   0.833
 6635TIP3   OH219868   5.642   3.278   0.794
 6635TIP3    H119869   5.648   3.279   0.890
 6635TIP3    H219870   5.729   3.248   0.766
 6636TIP3   OH219871   6.280   0.641   0.586
 6636TIP3    H119872   6.352   0.686   0.542
 6636TIP3    H219873   6.201   0.683   0.553
 6637TIP3   OH219874   0.911   4.284   4.605
 6637TIP3    H119875   0.918   4.245   4.692
 6637TIP3    H219876   0.866   4.218   4.553
 6638TIP3   OH219877   1.646   4.508   3.973
 6638TIP3    H119878   1.726   4.548   3.939
 6638TIP3    H219879   1.600   4.475   3.896
 6639TIP3   OH219880   5.409   0.466   3.532
 6639TIP3    H119881   5.408   0.483   3.626
 6639TIP3    H219882   5.434   0.374   3.525
 6640TIP3   OH219883   2.409   3.101   3.387
 6640TIP3    H119884   2.430   3.168   3.452
 6640TIP3    H219885   2.315   3.090   3.394
 6641TIP3   OH219886   1.196   5.066   2.516
 6641TIP3    H119887   1.201   5.134   2.449
 6641TIP3    H219888   1.214   5.112   2.598
 6642TIP3   OH219889   4.078   2.812   3.679
 6642TIP3    H119890   4.042   2.896   3.707
 6642TIP3    H219891   4.148   2.793   3.742
 6643TIP3   OH219892   4.495   0.830   4.581
 6643TIP3    H119893   4.505   0.770   4.655
 6643TIP3    H219894   4.477   0.774   4.506
 6644TIP3   OH219895   0.451   3.922   3.080
 6644TIP3    H119896   0.526   3.880   3.123
 6644TIP3    H219897   0.445   4.008   3.122
 6645TIP3   OH219898   3.793   2.043   3.088
 6645TIP3    H119899   3.715   2.045   3.033
 6645TIP3    H219900   3.829   1.955   3.073
 6646TIP3   OH219901   0.355   5.082   1.270
 6646TIP3    H119902   0.428   5.025   1.295
 6646TIP3    H219903   0.389   5.171   1.281
 6647TIP3   OH219904   2.965   0.496   4.078
 6647TIP3    H119905   2.907   0.474   4.005
 6647TIP3    H219906   2.910   0.488   4.156
 6648TIP3   OH219907   4.848   2.953   5.363
 6648TIP3    H119908   4.854   2.959   5.459
 6648TIP3    H219909   4.903   3.025   5.332
 6649TIP3   OH219910   1.031   4.138   3.452
 6649TIP3    H119911   0.938   4.141   3.473
 6649TIP3    H219912   1.052   4.227   3.422
 6650TIP3   OH219913   2.316   2.681   2.808
 6650TIP3    H119914   2.221   2.687   2.819
 6650TIP3    H219915   2.333   2.587   2.798
 6651TIP3   OH219916   6.612   4.202   3.540
 6651TIP3    H119917   6.593   4.110   3.524
 6651TIP3    H219918   6.627   4.207   3.635
 6652TIP3   OH219919   3.539   1.450   3.745
 6652TIP3    H119920   3.605   1.394   3.787
 6652TIP3    H219921   3.556   1.537   3.781
 6653TIP3   OH219922   0.675   1.139   3.721
 6653TIP3    H119923   0.758   1.185   3.714
 6653TIP3    H219924   0.691   1.070   3.785
 6654TIP3   OH219925   0.317   4.831   4.954
 6654TIP3    H119926   0.247   4.785   4.907
 6654TIP3    H219927   0.306   4.923   4.930
 6655TIP3   OH219928   5.299   2.898   5.189
 6655TIP3    H119929   5.303   2.993   5.185
 6655TIP3    H219930   5.382   2.868   5.150
 6656TIP3   OH219931   4.664   1.897   3.273
 6656TIP3    H119932   4.735   1.879   3.211
 6656TIP3    H219933   4.700   1.964   3.332
 6657TIP3   OH219934   0.508   2.281   0.927
 6657TIP3    H119935   0.517   2.356   0.986
 6657TIP3    H219936   0.431   2.234   0.959
 6658TIP3   OH219937   5.650   1.530   5.173
 6658TIP3    H119938   5.619   1.566   5.256
 6658TIP3    H219939   5.744   1.519   5.185
 6659TIP3   OH219940   2.870   0.466   5.721
 6659TIP3    H119941   2.823   0.405   5.778
 6659TIP3    H219942   2.821   0.547   5.727
 6660TIP3   OH219943   0.297   3.438   5.152
 6660TIP3    H119944   0.340   3.445   5.067
 6660TIP3    H219945   0.224   3.500   5.147
 6661TIP3   OH219946   5.757   4.030   4.132
 6661TIP3    H119947   5.685   4.025   4.070
 6661TIP3    H219948   5.770   4.123   4.147
 6662TIP3   OH219949   5.819   4.876   3.961
 6662TIP3    H119950   5.893   4.897   4.018
 6662TIP3    H219951   5.796   4.786   3.983
 6663TIP3   OH219952   1.316   2.747   3.543
 6663TIP3    H119953   1.342   2.687   3.473
 6663TIP3    H219954   1.234   2.710   3.577
 6664TIP3   OH219955   1.605   5.382   5.853
 6664TIP3    H119956   1.562   5.351   5.933
 6664TIP3    H219957   1.634   5.302   5.809
 6665TIP3   OH219958   5.990   1.579   3.465
 6665TIP3    H119959   5.898   1.571   3.490
 6665TIP3    H219960   6.014   1.491   3.436
 6666TIP3   OH219961   2.252   4.128   3.368
 6666TIP3    H119962   2.316   4.122   3.296
 6666TIP3    H219963   2.303   4.109   3.447
 6667TIP3   OH219964   4.291   6.504   4.007
 6667TIP3    H119965   4.295   6.569   4.078
 6667TIP3    H219966   4.199   6.504   3.980
 6668TIP3   OH219967   0.656   5.214   3.299
 6668TIP3    H119968   0.633   5.269   3.374
 6668TIP3    H219969   0.679   5.129   3.337
 6669TIP3   OH219970   0.146  -0.035   4.765
 6669TIP3    H119971   0.227  -0.084   4.752
 6669TIP3    H219972   0.161   0.048   4.720
 6670TIP3   OH219973   5.609   2.737   1.692
 6670TIP3    H119974   5.518   2.732   1.664
 6670TIP3    H219975   5.619   2.827   1.725
 6671TIP3   OH219976   6.153   2.958   1.900
 6671TIP3    H119977   6.202   2.998   1.972
 6671TIP3    H219978   6.138   2.868   1.929
 6672TIP3   OH219979   3.567   1.055   2.000
 6672TIP3    H119980   3.474   1.057   2.020
 6672TIP3    H219981   3.578   1.117   1.928
 6673TIP3   OH219982   3.533   0.373   1.688
 6673TIP3    H119983   3.596   0.445   1.689
 6673TIP3    H219984   3.458   0.407   1.640
 6674TIP3   OH219985   5.222   1.232   0.756
 6674TIP3    H119986   5.236   1.211   0.849
 6674TIP3    H219987   5.174   1.156   0.722
 6675TIP3   OH219988   0.455   4.150   4.587
 6675TIP3    H119989   0.452   4.178   4.496
 6675TIP3    H219990   0.477   4.229   4.636
 6676TIP3   OH219991   2.241   1.409   0.186
 6676TIP3    H119992   2.159   1.420   0.138
 6676TIP3    H219993   2.213   1.388   0.276
 6677TIP3   OH219994   2.296   4.722   3.786
 6677TIP3    H119995   2.235   4.652   3.764
 6677TIP3    H219996   2.382   4.680   3.783
 6678TIP3   OH219997   4.628   2.948   4.621
 6678TIP3    H119998   4.598   3.027   4.577
 6678TIP3    H219999   4.717   2.934   4.587
 6679TIP3   OH220000   0.444   4.136   3.998
 6679TIP3    H120001   0.532   4.115   3.966
 6679TIP3    H220002   0.457   4.174   4.085
 6680TIP3   OH220003   4.461   5.908   2.297
 6680TIP3    H120004   4.454   5.875   2.207
 6680TIP3    H220005   4.530   5.855   2.336
 6681TIP3   OH220006   4.890   2.887   4.826
 6681TIP3    H120007   4.968   2.925   4.866
 6681TIP3    H220008   4.827   2.959   4.822
 6682TIP3   OH220009   3.465   4.163   1.139
 6682TIP3    H120010   3.369   4.166   1.142
 6682TIP3    H220011   3.489   4.237   1.084
 6683TIP3   OH220012   7.089   1.209   4.869
 6683TIP3    H120013   7.083   1.255   4.786
 6683TIP3    H220014   7.115   1.277   4.932
 6684TIP3   OH220015   3.185   4.360   5.079
 6684TIP3    H120016   3.151   4.426   5.139
 6684TIP3    H220017   3.273   4.342   5.111
 6685TIP3   OH220018   3.339   4.584   1.544
 6685TIP3    H120019   3.364   4.528   1.470
 6685TIP3    H220020   3.279   4.648   1.506
 6686TIP3   OH220021   4.477   0.414   2.171
 6686TIP3    H120022   4.485   0.361   2.092
 6686TIP3    H220023   4.456   0.352   2.240
 6687TIP3   OH220024   3.057   2.285   5.020
 6687TIP3    H120025   3.120   2.241   5.077
 6687TIP3    H220026   2.973   2.272   5.063
 6688TIP3   OH220027   2.985   4.188   2.492
 6688TIP3    H120028   2.965   4.095   2.478
 6688TIP3    H220029   3.044   4.190   2.567
 6689TIP3   OH220030   3.020   2.090   1.291
 6689TIP3    H120031   2.948   2.072   1.230
 6689TIP3    H220032   2.981   2.076   1.378
 6690TIP3   OH220033   3.057   1.819   3.823
 6690TIP3    H120034   3.064   1.771   3.905
 6690TIP3    H220035   2.973   1.865   3.828
 6691TIP3   OH220036   3.751   1.988   4.545
 6691TIP3    H120037   3.740   2.006   4.639
 6691TIP3    H220038   3.751   2.075   4.504
 6692TIP3   OH220039   2.880   1.782   2.647
 6692TIP3    H120040   2.956   1.724   2.646
 6692TIP3    H220041   2.904   1.853   2.587
 6693TIP3   OH220042   1.239   0.808   2.744
 6693TIP3    H120043   1.260   0.823   2.652
 6693TIP3    H220044   1.251   0.893   2.785
 6694TIP3   OH220045   6.490   6.493   3.129
 6694TIP3    H120046   6.400   6.527   3.135
 6694TIP3    H220047   6.544   6.572   3.119
 6695TIP3   OH220048   4.899   4.344   2.855
 6695TIP3    H120049   4.812   4.383   2.858
 6695TIP3    H220050   4.885   4.253   2.880
 6696TIP3   OH220051   1.626   6.400   0.267
 6696TIP3    H120052   1.601   6.374   0.355
 6696TIP3    H220053   1.547   6.389   0.215
 6697TIP3   OH220054   5.350   1.790   3.747
 6697TIP3    H120055   5.259   1.813   3.766
 6697TIP3    H220056   5.399   1.870   3.766
 6698TIP3   OH220057   7.115   1.745   2.401
 6698TIP3    H120058   7.202   1.708   2.417
 6698TIP3    H220059   7.067   1.727   2.481
 6699TIP3   OH220060   1.430   3.778   4.349
 6699TIP3    H120061   1.397   3.850   4.294
 6699TIP3    H220062   1.472   3.718   4.286
 6700TIP3   OH220063   6.763   6.341   0.205
 6700TIP3    H120064   6.722   6.414   0.251
 6700TIP3    H220065   6.776   6.274   0.272
 6701TIP3   OH220066   2.946   2.560   2.041
 6701TIP3    H120067   3.014   2.581   2.105
 6701TIP3    H220068   2.877   2.624   2.057
 6702TIP3   OH220069   0.747   3.145   1.694
 6702TIP3    H120070   0.664   3.098   1.698
 6702TIP3    H220071   0.808   3.090   1.742
 6703TIP3   OH220072   1.013   0.480   4.775
 6703TIP3    H120073   1.005   0.494   4.680
 6703TIP3    H220074   0.984   0.390   4.789
 6704TIP3   OH220075   1.292   3.642   1.287
 6704TIP3    H120076   1.246   3.725   1.273
 6704TIP3    H220077   1.223   3.583   1.318
 6705TIP3   OH220078   6.096   2.294   1.477
 6705TIP3    H120079   6.091   2.307   1.383
 6705TIP3    H220080   6.128   2.204   1.488
 6706TIP3   OH220081   5.607   2.927   4.609
 6706TIP3    H120082   5.635   2.844   4.649
 6706TIP3    H220083   5.513   2.931   4.627
 6707TIP3   OH220084   0.765   0.258   4.619
 6707TIP3    H120085   0.694   0.219   4.568
 6707TIP3    H220086   0.772   0.202   4.697
 6708TIP3   OH220087   6.127   1.140   5.179
 6708TIP3    H120088   6.045   1.161   5.133
 6708TIP3    H220089   6.098   1.106   5.263
 6709TIP3   OH220090   0.014   3.644   4.450
 6709TIP3    H120091   0.102   3.680   4.443
 6709TIP3    H220092   0.025   3.564   4.502
 6710TIP3   OH220093  -0.011   3.896   4.322
 6710TIP3    H120094   0.000   3.801   4.315
 6710TIP3    H220095   0.078   3.931   4.319
 6711TIP3   OH220096   3.987   1.443   4.704
 6711TIP3    H120097   4.006   1.533   4.677
 6711TIP3    H220098   4.027   1.434   4.790
 6712TIP3   OH220099   4.779   2.183   0.265
 6712TIP3    H120100   4.777   2.275   0.292
 6712TIP3    H220101   4.856   2.147   0.309
 6713TIP3   OH220102   2.503   5.220   1.157
 6713TIP3    H120103   2.431   5.226   1.094
 6713TIP3    H220104   2.468   5.166   1.228
 6714TIP3   OH220105   5.322   1.798   5.246
 6714TIP3    H120106   5.291   1.729   5.304
 6714TIP3    H220107   5.385   1.847   5.298
 6715TIP3   OH220108   6.949   2.501   2.365
 6715TIP3    H120109   6.855   2.492   2.383
 6715TIP3    H220110   6.982   2.555   2.437
 6716TIP3   OH220111   4.498   3.607   3.749
 6716TIP3    H120112   4.580   3.568   3.778
 6716TIP3    H220113   4.486   3.577   3.659
 6717TIP3   OH220114   1.709   1.092   3.768
 6717TIP3    H120115   1.619   1.088   3.801
 6717TIP3    H220116   1.733   1.000   3.754
 6718TIP3   OH220117   5.224   1.479   0.899
 6718TIP3    H120118   5.204   1.392   0.866
 6718TIP3    H220119   5.284   1.517   0.834
 6719TIP3   OH220120   6.758   5.256   1.610
 6719TIP3    H120121   6.732   5.251   1.702
 6719TIP3    H220122   6.714   5.333   1.576
 6720TIP3   OH220123   0.613   0.653   4.381
 6720TIP3    H120124   0.530   0.690   4.411
 6720TIP3    H220125   0.658   0.626   4.461
 6721TIP3   OH220126   0.747   4.505   3.775
 6721TIP3    H120127   0.727   4.584   3.724
 6721TIP3    H220128   0.809   4.535   3.841
 6722TIP3   OH220129   1.720   2.321   2.848
 6722TIP3    H120130   1.679   2.265   2.913
 6722TIP3    H220131   1.695   2.283   2.764
 6723TIP3   OH220132   1.388   2.270   4.739
 6723TIP3    H120133   1.422   2.309   4.659
 6723TIP3    H220134   1.466   2.252   4.792
 6724TIP3   OH220135   3.877   1.022   2.881
 6724TIP3    H120136   3.791   0.981   2.875
 6724TIP3    H220137   3.917   1.007   2.796
 6725TIP3   OH220138   5.978   6.277   3.596
 6725TIP3    H120139   5.901   6.332   3.610
 6725TIP3    H220140   5.947   6.188   3.614
 6726TIP3   OH220141   3.581   1.998   1.748
 6726TIP3    H120142   3.606   2.077   1.700
 6726TIP3    H220143   3.558   2.029   1.836
 6727TIP3   OH220144   3.252   2.557   1.492
 6727TIP3    H120145   3.334   2.606   1.496
 6727TIP3    H220146   3.203   2.597   1.420
 6728TIP3   OH220147   0.177   0.314   5.423
 6728TIP3    H120148   0.182   0.218   5.419
 6728TIP3    H220149   0.130   0.332   5.504
 6729TIP3   OH220150   6.947   4.481   3.822
 6729TIP3    H120151   7.030   4.484   3.870
 6729TIP3    H220152   6.968   4.517   3.735
 6730TIP3   OH220153   6.248   4.759   5.666
 6730TIP3    H120154   6.221   4.822   5.732
 6730TIP3    H220155   6.293   4.811   5.599
 6731TIP3   OH220156   5.272   6.449   1.633
 6731TIP3    H120157   5.206   6.458   1.564
 6731TIP3    H220158   5.354   6.436   1.587
 6732TIP3   OH220159   0.953   6.416   5.652
 6732TIP3    H120160   0.898   6.473   5.598
 6732TIP3    H220161   0.940   6.328   5.616
 6733TIP3   OH220162   6.711   4.273   3.303
 6733TIP3    H120163   6.701   4.245   3.394
 6733TIP3    H220164   6.791   4.326   3.303
 6734TIP3   OH220165   5.265   4.057   1.497
 6734TIP3    H120166   5.348   4.027   1.459
 6734TIP3    H220167   5.245   3.992   1.565
 6735TIP3   OH220168   4.836   0.772   2.005
 6735TIP3    H120169   4.821   0.702   1.942
 6735TIP3    H220170   4.791   0.848   1.968
 6736TIP3   OH220171   5.124   0.179   1.363
 6736TIP3    H120172   5.167   0.264   1.372
 6736TIP3    H220173   5.190   0.115   1.391
 6737TIP3   OH220174   6.545   2.019   3.666
 6737TIP3    H120175   6.467   2.029   3.612
 6737TIP3    H220176   6.615   2.001   3.603
 6738TIP3   OH220177   2.888   5.901   1.946
 6738TIP3    H120178   2.821   5.903   1.879
 6738TIP3    H220179   2.945   5.976   1.926
 6739TIP3   OH220180   4.324   6.227   2.246
 6739TIP3    H120181   4.281   6.217   2.161
 6739TIP3    H220182   4.403   6.277   2.227
 6740TIP3   OH220183   1.914   3.742   0.133
 6740TIP3    H120184   1.839   3.691   0.163
 6740TIP3    H220185   1.988   3.683   0.143
 6741TIP3   OH220186   3.180   5.378   2.555
 6741TIP3    H120187   3.105   5.383   2.496
 6741TIP3    H220188   3.256   5.397   2.498
 6742TIP3   OH220189   6.236   4.869   3.625
 6742TIP3    H120190   6.176   4.795   3.621
 6742TIP3    H220191   6.221   4.908   3.711
 6743TIP3   OH220192   4.954   3.749   1.669
 6743TIP3    H120193   4.967   3.658   1.641
 6743TIP3    H220194   4.988   3.802   1.597
 6744TIP3   OH220195   5.770   5.034   5.494
 6744TIP3    H120196   5.844   5.063   5.548
 6744TIP3    H220197   5.764   5.099   5.424
 6745TIP3   OH220198   6.365   3.979   5.066
 6745TIP3    H120199   6.396   3.975   4.976
 6745TIP3    H220200   6.344   4.071   5.081
 6746TIP3   OH220201   0.913   5.324   1.651
 6746TIP3    H120202   0.855   5.389   1.611
 6746TIP3    H220203   0.987   5.318   1.590
 6747TIP3   OH220204   1.070   5.590   0.577
 6747TIP3    H120205   1.121   5.647   0.519
 6747TIP3    H220206   1.006   5.647   0.618
 6748TIP3   OH220207   5.965   1.787   2.650
 6748TIP3    H120208   6.007   1.838   2.719
 6748TIP3    H220209   5.874   1.778   2.678
 6749TIP3   OH220210   1.685   1.991   4.905
 6749TIP3    H120211   1.630   1.913   4.901
 6749TIP3    H220212   1.767   1.965   4.862
 6750TIP3   OH220213   3.355   3.301   0.544
 6750TIP3    H120214   3.405   3.357   0.484
 6750TIP3    H220215   3.416   3.233   0.571
 6751TIP3   OH220216   3.981   1.329   3.585
 6751TIP3    H120217   4.023   1.361   3.665
 6751TIP3    H220218   3.938   1.247   3.612
 6752TIP3   OH220219   5.905   3.554   1.483
 6752TIP3    H120220   5.978   3.564   1.544
 6752TIP3    H220221   5.918   3.625   1.419
 6753TIP3   OH220222   5.115   4.059   3.638
 6753TIP3    H120223   5.134   4.079   3.730
 6753TIP3    H220224   5.025   4.089   3.626
 6754TIP3   OH220225   5.385   1.563   5.759
 6754TIP3    H120226   5.469   1.607   5.744
 6754TIP3    H220227   5.339   1.621   5.819
 6755TIP3   OH220228   3.388   0.108   4.128
 6755TIP3    H120229   3.315   0.139   4.182
 6755TIP3    H220230   3.368   0.139   4.040
 6756TIP3   OH220231   6.422   2.186   5.332
 6756TIP3    H120232   6.383   2.099   5.327
 6756TIP3    H220233   6.483   2.189   5.257
 6757TIP3   OH220234   3.005   0.416   1.641
 6757TIP3    H120235   2.951   0.457   1.708
 6757TIP3    H220236   3.072   0.481   1.621
 6758TIP3   OH220237   0.704   3.147   1.394
 6758TIP3    H120238   0.725   3.180   1.307
 6758TIP3    H220239   0.771   3.185   1.451
 6759TIP3   OH220240   1.567   5.307   3.971
 6759TIP3    H120241   1.641   5.359   4.000
 6759TIP3    H220242   1.498   5.371   3.953
 6760TIP3   OH220243   5.923   5.727   2.095
 6760TIP3    H120244   5.886   5.645   2.062
 6760TIP3    H220245   5.963   5.704   2.179
 6761TIP3   OH220246   3.794   2.037   5.498
 6761TIP3    H120247   3.877   2.078   5.522
 6761TIP3    H220248   3.814   1.944   5.495
 6762TIP3   OH220249   4.659   6.602   5.584
 6762TIP3    H120250   4.634   6.533   5.524
 6762TIP3    H220251   4.699   6.670   5.529
 6763TIP3   OH220252   0.919   2.626   4.660
 6763TIP3    H120253   0.869   2.561   4.610
 6763TIP3    H220254   0.853   2.679   4.704
 6764TIP3   OH220255   4.612   2.786   4.056
 6764TIP3    H120256   4.560   2.848   4.007
 6764TIP3    H220257   4.612   2.820   4.146
 6765TIP3   OH220258   4.151   1.461   1.718
 6765TIP3    H120259   4.213   1.420   1.779
 6765TIP3    H220260   4.068   1.463   1.766
 6766TIP3   OH220261   6.402   4.728   3.132
 6766TIP3    H120262   6.323   4.679   3.107
 6766TIP3    H220263   6.411   4.795   3.064
 6767TIP3   OH220264   6.671   5.490   4.119
 6767TIP3    H120265   6.705   5.570   4.159
 6767TIP3    H220266   6.736   5.423   4.140
 6768TIP3   OH220267   3.899   0.790   5.420
 6768TIP3    H120268   3.815   0.792   5.374
 6768TIP3    H220269   3.929   0.880   5.419
 6769TIP3   OH220270   3.884   5.257   4.996
 6769TIP3    H120271   3.826   5.216   5.060
 6769TIP3    H220272   3.872   5.205   4.917
 6770TIP3   OH220273   3.920   3.609   5.634
 6770TIP3    H120274   3.875   3.528   5.658
 6770TIP3    H220275   3.850   3.671   5.613
 6771TIP3   OH220276   6.973   2.715   1.707
 6771TIP3    H120277   6.960   2.809   1.697
 6771TIP3    H220278   7.063   2.707   1.740
 6772TIP3   OH220279   4.083   4.939   0.160
 6772TIP3    H120280   4.145   4.942   0.233
 6772TIP3    H220281   4.079   5.029   0.129
 6773TIP3   OH220282   6.558   0.365   4.918
 6773TIP3    H120283   6.537   0.331   4.831
 6773TIP3    H220284   6.505   0.445   4.925
 6774TIP3   OH220285   2.241   2.602   0.607
 6774TIP3    H120286   2.199   2.517   0.591
 6774TIP3    H220287   2.318   2.602   0.550
 6775TIP3   OH220288   5.035   4.744   4.700
 6775TIP3    H120289   5.075   4.730   4.786
 6775TIP3    H220290   4.942   4.732   4.715
 6776TIP3   OH220291   4.531   2.295   4.368
 6776TIP3    H120292   4.515   2.239   4.292
 6776TIP3    H220293   4.513   2.239   4.443
 6777TIP3   OH220294   6.141   2.614   2.742
 6777TIP3    H120295   6.147   2.553   2.668
 6777TIP3    H220296   6.225   2.606   2.786
 6778TIP3   OH220297   6.987   3.427   1.574
 6778TIP3    H120298   7.068   3.382   1.551
 6778TIP3    H220299   6.979   3.415   1.669
 6779TIP3   OH220300   3.514   3.167   0.322
 6779TIP3    H120301   3.592   3.204   0.362
 6779TIP3    H220302   3.530   3.073   0.320
 6780TIP3   OH220303   0.896   5.156   3.127
 6780TIP3    H120304   0.836   5.202   3.185
 6780TIP3    H220305   0.924   5.079   3.177
 6781TIP3   OH220306   3.177   4.654   1.277
 6781TIP3    H120307   3.204   4.744   1.256
 6781TIP3    H220308   3.208   4.602   1.203
 6782TIP3   OH220309   3.277   5.312   3.831
 6782TIP3    H120310   3.213   5.381   3.812
 6782TIP3    H220311   3.225   5.241   3.868
 6783TIP3   OH220312   2.545   6.478   4.991
 6783TIP3    H120313   2.594   6.397   5.001
 6783TIP3    H220314   2.509   6.496   5.078
 6784TIP3   OH220315   6.180   1.781   0.111
 6784TIP3    H120316   6.146   1.804   0.197
 6784TIP3    H220317   6.273   1.761   0.126
 6785TIP3   OH220318   5.977   4.088   2.775
 6785TIP3    H120319   6.061   4.113   2.815
 6785TIP3    H220320   5.996   4.008   2.727
 6786TIP3   OH220321   2.055   2.385   5.264
 6786TIP3    H120322   2.085   2.295   5.269
 6786TIP3    H220323   2.128   2.433   5.224
 6787TIP3   OH220324   6.781   0.766   1.446
 6787TIP3    H120325   6.779   0.848   1.496
 6787TIP3    H220326   6.870   0.762   1.410
 6788TIP3   OH220327   3.932   5.187   2.687
 6788TIP3    H120328   3.880   5.267   2.692
 6788TIP3    H220329   3.870   5.119   2.659
 6789TIP3   OH220330   4.468   1.325   0.204
 6789TIP3    H120331   4.385   1.337   0.159
 6789TIP3    H220332   4.517   1.264   0.149
 6790TIP3   OH220333   6.639   6.718   3.065
 6790TIP3    H120334   6.599   6.804   3.078
 6790TIP3    H220335   6.733   6.734   3.068
 6791TIP3   OH220336   5.755   6.517   2.537
 6791TIP3    H120337   5.773   6.431   2.499
 6791TIP3    H220338   5.758   6.578   2.463
 6792TIP3   OH220339   6.053   1.314   3.362
 6792TIP3    H120340   6.085   1.229   3.333
 6792TIP3    H220341   5.959   1.312   3.344
 6793TIP3   OH220342   1.358   0.969   1.615
 6793TIP3    H120343   1.401   0.884   1.623
 6793TIP3    H220344   1.352   0.984   1.521
 6794TIP3   OH220345   1.094   0.444   4.130
 6794TIP3    H120346   1.139   0.461   4.213
 6794TIP3    H220347   1.109   0.351   4.113
 6795TIP3   OH220348   2.299   5.994   2.562
 6795TIP3    H120349   2.262   5.954   2.484
 6795TIP3    H220350   2.303   5.923   2.626
 6796TIP3   OH220351   4.511   2.925   5.838
 6796TIP3    H120352   4.436   2.964   5.884
 6796TIP3    H220353   4.585   2.938   5.898
 6797TIP3   OH220354   4.952   5.506   4.572
 6797TIP3    H120355   4.878   5.509   4.511
 6797TIP3    H220356   4.958   5.413   4.595
 6798TIP3   OH220357   3.783   1.462   2.453
 6798TIP3    H120358   3.769   1.400   2.381
 6798TIP3    H220359   3.873   1.446   2.481
 6799TIP3   OH220360   6.094   0.908   4.002
 6799TIP3    H120361   6.030   0.864   3.946
 6799TIP3    H220362   6.148   0.958   3.941
 6800TIP3   OH220363   2.009   0.452   4.588
 6800TIP3    H120364   1.947   0.514   4.550
 6800TIP3    H220365   2.076   0.440   4.520
 6801TIP3   OH220366   5.305   2.635  -0.050
 6801TIP3    H120367   5.339   2.572   0.014
 6801TIP3    H220368   5.361   2.712  -0.040
 6802TIP3   OH220369   1.061   5.317   1.423
 6802TIP3    H120370   1.143   5.270   1.404
 6802TIP3    H220371   1.014   5.317   1.339
 6803TIP3   OH220372   3.645   2.455   0.238
 6803TIP3    H120373   3.650   2.550   0.247
 6803TIP3    H220374   3.655   2.439   0.144
 6804TIP3   OH220375   6.672   1.122   5.883
 6804TIP3    H120376   6.588   1.111   5.839
 6804TIP3    H220377   6.729   1.158   5.815
 6805TIP3   OH220378   1.685   1.761   3.002
 6805TIP3    H120379   1.597   1.798   2.991
 6805TIP3    H220380   1.709   1.783   3.093
 6806TIP3   OH220381   5.325   2.496   4.387
 6806TIP3    H120382   5.233   2.494   4.414
 6806TIP3    H220383   5.352   2.404   4.387
 6807TIP3   OH220384   7.227   4.679   3.118
 6807TIP3    H120385   7.297   4.667   3.182
 6807TIP3    H220386   7.151   4.635   3.156
 6808TIP3   OH220387   3.488   3.682   5.315
 6808TIP3    H120388   3.490   3.664   5.409
 6808TIP3    H220389   3.568   3.731   5.299
 6809TIP3   OH220390   1.193   2.929   5.069
 6809TIP3    H120391   1.188   2.997   5.136
 6809TIP3    H220392   1.105   2.925   5.033
 6810TIP3   OH220393   0.866   6.125   0.328
 6810TIP3    H120394   0.905   6.041   0.350
 6810TIP3    H220395   0.788   6.130   0.384
 6811TIP3   OH220396   6.688   1.707   3.183
 6811TIP3    H120397   6.701   1.746   3.270
 6811TIP3    H220398   6.643   1.624   3.201
 6812TIP3   OH220399   1.316   0.083   5.436
 6812TIP3    H120400   1.318   0.015   5.503
 6812TIP3    H220401   1.277   0.158   5.479
 6813TIP3   OH220402   7.123   4.785   3.932
 6813TIP3    H120403   7.159   4.703   3.897
 6813TIP3    H220404   7.051   4.756   3.988
 6814TIP3   OH220405   0.040   0.778   5.894
 6814TIP3    H120406   0.130   0.810   5.887
 6814TIP3    H220407   0.012   0.765   5.804
 6815TIP3   OH220408   1.916   4.500   5.746
 6815TIP3    H120409   1.834   4.475   5.704
 6815TIP3    H220410   1.912   4.595   5.754
 6816TIP3   OH220411   3.434   6.079   4.337
 6816TIP3    H120412   3.444   6.024   4.414
 6816TIP3    H220413   3.342   6.071   4.312
 6817TIP3   OH220414   2.392   0.362   2.779
 6817TIP3    H120415   2.467   0.390   2.727
 6817TIP3    H220416   2.354   0.289   2.730
 6818TIP3   OH220417   4.697   4.895   0.212
 6818TIP3    H120418   4.748   4.867   0.136
 6818TIP3    H220419   4.676   4.814   0.258
 6819TIP3   OH220420   0.553   6.696   1.409
 6819TIP3    H120421   0.636   6.734   1.380
 6819TIP3    H220422   0.493   6.771   1.416
 6820TIP3   OH220423   3.547   5.381   3.764
 6820TIP3    H120424   3.578   5.330   3.690
 6820TIP3    H220425   3.453   5.363   3.769
 6821TIP3   OH220426   6.540   0.256   1.937
 6821TIP3    H120427   6.604   0.310   1.890
 6821TIP3    H220428   6.591   0.215   2.007
 6822TIP3   OH220429   0.971   6.211   0.049
 6822TIP3    H120430   0.902   6.149   0.073
 6822TIP3    H220431   1.044   6.157   0.021
 6823TIP3   OH220432   4.629   6.548   5.029
 6823TIP3    H120433   4.680   6.541   4.948
 6823TIP3    H220434   4.583   6.465   5.036
 6824TIP3   OH220435   0.460   1.449   2.455
 6824TIP3    H120436   0.552   1.427   2.472
 6824TIP3    H220437   0.411   1.372   2.482
 6825TIP3   OH220438   0.749   5.330   2.974
 6825TIP3    H120439   0.794   5.253   3.009
 6825TIP3    H220440   0.788   5.404   3.019
 6826TIP3   OH220441   2.692   0.113   0.574
 6826TIP3    H120442   2.641   0.046   0.621
 6826TIP3    H220443   2.664   0.104   0.483
 6827TIP3   OH220444   5.999   1.944   5.348
 6827TIP3    H120445   5.917   1.990   5.330
 6827TIP3    H220446   5.972   1.857   5.377
 6828TIP3   OH220447   1.251   6.785   0.629
 6828TIP3    H120448   1.183   6.816   0.689
 6828TIP3    H220449   1.220   6.699   0.599
 6829TIP3   OH220450   4.142   4.698   2.736
 6829TIP3    H120451   4.189   4.640   2.676
 6829TIP3    H220452   4.128   4.778   2.685
 6830TIP3   OH220453   6.046   4.695   3.800
 6830TIP3    H120454   5.973   4.727   3.747
 6830TIP3    H220455   6.076   4.772   3.850
 6831TIP3   OH220456   5.037   6.307   5.314
 6831TIP3    H120457   4.964   6.367   5.300
 6831TIP3    H220458   5.105   6.360   5.355
 6832TIP3   OH220459   5.174   6.021   1.132
 6832TIP3    H120460   5.130   6.105   1.121
 6832TIP3    H220461   5.139   5.966   1.062
 6833TIP3   OH220462   1.476   3.530   4.524
 6833TIP3    H120463   1.552   3.581   4.496
 6833TIP3    H220464   1.418   3.529   4.448
 6834TIP3   OH220465   4.030   3.237   0.824
 6834TIP3    H120466   4.097   3.264   0.887
 6834TIP3    H220467   4.018   3.313   0.768
 6835TIP3   OH220468   1.824   1.763   0.166
 6835TIP3    H120469   1.869   1.804   0.240
 6835TIP3    H220470   1.873   1.792   0.089
 6836TIP3   OH220471   5.952   6.784   4.142
 6836TIP3    H120472   6.013   6.712   4.155
 6836TIP3    H220473   6.007   6.860   4.125
 6837TIP3   OH220474   5.606   1.152   0.511
 6837TIP3    H120475   5.568   1.146   0.423
 6837TIP3    H220476   5.646   1.239   0.514
 6838TIP3   OH220477   0.052   1.161   1.567
 6838TIP3    H120478   0.100   1.214   1.503
 6838TIP3    H220479   0.085   1.189   1.652
 6839TIP3   OH220480   2.788   1.367   3.684
 6839TIP3    H120481   2.783   1.456   3.719
 6839TIP3    H220482   2.758   1.312   3.756
 6840TIP3   OH220483   4.119   4.499   4.845
 6840TIP3    H120484   4.039   4.483   4.895
 6840TIP3    H220485   4.120   4.431   4.778
 6841TIP3   OH220486   1.943   4.520   2.131
 6841TIP3    H120487   1.918   4.433   2.100
 6841TIP3    H220488   1.895   4.581   2.074
 6842TIP3   OH220489   2.826   3.722   3.992
 6842TIP3    H120490   2.892   3.781   3.956
 6842TIP3    H220491   2.870   3.638   4.000
 6843TIP3   OH220492   6.553   3.512   1.424
 6843TIP3    H120493   6.646   3.492   1.409
 6843TIP3    H220494   6.545   3.518   1.519
 6844TIP3   OH220495   0.079   6.751   3.361
 6844TIP3    H120496   0.070   6.812   3.435
 6844TIP3    H220497   0.026   6.790   3.292
 6845TIP3   OH220498   0.630   0.780   0.020
 6845TIP3    H120499   0.600   0.821  -0.061
 6845TIP3    H220500   0.564   0.802   0.085
 6846TIP3   OH220501   5.885   5.330   5.461
 6846TIP3    H120502   5.900   5.410   5.409
 6846TIP3    H220503   5.790   5.319   5.461
 6847TIP3   OH220504   2.185   1.379   4.125
 6847TIP3    H120505   2.216   1.291   4.145
 6847TIP3    H220506   2.226   1.401   4.041
 6848TIP3   OH220507   3.962   4.142   4.456
 6848TIP3    H120508   3.968   4.054   4.419
 6848TIP3    H220509   3.929   4.196   4.384
 6849TIP3   OH220510   6.138   3.203   5.117
 6849TIP3    H120511   6.169   3.276   5.063
 6849TIP3    H220512   6.061   3.170   5.071
 6850TIP3   OH220513   1.125   4.389   1.950
 6850TIP3    H120514   1.185   4.340   1.894
 6850TIP3    H220515   1.124   4.341   2.033
 6851TIP3   OH220516   0.399   3.454   4.899
 6851TIP3    H120517   0.470   3.518   4.910
 6851TIP3    H220518   0.406   3.426   4.808
 6852TIP3   OH220519   0.448   2.121   3.665
 6852TIP3    H120520   0.410   2.044   3.708
 6852TIP3    H220521   0.475   2.089   3.579
 6853TIP3   OH220522   1.769   0.831   3.720
 6853TIP3    H120523   1.676   0.844   3.702
 6853TIP3    H220524   1.798   0.769   3.653
 6854TIP3   OH220525   3.417   6.073   0.579
 6854TIP3    H120526   3.478   6.046   0.648
 6854TIP3    H220527   3.431   6.167   0.570
 6855TIP3   OH220528   1.878   3.044   2.672
 6855TIP3    H120529   1.827   2.997   2.605
 6855TIP3    H220530   1.826   3.123   2.689
 6856TIP3   OH220531   1.408   1.316   2.182
 6856TIP3    H120532   1.489   1.269   2.201
 6856TIP3    H220533   1.379   1.282   2.098
 6857TIP3   OH220534   1.531   5.833   1.234
 6857TIP3    H120535   1.482   5.902   1.279
 6857TIP3    H220536   1.602   5.879   1.189
 6858TIP3   OH220537   0.360   1.147   1.236
 6858TIP3    H120538   0.435   1.089   1.224
 6858TIP3    H220539   0.293   1.093   1.277
 6859TIP3   OH220540   5.539   5.105   1.783
 6859TIP3    H120541   5.483   5.167   1.735
 6859TIP3    H220542   5.505   5.019   1.758
 6860TIP3   OH220543   1.606   0.455   3.768
 6860TIP3    H120544   1.668   0.463   3.695
 6860TIP3    H220545   1.606   0.361   3.789
 6861TIP3   OH220546   2.924   0.096   1.923
 6861TIP3    H120547   3.010   0.120   1.890
 6861TIP3    H220548   2.886   0.179   1.953
 6862TIP3   OH220549   4.404   0.178   2.364
 6862TIP3    H120550   4.367   0.198   2.450
 6862TIP3    H220551   4.477   0.120   2.383
 6863TIP3   OH220552   0.151   1.519   3.427
 6863TIP3    H120553   0.244   1.495   3.423
 6863TIP3    H220554   0.147   1.587   3.494
 6864TIP3   OH220555   3.146   4.947   3.329
 6864TIP3    H120556   3.132   4.881   3.396
 6864TIP3    H220557   3.064   4.949   3.279
 6865TIP3   OH220558   2.582   2.452   2.505
 6865TIP3    H120559   2.635   2.378   2.537
 6865TIP3    H220560   2.520   2.412   2.443
 6866TIP3   OH220561   4.553   2.187   4.983
 6866TIP3    H120562   4.638   2.154   4.955
 6866TIP3    H220563   4.568   2.279   5.005
 6867TIP3   OH220564   2.686   5.598   0.704
 6867TIP3    H120565   2.672   5.546   0.625
 6867TIP3    H220566   2.687   5.535   0.775
 6868TIP3   OH220567   4.065   5.548   3.060
 6868TIP3    H120568   3.972   5.570   3.063
 6868TIP3    H220569   4.086   5.549   2.966
 6869TIP3   OH220570   6.007   3.112   5.741
 6869TIP3    H120571   5.992   3.076   5.829
 6869TIP3    H220572   5.982   3.041   5.682
 6870TIP3   OH220573   6.904   1.293   5.862
 6870TIP3    H120574   6.877   1.317   5.773
 6870TIP3    H220575   6.997   1.315   5.866
 6871TIP3   OH220576   3.931   0.926   0.962
 6871TIP3    H120577   3.956   1.009   0.921
 6871TIP3    H220578   3.980   0.925   1.045
 6872TIP3   OH220579   5.677   0.742   0.963
 6872TIP3    H120580   5.603   0.692   0.999
 6872TIP3    H220581   5.755   0.697   0.995
 6873TIP3   OH220582   6.202   4.211   2.416
 6873TIP3    H120583   6.287   4.235   2.378
 6873TIP3    H220584   6.207   4.241   2.507
 6874TIP3   OH220585   2.283   5.668   0.730
 6874TIP3    H120586   2.319   5.611   0.662
 6874TIP3    H220587   2.228   5.731   0.683
 6875TIP3   OH220588   4.599   1.315   1.076
 6875TIP3    H120589   4.595   1.401   1.117
 6875TIP3    H220590   4.662   1.266   1.131
 6876TIP3   OH220591   4.713   5.723   5.086
 6876TIP3    H120592   4.801   5.721   5.124
 6876TIP3    H220593   4.726   5.756   4.997
 6877TIP3   OH220594   0.824   1.084   5.195
 6877TIP3    H120595   0.808   1.125   5.280
 6877TIP3    H220596   0.738   1.078   5.155
 6878TIP3   OH220597   5.199   4.248   1.740
 6878TIP3    H120598   5.139   4.307   1.694
 6878TIP3    H220599   5.199   4.168   1.688
 6879TIP3   OH220600   0.770   1.566   5.073
 6879TIP3    H120601   0.823   1.567   4.994
 6879TIP3    H220602   0.724   1.482   5.071
 6880TIP3   OH220603   1.142   1.186   0.867
 6880TIP3    H120604   1.174   1.179   0.777
 6880TIP3    H220605   1.090   1.106   0.880
 6881TIP3   OH220606   1.941   1.752   5.424
 6881TIP3    H120607   2.006   1.687   5.398
 6881TIP3    H220608   1.993   1.827   5.452
 6882TIP3   OH220609   6.773   0.763   3.209
 6882TIP3    H120610   6.862   0.743   3.178
 6882TIP3    H220611   6.733   0.812   3.138
 6883TIP3   OH220612   0.673   3.568   2.007
 6883TIP3    H120613   0.765   3.541   2.009
 6883TIP3    H220614   0.675   3.660   2.033
 6884TIP3   OH220615   1.755   3.665   4.430
 6884TIP3    H120616   1.839   3.691   4.467
 6884TIP3    H220617   1.748   3.716   4.349
 6885TIP3   OH220618   5.145   1.635   5.395
 6885TIP3    H120619   5.147   1.544   5.426
 6885TIP3    H220620   5.106   1.684   5.467
 6886TIP3   OH220621   4.845   3.265   5.904
 6886TIP3    H120622   4.796   3.336   5.945
 6886TIP3    H220623   4.899   3.308   5.837
 6887TIP3   OH220624   5.519   1.012   5.639
 6887TIP3    H120625   5.544   1.061   5.717
 6887TIP3    H220626   5.559   0.926   5.651
 6888TIP3   OH220627   5.193   1.942   0.170
 6888TIP3    H120628   5.171   1.861   0.215
 6888TIP3    H220629   5.112   1.992   0.168
 6889TIP3   OH220630   0.552   5.500   3.249
 6889TIP3    H120631   0.521   5.487   3.338
 6889TIP3    H220632   0.542   5.414   3.207
 6890TIP3   OH220633   4.965   3.835   3.234
 6890TIP3    H120634   4.882   3.821   3.188
 6890TIP3    H220635   4.972   3.759   3.292
 6891TIP3   OH220636   2.812   6.019   5.576
 6891TIP3    H120637   2.888   5.984   5.529
 6891TIP3    H220638   2.813   6.113   5.555
 6892TIP3   OH220639   5.438   3.341   4.737
 6892TIP3    H120640   5.400   3.391   4.809
 6892TIP3    H220641   5.491   3.405   4.689
 6893TIP3   OH220642   0.423   4.140   5.789
 6893TIP3    H120643   0.426   4.060   5.736
 6893TIP3    H220644   0.485   4.199   5.747
 6894TIP3   OH220645   0.118   2.194   4.065
 6894TIP3    H120646   0.149   2.194   3.974
 6894TIP3    H220647   0.127   2.103   4.093
 6895TIP3   OH220648   4.294   2.494   5.828
 6895TIP3    H120649   4.212   2.540   5.811
 6895TIP3    H220650   4.301   2.430   5.757
 6896TIP3   OH220651   1.731   4.711   1.341
 6896TIP3    H120652   1.807   4.710   1.400
 6896TIP3    H220653   1.747   4.637   1.282
 6897TIP3   OH220654   4.209   2.371   3.164
 6897TIP3    H120655   4.129   2.400   3.121
 6897TIP3    H220656   4.277   2.426   3.128
 6898TIP3   OH220657   3.236   6.303   3.123
 6898TIP3    H120658   3.201   6.373   3.068
 6898TIP3    H220659   3.330   6.305   3.107
 6899TIP3   OH220660   5.336   5.140   2.256
 6899TIP3    H120661   5.376   5.054   2.242
 6899TIP3    H220662   5.347   5.185   2.172
 6900TIP3   OH220663   4.311   4.359   4.432
 6900TIP3    H120664   4.317   4.359   4.336
 6900TIP3    H220665   4.259   4.436   4.453
 6901TIP3   OH220666   0.663   0.272   5.341
 6901TIP3    H120667   0.665   0.361   5.374
 6901TIP3    H220668   0.660   0.217   5.419
 6902TIP3   OH220669   2.912   3.762   4.339
 6902TIP3    H120670   2.898   3.856   4.329
 6902TIP3    H220671   2.824   3.726   4.353
 6903TIP3   OH220672   5.593   0.748   5.639
 6903TIP3    H120673   5.662   0.690   5.670
 6903TIP3    H220674   5.512   0.703   5.663
 6904TIP3   OH220675   5.509   4.880   1.928
 6904TIP3    H120676   5.590   4.841   1.895
 6904TIP3    H220677   5.491   4.833   2.009
 6905TIP3   OH220678   6.779   3.740   3.682
 6905TIP3    H120679   6.769   3.773   3.771
 6905TIP3    H220680   6.773   3.818   3.627
 6906TIP3   OH220681   5.962   2.724   3.910
 6906TIP3    H120682   5.990   2.767   3.830
 6906TIP3    H220683   5.920   2.643   3.880
 6907TIP3   OH220684   4.905   0.301   3.430
 6907TIP3    H120685   4.996   0.281   3.449
 6907TIP3    H220686   4.855   0.257   3.499
 6908TIP3   OH220687   0.816   4.019   5.139
 6908TIP3    H120688   0.900   4.045   5.101
 6908TIP3    H220689   0.752   4.037   5.070
 6909TIP3   OH220690   1.558   2.341   3.230
 6909TIP3    H120691   1.649   2.311   3.228
 6909TIP3    H220692   1.517   2.288   3.299
 6910TIP3   OH220693   6.970   5.580   1.387
 6910TIP3    H120694   7.024   5.654   1.413
 6910TIP3    H220695   6.988   5.512   1.453
 6911TIP3   OH220696   4.588   2.010   4.508
 6911TIP3    H120697   4.526   2.046   4.571
 6911TIP3    H220698   4.535   1.961   4.446
 6912TIP3   OH220699   1.886   6.055   3.017
 6912TIP3    H120700   1.972   6.021   2.992
 6912TIP3    H220701   1.881   6.040   3.111
 6913TIP3   OH220702   0.425   5.725   2.442
 6913TIP3    H120703   0.445   5.648   2.494
 6913TIP3    H220704   0.330   5.725   2.435
 6914TIP3   OH220705   5.022   4.844   4.461
 6914TIP3    H120706   5.087   4.913   4.472
 6914TIP3    H220707   5.002   4.817   4.551
 6915TIP3   OH220708   6.635   2.719   0.812
 6915TIP3    H120709   6.591   2.639   0.839
 6915TIP3    H220710   6.657   2.763   0.894
 6916TIP3   OH220711   1.234   3.614   2.235
 6916TIP3    H120712   1.158   3.668   2.212
 6916TIP3    H220713   1.284   3.607   2.154
 6917TIP3   OH220714   2.034   6.249   2.258
 6917TIP3    H120715   2.064   6.229   2.347
 6917TIP3    H220716   1.960   6.308   2.270
 6918TIP3   OH220717   3.465   2.745   4.221
 6918TIP3    H120718   3.381   2.717   4.185
 6918TIP3    H220719   3.480   2.687   4.295
 6919TIP3   OH220720   5.629   2.142   2.648
 6919TIP3    H120721   5.565   2.213   2.647
 6919TIP3    H220722   5.708   2.182   2.684
 6920TIP3   OH220723   6.653   6.043   5.188
 6920TIP3    H120724   6.639   6.051   5.094
 6920TIP3    H220725   6.571   6.006   5.221
 6921TIP3   OH220726   5.191   4.552   1.786
 6921TIP3    H120727   5.231   4.500   1.856
 6921TIP3    H220728   5.120   4.600   1.829
 6922TIP3   OH220729   6.782   4.048   2.042
 6922TIP3    H120730   6.716   3.995   2.086
 6922TIP3    H220731   6.803   3.999   1.962
 6923TIP3   OH220732   5.904   4.889   5.059
 6923TIP3    H120733   5.937   4.836   5.132
 6923TIP3    H220734   5.861   4.826   5.001
 6924TIP3   OH220735   4.583   1.661   5.621
 6924TIP3    H120736   4.571   1.644   5.527
 6924TIP3    H220737   4.512   1.611   5.663
 6925TIP3   OH220738   2.045   2.635   2.856
 6925TIP3    H120739   1.963   2.639   2.807
 6925TIP3    H220740   2.021   2.596   2.940
 6926TIP3   OH220741   6.610   4.399   4.523
 6926TIP3    H120742   6.556   4.391   4.601
 6926TIP3    H220743   6.616   4.493   4.508
 6927TIP3   OH220744   1.567   4.708   2.425
 6927TIP3    H120745   1.471   4.715   2.432
 6927TIP3    H220746   1.582   4.681   2.335
 6928TIP3   OH220747   3.416   2.118   4.557
 6928TIP3    H120748   3.410   2.027   4.527
 6928TIP3    H220749   3.447   2.112   4.647
 6929TIP3   OH220750   5.175   2.134   2.439
 6929TIP3    H120751   5.195   2.168   2.527
 6929TIP3    H220752   5.168   2.039   2.451
 6930TIP3   OH220753   4.039   5.849   0.859
 6930TIP3    H120754   4.106   5.787   0.886
 6930TIP3    H220755   3.956   5.805   0.877
 6931TIP3   OH220756   5.106   5.125   4.138
 6931TIP3    H120757   5.186   5.161   4.102
 6931TIP3    H220758   5.037   5.185   4.109
 6932TIP3   OH220759   0.537   6.385   0.416
 6932TIP3    H120760   0.466   6.402   0.353
 6932TIP3    H220761   0.616   6.389   0.363
 6933TIP3   OH220762   2.480   6.241   4.624
 6933TIP3    H120763   2.390   6.211   4.623
 6933TIP3    H220764   2.500   6.255   4.716
 6934TIP3   OH220765   4.750   6.484   0.402
 6934TIP3    H120766   4.676   6.489   0.463
 6934TIP3    H220767   4.819   6.439   0.451
 6935TIP3   OH220768   6.360   1.077   1.080
 6935TIP3    H120769   6.408   0.999   1.053
 6935TIP3    H220770   6.304   1.047   1.151
 6936TIP3   OH220771   1.153   1.901   4.311
 6936TIP3    H120772   1.241   1.895   4.274
 6936TIP3    H220773   1.167   1.932   4.401
 6937TIP3   OH220774   1.114   2.070   0.709
 6937TIP3    H120775   1.066   1.988   0.719
 6937TIP3    H220776   1.103   2.094   0.617
 6938TIP3   OH220777   2.208   0.011   2.886
 6938TIP3    H120778   2.273  -0.049   2.849
 6938TIP3    H220779   2.184  -0.028   2.970
 6939TIP3   OH220780   0.838   5.797   5.451
 6939TIP3    H120781   0.770   5.843   5.500
 6939TIP3    H220782   0.877   5.864   5.395
 6940TIP3   OH220783   5.943   2.462   5.136
 6940TIP3    H120784   5.859   2.456   5.182
 6940TIP3    H220785   5.964   2.371   5.113
 6941TIP3   OH220786   0.229   1.032   2.022
 6941TIP3    H120787   0.235   1.104   1.958
 6941TIP3    H220788   0.175   1.067   2.092
 6942TIP3   OH220789   5.568   6.289   4.715
 6942TIP3    H120790   5.597   6.202   4.742
 6942TIP3    H220791   5.489   6.305   4.765
 6943TIP3   OH220792   3.193   3.455   5.324
 6943TIP3    H120793   3.211   3.534   5.375
 6943TIP3    H220794   3.160   3.392   5.388
 6944TIP3   OH220795   2.986   2.888   5.768
 6944TIP3    H120796   2.968   2.830   5.842
 6944TIP3    H220797   2.922   2.959   5.776
 6945TIP3   OH220798   5.759   3.223   5.510
 6945TIP3    H120799   5.674   3.223   5.467
 6945TIP3    H220800   5.754   3.294   5.574
 6946TIP3   OH220801   6.192   0.812   2.193
 6946TIP3    H120802   6.224   0.874   2.128
 6946TIP3    H220803   6.248   0.826   2.269
 6947TIP3   OH220804   5.577   3.731   1.240
 6947TIP3    H120805   5.644   3.685   1.188
 6947TIP3    H220806   5.548   3.802   1.183
 6948TIP3   OH220807   1.810   2.460   5.098
 6948TIP3    H120808   1.870   2.408   5.152
 6948TIP3    H220809   1.723   2.432   5.127
 6949TIP3   OH220810   2.390   6.446   3.837
 6949TIP3    H120811   2.309   6.485   3.871
 6949TIP3    H220812   2.460   6.495   3.880
 6950TIP3   OH220813   1.978   2.697   2.218
 6950TIP3    H120814   2.074   2.696   2.227
 6950TIP3    H220815   1.960   2.768   2.156
 6951TIP3   OH220816   2.155   4.838   3.978
 6951TIP3    H120817   2.209   4.795   3.912
 6951TIP3    H220818   2.125   4.919   3.936
 6952TIP3   OH220819   2.267   3.283   2.061
 6952TIP3    H120820   2.277   3.311   1.970
 6952TIP3    H220821   2.220   3.200   2.056
 6953TIP3   OH220822   2.062   4.130   5.496
 6953TIP3    H120823   2.087   4.114   5.587
 6953TIP3    H220824   1.976   4.171   5.501
 6954TIP3   OH220825   1.020   3.529   0.933
 6954TIP3    H120826   0.940   3.573   0.903
 6954TIP3    H220827   1.089   3.564   0.878
 6955TIP3   OH220828   3.309   3.985   2.103
 6955TIP3    H120829   3.269   3.998   2.017
 6955TIP3    H220830   3.363   4.062   2.117
 6956TIP3   OH220831   3.192   5.375   4.128
 6956TIP3    H120832   3.157   5.437   4.064
 6956TIP3    H220833   3.283   5.361   4.100
 6957TIP3   OH220834   6.527   3.480   4.608
 6957TIP3    H120835   6.586   3.438   4.545
 6957TIP3    H220836   6.449   3.502   4.557
 6958TIP3   OH220837   5.160   0.814   3.225
 6958TIP3    H120838   5.222   0.775   3.287
 6958TIP3    H220839   5.115   0.739   3.186
 6959TIP3   OH220840   2.361   1.541   1.588
 6959TIP3    H120841   2.324   1.516   1.673
 6959TIP3    H220842   2.287   1.539   1.528
 6960TIP3   OH220843   1.607   0.734   3.076
 6960TIP3    H120844   1.595   0.639   3.087
 6960TIP3    H220845   1.669   0.742   3.004
 6961TIP3   OH220846   0.142   1.748   5.346
 6961TIP3    H120847   0.057   1.736   5.389
 6961TIP3    H220848   0.148   1.842   5.328
 6962TIP3   OH220849   2.578   1.064   4.112
 6962TIP3    H120850   2.545   1.019   4.189
 6962TIP3    H220851   2.582   0.996   4.045
 6963TIP3   OH220852   5.915   1.589   5.852
 6963TIP3    H120853   5.981   1.522   5.834
 6963TIP3    H220854   5.965   1.661   5.893
 6964TIP3   OH220855   1.938   4.073   2.488
 6964TIP3    H120856   1.899   4.159   2.503
 6964TIP3    H220857   1.896   4.042   2.408
 6965TIP3   OH220858   2.428   3.650   4.250
 6965TIP3    H120859   2.429   3.659   4.155
 6965TIP3    H220860   2.520   3.638   4.274
 6966TIP3   OH220861   5.262   0.701   4.507
 6966TIP3    H120862   5.330   0.672   4.446
 6966TIP3    H220863   5.285   0.658   4.590
 6967TIP3   OH220864   1.071   4.780   4.535
 6967TIP3    H120865   1.159   4.756   4.505
 6967TIP3    H220866   1.079   4.784   4.631
 6968TIP3   OH220867   5.808   2.320   2.761
 6968TIP3    H120868   5.780   2.362   2.842
 6968TIP3    H220869   5.846   2.392   2.709
 6969TIP3   OH220870   5.110   2.310   4.904
 6969TIP3    H120871   5.205   2.322   4.914
 6969TIP3    H220872   5.072   2.394   4.928
 6970TIP3   OH220873   3.007   2.735   2.494
 6970TIP3    H120874   3.057   2.790   2.554
 6970TIP3    H220875   2.934   2.790   2.465
 6971TIP3   OH220876   0.101   5.705   3.792
 6971TIP3    H120877   0.014   5.744   3.783
 6971TIP3    H220878   0.096   5.654   3.873
 6972TIP3   OH220879   5.588   1.136   4.778
 6972TIP3    H120880   5.563   1.057   4.826
 6972TIP3    H220881   5.527   1.140   4.705
 6973TIP3   OH220882   0.251   3.922   5.011
 6973TIP3    H120883   0.327   3.870   5.039
 6973TIP3    H220884   0.262   3.932   4.917
 6974TIP3   OH220885   4.761   4.936   3.424
 6974TIP3    H120886   4.719   5.021   3.415
 6974TIP3    H220887   4.784   4.930   3.517
 6975TIP3   OH220888   0.286   1.540   3.074
 6975TIP3    H120889   0.221   1.609   3.057
 6975TIP3    H220890   0.363   1.587   3.107
 6976TIP3   OH220891   2.503   6.678   3.236
 6976TIP3    H120892   2.583   6.703   3.280
 6976TIP3    H220893   2.477   6.595   3.277
 6977TIP3   OH220894   5.694   4.166   2.794
 6977TIP3    H120895   5.784   4.138   2.809
 6977TIP3    H220896   5.662   4.111   2.722
 6978TIP3   OH220897   4.484   2.566   4.368
 6978TIP3    H120898   4.468   2.476   4.398
 6978TIP3    H220899   4.543   2.602   4.434
 6979TIP3   OH220900   6.363   0.704   3.027
 6979TIP3    H120901   6.331   0.667   2.945
 6979TIP3    H220902   6.394   0.791   3.004
 6980TIP3   OH220903   2.544   3.037   1.947
 6980TIP3    H120904   2.469   2.991   1.984
 6980TIP3    H220905   2.553   3.115   2.002
 6981TIP3   OH220906   6.433   4.924   4.334
 6981TIP3    H120907   6.344   4.891   4.330
 6981TIP3    H220908   6.484   4.852   4.372
 6982TIP3   OH220909   6.176   3.841   2.102
 6982TIP3    H120910   6.098   3.892   2.123
 6982TIP3    H220911   6.237   3.859   2.174
 6983TIP3   OH220912   7.141   2.944   5.047
 6983TIP3    H120913   7.084   2.964   5.121
 6983TIP3    H220914   7.218   2.901   5.086
 6984TIP3   OH220915   4.212   5.620   3.285
 6984TIP3    H120916   4.145   5.566   3.244
 6984TIP3    H220917   4.167   5.666   3.355
 6985TIP3   OH220918   4.631   5.509   2.678
 6985TIP3    H120919   4.569   5.571   2.640
 6985TIP3    H220920   4.590   5.482   2.760
 6986TIP3   OH220921   0.497   3.936   3.470
 6986TIP3    H120922   0.578   3.917   3.422
 6986TIP3    H220923   0.502   3.883   3.549
 6987TIP3   OH220924   0.356   6.108   1.063
 6987TIP3    H120925   0.397   6.088   1.147
 6987TIP3    H220926   0.362   6.204   1.056
 6988TIP3   OH220927   7.044   3.652   3.924
 6988TIP3    H120928   7.007   3.584   3.981
 6988TIP3    H220929   7.024   3.734   3.968
 6989TIP3   OH220930   3.450   1.017   3.043
 6989TIP3    H120931   3.503   1.052   2.972
 6989TIP3    H220932   3.512   0.996   3.112
 6990TIP3   OH220933   4.249   0.081   2.151
 6990TIP3    H120934   4.310   0.112   2.218
 6990TIP3    H220935   4.282  -0.006   2.128
 6991TIP3   OH220936   5.389   2.697   3.560
 6991TIP3    H120937   5.331   2.761   3.519
 6991TIP3    H220938   5.395   2.626   3.496
 6992TIP3   OH220939   0.373   4.537   1.620
 6992TIP3    H120940   0.436   4.499   1.559
 6992TIP3    H220941   0.296   4.554   1.567
 6993TIP3   OH220942   0.356   1.238   5.265
 6993TIP3    H120943   0.393   1.150   5.265
 6993TIP3    H220944   0.324   1.251   5.176
 6994TIP3   OH220945   5.173   4.707   0.982
 6994TIP3    H120946   5.170   4.664   1.068
 6994TIP3    H220947   5.099   4.671   0.934
 6995TIP3   OH220948   2.083   1.915   1.087
 6995TIP3    H120949   2.138   1.861   1.144
 6995TIP3    H220950   2.122   1.906   1.000
 6996TIP3   OH220951   0.263   2.066   5.873
 6996TIP3    H120952   0.220   1.983   5.892
 6996TIP3    H220953   0.233   2.090   5.785
 6997TIP3   OH220954   0.680   3.259   3.797
 6997TIP3    H120955   0.594   3.217   3.787
 6997TIP3    H220956   0.728   3.201   3.856
 6998TIP3   OH220957   5.469   6.742   3.468
 6998TIP3    H120958   5.440   6.651   3.477
 6998TIP3    H220959   5.394   6.794   3.495
 6999TIP3   OH220960   5.844   1.465   3.080
 6999TIP3    H120961   5.844   1.429   3.169
 6999TIP3    H220962   5.917   1.421   3.037
 7000TIP3   OH220963   4.022   3.195   4.095
 7000TIP3    H120964   3.943   3.209   4.042
 7000TIP3    H220965   4.017   3.102   4.121
 7001TIP3   OH220966   4.893   2.681   2.208
 7001TIP3    H120967   4.973   2.733   2.218
 7001TIP3    H220968   4.877   2.644   2.295
 7002TIP3   OH220969   3.127   6.350   2.521
 7002TIP3    H120970   3.182   6.360   2.599
 7002TIP3    H220971   3.038   6.348   2.556
 7003TIP3   OH220972   3.397   6.443   4.829
 7003TIP3    H120973   3.340   6.497   4.774
 7003TIP3    H220974   3.427   6.503   4.898
 7004TIP3   OH220975   0.665   0.063   2.141
 7004TIP3    H120976   0.639   0.049   2.050
 7004TIP3    H220977   0.663  -0.024   2.180
 7005TIP3   OH220978   3.941   1.296   0.250
 7005TIP3    H120979   3.906   1.383   0.270
 7005TIP3    H220980   3.926   1.285   0.156
 7006TIP3   OH220981   6.396   3.762   1.422
 7006TIP3    H120982   6.443   3.679   1.431
 7006TIP3    H220983   6.464   3.828   1.431
 7007TIP3   OH220984   1.844   3.419   4.311
 7007TIP3    H120985   1.759   3.417   4.266
 7007TIP3    H220986   1.872   3.511   4.303
 7008TIP3   OH220987   1.969   0.186   2.531
 7008TIP3    H120988   2.062   0.166   2.527
 7008TIP3    H220989   1.926   0.107   2.497
 7009TIP3   OH220990   1.753   4.550   1.027
 7009TIP3    H120991   1.659   4.566   1.035
 7009TIP3    H220992   1.761   4.454   1.030
 7010TIP3   OH220993   2.712   3.172   2.410
 7010TIP3    H120994   2.618   3.188   2.404
 7010TIP3    H220995   2.735   3.133   2.326
 7011TIP3   OH220996   1.126   6.373   2.245
 7011TIP3    H120997   1.039   6.398   2.213
 7011TIP3    H220998   1.108   6.316   2.320
 7012TIP3   OH220999   6.111   4.435   0.341
 7012TIP3    H121000   6.190   4.408   0.295
 7012TIP3    H221001   6.105   4.374   0.415
 7013TIP3   OH221002   4.161   6.459   3.350
 7013TIP3    H121003   4.176   6.516   3.425
 7013TIP3    H221004   4.067   6.461   3.336
 7014TIP3   OH221005   4.822   1.556   3.901
 7014TIP3    H121006   4.774   1.475   3.883
 7014TIP3    H221007   4.859   1.581   3.816
 7015TIP3   OH221008   1.367   2.480   2.157
 7015TIP3    H121009   1.330   2.502   2.071
 7015TIP3    H221010   1.341   2.390   2.172
 7016TIP3   OH221011   5.790   2.941   4.026
 7016TIP3    H121012   5.870   2.898   3.995
 7016TIP3    H221013   5.818   3.031   4.046
 7017TIP3   OH221014   3.003   3.422   0.590
 7017TIP3    H121015   3.039   3.373   0.663
 7017TIP3    H221016   3.079   3.449   0.539
 7018TIP3   OH221017   6.325   6.795   0.729
 7018TIP3    H121018   6.348   6.852   0.802
 7018TIP3    H221019   6.267   6.729   0.767
 7019TIP3   OH221020   0.100   3.678   0.316
 7019TIP3    H121021   0.019   3.628   0.321
 7019TIP3    H221022   0.143   3.647   0.236
 7020TIP3   OH221023   1.726   0.213   3.081
 7020TIP3    H121024   1.774   0.219   2.999
 7020TIP3    H221025   1.634   0.204   3.054
 7021TIP3   OH221026   4.292   2.525   3.673
 7021TIP3    H121027   4.291   2.597   3.735
 7021TIP3    H221028   4.242   2.557   3.598
 7022TIP3   OH221029   0.754   1.082   4.723
 7022TIP3    H121030   0.665   1.118   4.719
 7022TIP3    H221031   0.773   1.056   4.633
 7023TIP3   OH221032   3.993   1.728   1.367
 7023TIP3    H121033   4.011   1.778   1.446
 7023TIP3    H221034   3.990   1.637   1.396
 7024TIP3   OH221035   6.608   6.349   2.081
 7024TIP3    H121036   6.685   6.389   2.121
 7024TIP3    H221037   6.641   6.267   2.044
 7025TIP3   OH221038   5.494   0.844   2.817
 7025TIP3    H121039   5.502   0.918   2.758
 7025TIP3    H221040   5.567   0.853   2.878
 7026TIP3   OH221041   4.665  -0.041   3.122
 7026TIP3    H121042   4.731  -0.078   3.182
 7026TIP3    H221043   4.664   0.052   3.142
 7027TIP3   OH221044   4.958   1.054   5.189
 7027TIP3    H121045   5.036   1.038   5.242
 7027TIP3    H221046   4.991   1.079   5.103
 7028TIP3   OH221047   1.227   2.691   3.042
 7028TIP3    H121048   1.284   2.761   3.074
 7028TIP3    H221049   1.288   2.623   3.013
 7029TIP3   OH221050   4.468   3.570   0.914
 7029TIP3    H121051   4.416   3.561   0.835
 7029TIP3    H221052   4.558   3.582   0.883
 7030TIP3   OH221053   0.988   4.105   1.707
 7030TIP3    H121054   0.950   4.054   1.636
 7030TIP3    H221055   0.944   4.190   1.703
 7031TIP3   OH221056   0.711   2.812   5.626
 7031TIP3    H121057   0.736   2.730   5.669
 7031TIP3    H221058   0.639   2.789   5.569
 7032TIP3   OH221059   4.615   5.403   0.519
 7032TIP3    H121060   4.658   5.403   0.433
 7032TIP3    H221061   4.657   5.331   0.566
 7033TIP3   OH221062   4.969   5.320   3.719
 7033TIP3    H121063   5.002   5.266   3.647
 7033TIP3    H221064   5.045   5.338   3.773
 7034TIP3   OH221065   6.439   1.385   5.535
 7034TIP3    H121066   6.523   1.420   5.505
 7034TIP3    H221067   6.413   1.325   5.466
 7035TIP3   OH221068   1.430   2.992   4.950
 7035TIP3    H121069   1.347   2.966   4.990
 7035TIP3    H221070   1.477   2.910   4.936
 7036TIP3   OH221071   5.325   5.558   4.703
 7036TIP3    H121072   5.404   5.610   4.686
 7036TIP3    H221073   5.348   5.470   4.672
 7037TIP3   OH221074   2.659   0.720   3.295
 7037TIP3    H121075   2.745   0.712   3.254
 7037TIP3    H221076   2.609   0.778   3.237
 7038TIP3   OH221077   2.643   1.715   4.714
 7038TIP3    H121078   2.604   1.655   4.650
 7038TIP3    H221079   2.587   1.707   4.791
 7039TIP3   OH221080   4.191   0.725   5.781
 7039TIP3    H121081   4.217   0.817   5.786
 7039TIP3    H221082   4.100   0.727   5.750
 7040TIP3   OH221083   6.169   5.748   4.000
 7040TIP3    H121084   6.232   5.765   3.930
 7040TIP3    H221085   6.105   5.818   3.992
 7041TIP3   OH221086   6.371   0.951   1.341
 7041TIP3    H121087   6.430   0.876   1.343
 7041TIP3    H221088   6.291   0.917   1.301
 7042TIP3   OH221089   5.412   5.816   1.106
 7042TIP3    H121090   5.318   5.801   1.109
 7042TIP3    H221091   5.449   5.747   1.160
 7043TIP3   OH221092   4.488   1.915   3.594
 7043TIP3    H121093   4.535   1.840   3.558
 7043TIP3    H221094   4.420   1.935   3.530
 7044TIP3   OH221095   6.225   5.003   1.900
 7044TIP3    H121096   6.238   5.053   1.819
 7044TIP3    H221097   6.154   5.048   1.945
 7045TIP3   OH221098   1.328   4.689   1.735
 7045TIP3    H121099   1.282   4.631   1.674
 7045TIP3    H221100   1.367   4.630   1.799
 7046TIP3   OH221101   4.483   1.104   3.504
 7046TIP3    H121102   4.397   1.146   3.509
 7046TIP3    H221103   4.474   1.040   3.434
 7047TIP3   OH221104   5.957   2.049   1.752
 7047TIP3    H121105   5.946   2.103   1.829
 7047TIP3    H221106   5.874   2.002   1.742
 7048TIP3   OH221107   0.222   0.887   5.155
 7048TIP3    H121108   0.155   0.823   5.131
 7048TIP3    H221109   0.281   0.888   5.080
 7049TIP3   OH221110   3.745   4.762   3.577
 7049TIP3    H121111   3.819   4.735   3.631
 7049TIP3    H221112   3.732   4.855   3.599
 7050TIP3   OH221113   0.261   1.948   1.162
 7050TIP3    H121114   0.330   1.950   1.228
 7050TIP3    H221115   0.242   1.855   1.150
 7051TIP3   OH221116   3.588   5.943   5.233
 7051TIP3    H121117   3.603   5.858   5.193
 7051TIP3    H221118   3.577   6.003   5.160
 7052TIP3   OH221119   5.788   3.766   0.832
 7052TIP3    H121120   5.775   3.726   0.746
 7052TIP3    H221121   5.828   3.850   0.814
 7053TIP3   OH221122   2.964   3.503   4.002
 7053TIP3    H121123   2.933   3.439   3.938
 7053TIP3    H221124   2.973   3.453   4.083
 7054TIP3   OH221125   5.682   6.518   4.986
 7054TIP3    H121126   5.772   6.488   4.974
 7054TIP3    H221127   5.686   6.574   5.064
 7055TIP3   OH221128   0.030   3.884   1.018
 7055TIP3    H121129   0.040   3.979   1.023
 7055TIP3    H221130  -0.064   3.870   1.007
 7056TIP3   OH221131   2.117   0.333   0.395
 7056TIP3    H121132   2.094   0.417   0.435
 7056TIP3    H221133   2.178   0.293   0.456
 7057TIP3   OH221134   3.754   4.009   2.212
 7057TIP3    H121135   3.710   4.087   2.246
 7057TIP3    H221136   3.824   3.992   2.275
 7058TIP3   OH221137   1.798   4.984   1.249
 7058TIP3    H121138   1.776   4.896   1.282
 7058TIP3    H221139   1.854   5.021   1.317
 7059TIP3   OH221140   3.445   4.491   4.592
 7059TIP3    H121141   3.366   4.529   4.631
 7059TIP3    H221142   3.517   4.541   4.630
 7060TIP3   OH221143   6.854   6.755   0.028
 7060TIP3    H121144   6.893   6.805   0.099
 7060TIP3    H221145   6.897   6.669   0.032
 7061TIP3   OH221146   6.228   4.442   5.444
 7061TIP3    H121147   6.220   4.524   5.395
 7061TIP3    H221148   6.322   4.428   5.453
 7062TIP3   OH221149   2.015   3.282   0.742
 7062TIP3    H121150   1.986   3.213   0.683
 7062TIP3    H221151   2.101   3.252   0.773
 7063TIP3   OH221152   4.222   1.634   5.354
 7063TIP3    H121153   4.206   1.616   5.262
 7063TIP3    H221154   4.224   1.547   5.395
 7064TIP3   OH221155   6.625   1.479   0.467
 7064TIP3    H121156   6.719   1.465   0.476
 7064TIP3    H221157   6.613   1.499   0.374
 7065TIP3   OH221158   6.484   2.281   0.725
 7065TIP3    H121159   6.463   2.210   0.665
 7065TIP3    H221160   6.577   2.270   0.745
 7066TIP3   OH221161   5.607   5.035   3.338
 7066TIP3    H121162   5.534   4.983   3.304
 7066TIP3    H221163   5.577   5.126   3.329
 7067TIP3   OH221164   2.009   0.261   0.713
 7067TIP3    H121165   1.970   0.192   0.767
 7067TIP3    H221166   1.995   0.341   0.762
 7068TIP3   OH221167   6.427   2.674   0.187
 7068TIP3    H121168   6.446   2.759   0.227
 7068TIP3    H221169   6.424   2.613   0.261
 7069TIP3   OH221170   4.056   4.687   5.346
 7069TIP3    H121171   3.970   4.691   5.304
 7069TIP3    H221172   4.072   4.776   5.377
 7070TIP3   OH221173   4.592   6.658   1.800
 7070TIP3    H121174   4.505   6.696   1.807
 7070TIP3    H221175   4.635   6.681   1.883
 7071TIP3   OH221176   6.980   3.516   2.677
 7071TIP3    H121177   6.885   3.506   2.672
 7071TIP3    H221178   6.995   3.610   2.672
 7072TIP3   OH221179   5.264   1.476   2.821
 7072TIP3    H121180   5.246   1.392   2.863
 7072TIP3    H221181   5.245   1.541   2.888
 7073TIP3   OH221182   7.205   1.344   3.077
 7073TIP3    H121183   7.210   1.437   3.057
 7073TIP3    H221184   7.210   1.340   3.173
 7074TIP3   OH221185   1.568   1.399   5.360
 7074TIP3    H121186   1.542   1.310   5.337
 7074TIP3    H221187   1.577   1.397   5.455
 7075TIP3   OH221188   1.596   4.005   2.167
 7075TIP3    H121189   1.640   3.938   2.114
 7075TIP3    H221190   1.533   4.046   2.107
 7076TIP3   OH221191   1.946   1.260   5.594
 7076TIP3    H121192   1.899   1.282   5.674
 7076TIP3    H221193   1.995   1.181   5.616
 7077TIP3   OH221194   2.399   0.581   3.234
 7077TIP3    H121195   2.437   0.665   3.209
 7077TIP3    H221196   2.407   0.527   3.155
 7078TIP3   OH221197   7.207   5.980   1.597
 7078TIP3    H121198   7.140   5.951   1.535
 7078TIP3    H221199   7.290   5.956   1.554
 7079TIP3   OH221200   3.237   0.431   0.652
 7079TIP3    H121201   3.254   0.341   0.678
 7079TIP3    H221202   3.313   0.480   0.684
 7080TIP3   OH221203   0.375   3.505   1.304
 7080TIP3    H121204   0.349   3.553   1.383
 7080TIP3    H221205   0.469   3.495   1.312
 7081TIP3   OH221206   1.486   4.672   1.079
 7081TIP3    H121207   1.404   4.646   1.121
 7081TIP3    H221208   1.509   4.755   1.121
 7082TIP3   OH221209   5.405   0.753   0.532
 7082TIP3    H121210   5.353   0.678   0.504
 7082TIP3    H221211   5.391   0.819   0.464
 7083TIP3   OH221212   0.575   3.015   4.088
 7083TIP3    H121213   0.577   2.984   3.997
 7083TIP3    H221214   0.514   2.956   4.132
 7084TIP3   OH221215   5.861   2.717   1.515
 7084TIP3    H121216   5.845   2.691   1.424
 7084TIP3    H221217   5.773   2.722   1.553
 7085TIP3   OH221218   5.900   1.422   5.238
 7085TIP3    H121219   5.938   1.385   5.317
 7085TIP3    H221220   5.858   1.348   5.194
 7086TIP3   OH221221   6.028   4.901   4.712
 7086TIP3    H121222   6.077   4.979   4.687
 7086TIP3    H221223   6.041   4.840   4.640
 7087TIP3   OH221224   4.498   3.478   3.496
 7087TIP3    H121225   4.416   3.462   3.450
 7087TIP3    H221226   4.542   3.546   3.445
 7088TIP3   OH221227   6.299   1.029   2.062
 7088TIP3    H121228   6.357   1.077   2.003
 7088TIP3    H221229   6.211   1.060   2.039
 7089TIP3   OH221230   0.914   3.963   3.188
 7089TIP3    H121231   0.998   3.996   3.220
 7089TIP3    H221232   0.933   3.933   3.099
 7090TIP3   OH221233   0.977   5.373   5.399
 7090TIP3    H121234   1.022   5.289   5.391
 7090TIP3    H221235   0.885   5.353   5.380
 7091TIP3   OH221236   1.851   3.676   0.845
 7091TIP3    H121237   1.790   3.732   0.893
 7091TIP3    H221238   1.797   3.633   0.778
 7092TIP3   OH221239   6.555   6.242   3.121
 7092TIP3    H121240   6.564   6.337   3.121
 7092TIP3    H221241   6.467   6.225   3.155
 7093TIP3   OH221242   1.753   2.561   0.782
 7093TIP3    H121243   1.823   2.499   0.806
 7093TIP3    H221244   1.798   2.631   0.735
 7094TIP3   OH221245   1.240   4.776   4.748
 7094TIP3    H121246   1.200   4.733   4.824
 7094TIP3    H221247   1.296   4.708   4.710
 7095TIP3   OH221248   5.397   0.439   1.960
 7095TIP3    H121249   5.403   0.534   1.962
 7095TIP3    H221250   5.417   0.411   2.049
 7096TIP3   OH221251   2.461   3.526   1.174
 7096TIP3    H121252   2.406   3.458   1.136
 7096TIP3    H221253   2.438   3.606   1.125
 7097TIP3   OH221254   2.903   5.882   5.227
 7097TIP3    H121255   2.849   5.882   5.306
 7097TIP3    H221256   2.867   5.954   5.175
 7098TIP3   OH221257   6.979   0.095   5.795
 7098TIP3    H121258   6.953   0.003   5.808
 7098TIP3    H221259   6.942   0.141   5.871
 7099TIP3   OH221260   2.574   2.423   3.687
 7099TIP3    H121261   2.525   2.499   3.656
 7099TIP3    H221262   2.579   2.434   3.782
 7100TIP3   OH221263   2.904   3.383   2.905
 7100TIP3    H121264   2.934   3.350   2.990
 7100TIP3    H221265   2.880   3.304   2.856
 7101TIP3   OH221266   6.472   6.705   0.518
 7101TIP3    H121267   6.439   6.761   0.589
 7101TIP3    H221268   6.414   6.629   0.519
 7102TIP3   OH221269   3.305   2.106   1.389
 7102TIP3    H121270   3.284   2.199   1.396
 7102TIP3    H221271   3.297   2.086   1.296
 7103TIP3   OH221272   1.108   5.303   2.947
 7103TIP3    H121273   1.113   5.397   2.930
 7103TIP3    H221274   1.107   5.296   3.042
 7104TIP3   OH221275   1.228   5.033   2.123
 7104TIP3    H121276   1.149   4.999   2.166
 7104TIP3    H221277   1.202   5.119   2.090
 7105TIP3   OH221278   5.306   4.108   1.962
 7105TIP3    H121279   5.253   4.130   1.885
 7105TIP3    H221280   5.243   4.078   2.027
 7106TIP3   OH221281   1.516   0.699   0.402
 7106TIP3    H121282   1.439   0.645   0.416
 7106TIP3    H221283   1.513   0.765   0.472
 7107TIP3   OH221284   1.530   1.873   0.095
 7107TIP3    H121285   1.543   1.968   0.088
 7107TIP3    H221286   1.536   1.855   0.189
 7108TIP3   OH221287   1.436   1.016   2.244
 7108TIP3    H121288   1.503   0.963   2.202
 7108TIP3    H221289   1.354   0.986   2.205
 7109TIP3   OH221290   3.632   3.671   1.206
 7109TIP3    H121291   3.577   3.624   1.143
 7109TIP3    H221292   3.721   3.659   1.173
 7110TIP3   OH221293   4.542   4.159   0.025
 7110TIP3    H121294   4.481   4.228   0.050
 7110TIP3    H221295   4.516   4.083   0.078
 7111TIP3   OH221296   3.262   0.892  -0.012
 7111TIP3    H121297   3.226   0.812   0.026
 7111TIP3    H221298   3.352   0.895   0.019
 7112TIP3   OH221299   0.754   5.361   2.711
 7112TIP3    H121300   0.819   5.430   2.701
 7112TIP3    H221301   0.743   5.353   2.806
 7113TIP3   OH221302   0.551   6.414   3.709
 7113TIP3    H121303   0.487   6.455   3.652
 7113TIP3    H221304   0.564   6.326   3.673
 7114TIP3   OH221305   1.872   5.297   0.518
 7114TIP3    H121306   1.787   5.342   0.520
 7114TIP3    H221307   1.930   5.354   0.569
 7115TIP3   OH221308   4.667   6.042   1.746
 7115TIP3    H121309   4.745   6.059   1.798
 7115TIP3    H221310   4.594   6.054   1.807
 7116TIP3   OH221311   6.544   3.325   2.337
 7116TIP3    H121312   6.560   3.282   2.253
 7116TIP3    H221313   6.453   3.303   2.358
 7117TIP3   OH221314   2.137   3.075   1.915
 7117TIP3    H121315   2.195   3.007   1.948
 7117TIP3    H221316   2.114   3.047   1.826
 7118TIP3   OH221317   3.683   2.315   4.099
 7118TIP3    H121318   3.672   2.379   4.029
 7118TIP3    H221319   3.721   2.238   4.056
 7119TIP3   OH221320   3.793   4.390   3.068
 7119TIP3    H121321   3.822   4.331   3.138
 7119TIP3    H221322   3.868   4.447   3.053
 7120TIP3   OH221323   3.132   2.107   0.976
 7120TIP3    H121324   3.222   2.101   0.943
 7120TIP3    H221325   3.133   2.183   1.035
 7121TIP3   OH221326   4.755   4.364   4.669
 7121TIP3    H121327   4.689   4.433   4.657
 7121TIP3    H221328   4.707   4.283   4.651
 7122TIP3   OH221329   1.302   4.858   4.255
 7122TIP3    H121330   1.272   4.768   4.264
 7122TIP3    H221331   1.241   4.909   4.307
 7123TIP3   OH221332   5.478   4.639   2.121
 7123TIP3    H121333   5.466   4.579   2.194
 7123TIP3    H221334   5.446   4.590   2.045
 7124TIP3   OH221335   1.197   3.910   5.619
 7124TIP3    H121336   1.209   3.893   5.712
 7124TIP3    H221337   1.261   3.978   5.598
 7125TIP3   OH221338   6.124   3.661   5.376
 7125TIP3    H121339   6.063   3.602   5.332
 7125TIP3    H221340   6.069   3.734   5.405
 7126TIP3   OH221341   5.133   0.354   0.793
 7126TIP3    H121342   5.125   0.444   0.760
 7126TIP3    H221343   5.147   0.365   0.887
 7127TIP3   OH221344   4.224   1.342   2.327
 7127TIP3    H121345   4.308   1.380   2.353
 7127TIP3    H221346   4.202   1.387   2.244
 7128TIP3   OH221347   0.264   2.609   1.224
 7128TIP3    H121348   0.344   2.588   1.176
 7128TIP3    H221349   0.283   2.693   1.266
 7129TIP3   OH221350   3.925   2.333   1.532
 7129TIP3    H121351   3.876   2.251   1.532
 7129TIP3    H221352   4.017   2.306   1.521
 7130TIP3   OH221353   4.402   6.618   4.479
 7130TIP3    H121354   4.377   6.696   4.430
 7130TIP3    H221355   4.454   6.567   4.417
 7131TIP3   OH221356   6.044   1.052   2.010
 7131TIP3    H121357   6.000   0.991   2.070
 7131TIP3    H221358   6.005   1.033   1.924
 7132TIP3   OH221359   2.378   5.093   2.745
 7132TIP3    H121360   2.394   5.087   2.839
 7132TIP3    H221361   2.306   5.155   2.738
 7133TIP3   OH221362   3.120   2.162   4.575
 7133TIP3    H121363   3.048   2.206   4.621
 7133TIP3    H221364   3.190   2.156   4.640
 7134TIP3   OH221365   1.284   1.241   5.517
 7134TIP3    H121366   1.326   1.186   5.451
 7134TIP3    H221367   1.227   1.299   5.467
 7135TIP3   OH221368   1.153   1.170   4.806
 7135TIP3    H121369   1.129   1.082   4.834
 7135TIP3    H221370   1.105   1.183   4.724
 7136TIP3   OH221371   5.627   2.186   1.730
 7136TIP3    H121372   5.598   2.113   1.676
 7136TIP3    H221373   5.629   2.261   1.671
 7137TIP3   OH221374   5.726   0.267   3.667
 7137TIP3    H121375   5.815   0.293   3.693
 7137TIP3    H221376   5.694   0.216   3.742
 7138TIP3   OH221377   5.764   5.435   1.067
 7138TIP3    H121378   5.740   5.464   0.979
 7138TIP3    H221379   5.682   5.403   1.105
 7139TIP3   OH221380   4.711   1.682   0.797
 7139TIP3    H121381   4.759   1.611   0.753
 7139TIP3    H221382   4.620   1.667   0.774
 7140TIP3   OH221383   4.788   0.682   0.467
 7140TIP3    H121384   4.817   0.763   0.424
 7140TIP3    H221385   4.693   0.694   0.478
 7141TIP3   OH221386   3.867   5.433   3.330
 7141TIP3    H121387   3.874   5.377   3.408
 7141TIP3    H221388   3.775   5.460   3.328
 7142TIP3   OH221389   3.037   4.609   0.348
 7142TIP3    H121390   3.045   4.629   0.254
 7142TIP3    H221391   3.092   4.532   0.360
 7143TIP3   OH221392   3.213   5.741   1.294
 7143TIP3    H121393   3.149   5.786   1.349
 7143TIP3    H221394   3.250   5.811   1.239
 7144TIP3   OH221395   2.226   4.138   2.425
 7144TIP3    H121396   2.135   4.108   2.435
 7144TIP3    H221397   2.218   4.226   2.388
 7145TIP3   OH221398   1.181   4.485   2.723
 7145TIP3    H121399   1.149   4.403   2.685
 7145TIP3    H221400   1.276   4.481   2.713
 7146TIP3   OH221401   6.308   5.670   1.056
 7146TIP3    H121402   6.347   5.671   0.969
 7146TIP3    H221403   6.236   5.608   1.050
 7147TIP3   OH221404   4.144   3.166   2.081
 7147TIP3    H121405   4.150   3.157   1.986
 7147TIP3    H221406   4.229   3.201   2.107
 7148TIP3   OH221407   6.474   0.006   3.094
 7148TIP3    H121408   6.461   0.100   3.108
 7148TIP3    H221409   6.463  -0.032   3.181
 7149TIP3   OH221410   6.624   4.124   5.856
 7149TIP3    H121411   6.689   4.157   5.794
 7149TIP3    H221412   6.543   4.170   5.834
 7150TIP3   OH221413   2.845   6.477   2.975
 7150TIP3    H121414   2.773   6.431   2.932
 7150TIP3    H221415   2.826   6.469   3.069
 7151TIP3   OH221416   5.024   6.294   1.073
 7151TIP3    H121417   4.995   6.227   1.011
 7151TIP3    H221418   4.948   6.352   1.082
 7152TIP3   OH221419   1.768   1.798   5.671
 7152TIP3    H121420   1.786   1.881   5.626
 7152TIP3    H221421   1.810   1.731   5.618
 7153TIP3   OH221422   3.830   4.583   2.412
 7153TIP3    H121423   3.841   4.585   2.507
 7153TIP3    H221424   3.844   4.491   2.388
 7154TIP3   OH221425   6.314   1.607   4.227
 7154TIP3    H121426   6.265   1.628   4.306
 7154TIP3    H221427   6.329   1.512   4.232
 7155TIP3   OH221428   4.380   4.046   5.276
 7155TIP3    H121429   4.336   4.030   5.193
 7155TIP3    H221430   4.446   4.113   5.256
 7156TIP3   OH221431   3.144   1.847   4.707
 7156TIP3    H121432   3.135   1.893   4.791
 7156TIP3    H221433   3.059   1.805   4.694
 7157TIP3   OH221434   4.586   6.444   2.794
 7157TIP3    H121435   4.624   6.363   2.759
 7157TIP3    H221436   4.657   6.482   2.846
 7158TIP3   OH221437   0.232   2.795   4.431
 7158TIP3    H121438   0.219   2.808   4.525
 7158TIP3    H221439   0.297   2.724   4.426
 7159TIP3   OH221440   6.565   6.016   1.006
 7159TIP3    H121441   6.480   5.990   1.041
 7159TIP3    H221442   6.614   5.934   1.000
 7160TIP3   OH221443   2.143   6.205   2.524
 7160TIP3    H121444   2.059   6.192   2.568
 7160TIP3    H221445   2.199   6.136   2.559
 7161TIP3   OH221446   4.268   6.073   4.532
 7161TIP3    H121447   4.321   5.996   4.552
 7161TIP3    H221448   4.291   6.136   4.600
 7162TIP3   OH221449   0.883   0.196   3.543
 7162TIP3    H121450   0.814   0.184   3.478
 7162TIP3    H221451   0.943   0.123   3.528
 7163TIP3   OH221452   2.791   2.054   2.828
 7163TIP3    H121453   2.810   1.972   2.781
 7163TIP3    H221454   2.876   2.080   2.864
 7164TIP3   OH221455   5.752   2.835   2.018
 7164TIP3    H121456   5.703   2.758   2.047
 7164TIP3    H221457   5.841   2.802   2.001
 7165TIP3   OH221458   2.055   3.185   1.634
 7165TIP3    H121459   2.050   3.115   1.568
 7165TIP3    H221460   2.144   3.219   1.626
 7166TIP3   OH221461   0.668   2.522   4.615
 7166TIP3    H121462   0.676   2.483   4.527
 7166TIP3    H221463   0.671   2.448   4.674
 7167TIP3   OH221464   1.465   5.947   5.666
 7167TIP3    H121465   1.374   5.975   5.653
 7167TIP3    H221466   1.477   5.875   5.603
 7168TIP3   OH221467   2.267   0.630   0.790
 7168TIP3    H121468   2.347   0.636   0.841
 7168TIP3    H221469   2.199   0.666   0.847
 7169TIP3   OH221470   0.075   1.616   0.408
 7169TIP3    H121471   0.074   1.666   0.490
 7169TIP3    H221472   0.083   1.682   0.339
 7170TIP3   OH221473   1.401   5.598   4.793
 7170TIP3    H121474   1.318   5.575   4.835
 7170TIP3    H221475   1.421   5.524   4.736
 7171TIP3   OH221476   0.269   4.713   4.594
 7171TIP3    H121477   0.233   4.705   4.682
 7171TIP3    H221478   0.239   4.634   4.548
 7172TIP3   OH221479   5.330   2.279   3.740
 7172TIP3    H121480   5.258   2.216   3.736
 7172TIP3    H221481   5.328   2.312   3.830
 7173TIP3   OH221482   4.298   6.399   4.701
 7173TIP3    H121483   4.205   6.414   4.684
 7173TIP3    H221484   4.329   6.350   4.624
 7174TIP3   OH221485   6.468   0.511   5.259
 7174TIP3    H121486   6.436   0.480   5.174
 7174TIP3    H221487   6.458   0.435   5.317
 7175TIP3   OH221488   2.977   5.390   4.652
 7175TIP3    H121489   3.068   5.409   4.629
 7175TIP3    H221490   2.928   5.410   4.572
 7176TIP3   OH221491   1.043   5.960   2.769
 7176TIP3    H121492   0.996   5.957   2.686
 7176TIP3    H221493   1.128   5.999   2.748
 7177TIP3   OH221494   0.179   3.857   3.546
 7177TIP3    H121495   0.240   3.788   3.520
 7177TIP3    H221496   0.206   3.881   3.634
 7178TIP3   OH221497   2.404   6.658   2.719
 7178TIP3    H121498   2.371   6.591   2.658
 7178TIP3    H221499   2.376   6.627   2.805
 7179TIP3   OH221500   3.672   6.020   5.472
 7179TIP3    H121501   3.642   5.972   5.395
 7179TIP3    H221502   3.710   5.953   5.529
 7180TIP3   OH221503   0.454   1.366   0.126
 7180TIP3    H121504   0.402   1.445   0.134
 7180TIP3    H221505   0.450   1.342   0.034
 7181TIP3   OH221506   1.664   0.313   2.248
 7181TIP3    H121507   1.726   0.383   2.268
 7181TIP3    H221508   1.655   0.265   2.330
 7182TIP3   OH221509   2.806   5.001   4.478
 7182TIP3    H121510   2.861   4.924   4.462
 7182TIP3    H221511   2.835   5.065   4.414
 7183TIP3   OH221512   1.581   2.331   5.135
 7183TIP3    H121513   1.491   2.301   5.146
 7183TIP3    H221514   1.634   2.255   5.157
 7184TIP3   OH221515   4.790   3.062   0.603
 7184TIP3    H121516   4.868   3.106   0.570
 7184TIP3    H221517   4.722   3.130   0.604
 7185TIP3   OH221518   4.187   2.936   2.444
 7185TIP3    H121519   4.254   3.005   2.441
 7185TIP3    H221520   4.168   2.918   2.352
 7186TIP3   OH221521   2.954   3.870   1.660
 7186TIP3    H121522   2.913   3.783   1.660
 7186TIP3    H221523   3.032   3.860   1.606
 7187TIP3   OH221524   5.314   0.766   1.445
 7187TIP3    H121525   5.330   0.856   1.474
 7187TIP3    H221526   5.343   0.711   1.518
 7188TIP3   OH221527   5.160   4.395   0.470
 7188TIP3    H121528   5.242   4.401   0.421
 7188TIP3    H221529   5.188   4.373   0.559
 7189TIP3   OH221530   4.177   6.218   3.772
 7189TIP3    H121531   4.147   6.309   3.777
 7189TIP3    H221532   4.186   6.191   3.863
 7190TIP3   OH221533   1.352   2.143   3.107
 7190TIP3    H121534   1.299   2.198   3.165
 7190TIP3    H221535   1.322   2.054   3.125
 7191TIP3   OH221536   3.955   3.794   4.881
 7191TIP3    H121537   3.995   3.741   4.949
 7191TIP3    H221538   4.009   3.779   4.803
 7192TIP3   OH221539   3.586   4.150   4.043
 7192TIP3    H121540   3.568   4.057   4.057
 7192TIP3    H221541   3.669   4.152   3.996
 7193TIP3   OH221542   2.252   6.501   2.058
 7193TIP3    H121543   2.214   6.521   1.972
 7193TIP3    H221544   2.248   6.405   2.064
 7194TIP3   OH221545   5.831   4.153   5.620
 7194TIP3    H121546   5.771   4.225   5.641
 7194TIP3    H221547   5.777   4.091   5.572
 7195TIP3   OH221548   5.894   1.521   2.063
 7195TIP3    H121549   5.975   1.506   2.111
 7195TIP3    H221550   5.861   1.434   2.042
 7196TIP3   OH221551   6.164   5.407   1.844
 7196TIP3    H121552   6.220   5.397   1.767
 7196TIP3    H221553   6.223   5.400   1.919
 7197TIP3   OH221554   0.227   6.489   3.722
 7197TIP3    H121555   0.212   6.410   3.774
 7197TIP3    H221556   0.261   6.553   3.785
 7198TIP3   OH221557   2.205   4.966   0.177
 7198TIP3    H121558   2.185   5.054   0.146
 7198TIP3    H221559   2.243   4.921   0.102
 7199TIP3   OH221560   7.237   1.456   4.329
 7199TIP3    H121561   7.279   1.376   4.297
 7199TIP3    H221562   7.149   1.427   4.355
 7200TIP3   OH221563   3.696   6.280   3.932
 7200TIP3    H121564   3.612   6.326   3.925
 7200TIP3    H221565   3.719   6.284   4.024
 7201TIP3   OH221566   6.634   5.144   5.356
 7201TIP3    H121567   6.554   5.109   5.317
 7201TIP3    H221568   6.697   5.148   5.284
 7202TIP3   OH221569   6.180   6.654   0.931
 7202TIP3    H121570   6.109   6.718   0.926
 7202TIP3    H221571   6.199   6.647   1.025
 7203TIP3   OH221572   2.126   5.867   2.958
 7203TIP3    H121573   2.203   5.910   2.994
 7203TIP3    H221574   2.160   5.792   2.909
 7204TIP3   OH221575   0.036   0.496   5.660
 7204TIP3    H121576  -0.012   0.578   5.654
 7204TIP3    H221577  -0.031   0.429   5.670
 7205TIP3   OH221578   7.088   5.552   0.817
 7205TIP3    H121579   7.167   5.508   0.786
 7205TIP3    H221580   7.120   5.628   0.866
 7206TIP3   OH221581   5.123   6.026   3.443
 7206TIP3    H121582   5.156   5.994   3.526
 7206TIP3    H221583   5.103   6.119   3.459
 7207TIP3   OH221584   5.099   2.841   3.057
 7207TIP3    H121585   5.190   2.865   3.072
 7207TIP3    H221586   5.060   2.919   3.017
 7208TIP3   OH221587   5.719   1.564   3.818
 7208TIP3    H121588   5.789   1.624   3.845
 7208TIP3    H221589   5.728   1.488   3.875
 7209TIP3   OH221590   2.974   4.624   5.079
 7209TIP3    H121591   3.038   4.669   5.135
 7209TIP3    H221592   2.914   4.581   5.140
 7210TIP3   OH221593   5.726   2.851   2.448
 7210TIP3    H121594   5.636   2.875   2.428
 7210TIP3    H221595   5.736   2.762   2.414
 7211TIP3   OH221596   5.895   1.955   3.307
 7211TIP3    H121597   5.845   1.874   3.301
 7211TIP3    H221598   5.890   1.980   3.400
 7212TIP3   OH221599   3.004   1.170   4.004
 7212TIP3    H121600   2.957   1.254   4.000
 7212TIP3    H221601   2.977   1.131   4.087
 7213TIP3   OH221602   1.860   3.211   2.247
 7213TIP3    H121603   1.890   3.301   2.260
 7213TIP3    H221604   1.773   3.220   2.208
 7214TIP3   OH221605   2.628   0.507   1.804
 7214TIP3    H121606   2.637   0.418   1.772
 7214TIP3    H221607   2.634   0.499   1.899
 7215TIP3   OH221608   2.327   4.228   2.659
 7215TIP3    H121609   2.307   4.196   2.571
 7215TIP3    H221610   2.371   4.312   2.645
 7216TIP3   OH221611   0.931   1.010   0.006
 7216TIP3    H121612   0.931   0.917   0.030
 7216TIP3    H221613   0.950   1.011  -0.087
 7217TIP3   OH221614   3.957   1.439   2.908
 7217TIP3    H121615   3.879   1.385   2.917
 7217TIP3    H221616   3.951   1.501   2.981
 7218TIP3   OH221617   2.892   4.015   4.253
 7218TIP3    H121618   2.964   4.076   4.271
 7218TIP3    H221619   2.873   4.027   4.160
 7219TIP3   OH221620   5.460   5.457   2.437
 7219TIP3    H121621   5.462   5.496   2.350
 7219TIP3    H221622   5.401   5.513   2.488
 7220TIP3   OH221623   1.269   1.460   3.555
 7220TIP3    H121624   1.241   1.444   3.465
 7220TIP3    H221625   1.240   1.383   3.604
 7221TIP3   OH221626   6.590   1.451   4.684
 7221TIP3    H121627   6.568   1.374   4.632
 7221TIP3    H221628   6.553   1.524   4.636
 7222TIP3   OH221629   6.049   3.167   2.636
 7222TIP3    H121630   6.039   3.073   2.652
 7222TIP3    H221631   5.962   3.196   2.610
 7223TIP3   OH221632   6.933   0.054   4.599
 7223TIP3    H121633   6.967   0.003   4.525
 7223TIP3    H221634   6.861   0.001   4.632
 7224TIP3   OH221635   7.056   1.089   0.636
 7224TIP3    H121636   7.118   1.017   0.645
 7224TIP3    H221637   7.054   1.130   0.723
 7225TIP3   OH221638   1.991   1.855   3.141
 7225TIP3    H121639   2.057   1.911   3.181
 7225TIP3    H221640   1.964   1.901   3.061
 7226TIP3   OH221641   0.446   6.538   0.844
 7226TIP3    H121642   0.397   6.616   0.870
 7226TIP3    H221643   0.442   6.539   0.748
 7227TIP3   OH221644   4.124   4.633   0.337
 7227TIP3    H121645   4.083   4.648   0.252
 7227TIP3    H221646   4.216   4.657   0.323
 7228TIP3   OH221647   0.288   3.866   2.400
 7228TIP3    H121648   0.301   3.930   2.471
 7228TIP3    H221649   0.298   3.781   2.443
 7229TIP3   OH221650   2.201   1.601   0.976
 7229TIP3    H121651   2.153   1.552   1.044
 7229TIP3    H221652   2.292   1.600   1.005
 7230TIP3   OH221653   4.869   2.590   4.181
 7230TIP3    H121654   4.824   2.521   4.230
 7230TIP3    H221655   4.913   2.545   4.110
 7231TIP3   OH221656   6.552   1.698   4.520
 7231TIP3    H121657   6.504   1.737   4.593
 7231TIP3    H221658   6.622   1.760   4.502
 7232TIP3   OH221659   3.070   3.626   3.626
 7232TIP3    H121660   3.088   3.713   3.661
 7232TIP3    H221661   3.111   3.626   3.540
 7233TIP3   OH221662   4.022   1.050   4.771
 7233TIP3    H121663   3.988   0.975   4.821
 7233TIP3    H221664   4.108   1.067   4.810
 7234TIP3   OH221665   0.631   4.428   5.226
 7234TIP3    H121666   0.581   4.505   5.250
 7234TIP3    H221667   0.654   4.441   5.134
 7235TIP3   OH221668   4.533   3.568   3.000
 7235TIP3    H121669   4.512   3.507   3.070
 7235TIP3    H221670   4.553   3.650   3.046
 7236TIP3   OH221671   1.699   6.205   5.341
 7236TIP3    H121672   1.774   6.260   5.318
 7236TIP3    H221673   1.665   6.244   5.422
 7237TIP3   OH221674   0.500   5.994   0.864
 7237TIP3    H121675   0.447   6.054   0.916
 7237TIP3    H221676   0.459   5.994   0.777
 7238TIP3   OH221677   3.070   6.453   1.671
 7238TIP3    H121678   3.117   6.451   1.588
 7238TIP3    H221679   2.996   6.513   1.655
 7239TIP3   OH221680   6.359   5.834   1.532
 7239TIP3    H121681   6.394   5.781   1.460
 7239TIP3    H221682   6.329   5.915   1.491
 7240TIP3   OH221683   5.243   4.252   5.403
 7240TIP3    H121684   5.290   4.238   5.321
 7240TIP3    H221685   5.184   4.177   5.410
 7241TIP3   OH221686   6.918   5.716   4.241
 7241TIP3    H121687   6.942   5.748   4.154
 7241TIP3    H221688   7.000   5.721   4.291
 7242TIP3   OH221689   0.003   5.215   0.961
 7242TIP3    H121690   0.019   5.240   1.052
 7242TIP3    H221691   0.088   5.185   0.929
 7243TIP3   OH221692   6.732   3.720   5.784
 7243TIP3    H121693   6.751   3.627   5.798
 7243TIP3    H221694   6.644   3.720   5.746
 7244TIP3   OH221695   4.134   5.469   1.146
 7244TIP3    H121696   4.202   5.493   1.209
 7244TIP3    H221697   4.176   5.404   1.089
 7245TIP3   OH221698   5.294   3.846   3.602
 7245TIP3    H121699   5.263   3.775   3.545
 7245TIP3    H221700   5.215   3.895   3.625
 7246TIP3   OH221701   5.553   6.689   0.289
 7246TIP3    H121702   5.542   6.604   0.247
 7246TIP3    H221703   5.647   6.704   0.287
 7247TIP3   OH221704   6.043   6.170   2.343
 7247TIP3    H121705   5.996   6.097   2.385
 7247TIP3    H221706   6.041   6.240   2.408
 7248TIP3   OH221707   6.043   2.608   0.649
 7248TIP3    H121708   5.965   2.656   0.675
 7248TIP3    H221709   6.068   2.646   0.565
 7249TIP3   OH221710   6.155   4.465   5.082
 7249TIP3    H121711   6.082   4.484   5.140
 7249TIP3    H221712   6.115   4.422   5.007
 7250TIP3   OH221713   3.201   6.144   0.930
 7250TIP3    H121714   3.188   6.083   1.002
 7250TIP3    H221715   3.295   6.159   0.927
 7251TIP3   OH221716   2.322   4.288   0.409
 7251TIP3    H121717   2.267   4.363   0.433
 7251TIP3    H221718   2.328   4.236   0.488
 7252TIP3   OH221719   0.757   1.166   5.462
 7252TIP3    H121720   0.830   1.185   5.520
 7252TIP3    H221721   0.727   1.252   5.432
 7253TIP3   OH221722   2.370   2.622   3.622
 7253TIP3    H121723   2.358   2.676   3.544
 7253TIP3    H221724   2.290   2.571   3.629
 7254TIP3   OH221725   3.033   3.685   1.961
 7254TIP3    H121726   2.950   3.637   1.954
 7254TIP3    H221727   3.029   3.726   2.047
 7255TIP3   OH221728   4.122   0.626   5.372
 7255TIP3    H121729   4.071   0.549   5.347
 7255TIP3    H221730   4.057   0.691   5.396
 7256TIP3   OH221731   7.154   6.735   0.431
 7256TIP3    H121732   7.077   6.678   0.435
 7256TIP3    H221733   7.181   6.745   0.523
 7257TIP3   OH221734   4.119   4.062   0.802
 7257TIP3    H121735   4.052   4.123   0.772
 7257TIP3    H221736   4.202   4.100   0.774
 7258TIP3   OH221737   3.307   0.887   0.958
 7258TIP3    H121738   3.281   0.863   0.869
 7258TIP3    H221739   3.302   0.983   0.959
 7259TIP3   OH221740   5.708   1.229   5.449
 7259TIP3    H121741   5.779   1.286   5.478
 7259TIP3    H221742   5.645   1.230   5.521
 7260TIP3   OH221743   1.645   3.504   2.739
 7260TIP3    H121744   1.663   3.418   2.701
 7260TIP3    H221745   1.726   3.553   2.728
 7261TIP3   OH221746   2.197   3.792   2.405
 7261TIP3    H121747   2.215   3.834   2.321
 7261TIP3    H221748   2.280   3.793   2.451
 7262TIP3   OH221749   1.571   4.352   4.161
 7262TIP3    H121750   1.593   4.418   4.095
 7262TIP3    H221751   1.571   4.269   4.113
 7263TIP3   OH221752   3.175   5.004   3.687
 7263TIP3    H121753   3.105   5.025   3.626
 7263TIP3    H221754   3.143   5.035   3.772
 7264TIP3   OH221755   0.519   3.220   1.944
 7264TIP3    H121756   0.466   3.287   1.901
 7264TIP3    H221757   0.473   3.138   1.924
 7265TIP3   OH221758   6.207   2.097   2.173
 7265TIP3    H121759   6.190   2.100   2.268
 7265TIP3    H221760   6.120   2.100   2.134
 7266TIP3   OH221761   5.234   2.966   5.565
 7266TIP3    H121762   5.179   2.904   5.518
 7266TIP3    H221763   5.176   3.041   5.583
 7267TIP3   OH221764   1.402   3.649   0.090
 7267TIP3    H121765   1.350   3.728   0.104
 7267TIP3    H221766   1.452   3.638   0.170
 7268TIP3   OH221767   2.732   0.405   3.930
 7268TIP3    H121768   2.666   0.352   3.885
 7268TIP3    H221769   2.736   0.486   3.880
 7269TIP3   OH221770   5.083   2.052   4.452
 7269TIP3    H121771   5.044   2.063   4.365
 7269TIP3    H221772   5.053   1.967   4.482
 7270TIP3   OH221773   3.339   3.281   1.388
 7270TIP3    H121774   3.287   3.352   1.426
 7270TIP3    H221775   3.281   3.241   1.323
 7271TIP3   OH221776   7.071   6.347   0.168
 7271TIP3    H121777   6.991   6.344   0.221
 7271TIP3    H221778   7.142   6.334   0.230
 7272TIP3   OH221779   3.184   4.034   5.035
 7272TIP3    H121780   3.099   4.065   5.068
 7272TIP3    H221781   3.204   4.094   4.963
 7273TIP3   OH221782   3.689   2.942   3.451
 7273TIP3    H121783   3.711   2.935   3.544
 7273TIP3    H221784   3.762   2.991   3.413
 7274TIP3   OH221785   5.643   3.257   1.070
 7274TIP3    H121786   5.572   3.193   1.079
 7274TIP3    H221787   5.715   3.219   1.121
 7275TIP3   OH221788   1.062   6.408   1.498
 7275TIP3    H121789   1.042   6.487   1.448
 7275TIP3    H221790   1.072   6.438   1.588
 7276TIP3   OH221791   1.855   5.090   4.962
 7276TIP3    H121792   1.821   5.000   4.956
 7276TIP3    H221793   1.783   5.140   5.000
 7277TIP3   OH221794   0.478   6.205   3.171
 7277TIP3    H121795   0.562   6.164   3.188
 7277TIP3    H221796   0.495   6.299   3.173
 7278TIP3   OH221797   0.389   4.879   5.569
 7278TIP3    H121798   0.336   4.804   5.597
 7278TIP3    H221799   0.467   4.839   5.531
 7279TIP3   OH221800   4.428   0.564   1.888
 7279TIP3    H121801   4.504   0.539   1.836
 7279TIP3    H221802   4.462   0.568   1.978
 7280TIP3   OH221803   0.725   2.677   1.381
 7280TIP3    H121804   0.669   2.739   1.428
 7280TIP3    H221805   0.725   2.708   1.290
 7281TIP3   OH221806   0.432   0.971   2.195
 7281TIP3    H121807   0.391   0.940   2.275
 7281TIP3    H221808   0.389   0.922   2.125
 7282TIP3   OH221809   4.548   3.851   4.374
 7282TIP3    H121810   4.592   3.934   4.389
 7282TIP3    H221811   4.590   3.816   4.296
 7283TIP3   OH221812   2.505   4.953   0.384
 7283TIP3    H121813   2.510   4.877   0.326
 7283TIP3    H221814   2.420   4.945   0.426
 7284TIP3   OH221815   3.607   4.014   4.802
 7284TIP3    H121816   3.669   4.069   4.753
 7284TIP3    H221817   3.582   3.945   4.741
 7285TIP3   OH221818   1.485   4.304   5.057
 7285TIP3    H121819   1.414   4.270   5.003
 7285TIP3    H221820   1.510   4.387   5.016
 7286TIP3   OH221821   2.963   3.945   3.878
 7286TIP3    H121822   2.977   4.040   3.878
 7286TIP3    H221823   3.049   3.908   3.900
 7287TIP3   OH221824   2.114   2.778   0.273
 7287TIP3    H121825   2.155   2.864   0.269
 7287TIP3    H221826   2.101   2.753   0.181
 7288TIP3   OH221827   4.054   5.605   2.775
 7288TIP3    H121828   4.096   5.535   2.725
 7288TIP3    H221829   4.095   5.685   2.743
 7289TIP3   OH221830   4.607   2.842   4.329
 7289TIP3    H121831   4.582   2.929   4.361
 7289TIP3    H221832   4.562   2.781   4.387
 7290TIP3   OH221833   6.989   4.370   0.713
 7290TIP3    H121834   7.008   4.462   0.735
 7290TIP3    H221835   6.996   4.324   0.797
 7291TIP3   OH221836   0.917   4.731   1.102
 7291TIP3    H121837   0.958   4.649   1.128
 7291TIP3    H221838   0.891   4.772   1.184
 7292TIP3   OH221839   2.253   5.957   2.076
 7292TIP3    H121840   2.289   5.932   1.991
 7292TIP3    H221841   2.164   5.922   2.075
 7293TIP3   OH221842   3.627   1.706   1.793
 7293TIP3    H121843   3.547   1.677   1.837
 7293TIP3    H221844   3.622   1.802   1.793
 7294TIP3   OH221845   2.083   5.228   3.495
 7294TIP3    H121846   2.017   5.183   3.442
 7294TIP3    H221847   2.138   5.157   3.528
 7295TIP3   OH221848   3.645   5.750   2.003
 7295TIP3    H121849   3.702   5.737   2.078
 7295TIP3    H221850   3.566   5.791   2.040
 7296TIP3   OH221851   1.013   2.738   1.274
 7296TIP3    H121852   0.940   2.767   1.328
 7296TIP3    H221853   1.075   2.812   1.276
 7297TIP3   OH221854   6.465   1.439   2.111
 7297TIP3    H121855   6.400   1.368   2.113
 7297TIP3    H221856   6.439   1.493   2.036
 7298TIP3   OH221857   3.813   2.949   3.733
 7298TIP3    H121858   3.792   2.950   3.826
 7298TIP3    H221859   3.807   3.040   3.706
 7299TIP3   OH221860   0.129   4.689   5.428
 7299TIP3    H121861   0.090   4.775   5.442
 7299TIP3    H221862   0.056   4.634   5.401
 7300TIP3   OH221863   0.187   1.972   4.191
 7300TIP3    H121864   0.170   1.878   4.194
 7300TIP3    H221865   0.281   1.979   4.176
 7301TIP3   OH221866   1.501   2.790   0.662
 7301TIP3    H121867   1.461   2.875   0.680
 7301TIP3    H221868   1.457   2.758   0.584
 7302TIP3   OH221869   6.734   3.594   3.449
 7302TIP3    H121870   6.802   3.532   3.423
 7302TIP3    H221871   6.777   3.654   3.509
 7303TIP3   OH221872   2.845   0.538   0.625
 7303TIP3    H121873   2.912   0.479   0.591
 7303TIP3    H221874   2.855   0.618   0.574
 7304TIP3   OH221875   5.246   0.153   5.499
 7304TIP3    H121876   5.168   0.111   5.464
 7304TIP3    H221877   5.313   0.084   5.498
 7305TIP3   OH221878   0.917   5.605   3.534
 7305TIP3    H121879   0.962   5.524   3.557
 7305TIP3    H221880   0.874   5.632   3.615
 7306TIP3   OH221881   2.398   1.347   0.907
 7306TIP3    H121882   2.303   1.354   0.916
 7306TIP3    H221883   2.431   1.434   0.929
 7307TIP3   OH221884   3.724   0.155   4.562
 7307TIP3    H121885   3.677   0.128   4.483
 7307TIP3    H221886   3.712   0.082   4.623
 7308TIP3   OH221887   1.502   1.407   3.731
 7308TIP3    H121888   1.494   1.320   3.770
 7308TIP3    H221889   1.414   1.428   3.700
 7309TIP3   OH221890   3.631   4.494   5.664
 7309TIP3    H121891   3.539   4.478   5.684
 7309TIP3    H221892   3.647   4.442   5.585
 7310TIP3   OH221893   3.502   6.612   2.014
 7310TIP3    H121894   3.580   6.621   1.959
 7310TIP3    H221895   3.507   6.686   2.075
 7311TIP3   OH221896   0.684   2.811   1.133
 7311TIP3    H121897   0.602   2.859   1.143
 7311TIP3    H221898   0.744   2.875   1.093
 7312TIP3   OH221899   2.543   3.119   2.921
 7312TIP3    H121900   2.610   3.094   2.985
 7312TIP3    H221901   2.580   3.092   2.837
 7313TIP3   OH221902   0.074   6.614   4.720
 7313TIP3    H121903   0.138   6.578   4.782
 7313TIP3    H221904   0.081   6.558   4.643
 7314TIP3   OH221905   1.756   1.304   0.103
 7314TIP3    H121906   1.716   1.390   0.118
 7314TIP3    H221907   1.747   1.290   0.009
 7315TIP3   OH221908   2.458   2.656   4.260
 7315TIP3    H121909   2.548   2.689   4.261
 7315TIP3    H221910   2.404   2.734   4.247
 7316TIP3   OH221911   2.670   0.870   4.821
 7316TIP3    H121912   2.619   0.940   4.862
 7316TIP3    H221913   2.668   0.798   4.885
 7317TIP3   OH221914   4.890   0.549   5.875
 7317TIP3    H121915   4.896   0.642   5.896
 7317TIP3    H221916   4.822   0.515   5.933
 7318TIP3   OH221917   5.550   2.102   0.559
 7318TIP3    H121918   5.483   2.035   0.547
 7318TIP3    H221919   5.584   2.118   0.471
 7319TIP3   OH221920   0.342   4.445   5.873
 7319TIP3    H121921   0.389   4.430   5.791
 7319TIP3    H221922   0.313   4.358   5.899
 7320TIP3   OH221923   6.173   4.518   3.386
 7320TIP3    H121924   6.249   4.459   3.386
 7320TIP3    H221925   6.186   4.573   3.309
 7321TIP3   OH221926   3.482   3.163   2.634
 7321TIP3    H121927   3.404   3.142   2.583
 7321TIP3    H221928   3.554   3.124   2.585
 7322TIP3   OH221929   6.036   0.739   0.452
 7322TIP3    H121930   5.983   0.666   0.485
 7322TIP3    H221931   5.999   0.816   0.494
 7323TIP3   OH221932   4.287   5.796   3.487
 7323TIP3    H121933   4.358   5.735   3.471
 7323TIP3    H221934   4.275   5.841   3.403
 7324TIP3   OH221935   5.337   6.468   2.939
 7324TIP3    H121936   5.372   6.446   3.025
 7324TIP3    H221937   5.374   6.403   2.880
 7325TIP3   OH221938   5.174   5.595   4.332
 7325TIP3    H121939   5.092   5.554   4.306
 7325TIP3    H221940   5.163   5.614   4.425
 7326TIP3   OH221941   4.210   5.180   5.535
 7326TIP3    H121942   4.192   5.128   5.613
 7326TIP3    H221943   4.254   5.119   5.475
 7327TIP3   OH221944   4.539   0.798   0.756
 7327TIP3    H121945   4.464   0.799   0.816
 7327TIP3    H221946   4.519   0.728   0.694
 7328TIP3   OH221947   4.313   2.252   0.572
 7328TIP3    H121948   4.340   2.299   0.493
 7328TIP3    H221949   4.342   2.162   0.557
 7329TIP3   OH221950   1.648   2.997   2.156
 7329TIP3    H121951   1.568   3.028   2.198
 7329TIP3    H221952   1.644   2.901   2.165
 7330TIP3   OH221953   0.753   1.341   2.826
 7330TIP3    H121954   0.814   1.402   2.868
 7330TIP3    H221955   0.783   1.254   2.852
 7331TIP3   OH221956   1.234   5.834   1.294
 7331TIP3    H121957   1.227   5.740   1.279
 7331TIP3    H221958   1.255   5.842   1.387
 7332TIP3   OH221959   1.752   0.085   0.261
 7332TIP3    H121960   1.744   0.173   0.224
 7332TIP3    H221961   1.725   0.094   0.352
 7333TIP3   OH221962   1.909   2.856   0.760
 7333TIP3    H121963   1.940   2.927   0.704
 7333TIP3    H221964   1.986   2.802   0.775
 7334TIP3   OH221965   4.564   1.795   1.820
 7334TIP3    H121966   4.621   1.851   1.874
 7334TIP3    H221967   4.543   1.850   1.745
 7335TIP3   OH221968   5.736   0.512   0.248
 7335TIP3    H121969   5.775   0.425   0.248
 7335TIP3    H221970   5.754   0.547   0.335
 7336TIP3   OH221971   2.818   5.630   1.158
 7336TIP3    H121972   2.725   5.653   1.159
 7336TIP3    H221973   2.826   5.569   1.085
 7337TIP3   OH221974   0.222   0.575   3.144
 7337TIP3    H121975   0.212   0.572   3.049
 7337TIP3    H221976   0.233   0.484   3.170
 7338TIP3   OH221977   1.339   0.223   1.970
 7338TIP3    H121978   1.395   0.173   2.030
 7338TIP3    H221979   1.350   0.179   1.886
 7339TIP3   OH221980   5.007   3.804   5.709
 7339TIP3    H121981   4.959   3.820   5.791
 7339TIP3    H221982   5.070   3.735   5.731
 7340TIP3   OH221983   6.577   1.226   0.125
 7340TIP3    H121984   6.493   1.271   0.131
 7340TIP3    H221985   6.637   1.291   0.090
 7341TIP3   OH221986   5.588   3.700   3.322
 7341TIP3    H121987   5.608   3.682   3.414
 7341TIP3    H221988   5.495   3.680   3.314
 7342TIP3   OH221989   5.857   6.199   2.124
 7342TIP3    H121990   5.925   6.214   2.189
 7342TIP3    H221991   5.886   6.121   2.076
 7343TIP3   OH221992   1.231   2.847   0.714
 7343TIP3    H121993   1.198   2.758   0.729
 7343TIP3    H221994   1.162   2.890   0.665
 7344TIP3   OH221995   0.513   0.283   2.240
 7344TIP3    H121996   0.455   0.275   2.164
 7344TIP3    H221997   0.564   0.202   2.239
 7345TIP3   OH221998   1.655   5.101   3.815
 7345TIP3    H121999   1.750   5.098   3.813
 7345TIP3    H222000   1.634   5.176   3.870
 7346TIP3   OH222001   0.831   1.537   1.796
 7346TIP3    H122002   0.811   1.507   1.885
 7346TIP3    H222003   0.770   1.488   1.741
 7347TIP3   OH222004   0.768   3.132   0.745
 7347TIP3    H122005   0.733   3.213   0.784
 7347TIP3    H222006   0.692   3.076   0.732
 7348TIP3   OH222007   2.951   5.277   2.414
 7348TIP3    H122008   2.957   5.185   2.439
 7348TIP3    H222009   2.880   5.312   2.468
 7349TIP3   OH222010   2.369   1.499   3.540
 7349TIP3    H122011   2.455   1.510   3.499
 7349TIP3    H222012   2.339   1.413   3.512
 7350TIP3   OH222013   3.190   2.779   1.275
 7350TIP3    H122014   3.174   2.873   1.278
 7350TIP3    H222015   3.120   2.745   1.220
 7351TIP3   OH222016   1.518   0.836   3.629
 7351TIP3    H122017   1.438   0.808   3.673
 7351TIP3    H222018   1.511   0.799   3.541
 7352TIP3   OH222019   1.664   5.249   1.647
 7352TIP3    H122020   1.597   5.279   1.585
 7352TIP3    H222021   1.746   5.253   1.597
 7353TIP3   OH222022   4.541   4.150   4.149
 7353TIP3    H122023   4.572   4.135   4.238
 7353TIP3    H222024   4.620   4.150   4.095
 7354TIP3   OH222025   5.930   0.514   3.318
 7354TIP3    H122026   5.920   0.604   3.286
 7354TIP3    H222027   6.019   0.510   3.353
 7355TIP3   OH222028   4.658   3.572   0.243
 7355TIP3    H122029   4.734   3.618   0.279
 7355TIP3    H222030   4.591   3.639   0.234
 7356TIP3   OH222031   0.940   3.781   5.591
 7356TIP3    H122032   1.021   3.819   5.626
 7356TIP3    H222033   0.930   3.822   5.505
 7357TIP3   OH222034   5.817   2.179   5.129
 7357TIP3    H122035   5.768   2.149   5.206
 7357TIP3    H222036   5.752   2.224   5.076
 7358TIP3   OH222037   6.728   6.709   1.601
 7358TIP3    H122038   6.640   6.675   1.584
 7358TIP3    H222039   6.772   6.709   1.516
 7359TIP3   OH222040   6.100   1.060   3.265
 7359TIP3    H122041   6.069   1.054   3.175
 7359TIP3    H222042   6.194   1.044   3.260
 7360TIP3   OH222043   6.101   6.459   0.519
 7360TIP3    H122044   6.047   6.458   0.440
 7360TIP3    H222045   6.172   6.398   0.500
 7361TIP3   OH222046   1.764   5.436   5.447
 7361TIP3    H122047   1.715   5.357   5.470
 7361TIP3    H222048   1.705   5.486   5.391
 7362TIP3   OH222049   1.557   1.526   1.137
 7362TIP3    H122050   1.621   1.456   1.151
 7362TIP3    H222051   1.594   1.578   1.065
 7363TIP3   OH222052   2.594   5.548   4.959
 7363TIP3    H122053   2.542   5.477   4.921
 7363TIP3    H222054   2.539   5.586   5.026
 7364TIP3   OH222055   4.051   2.676   2.155
 7364TIP3    H122056   4.043   2.764   2.118
 7364TIP3    H222057   4.145   2.658   2.155
 7365TIP3   OH222058   2.250   3.644   4.786
 7365TIP3    H122059   2.300   3.576   4.739
 7365TIP3    H222060   2.216   3.599   4.864
 7366TIP3   OH222061   6.853   4.909   0.216
 7366TIP3    H122062   6.797   4.863   0.278
 7366TIP3    H222063   6.886   4.841   0.158
 7367TIP3   OH222064   1.157   0.881   2.454
 7367TIP3    H122065   1.216   0.813   2.420
 7367TIP3    H222066   1.216   0.951   2.483
 7368TIP3   OH222067   0.377   1.595   5.483
 7368TIP3    H122068   0.441   1.662   5.462
 7368TIP3    H222069   0.292   1.635   5.461
 7369TIP3   OH222070   1.492   0.272   1.591
 7369TIP3    H122071   1.563   0.281   1.654
 7369TIP3    H222072   1.413   0.296   1.641
 7370TIP3   OH222073   1.300   3.767   1.905
 7370TIP3    H122074   1.371   3.763   1.841
 7370TIP3    H222075   1.311   3.688   1.958
 7371TIP3   OH222076   4.680   5.179   1.160
 7371TIP3    H122077   4.621   5.246   1.195
 7371TIP3    H222078   4.748   5.229   1.114
 7372TIP3   OH222079   0.399   6.721   4.344
 7372TIP3    H122080   0.454   6.692   4.271
 7372TIP3    H222081   0.392   6.815   4.334
 7373TIP3   OH222082   4.452   4.125   3.327
 7373TIP3    H122083   4.519   4.193   3.338
 7373TIP3    H222084   4.373   4.174   3.302
 7374TIP3   OH222085   2.360   0.125   0.066
 7374TIP3    H122086   2.274   0.158   0.093
 7374TIP3    H222087   2.413   0.204   0.056
 7375TIP3   OH222088   5.758   2.567   1.857
 7375TIP3    H122089   5.707   2.633   1.811
 7375TIP3    H222090   5.817   2.532   1.790
 7376TIP3   OH222091   5.382   5.633   4.158
 7376TIP3    H122092   5.401   5.701   4.094
 7376TIP3    H222093   5.291   5.650   4.184
 7377TIP3   OH222094   1.276   1.834   0.366
 7377TIP3    H122095   1.259   1.925   0.342
 7377TIP3    H222096   1.369   1.821   0.349
 7378TIP3   OH222097   0.486   6.719   5.189
 7378TIP3    H122098   0.450   6.633   5.168
 7378TIP3    H222099   0.558   6.730   5.127
 7379TIP3   OH222100   1.629   3.527   1.678
 7379TIP3    H122101   1.662   3.438   1.680
 7379TIP3    H222102   1.544   3.521   1.633
 7380TIP3   OH222103   5.690   4.622   0.860
 7380TIP3    H122104   5.599   4.609   0.886
 7380TIP3    H222105   5.709   4.550   0.801
 7381TIP3   OH222106   3.568   4.959   3.816
 7381TIP3    H122107   3.596   4.961   3.907
 7381TIP3    H222108   3.473   4.971   3.819
 7382TIP3   OH222109   3.923   0.682   1.511
 7382TIP3    H122110   4.018   0.693   1.511
 7382TIP3    H222111   3.904   0.638   1.429
 7383TIP3   OH222112   5.758   2.398   0.499
 7383TIP3    H122113   5.742   2.344   0.421
 7383TIP3    H222114   5.704   2.358   0.567
 7384TIP3   OH222115   7.055   4.165   2.054
 7384TIP3    H122116   6.984   4.109   2.085
 7384TIP3    H222117   7.011   4.239   2.011
 7385TIP3   OH222118   3.774   4.072   0.417
 7385TIP3    H122119   3.835   4.027   0.358
 7385TIP3    H222120   3.813   4.158   0.432
 7386TIP3   OH222121   5.701   6.466   0.182
 7386TIP3    H122122   5.682   6.390   0.236
 7386TIP3    H222123   5.777   6.507   0.223
 7387TIP3   OH222124   3.787   5.318   0.374
 7387TIP3    H122125   3.812   5.379   0.443
 7387TIP3    H222126   3.796   5.232   0.415
 7388TIP3   OH222127   2.473   5.595   2.018
 7388TIP3    H122128   2.484   5.522   2.079
 7388TIP3    H222129   2.456   5.554   1.934
 7389TIP3   OH222130   2.774   4.689   1.273
 7389TIP3    H122131   2.798   4.706   1.364
 7389TIP3    H222132   2.814   4.605   1.252
 7390TIP3   OH222133   2.272   1.202   2.773
 7390TIP3    H122134   2.340   1.262   2.742
 7390TIP3    H222135   2.227   1.251   2.842
 7391TIP3   OH222136   5.245   4.890   1.890
 7391TIP3    H122137   5.340   4.897   1.899
 7391TIP3    H222138   5.218   4.834   1.963
 7392TIP3   OH222139   2.386   3.223   5.332
 7392TIP3    H122140   2.409   3.156   5.397
 7392TIP3    H222141   2.432   3.197   5.253
 7393TIP3   OH222142   3.600   1.320   5.027
 7393TIP3    H122143   3.512   1.323   4.991
 7393TIP3    H222144   3.630   1.410   5.025
 7394TIP3   OH222145   6.936   6.187   1.966
 7394TIP3    H122146   6.905   6.138   2.042
 7394TIP3    H222147   6.857   6.198   1.912
 7395TIP3   OH222148   1.967   3.431   3.237
 7395TIP3    H122149   2.002   3.378   3.309
 7395TIP3    H222150   2.021   3.407   3.161
 7396TIP3   OH222151   2.835   5.621   4.850
 7396TIP3    H122152   2.759   5.591   4.899
 7396TIP3    H222153   2.842   5.560   4.777
 7397TIP3   OH222154   0.789   2.997   3.544
 7397TIP3    H122155   0.736   3.024   3.469
 7397TIP3    H222156   0.846   3.072   3.562
 7398TIP3   OH222157   1.396   5.467   2.757
 7398TIP3    H122158   1.451   5.529   2.710
 7398TIP3    H222159   1.408   5.384   2.709
 7399TIP3   OH222160   6.813   3.904   2.680
 7399TIP3    H122161   6.764   3.829   2.714
 7399TIP3    H222162   6.901   3.871   2.667
 7400TIP3   OH222163   6.199   3.161   1.167
 7400TIP3    H122164   6.247   3.221   1.223
 7400TIP3    H222165   6.162   3.217   1.099
 7401TIP3   OH222166   4.023   0.548   3.831
 7401TIP3    H122167   4.112   0.524   3.857
 7401TIP3    H222168   4.008   0.499   3.750
 7402TIP3   OH222169   2.733   1.605   5.256
 7402TIP3    H122170   2.703   1.693   5.279
 7402TIP3    H222171   2.785   1.577   5.330
 7403TIP3   OH222172   0.382   5.858   1.263
 7403TIP3    H122173   0.469   5.870   1.224
 7403TIP3    H222174   0.384   5.768   1.296
 7404TIP3   OH222175   6.493   5.529   4.743
 7404TIP3    H122176   6.498   5.578   4.825
 7404TIP3    H222177   6.456   5.591   4.680
 7405TIP3   OH222178   0.770   6.194   1.721
 7405TIP3    H122179   0.780   6.200   1.626
 7405TIP3    H222180   0.822   6.118   1.746
 7406TIP3   OH222181   3.170   2.879   2.680
 7406TIP3    H122182   3.123   2.920   2.753
 7406TIP3    H222183   3.244   2.835   2.720
 7407TIP3   OH222184   5.977   3.633   5.051
 7407TIP3    H122185   6.016   3.548   5.072
 7407TIP3    H222186   5.894   3.612   5.007
 7408TIP3   OH222187   5.656   1.724   5.758
 7408TIP3    H122188   5.731   1.666   5.747
 7408TIP3    H222189   5.658   1.748   5.851
 7409TIP3   OH222190   1.743   2.904   5.745
 7409TIP3    H122191   1.657   2.937   5.719
 7409TIP3    H222192   1.742   2.812   5.718
 7410TIP3   OH222193   4.800   1.382   0.840
 7410TIP3    H122194   4.859   1.330   0.895
 7410TIP3    H222195   4.727   1.404   0.898
 7411TIP3   OH222196   3.739   2.293   4.864
 7411TIP3    H122197   3.721   2.201   4.886
 7411TIP3    H222198   3.715   2.300   4.772
 7412TIP3   OH222199   3.814   1.747   2.326
 7412TIP3    H122200   3.767   1.816   2.279
 7412TIP3    H222201   3.750   1.677   2.336
 7413TIP3   OH222202   0.646   4.860   0.135
 7413TIP3    H122203   0.576   4.897   0.189
 7413TIP3    H222204   0.651   4.768   0.163
 7414TIP3   OH222205   4.096   5.927   1.292
 7414TIP3    H122206   4.099   5.841   1.252
 7414TIP3    H222207   4.072   5.911   1.383
 7415TIP3   OH222208   5.653   5.276   4.085
 7415TIP3    H122209   5.631   5.202   4.028
 7415TIP3    H222210   5.743   5.259   4.112
 7416TIP3   OH222211   7.025   5.996   1.034
 7416TIP3    H122212   7.052   6.080   1.070
 7416TIP3    H222213   6.962   6.018   0.966
 7417TIP3   OH222214   1.207   2.529   2.703
 7417TIP3    H122215   1.166   2.474   2.636
 7417TIP3    H222216   1.181   2.618   2.679
 7418TIP3   OH222217   4.052   5.322   1.532
 7418TIP3    H122218   4.134   5.357   1.496
 7418TIP3    H222219   4.007   5.399   1.568
 7419TIP3   OH222220   3.145   6.428   0.581
 7419TIP3    H122221   3.175   6.474   0.502
 7419TIP3    H222222   3.135   6.337   0.553
 7420TIP3   OH222223   4.471   2.432   1.535
 7420TIP3    H122224   4.433   2.479   1.461
 7420TIP3    H222225   4.536   2.492   1.571
 7421TIP3   OH222226   4.175   3.761   4.696
 7421TIP3    H122227   4.215   3.678   4.720
 7421TIP3    H222228   4.191   3.770   4.602
 7422TIP3   OH222229   0.123   0.871   0.338
 7422TIP3    H122230   0.130   0.964   0.319
 7422TIP3    H222231   0.049   0.865   0.400
 7423TIP3   OH222232   0.817   1.175   0.488
 7423TIP3    H122233   0.808   1.180   0.584
 7423TIP3    H222234   0.731   1.201   0.455
 7424TIP3   OH222235   0.576   0.313   5.011
 7424TIP3    H122236   0.512   0.288   5.077
 7424TIP3    H222237   0.644   0.361   5.060
 7425TIP3   OH222238   1.218   4.367   2.268
 7425TIP3    H122239   1.148   4.424   2.301
 7425TIP3    H222240   1.174   4.284   2.249
 7426TIP3   OH222241   6.706   1.149   3.770
 7426TIP3    H122242   6.764   1.224   3.752
 7426TIP3    H222243   6.619   1.187   3.778
 7427TIP3   OH222244   2.422   2.888   0.630
 7427TIP3    H122245   2.508   2.927   0.615
 7427TIP3    H222246   2.405   2.836   0.552
 7428TIP3   OH222247   2.083   0.879   0.888
 7428TIP3    H122248   2.158   0.938   0.881
 7428TIP3    H222249   2.007   0.935   0.875
 7429TIP3   OH222250   5.118   6.652   0.637
 7429TIP3    H122251   5.139   6.618   0.724
 7429TIP3    H222252   5.145   6.582   0.577
 7430TIP3   OH222253   0.320   2.983   5.372
 7430TIP3    H122254   0.318   3.054   5.308
 7430TIP3    H222255   0.236   2.989   5.417
 7431TIP3   OH222256   1.929   0.480   3.962
 7431TIP3    H122257   1.951   0.573   3.970
 7431TIP3    H222258   1.840   0.473   3.996
 7432TIP3   OH222259   2.409   1.145   1.791
 7432TIP3    H122260   2.353   1.076   1.757
 7432TIP3    H222261   2.364   1.226   1.768
 7433TIP3   OH222262   6.664   5.499   3.649
 7433TIP3    H122263   6.717   5.497   3.570
 7433TIP3    H222264   6.575   5.480   3.619
 7434TIP3   OH222265   0.949   3.791   3.443
 7434TIP3    H122266   0.900   3.869   3.417
 7434TIP3    H222267   1.023   3.787   3.382
 7435TIP3   OH222268   0.794   2.622   1.944
 7435TIP3    H122269   0.758   2.542   1.982
 7435TIP3    H222270   0.842   2.592   1.867
 7436TIP3   OH222271   7.031   4.258   4.465
 7436TIP3    H122272   7.004   4.259   4.557
 7436TIP3    H222273   7.110   4.204   4.464
 7437TIP3   OH222274   6.571   1.019   2.577
 7437TIP3    H122275   6.638   0.964   2.536
 7437TIP3    H222276   6.534   1.070   2.505
 7438TIP3   OH222277   3.059   3.389   3.186
 7438TIP3    H122278   3.014   3.379   3.271
 7438TIP3    H222279   3.082   3.300   3.161
 7439TIP3   OH222280   4.210   3.728   1.976
 7439TIP3    H122281   4.264   3.805   1.958
 7439TIP3    H222282   4.159   3.752   2.053
 7440TIP3   OH222283   5.820   1.949   3.601
 7440TIP3    H122284   5.860   1.893   3.668
 7440TIP3    H222285   5.726   1.937   3.613
 7441TIP3   OH222286   0.351   6.735   3.293
 7441TIP3    H122287   0.258   6.725   3.310
 7441TIP3    H222288   0.392   6.731   3.379
 7442TIP3   OH222289   2.891   1.406   0.420
 7442TIP3    H122290   2.859   1.488   0.381
 7442TIP3    H222291   2.868   1.339   0.356
 7443TIP3   OH222292   4.955   3.848   1.333
 7443TIP3    H122293   4.922   3.762   1.360
 7443TIP3    H222294   4.881   3.907   1.343
 7444TIP3   OH222295   2.203   2.924   2.308
 7444TIP3    H122296   2.113   2.953   2.323
 7444TIP3    H222297   2.219   2.860   2.377
 7445TIP3   OH222298   0.784   6.456   4.128
 7445TIP3    H122299   0.830   6.381   4.090
 7445TIP3    H222300   0.850   6.525   4.133
 7446TIP3   OH222301   4.272   0.758   4.019
 7446TIP3    H122302   4.209   0.802   3.962
 7446TIP3    H222303   4.305   0.827   4.077
 7447TIP3   OH222304   2.581   1.230   2.583
 7447TIP3    H122305   2.536   1.147   2.564
 7447TIP3    H222306   2.510   1.293   2.598
 7448TIP3   OH222307   5.856   5.063   1.031
 7448TIP3    H122308   5.809   4.995   1.078
 7448TIP3    H222309   5.928   5.016   0.988
 7449TIP3   OH222310   5.120   1.660   5.100
 7449TIP3    H122311   5.121   1.628   5.191
 7449TIP3    H222312   5.101   1.582   5.048
 7450TIP3   OH222313   0.777   0.173   3.789
 7450TIP3    H122314   0.822   0.154   3.707
 7450TIP3    H222315   0.844   0.164   3.856
 7451TIP3   OH222316   0.348   0.893   1.639
 7451TIP3    H122317   0.280   0.894   1.706
 7451TIP3    H222318   0.309   0.939   1.565
 7452TIP3   OH222319   5.909   4.367   2.309
 7452TIP3    H122320   5.985   4.405   2.264
 7452TIP3    H222321   5.940   4.352   2.398
 7453TIP3   OH222322   4.779   6.007   1.472
 7453TIP3    H122323   4.828   6.088   1.453
 7453TIP3    H222324   4.742   5.981   1.388
 7454TIP3   OH222325   3.052   1.113   1.174
 7454TIP3    H122326   2.992   1.181   1.204
 7454TIP3    H222327   3.137   1.156   1.170
 7455TIP3   OH222328   5.581   2.256   4.035
 7455TIP3    H122329   5.676   2.243   4.035
 7455TIP3    H222330   5.569   2.347   4.008
 7456TIP3   OH222331   3.927   0.903   1.320
 7456TIP3    H122332   3.839   0.878   1.348
 7456TIP3    H222333   3.969   0.821   1.293
 7457TIP3   OH222334   6.413   0.317   5.480
 7457TIP3    H122335   6.391   0.296   5.571
 7457TIP3    H222336   6.424   0.232   5.438
 7458TIP3   OH222337   6.276   2.334   3.080
 7458TIP3    H122338   6.244   2.254   3.121
 7458TIP3    H222339   6.333   2.304   3.009
 7459TIP3   OH222340   3.646   4.697   3.089
 7459TIP3    H122341   3.670   4.678   2.998
 7459TIP3    H222342   3.726   4.682   3.139
 7460TIP3   OH222343   2.556   4.966   5.269
 7460TIP3    H122344   2.482   4.906   5.258
 7460TIP3    H222345   2.517   5.048   5.297
 7461TIP3   OH222346   2.581   2.603   5.806
 7461TIP3    H122347   2.530   2.547   5.864
 7461TIP3    H222348   2.542   2.689   5.815
 7462TIP3   OH222349   6.170   5.682   2.986
 7462TIP3    H122350   6.079   5.658   2.970
 7462TIP3    H222351   6.221   5.623   2.931
 7463TIP3   OH222352   4.947   4.802   3.919
 7463TIP3    H122353   4.951   4.843   4.005
 7463TIP3    H222354   4.872   4.843   3.876
 7464TIP3   OH222355   5.488   0.814   2.471
 7464TIP3    H122356   5.423   0.743   2.467
 7464TIP3    H222357   5.456   0.879   2.410
 7465TIP3   OH222358   2.198   4.176   3.035
 7465TIP3    H122359   2.141   4.120   2.983
 7465TIP3    H222360   2.273   4.121   3.057
 7466TIP3   OH222361   0.125   4.559   2.504
 7466TIP3    H122362   0.143   4.617   2.577
 7466TIP3    H222363   0.162   4.475   2.530
 7467TIP3   OH222364   6.504   1.358   1.632
 7467TIP3    H122365   6.578   1.411   1.662
 7467TIP3    H222366   6.525   1.269   1.661
 7468TIP3   OH222367   4.343   0.484   1.489
 7468TIP3    H122368   4.328   0.410   1.430
 7468TIP3    H222369   4.401   0.542   1.440
 7469TIP3   OH222370   0.075   4.990   2.129
 7469TIP3    H122371   0.009   5.059   2.132
 7469TIP3    H222372   0.027   4.912   2.102
 7470TIP3   OH222373   5.018   4.824   2.398
 7470TIP3    H122374   4.990   4.840   2.488
 7470TIP3    H222375   4.968   4.748   2.370
 7471TIP3   OH222376   6.915   5.273   0.856
 7471TIP3    H122377   6.895   5.316   0.773
 7471TIP3    H222378   6.994   5.316   0.888
 7472TIP3   OH222379   6.847   1.120   1.800
 7472TIP3    H122380   6.800   1.188   1.847
 7472TIP3    H222381   6.877   1.060   1.868
 7473TIP3   OH222382   5.674   2.463   5.888
 7473TIP3    H122383   5.608   2.518   5.930
 7473TIP3    H222384   5.704   2.515   5.813
 7474TIP3   OH222385   4.118   4.313   4.615
 7474TIP3    H122386   4.194   4.327   4.559
 7474TIP3    H222387   4.058   4.260   4.562
 7475TIP3   OH222388   2.882   6.336   4.656
 7475TIP3    H122389   2.891   6.314   4.749
 7475TIP3    H222390   2.819   6.408   4.654
 7476TIP3   OH222391   1.497   0.728   1.626
 7476TIP3    H122392   1.444   0.654   1.597
 7476TIP3    H222393   1.564   0.738   1.559
 7477TIP3   OH222394   3.340   3.688   1.611
 7477TIP3    H122395   3.280   3.752   1.571
 7477TIP3    H222396   3.420   3.694   1.559
 7478TIP3   OH222397   0.058   4.433   5.684
 7478TIP3    H122398   0.069   4.357   5.740
 7478TIP3    H222399   0.117   4.419   5.611
 7479TIP3   OH222400   5.952   3.385   4.045
 7479TIP3    H122401   5.856   3.381   4.042
 7479TIP3    H222402   5.973   3.477   4.030
 7480TIP3   OH222403   6.789   0.908   5.336
 7480TIP3    H122404   6.846   0.947   5.270
 7480TIP3    H222405   6.787   0.815   5.315
 7481TIP3   OH222406   6.129   5.549   3.242
 7481TIP3    H122407   6.097   5.506   3.322
 7481TIP3    H222408   6.197   5.490   3.209
 7482TIP3   OH222409   3.578   0.069   3.609
 7482TIP3    H122410   3.563   0.159   3.582
 7482TIP3    H222411   3.668   0.051   3.584
 7483TIP3   OH222412   7.114   6.569   3.558
 7483TIP3    H122413   7.053   6.620   3.505
 7483TIP3    H222414   7.191   6.558   3.503
 7484TIP3   OH222415   3.755   1.601   4.236
 7484TIP3    H122416   3.709   1.681   4.263
 7484TIP3    H222417   3.791   1.622   4.150
 7485TIP3   OH222418   6.244   6.522   2.279
 7485TIP3    H122419   6.269   6.564   2.197
 7485TIP3    H222420   6.289   6.437   2.277
 7486TIP3   OH222421   2.212   2.528   1.034
 7486TIP3    H122422   2.199   2.462   0.965
 7486TIP3    H222423   2.307   2.531   1.046
 7487TIP3   OH222424   4.984   6.482   0.142
 7487TIP3    H122425   4.896   6.465   0.175
 7487TIP3    H222426   5.035   6.504   0.220
 7488TIP3   OH222427   6.421   5.161   1.432
 7488TIP3    H122428   6.513   5.159   1.405
 7488TIP3    H222429   6.385   5.237   1.387
 7489TIP3   OH222430   1.480   2.047   2.152
 7489TIP3    H122431   1.434   1.975   2.110
 7489TIP3    H222432   1.531   2.088   2.081
 7490TIP3   OH222433   3.090   0.538   5.195
 7490TIP3    H122434   3.052   0.485   5.265
 7490TIP3    H222435   3.184   0.528   5.206
 7491TIP3   OH222436   6.984   0.498   2.189
 7491TIP3    H122437   7.042   0.535   2.256
 7491TIP3    H222438   6.900   0.490   2.233
 7492TIP3   OH222439   6.393   3.268   0.558
 7492TIP3    H122440   6.463   3.204   0.571
 7492TIP3    H222441   6.420   3.344   0.609
 7493TIP3   OH222442   3.670   2.631   4.099
 7493TIP3    H122443   3.599   2.676   4.144
 7493TIP3    H222444   3.627   2.589   4.024
 7494TIP3   OH222445   3.075   2.531   3.542
 7494TIP3    H122446   3.076   2.618   3.581
 7494TIP3    H222447   3.016   2.538   3.467
 7495TIP3   OH222448   2.791   2.063   1.883
 7495TIP3    H122449   2.775   2.145   1.930
 7495TIP3    H222450   2.879   2.037   1.911
 7496TIP3   OH222451   3.014   5.000   2.224
 7496TIP3    H122452   2.996   4.908   2.207
 7496TIP3    H222453   2.975   5.017   2.310
 7497TIP3   OH222454   5.172   4.937   3.805
 7497TIP3    H122455   5.190   4.866   3.744
 7497TIP3    H222456   5.100   4.904   3.860
 7498TIP3   OH222457   2.176   3.385   5.695
 7498TIP3    H122458   2.262   3.421   5.675
 7498TIP3    H222459   2.158   3.324   5.623
 7499TIP3   OH222460   1.617   6.615   4.319
 7499TIP3    H122461   1.676   6.685   4.344
 7499TIP3    H222462   1.665   6.534   4.338
 7500TIP3   OH222463   4.913   4.251   4.393
 7500TIP3    H122464   4.993   4.304   4.401
 7500TIP3    H222465   4.942   4.169   4.354
 7501TIP3   OH222466   2.475   1.558   1.941
 7501TIP3    H122467   2.404   1.513   1.895
 7501TIP3    H222468   2.505   1.625   1.880
 7502TIP3   OH222469   0.795   1.237   1.190
 7502TIP3    H122470   0.789   1.246   1.285
 7502TIP3    H222471   0.759   1.319   1.155
 7503TIP3   OH222472   5.830   1.711   0.299
 7503TIP3    H122473   5.771   1.753   0.236
 7503TIP3    H222474   5.849   1.779   0.363
 7504TIP3   OH222475   4.872   0.342   4.212
 7504TIP3    H122476   4.793   0.289   4.208
 7504TIP3    H222477   4.938   0.290   4.166
 7505TIP3   OH222478   6.085   2.659   3.573
 7505TIP3    H122479   6.075   2.563   3.573
 7505TIP3    H222480   5.997   2.692   3.559
 7506TIP3   OH222481   0.352   2.988   4.264
 7506TIP3    H122482   0.337   2.906   4.311
 7506TIP3    H222483   0.362   3.054   4.333
 7507TIP3   OH222484   3.842   4.919   4.965
 7507TIP3    H122485   3.836   5.003   4.919
 7507TIP3    H222486   3.917   4.875   4.925
 7508TIP3   OH222487   7.120   1.622   1.856
 7508TIP3    H122488   7.034   1.580   1.855
 7508TIP3    H222489   7.178   1.560   1.811
 7509TIP3   OH222490   2.775   2.895   2.470
 7509TIP3    H122491   2.713   2.831   2.435
 7509TIP3    H222492   2.762   2.973   2.415
 7510TIP3   OH222493   1.044   6.014   4.270
 7510TIP3    H122494   1.109   5.978   4.210
 7510TIP3    H222495   0.960   5.983   4.237
 7511TIP3   OH222496   6.349   5.337   1.652
 7511TIP3    H122497   6.295   5.259   1.658
 7511TIP3    H222498   6.439   5.304   1.645
 7512TIP3   OH222499   6.589   0.546   3.939
 7512TIP3    H122500   6.629   0.542   3.852
 7512TIP3    H222501   6.502   0.508   3.927
 7513TIP3   OH222502   6.926   4.853   3.036
 7513TIP3    H122503   6.892   4.918   2.974
 7513TIP3    H222504   6.880   4.872   3.118
 7514TIP3   OH222505   1.708  -0.040   3.955
 7514TIP3    H122506   1.661   0.031   3.911
 7514TIP3    H222507   1.766   0.004   4.016
 7515TIP3   OH222508   4.737   4.823   1.780
 7515TIP3    H122509   4.660   4.842   1.833
 7515TIP3    H222510   4.702   4.807   1.692
 7516TIP3   OH222511   5.819   3.498   3.300
 7516TIP3    H122512   5.744   3.551   3.276
 7516TIP3    H222513   5.854   3.467   3.216
 7517TIP3   OH222514   6.937   3.413   5.187
 7517TIP3    H122515   6.851   3.436   5.221
 7517TIP3    H222516   6.921   3.343   5.124
 7518TIP3   OH222517   3.403   2.825   5.806
 7518TIP3    H122518   3.341   2.814   5.734
 7518TIP3    H222519   3.377   2.907   5.847
 7519TIP3   OH222520   1.924   0.708   4.202
 7519TIP3    H122521   1.893   0.770   4.268
 7519TIP3    H222522   1.933   0.759   4.122
 7520TIP3   OH222523   2.087   5.087   3.834
 7520TIP3    H122524   2.013   5.052   3.784
 7520TIP3    H222525   2.113   5.165   3.787
 7521TIP3   OH222526   6.833   6.242   3.139
 7521TIP3    H122527   6.813   6.212   3.050
 7521TIP3    H222528   6.753   6.226   3.188
 7522TIP3   OH222529   2.352   1.487   5.807
 7522TIP3    H122530   2.258   1.510   5.806
 7522TIP3    H222531   2.356   1.403   5.761
 7523TIP3   OH222532   2.293   3.917   2.821
 7523TIP3    H122533   2.272   3.834   2.862
 7523TIP3    H222534   2.209   3.963   2.816
 7524TIP3   OH222535   1.488   3.542   0.359
 7524TIP3    H122536   1.583   3.531   0.356
 7524TIP3    H222537   1.474   3.610   0.426
 7525TIP3   OH222538   3.522   3.077   2.908
 7525TIP3    H122539   3.530   3.105   2.816
 7525TIP3    H222540   3.484   2.989   2.903
 7526TIP3   OH222541   6.862   2.923   4.054
 7526TIP3    H122542   6.839   2.989   3.989
 7526TIP3    H222543   6.819   2.843   4.022
 7527TIP3   OH222544   3.284   1.162   0.836
 7527TIP3    H122545   3.370   1.199   0.815
 7527TIP3    H222546   3.253   1.125   0.753
 7528TIP3   OH222547   5.708   5.808   0.659
 7528TIP3    H122548   5.736   5.716   0.659
 7528TIP3    H222549   5.612   5.803   0.651
 7529TIP3   OH222550   6.828   6.252   2.468
 7529TIP3    H122551   6.796   6.342   2.476
 7529TIP3    H222552   6.782   6.205   2.538
 7530TIP3   OH222553   1.606   3.979   1.294
 7530TIP3    H122554   1.536   3.967   1.229
 7530TIP3    H222555   1.679   3.926   1.261
 7531TIP3   OH222556   6.591   6.176   2.653
 7531TIP3    H122557   6.532   6.149   2.723
 7531TIP3    H222558   6.548   6.251   2.613
 7532TIP3   OH222559   0.302   5.414   2.160
 7532TIP3    H122560   0.353   5.493   2.175
 7532TIP3    H222561   0.362   5.342   2.182
 7533TIP3   OH222562   0.188   2.600   0.152
 7533TIP3    H122563   0.225   2.512   0.160
 7533TIP3    H222564   0.111   2.588   0.097
 7534TIP3   OH222565   2.563   1.560   0.968
 7534TIP3    H122566   2.644   1.510   0.956
 7534TIP3    H222567   2.572   1.599   1.055
 7535TIP3   OH222568   5.039   6.734   1.260
 7535TIP3    H122569   5.084   6.702   1.182
 7535TIP3    H222570   5.073   6.823   1.273
 7536TIP3   OH222571   3.180   0.376   2.160
 7536TIP3    H122572   3.219   0.290   2.146
 7536TIP3    H222573   3.192   0.422   2.077
 7537TIP3   OH222574   4.468   0.195   5.547
 7537TIP3    H122575   4.518   0.273   5.522
 7537TIP3    H222576   4.381   0.228   5.569
 7538TIP3   OH222577   6.562   2.174   5.111
 7538TIP3    H122578   6.572   2.262   5.073
 7538TIP3    H222579   6.649   2.136   5.107
 7539TIP3   OH222580   4.545   4.370   5.288
 7539TIP3    H122581   4.549   4.345   5.195
 7539TIP3    H222582   4.465   4.422   5.296
 7540TIP3   OH222583   4.476   4.711   0.593
 7540TIP3    H122584   4.497   4.626   0.631
 7540TIP3    H222585   4.499   4.775   0.661
 7541TIP3   OH222586   0.796   6.672   1.184
 7541TIP3    H122587   0.807   6.762   1.214
 7541TIP3    H222588   0.879   6.629   1.204
 7542TIP3   OH222589   1.412   2.488   3.064
 7542TIP3    H122590   1.461   2.420   3.111
 7542TIP3    H222591   1.441   2.480   2.973
 7543TIP3   OH222592   7.163   4.953   3.224
 7543TIP3    H122593   7.158   5.019   3.155
 7543TIP3    H222594   7.119   4.876   3.187
 7544TIP3   OH222595   5.822   2.485   3.825
 7544TIP3    H122596   5.791   2.419   3.764
 7544TIP3    H222597   5.748   2.500   3.884
 7545TIP3   OH222598   4.947   3.756   4.393
 7545TIP3    H122599   4.902   3.823   4.343
 7545TIP3    H222600   4.928   3.674   4.346
 7546TIP3   OH222601   1.667   6.532   1.397
 7546TIP3    H122602   1.589   6.478   1.382
 7546TIP3    H222603   1.689   6.566   1.310
 7547TIP3   OH222604   2.129   0.515   2.740
 7547TIP3    H122605   2.040   0.515   2.775
 7547TIP3    H222606   2.184   0.482   2.811
 7548TIP3   OH222607   0.027   1.211   2.102
 7548TIP3    H122608  -0.056   1.242   2.067
 7548TIP3    H222609   0.065   1.287   2.146
 7549TIP3   OH222610   1.522   2.769   1.914
 7549TIP3    H122611   1.435   2.776   1.954
 7549TIP3    H222612   1.520   2.830   1.841
 7550TIP3   OH222613   6.556   4.564   0.142
 7550TIP3    H122614   6.566   4.656   0.118
 7550TIP3    H222615   6.463   4.555   0.163
 7551TIP3   OH222616   3.277   6.553   2.377
 7551TIP3    H122617   3.352   6.517   2.330
 7551TIP3    H222618   3.231   6.477   2.413
 7552TIP3   OH222619   0.770   0.123   5.139
 7552TIP3    H122620   0.731   0.142   5.054
 7552TIP3    H222621   0.751   0.199   5.193
 7553TIP3   OH222622   6.687   4.095   0.768
 7553TIP3    H122623   6.701   4.155   0.695
 7553TIP3    H222624   6.776   4.067   0.793
 7554TIP3   OH222625   5.304   4.740   3.682
 7554TIP3    H122626   5.357   4.698   3.749
 7554TIP3    H222627   5.348   4.719   3.600
 7555TIP3   OH222628   0.288   2.976   2.733
 7555TIP3    H122629   0.208   3.026   2.714
 7555TIP3    H222630   0.259   2.906   2.792
 7556TIP3   OH222631   6.660   1.473   2.836
 7556TIP3    H122632   6.673   1.567   2.851
 7556TIP3    H222633   6.565   1.464   2.826
 7557TIP3   OH222634   0.204   5.096   4.913
 7557TIP3    H122635   0.188   5.186   4.884
 7557TIP3    H222636   0.126   5.073   4.964
 7558TIP3   OH222637   6.682   4.016   4.889
 7558TIP3    H122638   6.742   3.962   4.838
 7558TIP3    H222639   6.736   4.052   4.960
 7559TIP3   OH222640   0.449   0.353   5.581
 7559TIP3    H122641   0.416   0.269   5.611
 7559TIP3    H222642   0.398   0.373   5.503
 7560TIP3   OH222643   6.566   1.155   2.807
 7560TIP3    H122644   6.495   1.216   2.790
 7560TIP3    H222645   6.565   1.096   2.731
 7561TIP3   OH222646   0.840   6.010   2.947
 7561TIP3    H122647   0.818   5.917   2.938
 7561TIP3    H222648   0.907   6.025   2.881
 7562TIP3   OH222649   2.835   4.635   0.565
 7562TIP3    H122650   2.828   4.545   0.595
 7562TIP3    H222651   2.899   4.632   0.493
 7563TIP3   OH222652   2.629   2.917   3.340
 7563TIP3    H122653   2.560   2.982   3.351
 7563TIP3    H222654   2.610   2.849   3.405
 7564TIP3   OH222655   4.879   0.536   1.816
 7564TIP3    H122656   4.937   0.498   1.749
 7564TIP3    H222657   4.798   0.487   1.807
 7565TIP3   OH222658   6.960   6.730   3.812
 7565TIP3    H122659   6.943   6.706   3.903
 7565TIP3    H222660   6.906   6.670   3.761
 7566TIP3   OH222661   1.614   0.980   0.374
 7566TIP3    H122662   1.680   0.919   0.405
 7566TIP3    H222663   1.631   1.061   0.423
 7567TIP3   OH222664   0.247   6.601   0.446
 7567TIP3    H122665   0.172   6.660   0.457
 7567TIP3    H222666   0.248   6.582   0.353
 7568TIP3   OH222667   1.648   1.523   4.413
 7568TIP3    H122668   1.561   1.527   4.454
 7568TIP3    H222669   1.639   1.574   4.333
 7569TIP3   OH222670   2.679   4.339   2.688
 7569TIP3    H122671   2.644   4.338   2.777
 7569TIP3    H222672   2.711   4.251   2.673
 7570TIP3   OH222673   3.073   2.783   3.189
 7570TIP3    H122674   3.103   2.845   3.255
 7570TIP3    H222675   3.148   2.726   3.174
 7571TIP3   OH222676   6.063   0.201   1.347
 7571TIP3    H122677   6.031   0.168   1.431
 7571TIP3    H222678   6.114   0.129   1.311
 7572TIP3   OH222679   2.856   4.061   5.183
 7572TIP3    H122680   2.871   3.977   5.226
 7572TIP3    H222681   2.893   4.126   5.244
 7573TIP3   OH222682   1.774   6.206   3.249
 7573TIP3    H122683   1.805   6.270   3.185
 7573TIP3    H222684   1.697   6.248   3.289
 7574TIP3   OH222685   0.867   4.347   1.754
 7574TIP3    H122686   0.921   4.417   1.790
 7574TIP3    H222687   0.777   4.371   1.777
 7575TIP3   OH222688   6.214   6.395   3.319
 7575TIP3    H122689   6.265   6.315   3.306
 7575TIP3    H222690   6.131   6.378   3.276
 7576TIP3   OH222691   4.679   3.523   5.623
 7576TIP3    H122692   4.711   3.605   5.587
 7576TIP3    H222693   4.684   3.535   5.718
 7577TIP3   OH222694   2.864   3.329   1.176
 7577TIP3    H122695   2.822   3.340   1.261
 7577TIP3    H222696   2.849   3.412   1.131
 7578TIP3   OH222697   4.965   5.106   2.335
 7578TIP3    H122698   4.893   5.073   2.281
 7578TIP3    H222699   5.032   5.037   2.331
 7579TIP3   OH222700   7.159   5.156   3.025
 7579TIP3    H122701   7.131   5.129   2.937
 7579TIP3    H222702   7.243   5.199   3.011
 7580TIP3   OH222703   4.108   0.506   0.874
 7580TIP3    H122704   4.072   0.418   0.884
 7580TIP3    H222705   4.045   0.563   0.917
 7581TIP3   OH222706   0.535   4.639   4.617
 7581TIP3    H122707   0.441   4.660   4.616
 7581TIP3    H222708   0.539   4.546   4.640
 7582TIP3   OH222709   2.336   4.187   1.698
 7582TIP3    H122710   2.345   4.209   1.791
 7582TIP3    H222711   2.379   4.259   1.652
 7583TIP3   OH222712   1.276   4.119   1.447
 7583TIP3    H122713   1.293   4.070   1.527
 7583TIP3    H222714   1.335   4.194   1.451
 7584TIP3   OH222715   4.972   6.547   4.189
 7584TIP3    H122716   4.962   6.491   4.265
 7584TIP3    H222717   4.916   6.508   4.122
 7585TIP3   OH222718   6.765   6.089   0.642
 7585TIP3    H122719   6.790   6.097   0.734
 7585TIP3    H222720   6.790   6.172   0.602
 7586TIP3   OH222721   1.107   4.458   4.138
 7586TIP3    H122722   1.090   4.446   4.231
 7586TIP3    H222723   1.199   4.483   4.133
 7587TIP3   OH222724   1.898   3.697   1.421
 7587TIP3    H122725   1.983   3.699   1.378
 7587TIP3    H222726   1.863   3.786   1.410
 7588TIP3   OH222727   3.199   0.938   5.622
 7588TIP3    H122728   3.266   0.875   5.647
 7588TIP3    H222729   3.206   0.944   5.526
 7589TIP3   OH222730   6.188   2.908   4.213
 7589TIP3    H122731   6.197   2.971   4.141
 7589TIP3    H222732   6.180   2.823   4.169
 7590TIP3   OH222733   1.186   1.378   4.976
 7590TIP3    H122734   1.193   1.297   4.925
 7590TIP3    H222735   1.092   1.392   4.986
 7591TIP3   OH222736   0.290   6.547   2.786
 7591TIP3    H122737   0.315   6.595   2.865
 7591TIP3    H222738   0.274   6.458   2.815
 7592TIP3   OH222739   3.609   3.366   3.769
 7592TIP3    H122740   3.517   3.344   3.783
 7592TIP3    H222741   3.629   3.429   3.839
 7593TIP3   OH222742   6.238   6.176   5.853
 7593TIP3    H122743   6.231   6.251   5.794
 7593TIP3    H222744   6.173   6.194   5.921
 7594TIP3   OH222745   2.902   1.651   0.812
 7594TIP3    H122746   2.964   1.661   0.884
 7594TIP3    H222747   2.906   1.558   0.790
 7595TIP3   OH222748   4.951   4.337   0.238
 7595TIP3    H122749   5.002   4.354   0.317
 7595TIP3    H222750   4.966   4.413   0.182
 7596TIP3   OH222751   4.901   4.444   0.610
 7596TIP3    H122752   4.834   4.446   0.542
 7596TIP3    H222753   4.983   4.425   0.563
 7597TIP3   OH222754   4.038   3.435   0.614
 7597TIP3    H122755   4.066   3.429   0.523
 7597TIP3    H222756   3.980   3.510   0.616
 7598TIP3   OH222757   1.140   0.592   2.227
 7598TIP3    H122758   1.060   0.613   2.180
 7598TIP3    H222759   1.179   0.520   2.178
 7599TIP3   OH222760   1.652   6.083   1.327
 7599TIP3    H122761   1.714   6.049   1.263
 7599TIP3    H222762   1.585   6.126   1.275
 7600TIP3   OH222763   2.780   6.590   0.552
 7600TIP3    H122764   2.784   6.560   0.642
 7600TIP3    H222765   2.832   6.527   0.503
 7601TIP3   OH222766   2.478   0.653   2.868
 7601TIP3    H122767   2.397   0.628   2.914
 7601TIP3    H222768   2.548   0.610   2.918
 7602TIP3   OH222769   5.782   6.512   3.038
 7602TIP3    H122770   5.730   6.504   2.958
 7602TIP3    H222771   5.721   6.546   3.103
 7603TIP3   OH222772   3.323   3.795   3.437
 7603TIP3    H122773   3.321   3.728   3.368
 7603TIP3    H222774   3.414   3.824   3.439
 7604TIP3   OH222775   0.787   1.195   1.480
 7604TIP3    H122776   0.702   1.155   1.464
 7604TIP3    H222777   0.812   1.166   1.567
 7605TIP3   OH222778   3.106   3.299   5.578
 7605TIP3    H122779   3.185   3.341   5.612
 7605TIP3    H222780   3.137   3.222   5.531
 7606TIP3   OH222781   3.764   6.252   0.640
 7606TIP3    H122782   3.816   6.219   0.566
 7606TIP3    H222783   3.809   6.219   0.718
 7607TIP3   OH222784   3.907   4.717   4.281
 7607TIP3    H122785   3.911   4.810   4.305
 7607TIP3    H222786   3.831   4.684   4.328
 7608TIP3   OH222787   3.617   6.120   3.375
 7608TIP3    H122788   3.653   6.053   3.316
 7608TIP3    H222789   3.664   6.107   3.457
 7609TIP3   OH222790   1.246   0.990   1.867
 7609TIP3    H122791   1.164   1.039   1.860
 7609TIP3    H222792   1.282   0.989   1.778
 7610TIP3   OH222793   2.059   3.694   1.189
 7610TIP3    H122794   2.138   3.745   1.170
 7610TIP3    H222795   2.072   3.612   1.141
 7611TIP3   OH222796   6.322   4.622   2.855
 7611TIP3    H122797   6.371   4.704   2.841
 7611TIP3    H222798   6.244   4.650   2.903
 7612TIP3   OH222799   6.073   5.513   3.511
 7612TIP3    H122800   6.033   5.567   3.580
 7612TIP3    H222801   6.145   5.467   3.555
 7613TIP3   OH222802   2.224   1.360   0.505
 7613TIP3    H122803   2.175   1.346   0.587
 7613TIP3    H222804   2.289   1.289   0.504
 7614TIP3   OH222805   2.811   6.753   0.827
 7614TIP3    H122806   2.883   6.726   0.884
 7614TIP3    H222807   2.826   6.846   0.812
 7615TIP3   OH222808   5.556   2.373   1.998
 7615TIP3    H122809   5.580   2.464   2.012
 7615TIP3    H222810   5.541   2.338   2.085
 7616TIP3   OH222811   5.054   3.439   4.002
 7616TIP3    H122812   5.119   3.384   4.045
 7616TIP3    H222813   4.970   3.400   4.025
 7617TIP3   OH222814   5.218   2.578   2.369
 7617TIP3    H122815   5.179   2.642   2.428
 7617TIP3    H222816   5.304   2.560   2.407
 7618TIP3   OH222817   5.471   1.004   2.084
 7618TIP3    H122818   5.564   1.015   2.062
 7618TIP3    H222819   5.428   1.079   2.043
 7619TIP3   OH222820   2.415   6.664   0.063
 7619TIP3    H122821   2.403   6.680   0.157
 7619TIP3    H222822   2.509   6.677   0.049
 7620TIP3   OH222823   5.989   3.279   0.186
 7620TIP3    H122824   6.047   3.355   0.194
 7620TIP3    H222825   5.969   3.274   0.093
 7621TIP3   OH222826   4.902   2.350   2.187
 7621TIP3    H122827   4.978   2.360   2.129
 7621TIP3    H222828   4.919   2.411   2.260
 7622TIP3   OH222829   2.963   4.230   1.210
 7622TIP3    H122830   3.037   4.170   1.202
 7622TIP3    H222831   2.924   4.210   1.295
 7623TIP3   OH222832   1.714   2.416   4.324
 7623TIP3    H122833   1.803   2.449   4.312
 7623TIP3    H222834   1.724   2.322   4.338
 7624TIP3   OH222835   3.573   2.291   0.478
 7624TIP3    H122836   3.585   2.351   0.403
 7624TIP3    H222837   3.483   2.260   0.470
 7625TIP3   OH222838   4.522   4.206   5.804
 7625TIP3    H122839   4.608   4.167   5.820
 7625TIP3    H222840   4.482   4.213   5.890
 7626TIP3   OH222841   2.404   6.292   5.551
 7626TIP3    H122842   2.360   6.343   5.619
 7626TIP3    H222843   2.379   6.202   5.569
 7627TIP3   OH222844   6.019   5.283   2.586
 7627TIP3    H122845   5.956   5.334   2.636
 7627TIP3    H222846   5.983   5.280   2.497
 7628TIP3   OH222847   3.544   1.226   0.722
 7628TIP3    H122848   3.571   1.315   0.745
 7628TIP3    H222849   3.620   1.188   0.678
 7629TIP3   OH222850   3.185   6.146   5.687
 7629TIP3    H122851   3.159   6.091   5.613
 7629TIP3    H222852   3.134   6.113   5.761
 7630TIP3   OH222853   1.864   3.344   4.988
 7630TIP3    H122854   1.859   3.360   5.082
 7630TIP3    H222855   1.783   3.298   4.966
 7631TIP3   OH222856   5.941   3.129   1.439
 7631TIP3    H122857   6.017   3.073   1.457
 7631TIP3    H222858   5.873   3.094   1.497
 7632TIP3   OH222859   6.491   6.611   1.696
 7632TIP3    H122860   6.399   6.586   1.681
 7632TIP3    H222861   6.496   6.629   1.790
 7633TIP3   OH222862   6.071   6.411   2.472
 7633TIP3    H122863   6.057   6.504   2.491
 7633TIP3    H222864   6.116   6.410   2.387
 7634TIP3   OH222865   4.586   6.490   0.702
 7634TIP3    H122866   4.602   6.557   0.769
 7634TIP3    H222867   4.512   6.524   0.652
 7635TIP3   OH222868   2.537   5.507   1.422
 7635TIP3    H122869   2.527   5.537   1.332
 7635TIP3    H222870   2.555   5.413   1.414
 7636TIP3   OH222871   5.335   2.192   2.225
 7636TIP3    H122872   5.278   2.158   2.294
 7636TIP3    H222873   5.313   2.141   2.148
 7637TIP3   OH222874   4.932   0.832   0.229
 7637TIP3    H122875   4.896   0.920   0.242
 7637TIP3    H222876   4.971   0.835   0.142
 7638TIP3   OH222877   0.177   5.630   1.788
 7638TIP3    H122878   0.204   5.590   1.705
 7638TIP3    H222879   0.147   5.557   1.841
 7639TIP3   OH222880   4.041   0.235   5.314
 7639TIP3    H122881   3.985   0.167   5.351
 7639TIP3    H222882   3.986   0.278   5.248
 7640TIP3   OH222883   3.154   6.196   4.380
 7640TIP3    H122884   3.112   6.155   4.304
 7640TIP3    H222885   3.143   6.133   4.451
 7641TIP3   OH222886   5.767   5.482   0.642
 7641TIP3    H122887   5.815   5.407   0.677
 7641TIP3    H222888   5.705   5.505   0.711
 7642TIP3   OH222889   2.891   0.807   5.185
 7642TIP3    H122890   2.833   0.798   5.260
 7642TIP3    H222891   2.861   0.886   5.140
 7643TIP3   OH222892   6.320   6.007   4.996
 7643TIP3    H122893   6.251   6.072   4.981
 7643TIP3    H222894   6.398   6.046   4.959
 7644TIP3   OH222895   1.811   2.796   1.698
 7644TIP3    H122896   1.775   2.767   1.782
 7644TIP3    H222897   1.745   2.855   1.663
 7645TIP3   OH222898   2.427   0.468   5.422
 7645TIP3    H122899   2.426   0.442   5.330
 7645TIP3    H222900   2.519   0.479   5.444
 7646TIP3   OH222901   0.528   1.568   4.625
 7646TIP3    H122902   0.560   1.541   4.538
 7646TIP3    H222903   0.524   1.663   4.620
 7647TIP3   OH222904   3.959   6.120   0.164
 7647TIP3    H122905   4.052   6.106   0.180
 7647TIP3    H222906   3.953   6.212   0.137
 7648TIP3   OH222907   1.775   1.075   3.030
 7648TIP3    H122908   1.847   1.103   2.974
 7648TIP3    H222909   1.812   1.006   3.084
 7649TIP3   OH222910   0.763   3.678   2.779
 7649TIP3    H122911   0.748   3.694   2.872
 7649TIP3    H222912   0.762   3.583   2.771
 7650TIP3   OH222913   1.628   0.466   5.317
 7650TIP3    H122914   1.709   0.431   5.280
 7650TIP3    H222915   1.578   0.497   5.241
 7651TIP3   OH222916   1.194   5.185   3.996
 7651TIP3    H122917   1.201   5.091   3.980
 7651TIP3    H222918   1.254   5.201   4.070
 7652TIP3   OH222919   3.424   1.087   1.234
 7652TIP3    H122920   3.457   1.125   1.315
 7652TIP3    H222921   3.343   1.135   1.215
 7653TIP3   OH222922   6.462   1.143   5.708
 7653TIP3    H122923   6.490   1.090   5.633
 7653TIP3    H222924   6.501   1.229   5.693
 7654TIP3   OH222925   5.924   0.838   2.116
 7654TIP3    H122926   6.018   0.826   2.133
 7654TIP3    H222927   5.886   0.858   2.201
 7655TIP3   OH222928   0.528   6.390   2.232
 7655TIP3    H122929   0.515   6.298   2.252
 7655TIP3    H222930   0.488   6.402   2.146
 7656TIP3   OH222931   4.249   0.396   1.754
 7656TIP3    H122932   4.297   0.468   1.795
 7656TIP3    H222933   4.286   0.390   1.666
 7657TIP3   OH222934   3.067   1.423   3.662
 7657TIP3    H122935   3.103   1.391   3.579
 7657TIP3    H222936   2.978   1.389   3.663
 7658TIP3   OH222937   4.300   0.792   1.999
 7658TIP3    H122938   4.384   0.769   1.958
 7658TIP3    H222939   4.235   0.782   1.930
 7659TIP3   OH222940   4.534   0.501   0.911
 7659TIP3    H122941   4.619   0.508   0.867
 7659TIP3    H222942   4.470   0.498   0.840
 7660TIP3   OH222943   2.674   3.026   0.617
 7660TIP3    H122944   2.623   3.107   0.612
 7660TIP3    H222945   2.692   3.016   0.711
 7661TIP3   OH222946   1.420   5.534   4.174
 7661TIP3    H122947   1.397   5.442   4.190
 7661TIP3    H222948   1.362   5.561   4.103
 7662TIP3   OH222949   2.699   0.799   2.304
 7662TIP3    H122950   2.784   0.759   2.324
 7662TIP3    H222951   2.717   0.893   2.302
 7663TIP3   OH222952   3.167   1.835   1.230
 7663TIP3    H122953   3.143   1.906   1.290
 7663TIP3    H222954   3.207   1.879   1.155
 7664TIP3   OH222955   2.199   4.136   5.763
 7664TIP3    H122956   2.143   4.186   5.822
 7664TIP3    H222957   2.276   4.193   5.750
 7665TIP3   OH222958   3.235   1.413   0.891
 7665TIP3    H122959   3.229   1.319   0.875
 7665TIP3    H222960   3.264   1.450   0.807
 7666TIP3   OH222961   4.194   0.257   5.631
 7666TIP3    H122962   4.125   0.312   5.668
 7666TIP3    H222963   4.154   0.217   5.554
 7667TIP3   OH222964   2.315   2.040   0.049
 7667TIP3    H122965   2.395   1.988   0.046
 7667TIP3    H222966   2.345   2.128   0.072
 7668TIP3   OH222967   1.483   2.986   5.678
 7668TIP3    H122968   1.517   3.073   5.658
 7668TIP3    H222969   1.396   3.002   5.715
 7669TIP3   OH222970   7.187   5.991   4.101
 7669TIP3    H122971   7.214   5.977   4.191
 7669TIP3    H222972   7.128   5.918   4.081
 7670TIP3   OH222973   1.593   4.144   3.585
 7670TIP3    H122974   1.506   4.111   3.560
 7670TIP3    H222975   1.653   4.074   3.559
 7671TIP3   OH222976   1.874   2.005   1.854
 7671TIP3    H122977   1.961   2.039   1.877
 7671TIP3    H222978   1.871   2.010   1.759
 7672TIP3   OH222979   1.847   4.026   1.911
 7672TIP3    H122980   1.793   3.948   1.903
 7672TIP3    H222981   1.897   4.029   1.830
 7673TIP3   OH222982   3.955   1.470   1.447
 7673TIP3    H122983   3.902   1.481   1.525
 7673TIP3    H222984   4.010   1.394   1.466
 7674TIP3   OH222985   0.463   4.522   3.793
 7674TIP3    H122986   0.418   4.441   3.815
 7674TIP3    H222987   0.556   4.498   3.789
 7675TIP3   OH222988   4.801   2.498   3.776
 7675TIP3    H122989   4.840   2.433   3.835
 7675TIP3    H222990   4.736   2.448   3.726
 7676TIP3   OH222991   5.786   6.641   1.198
 7676TIP3    H122992   5.810   6.727   1.234
 7676TIP3    H222993   5.870   6.599   1.179
 7677TIP3   OH222994   5.917   6.063   0.121
 7677TIP3    H122995   5.837   6.009   0.118
 7677TIP3    H222996   5.901   6.132   0.057
 7678TIP3   OH222997   4.505   3.600   4.519
 7678TIP3    H122998   4.451   3.544   4.463
 7678TIP3    H222999   4.541   3.665   4.460
 7679TIP3   OH223000   3.633   0.244   5.851
 7679TIP3    H123001   3.569   0.209   5.913
 7679TIP3    H223002   3.702   0.282   5.905
 7680TIP3   OH223003   6.305   1.001   5.038
 7680TIP3    H123004   6.252   0.922   5.054
 7680TIP3    H223005   6.251   1.073   5.072
 7681TIP3   OH223006   4.791   2.364   4.321
 7681TIP3    H123007   4.696   2.373   4.331
 7681TIP3    H223008   4.803   2.271   4.299
 7682TIP3   OH223009   0.416   6.650   5.456
 7682TIP3    H123010   0.472   6.713   5.503
 7682TIP3    H223011   0.449   6.652   5.366
 7683TIP3   OH223012   5.444   6.717   2.786
 7683TIP3    H123013   5.430   6.778   2.858
 7683TIP3    H223014   5.371   6.656   2.791
 7684TIP3   OH223015   3.000   5.577   4.041
 7684TIP3    H123016   3.031   5.660   4.077
 7684TIP3    H223017   2.923   5.556   4.093
 7685TIP3   OH223018   0.722   0.918   4.480
 7685TIP3    H123019   0.731   0.912   4.385
 7685TIP3    H223020   0.628   0.919   4.496
 7686TIP3   OH223021   4.702   2.466   3.193
 7686TIP3    H123022   4.711   2.437   3.103
 7686TIP3    H223023   4.607   2.475   3.207
 7687TIP3   OH223024   5.570   5.499   0.427
 7687TIP3    H123025   5.621   5.536   0.500
 7687TIP3    H223026   5.635   5.452   0.375
 7688TIP3   OH223027   5.417   6.141   0.287
 7688TIP3    H123028   5.339   6.120   0.339
 7688TIP3    H223029   5.479   6.177   0.351
 7689TIP3   OH223030   1.700   4.757   5.463
 7689TIP3    H123031   1.722   4.737   5.372
 7689TIP3    H223032   1.616   4.714   5.478
 7690TIP3   OH223033   2.722   5.830   0.283
 7690TIP3    H123034   2.752   5.761   0.343
 7690TIP3    H223035   2.802   5.877   0.259
 7691TIP3   OH223036   3.105   3.430   2.667
 7691TIP3    H123037   3.027   3.380   2.644
 7691TIP3    H223038   3.084   3.473   2.750
 7692TIP3   OH223039   5.822   4.115   1.962
 7692TIP3    H123040   5.843   4.091   1.871
 7692TIP3    H223041   5.731   4.144   1.959
 7693TIP3   OH223042   5.479   5.513   2.736
 7693TIP3    H123043   5.473   5.417   2.730
 7693TIP3    H223044   5.420   5.545   2.668
 7694TIP3   OH223045   1.172   4.388   3.424
 7694TIP3    H123046   1.132   4.472   3.401
 7694TIP3    H223047   1.231   4.369   3.350
 7695TIP3   OH223048   4.167   6.277   1.006
 7695TIP3    H123049   4.208   6.263   1.091
 7695TIP3    H223050   4.086   6.226   1.009
 7696TIP3   OH223051   6.935   3.470   5.584
 7696TIP3    H123052   6.849   3.480   5.625
 7696TIP3    H223053   6.955   3.377   5.594
 7697TIP3   OH223054   5.379   6.162   2.123
 7697TIP3    H123055   5.432   6.146   2.202
 7697TIP3    H223056   5.289   6.157   2.154
 7698TIP3   OH223057   0.400   1.632   1.999
 7698TIP3    H123058   0.392   1.648   2.093
 7698TIP3    H223059   0.489   1.598   1.988
 7699TIP3   OH223060   3.031   1.554   2.013
 7699TIP3    H123061   3.022   1.460   2.029
 7699TIP3    H223062   2.945   1.582   1.982
 7700TIP3   OH223063   0.654   6.563   4.356
 7700TIP3    H123064   0.700   6.647   4.353
 7700TIP3    H223065   0.656   6.530   4.266
 7701TIP3   OH223066   3.738   2.498   2.602
 7701TIP3    H123067   3.741   2.408   2.569
 7701TIP3    H223068   3.769   2.551   2.528
 7702TIP3   OH223069   6.788   3.653   1.938
 7702TIP3    H123070   6.841   3.673   2.015
 7702TIP3    H223071   6.721   3.593   1.970
 7703TIP3   OH223072   2.513   3.384   0.159
 7703TIP3    H123073   2.454   3.447   0.201
 7703TIP3    H223074   2.600   3.409   0.188
 7704TIP3   OH223075   1.278   5.898   3.414
 7704TIP3    H123076   1.357   5.948   3.398
 7704TIP3    H223077   1.256   5.860   3.329
 7705TIP3   OH223078   2.547   1.586   4.452
 7705TIP3    H123079   2.542   1.582   4.357
 7705TIP3    H223080   2.462   1.622   4.479
 7706TIP3   OH223081   0.598   6.119   2.013
 7706TIP3    H123082   0.640   6.203   1.995
 7706TIP3    H223083   0.658   6.074   2.073
 7707TIP3   OH223084   4.906   1.117   1.448
 7707TIP3    H123085   4.822   1.151   1.417
 7707TIP3    H223086   4.928   1.172   1.523
 7708TIP3   OH223087   4.400   2.570   3.203
 7708TIP3    H123088   4.412   2.631   3.275
 7708TIP3    H223089   4.423   2.620   3.124
 7709TIP3   OH223090   1.954   6.602   0.861
 7709TIP3    H123091   2.031   6.560   0.899
 7709TIP3    H223092   1.920   6.539   0.797
 7710TIP3   OH223093   5.127   5.841   2.530
 7710TIP3    H123094   5.121   5.924   2.577
 7710TIP3    H223095   5.041   5.801   2.542
 7711TIP3   OH223096   6.028   3.814   1.874
 7711TIP3    H123097   6.093   3.816   1.944
 7711TIP3    H223098   6.080   3.814   1.793
 7712TIP3   OH223099   3.561   5.064   4.539
 7712TIP3    H123100   3.646   5.082   4.499
 7712TIP3    H223101   3.508   5.141   4.519
 7713TIP3   OH223102   3.436   3.756   5.012
 7713TIP3    H123103   3.450   3.680   4.955
 7713TIP3    H223104   3.523   3.775   5.048
 7714TIP3   OH223105   0.489   3.460   0.617
 7714TIP3    H123106   0.437   3.449   0.537
 7714TIP3    H223107   0.579   3.445   0.589
 7715TIP3   OH223108   1.361   0.023   1.753
 7715TIP3    H123109   1.456   0.036   1.752
 7715TIP3    H223110   1.334   0.043   1.663
 7716TIP3   OH223111   0.409   3.858   1.339
 7716TIP3    H123112   0.417   3.782   1.281
 7716TIP3    H223113   0.315   3.876   1.342
 7717TIP3   OH223114   3.793   4.258   5.172
 7717TIP3    H123115   3.725   4.191   5.160
 7717TIP3    H223116   3.868   4.224   5.123
 7718TIP3   OH223117   4.396   3.526   0.105
 7718TIP3    H123118   4.342   3.566   0.173
 7718TIP3    H223119   4.404   3.434   0.132
 7719TIP3   OH223120   3.646   2.955   0.865
 7719TIP3    H123121   3.677   2.887   0.806
 7719TIP3    H223122   3.725   2.986   0.910
 7720TIP3   OH223123   7.068   6.036   2.208
 7720TIP3    H123124   7.076   6.099   2.279
 7720TIP3    H223125   6.974   6.033   2.189
 7721TIP3   OH223126   1.802   6.176   0.241
 7721TIP3    H123127   1.727   6.232   0.260
 7721TIP3    H223128   1.848   6.220   0.170
 7722TIP3   OH223129   2.053   1.707   1.670
 7722TIP3    H123130   2.130   1.756   1.700
 7722TIP3    H223131   2.065   1.700   1.575
 7723TIP3   OH223132   5.748   3.555   1.126
 7723TIP3    H123133   5.737   3.480   1.185
 7723TIP3    H223134   5.842   3.570   1.123
 7724TIP3   OH223135   5.517   4.694   4.275
 7724TIP3    H123136   5.433   4.722   4.238
 7724TIP3    H223137   5.509   4.712   4.369
 7725TIP3   OH223138   5.290   0.315   5.018
 7725TIP3    H123139   5.226   0.301   5.089
 7725TIP3    H223140   5.357   0.249   5.034
 7726TIP3   OH223141   1.405   4.942   1.106
 7726TIP3    H123142   1.446   5.017   1.064
 7726TIP3    H223143   1.315   4.969   1.123
 7727TIP3   OH223144   2.918   6.132   3.515
 7727TIP3    H123145   2.850   6.160   3.576
 7727TIP3    H223146   2.950   6.214   3.476
 7728TIP3   OH223147   5.438   5.737   0.664
 7728TIP3    H123148   5.419   5.718   0.572
 7728TIP3    H223149   5.357   5.774   0.698
 7729TIP3   OH223150   5.039   6.780   0.354
 7729TIP3    H123151   5.118   6.727   0.365
 7729TIP3    H223152   5.013   6.802   0.444
 7730TIP3   OH223153   7.056   3.703   0.505
 7730TIP3    H123154   7.071   3.796   0.518
 7730TIP3    H223155   7.140   3.662   0.524
 7731TIP3   OH223156   5.693   6.223   0.758
 7731TIP3    H123157   5.664   6.151   0.813
 7731TIP3    H223158   5.777   6.250   0.795
 7732TIP3   OH223159   0.730   3.878   3.921
 7732TIP3    H123160   0.780   3.839   3.993
 7732TIP3    H223161   0.769   3.841   3.842
 7733TIP3   OH223162   1.554   0.601   5.575
 7733TIP3    H123163   1.648   0.605   5.592
 7733TIP3    H223164   1.541   0.517   5.531
 7734TIP3   OH223165   1.471   3.735   5.856
 7734TIP3    H123166   1.397   3.790   5.883
 7734TIP3    H223167   1.431   3.660   5.811
 7735TIP3   OH223168   0.725   0.538   1.642
 7735TIP3    H123169   0.657   0.474   1.664
 7735TIP3    H223170   0.780   0.542   1.720
 7736TIP3   OH223171   4.479   2.953   1.230
 7736TIP3    H123172   4.503   2.982   1.318
 7736TIP3    H223173   4.524   2.869   1.219
 7737TIP3   OH223174   0.130   5.648   0.069
 7737TIP3    H123175   0.137   5.701  -0.010
 7737TIP3    H223176   0.083   5.569   0.042
 7738TIP3   OH223177   4.670   0.527   4.480
 7738TIP3    H123178   4.750   0.547   4.433
 7738TIP3    H223179   4.699   0.486   4.562
 7739TIP3   OH223180   7.091   3.601   3.312
 7739TIP3    H123181   7.072   3.659   3.386
 7739TIP3    H223182   7.183   3.578   3.322
 7740TIP3   OH223183   3.073   4.813   2.715
 7740TIP3    H123184   3.105   4.808   2.805
 7740TIP3    H223185   3.079   4.905   2.692
 7741TIP3   OH223186   2.790   1.971   4.111
 7741TIP3    H123187   2.762   1.968   4.019
 7741TIP3    H223188   2.839   2.053   4.118
 7742TIP3   OH223189   1.106   2.221   4.712
 7742TIP3    H123190   1.199   2.243   4.718
 7742TIP3    H223191   1.071   2.238   4.800
 7743TIP3   OH223192   6.093   1.805   0.791
 7743TIP3    H123193   6.054   1.774   0.872
 7743TIP3    H223194   6.151   1.876   0.817
 7744TIP3   OH223195   5.208   3.480   2.599
 7744TIP3    H123196   5.175   3.515   2.682
 7744TIP3    H223197   5.134   3.433   2.561
 7745TIP3   OH223198   3.586   2.181   2.076
 7745TIP3    H123199   3.607   2.251   2.137
 7745TIP3    H223200   3.648   2.192   2.004
 7746TIP3   OH223201   5.214   3.192   5.153
 7746TIP3    H123202   5.237   3.276   5.113
 7746TIP3    H223203   5.124   3.204   5.184
 7747TIP3   OH223204   6.117   1.855   1.973
 7747TIP3    H123205   6.080   1.931   2.017
 7747TIP3    H223206   6.194   1.889   1.926
 7748TIP3   OH223207   4.554   3.530   1.556
 7748TIP3    H123208   4.566   3.552   1.463
 7748TIP3    H223209   4.594   3.603   1.603
 7749TIP3   OH223210   3.630   4.462   3.334
 7749TIP3    H123211   3.565   4.505   3.390
 7749TIP3    H223212   3.713   4.506   3.355
 7750TIP3   OH223213   3.884   3.059   0.949
 7750TIP3    H123214   3.937   2.980   0.942
 7750TIP3    H223215   3.917   3.116   0.880
 7751TIP3   OH223216   1.444   3.251   2.712
 7751TIP3    H123217   1.484   3.301   2.783
 7751TIP3    H223218   1.364   3.298   2.691
 7752TIP3   OH223219   7.123   1.635   3.178
 7752TIP3    H123220   7.198   1.612   3.233
 7752TIP3    H223221   7.069   1.692   3.233
 7753TIP3   OH223222   0.440   1.375   0.605
 7753TIP3    H123223   0.533   1.393   0.621
 7753TIP3    H223224   0.440   1.322   0.525
 7754TIP3   OH223225   5.215   4.186   3.403
 7754TIP3    H123226   5.260   4.269   3.413
 7754TIP3    H223227   5.190   4.161   3.492
 7755TIP3   OH223228   2.321   5.823   0.398
 7755TIP3    H123229   2.341   5.757   0.332
 7755TIP3    H223230   2.401   5.874   0.406
 7756TIP3   OH223231   5.331   0.646   2.996
 7756TIP3    H123232   5.239   0.643   3.021
 7756TIP3    H223233   5.365   0.559   3.017
 7757TIP3   OH223234   0.193   6.516   4.426
 7757TIP3    H123235   0.117   6.512   4.368
 7757TIP3    H223236   0.242   6.591   4.395
 7758TIP3   OH223237   6.588   5.792   3.289
 7758TIP3    H123238   6.616   5.807   3.379
 7758TIP3    H223239   6.496   5.767   3.296
 7759TIP3   OH223240   6.616   1.553   3.586
 7759TIP3    H123241   6.621   1.525   3.678
 7759TIP3    H223242   6.707   1.558   3.558
 7760TIP3   OH223243   2.307   5.557   0.979
 7760TIP3    H123244   2.327   5.602   0.897
 7760TIP3    H223245   2.246   5.488   0.955
 7761TIP3   OH223246   1.880   5.201   4.009
 7761TIP3    H123247   1.874   5.295   4.028
 7761TIP3    H223248   1.944   5.195   3.938
 7762TIP3   OH223249   5.000   2.862   0.992
 7762TIP3    H123250   4.988   2.805   1.068
 7762TIP3    H223251   4.911   2.892   0.970
 7763TIP3   OH223252   0.766   1.989   0.937
 7763TIP3    H123253   0.818   1.973   1.016
 7763TIP3    H223254   0.688   1.934   0.948
 7764TIP3   OH223255   5.471   2.635   1.419
 7764TIP3    H123256   5.421   2.633   1.501
 7764TIP3    H223257   5.416   2.586   1.357
 7765TIP3   OH223258   4.442   3.016   1.498
 7765TIP3    H123259   4.487   3.097   1.475
 7765TIP3    H223260   4.403   3.034   1.583
 7766TIP3   OH223261   5.113   1.763   1.799
 7766TIP3    H123262   5.033   1.715   1.819
 7766TIP3    H223263   5.110   1.840   1.856
 7767TIP3   OH223264   6.619   5.820   3.574
 7767TIP3    H123265   6.707   5.793   3.547
 7767TIP3    H223266   6.603   5.771   3.655
 7768TIP3   OH223267   6.107   2.207   0.944
 7768TIP3    H123268   6.061   2.187   0.862
 7768TIP3    H223269   6.197   2.177   0.928
 7769TIP3   OH223270   4.541   0.171   3.536
 7769TIP3    H123271   4.616   0.178   3.595
 7769TIP3    H223272   4.578   0.183   3.448
 7770TIP3   OH223273   3.518   6.230   0.790
 7770TIP3    H123274   3.578   6.270   0.853
 7770TIP3    H223275   3.568   6.226   0.709
 7771TIP3   OH223276   6.221   5.702   3.664
 7771TIP3    H123277   6.280   5.724   3.737
 7771TIP3    H223278   6.141   5.751   3.682
 7772TIP3   OH223279   6.820   0.375   0.476
 7772TIP3    H123280   6.761   0.346   0.406
 7772TIP3    H223281   6.855   0.294   0.513
 7773TIP3   OH223282   6.405   0.184   2.222
 7773TIP3    H123283   6.478   0.125   2.205
 7773TIP3    H223284   6.339   0.130   2.265
 7774TIP3   OH223285   2.298   3.363   1.798
 7774TIP3    H123286   2.300   3.312   1.717
 7774TIP3    H223287   2.369   3.425   1.788
 7775TIP3   OH223288   1.540   5.675   5.545
 7775TIP3    H123289   1.488   5.604   5.583
 7775TIP3    H223290   1.511   5.680   5.454
 7776TIP3   OH223291   3.250   4.146   4.205
 7776TIP3    H123292   3.213   4.190   4.129
 7776TIP3    H223293   3.225   4.200   4.280
 7777TIP3   OH223294   0.195   2.784   2.905
 7777TIP3    H123295   0.101   2.764   2.911
 7777TIP3    H223296   0.228   2.770   2.994
 7778TIP3   OH223297   5.586   3.827   3.038
 7778TIP3    H123298   5.578   3.923   3.038
 7778TIP3    H223299   5.580   3.803   3.131
 7779TIP3   OH223300   5.833   2.683   4.327
 7779TIP3    H123301   5.911   2.638   4.296
 7779TIP3    H223302   5.846   2.692   4.421
 7780TIP3   OH223303   0.873   4.904   5.904
 7780TIP3    H123304   0.904   4.986   5.942
 7780TIP3    H223305   0.868   4.921   5.810
 7781TIP3   OH223306   2.582   4.137   4.726
 7781TIP3    H123307   2.556   4.229   4.720
 7781TIP3    H223308   2.638   4.123   4.650
 7782TIP3   OH223309   0.777   1.883   2.776
 7782TIP3    H123310   0.704   1.908   2.720
 7782TIP3    H223311   0.837   1.957   2.772
 7783TIP3   OH223312   3.507   2.746   2.467
 7783TIP3    H123313   3.465   2.682   2.525
 7783TIP3    H223314   3.592   2.707   2.445
 7784TIP3   OH223315   1.141   4.682   5.210
 7784TIP3    H123316   1.146   4.609   5.273
 7784TIP3    H223317   1.182   4.755   5.255
 7785TIP3   OH223318   3.185   2.750   3.713
 7785TIP3    H123319   3.280   2.737   3.710
 7785TIP3    H223320   3.157   2.707   3.794
 7786TIP3   OH223321   4.723   0.755   2.268
 7786TIP3    H123322   4.757   0.822   2.327
 7786TIP3    H223323   4.779   0.760   2.191
 7787TIP3   OH223324   1.503   4.049   2.432
 7787TIP3    H123325   1.440   3.978   2.423
 7787TIP3    H223326   1.547   4.052   2.347
 7788TIP3   OH223327   6.541   2.288   2.890
 7788TIP3    H123328   6.541   2.193   2.886
 7788TIP3    H223329   6.496   2.316   2.811
 7789TIP3   OH223330   0.534   2.882   1.476
 7789TIP3    H123331   0.547   2.966   1.432
 7789TIP3    H223332   0.441   2.863   1.465
 7790TIP3   OH223333   0.967   0.948   4.853
 7790TIP3    H123334   0.981   0.877   4.790
 7790TIP3    H223335   0.906   1.006   4.808
 7791TIP3   OH223336   2.169   6.323   1.498
 7791TIP3    H123337   2.169   6.359   1.409
 7791TIP3    H223338   2.255   6.282   1.507
 7792TIP3   OH223339   1.524   3.328   0.623
 7792TIP3    H123340   1.479   3.324   0.707
 7792TIP3    H223341   1.470   3.275   0.564
 7793TIP3   OH223342   5.907   6.088   4.869
 7793TIP3    H123343   5.925   6.142   4.946
 7793TIP3    H223344   5.967   6.121   4.802
 7794TIP3   OH223345   5.110   4.692   2.112
 7794TIP3    H123346   5.134   4.599   2.110
 7794TIP3    H223347   5.102   4.713   2.205
 7795TIP3   OH223348   6.610   4.512   4.030
 7795TIP3    H123349   6.629   4.547   3.943
 7795TIP3    H223350   6.632   4.419   4.024
 7796TIP3   OH223351   5.727   1.417   1.067
 7796TIP3    H123352   5.681   1.462   0.996
 7796TIP3    H223353   5.686   1.330   1.070
 7797TIP3   OH223354   6.598   4.427   0.773
 7797TIP3    H123355   6.612   4.384   0.689
 7797TIP3    H223356   6.675   4.482   0.785
 7798TIP3   OH223357   2.993   3.027   4.469
 7798TIP3    H123358   2.956   3.077   4.396
 7798TIP3    H223359   3.044   3.092   4.518
 7799TIP3   OH223360   3.389   4.624   2.861
 7799TIP3    H123361   3.404   4.694   2.925
 7799TIP3    H223362   3.476   4.590   2.841
 7800TIP3   OH223363   6.439   2.517   0.873
 7800TIP3    H123364   6.344   2.512   0.886
 7800TIP3    H223365   6.460   2.442   0.818
 7801TIP3   OH223366   0.319   5.660   0.287
 7801TIP3    H123367   0.391   5.708   0.247
 7801TIP3    H223368   0.255   5.651   0.217
 7802TIP3   OH223369   6.348   0.151   3.612
 7802TIP3    H123370   6.427   0.124   3.659
 7802TIP3    H223371   6.380   0.182   3.527
 7803TIP3   OH223372   2.401   6.201   4.029
 7803TIP3    H123373   2.471   6.243   4.079
 7803TIP3    H223374   2.374   6.266   3.965
 7804TIP3   OH223375   2.645   1.960   4.386
 7804TIP3    H123376   2.619   2.028   4.324
 7804TIP3    H223377   2.708   1.906   4.339
 7805TIP3   OH223378   4.282   3.682   2.963
 7805TIP3    H123379   4.352   3.625   2.997
 7805TIP3    H223380   4.302   3.768   3.000
 7806TIP3   OH223381   2.316   3.381   3.226
 7806TIP3    H123382   2.403   3.391   3.266
 7806TIP3    H223383   2.269   3.323   3.285
 7807TIP3   OH223384   6.565   1.352   4.973
 7807TIP3    H123385   6.513   1.362   4.893
 7807TIP3    H223386   6.634   1.290   4.948
 7808TIP3   OH223387   1.376   2.786   2.540
 7808TIP3    H123388   1.322   2.853   2.498
 7808TIP3    H223389   1.379   2.813   2.632
 7809TIP3   OH223390   4.856   3.889   4.174
 7809TIP3    H123391   4.940   3.878   4.130
 7809TIP3    H223392   4.830   3.979   4.155
 7810TIP3   OH223393   5.645   4.809   4.834
 7810TIP3    H123394   5.692   4.755   4.898
 7810TIP3    H223395   5.713   4.865   4.797
 7811TIP3   OH223396   0.276   1.292   2.930
 7811TIP3    H123397   0.199   1.311   2.877
 7811TIP3    H223398   0.293   1.373   2.978
 7812TIP3   OH223399   0.643   0.689   5.259
 7812TIP3    H123400   0.722   0.636   5.244
 7812TIP3    H223401   0.631   0.688   5.354
 7813TIP3   OH223402   1.452   3.341   5.941
 7813TIP3    H123403   1.518   3.274   5.921
 7813TIP3    H223404   1.446   3.393   5.861
 7814TIP3   OH223405   6.668   0.152   1.224
 7814TIP3    H123406   6.687   0.244   1.244
 7814TIP3    H223407   6.734   0.102   1.272
 7815TIP3   OH223408   2.663   3.710   1.878
 7815TIP3    H123409   2.680   3.646   1.947
 7815TIP3    H223410   2.604   3.665   1.817
 7816TIP3   OH223411   1.233   5.010   3.082
 7816TIP3    H123412   1.192   5.095   3.064
 7816TIP3    H223413   1.294   5.028   3.154
 7817TIP3   OH223414   0.022   1.903   0.541
 7817TIP3    H123415  -0.024   1.891   0.625
 7817TIP3    H223416   0.115   1.898   0.564
 7818TIP3   OH223417   1.110   6.255   2.890
 7818TIP3    H123418   1.087   6.221   2.977
 7818TIP3    H223419   1.036   6.311   2.866
 7819TIP3   OH223420   5.003   5.298   2.540
 7819TIP3    H123421   5.091   5.324   2.511
 7819TIP3    H223422   4.971   5.240   2.471
 7820TIP3   OH223423   5.415   5.293   0.330
 7820TIP3    H123424   5.440   5.381   0.360
 7820TIP3    H223425   5.497   5.255   0.298
 7821TIP3   OH223426   6.332   1.354   0.051
 7821TIP3    H123427   6.254   1.326   0.100
 7821TIP3    H223428   6.333   1.450   0.061
 7822TIP3   OH223429   7.125   0.766   3.662
 7822TIP3    H123430   7.069   0.765   3.740
 7822TIP3    H223431   7.066   0.792   3.591
 7823TIP3   OH223432   1.049   2.007   3.736
 7823TIP3    H123433   0.959   2.008   3.704
 7823TIP3    H223434   1.090   1.933   3.691
 7824TIP3   OH223435   3.862   3.644   0.683
 7824TIP3    H123436   3.907   3.705   0.741
 7824TIP3    H223437   3.773   3.639   0.717
 7825TIP3   OH223438   1.552   2.643   4.567
 7825TIP3    H123439   1.629   2.651   4.624
 7825TIP3    H223440   1.518   2.556   4.585
 7826TIP3   OH223441   1.645   3.262   3.248
 7826TIP3    H123442   1.632   3.176   3.209
 7826TIP3    H223443   1.709   3.247   3.317
 7827TIP3   OH223444   1.657   6.675   1.647
 7827TIP3    H123445   1.565   6.702   1.653
 7827TIP3    H223446   1.661   6.620   1.569
 7828TIP3   OH223447   4.275   2.796   5.592
 7828TIP3    H123448   4.213   2.775   5.522
 7828TIP3    H223449   4.354   2.747   5.569
 7829TIP3   OH223450   6.909   1.717   2.930
 7829TIP3    H123451   6.911   1.763   3.013
 7829TIP3    H223452   6.964   1.639   2.944
 7830TIP3   OH223453   4.011   0.407   5.754
 7830TIP3    H123454   3.988   0.500   5.746
 7830TIP3    H223455   4.048   0.398   5.841
 7831TIP3   OH223456   2.708   3.535   4.704
 7831TIP3    H123457   2.680   3.570   4.789
 7831TIP3    H223458   2.739   3.611   4.655
 7832TIP3   OH223459   0.672   2.231   0.711
 7832TIP3    H123460   0.610   2.267   0.774
 7832TIP3    H223461   0.758   2.262   0.741
 7833TIP3   OH223462   0.958   3.808   3.736
 7833TIP3    H123463   1.015   3.732   3.741
 7833TIP3    H223464   0.939   3.817   3.642
 7834TIP3   OH223465   6.243   3.567   1.270
 7834TIP3    H123466   6.274   3.641   1.323
 7834TIP3    H223467   6.269   3.589   1.181
 7835TIP3   OH223468   2.917   5.550   3.096
 7835TIP3    H123469   2.974   5.583   3.166
 7835TIP3    H223470   2.973   5.550   3.018
 7836TIP3   OH223471   0.078   5.963   4.852
 7836TIP3    H123472   0.125   5.883   4.826
 7836TIP3    H223473   0.000   5.964   4.797
 7837TIP3   OH223474   1.082   3.399   3.309
 7837TIP3    H123475   1.097   3.394   3.214
 7837TIP3    H223476   1.168   3.421   3.345
 7838TIP3   OH223477   2.553   5.415   2.189
 7838TIP3    H123478   2.596   5.358   2.125
 7838TIP3    H223479   2.609   5.411   2.267
 7839TIP3   OH223480   0.642   1.020   1.141
 7839TIP3    H123481   0.627   1.010   1.235
 7839TIP3    H223482   0.689   1.103   1.133
 7840TIP3   OH223483   4.376   0.859   1.028
 7840TIP3    H123484   4.318   0.821   0.961
 7840TIP3    H223485   4.319   0.915   1.080
 7841TIP3   OH223486   3.773   2.291   3.806
 7841TIP3    H123487   3.861   2.270   3.775
 7841TIP3    H223488   3.715   2.259   3.736
 7842TIP3   OH223489   2.992   6.612   2.658
 7842TIP3    H123490   3.072   6.660   2.677
 7842TIP3    H223491   2.964   6.643   2.572
 7843TIP3   OH223492   0.695   3.020   5.042
 7843TIP3    H123493   0.686   2.927   5.022
 7843TIP3    H223494   0.681   3.026   5.136
 7844TIP3   OH223495   6.207   2.241   0.218
 7844TIP3    H123496   6.213   2.325   0.172
 7844TIP3    H223497   6.113   2.224   0.225
 7845TIP3   OH223498   2.640   3.642   2.672
 7845TIP3    H123499   2.630   3.555   2.710
 7845TIP3    H223500   2.703   3.687   2.729
 7846TIP3   OH223501   6.147   2.427   2.504
 7846TIP3    H123502   6.124   2.338   2.530
 7846TIP3    H223503   6.069   2.462   2.461
 7847TIP3   OH223504   0.544   2.985   0.702
 7847TIP3    H123505   0.504   2.900   0.718
 7847TIP3    H223506   0.509   3.013   0.618
 7848TIP3   OH223507   3.871   5.449   2.463
 7848TIP3    H123508   3.928   5.526   2.467
 7848TIP3    H223509   3.864   5.429   2.370
 7849TIP3   OH223510   4.688   6.289   2.344
 7849TIP3    H123511   4.647   6.224   2.401
 7849TIP3    H223512   4.728   6.238   2.274
 7850TIP3   OH223513   5.960   6.030   3.155
 7850TIP3    H123514   5.964   5.942   3.191
 7850TIP3    H223515   6.048   6.046   3.122
 7851TIP3   OH223516   4.407   3.382   5.003
 7851TIP3    H123517   4.363   3.457   4.964
 7851TIP3    H223518   4.464   3.349   4.934
 7852TIP3   OH223519   2.746   4.070   2.735
 7852TIP3    H123520   2.816   4.010   2.709
 7852TIP3    H223521   2.787   4.128   2.799
 7853TIP3   OH223522   2.123   4.166   3.990
 7853TIP3    H123523   2.042   4.156   4.040
 7853TIP3    H223524   2.167   4.241   4.031
 7854TIP3   OH223525   5.022   0.817   4.473
 7854TIP3    H123526   4.951   0.806   4.537
 7854TIP3    H223527   5.080   0.743   4.489
 7855TIP3   OH223528   4.933   4.164   5.344
 7855TIP3    H123529   4.922   4.107   5.268
 7855TIP3    H223530   4.945   4.252   5.307
 7856TIP3   OH223531   1.379   6.320   5.540
 7856TIP3    H123532   1.430   6.379   5.485
 7856TIP3    H223533   1.375   6.365   5.625
 7857TIP3   OH223534   4.071   2.889   0.147
 7857TIP3    H123535   4.059   2.813   0.205
 7857TIP3    H223536   4.101   2.851   0.064
 7858TIP3   OH223537   2.798   1.204   1.313
 7858TIP3    H123538   2.770   1.119   1.349
 7858TIP3    H223539   2.807   1.260   1.390
 7859TIP3   OH223540   3.299   3.421   2.204
 7859TIP3    H123541   3.258   3.367   2.272
 7859TIP3    H223542   3.250   3.504   2.207
 7860TIP3   OH223543   0.511   3.969   1.936
 7860TIP3    H123544   0.578   3.939   1.998
 7860TIP3    H223545   0.474   4.047   1.977
 7861TIP3   OH223546   5.195   6.031   3.186
 7861TIP3    H123547   5.148   6.027   3.269
 7861TIP3    H223548   5.286   6.012   3.209
 7862TIP3   OH223549   3.851   6.237   2.020
 7862TIP3    H123550   3.797   6.294   2.075
 7862TIP3    H223551   3.897   6.180   2.082
 7863TIP3   OH223552   3.508   2.532   2.915
 7863TIP3    H123553   3.570   2.596   2.880
 7863TIP3    H223554   3.545   2.508   3.001
 7864TIP3   OH223555   6.021   0.426   1.101
 7864TIP3    H123556   6.034   0.342   1.145
 7864TIP3    H223557   5.993   0.403   1.013
 7865TIP3   OH223558   0.630   2.570   0.697
 7865TIP3    H123559   0.648   2.539   0.785
 7865TIP3    H223560   0.703   2.627   0.675
 7866TIP3   OH223561   0.760   4.388   0.206
 7866TIP3    H123562   0.807   4.337   0.140
 7866TIP3    H223563   0.707   4.324   0.253
 7867TIP3   OH223564   1.711   6.395   1.714
 7867TIP3    H123565   1.642   6.451   1.678
 7867TIP3    H223566   1.696   6.310   1.673
 7868TIP3   OH223567   3.859   4.396   3.830
 7868TIP3    H123568   3.780   4.367   3.783
 7868TIP3    H223569   3.878   4.482   3.795
 7869TIP3   OH223570   2.964   3.696   5.006
 7869TIP3    H123571   3.033   3.755   5.036
 7869TIP3    H223572   3.000   3.608   5.019
 7870TIP3   OH223573   6.348   5.143   2.881
 7870TIP3    H123574   6.378   5.148   2.790
 7870TIP3    H223575   6.286   5.215   2.890
 7871TIP3   OH223576   2.716   5.100   2.147
 7871TIP3    H123577   2.796   5.074   2.103
 7871TIP3    H223578   2.654   5.118   2.076
 7872TIP3   OH223579   4.065   5.115   2.906
 7872TIP3    H123580   4.153   5.129   2.872
 7872TIP3    H223581   4.008   5.124   2.830
 7873TIP3   OH223582   2.491   2.215   3.504
 7873TIP3    H123583   2.498   2.302   3.543
 7873TIP3    H223584   2.549   2.217   3.428
 7874TIP3   OH223585   2.266   1.619   0.423
 7874TIP3    H123586   2.275   1.527   0.447
 7874TIP3    H223587   2.193   1.651   0.475
 7875TIP3   OH223588   0.687   5.469   2.473
 7875TIP3    H123589   0.595   5.450   2.454
 7875TIP3    H223590   0.704   5.424   2.556
 7876TIP3   OH223591   6.684   2.888   4.721
 7876TIP3    H123592   6.591   2.893   4.701
 7876TIP3    H223593   6.704   2.970   4.766
 7877TIP3   OH223594   5.693   0.791   0.396
 7877TIP3    H123595   5.746   0.825   0.467
 7877TIP3    H223596   5.603   0.793   0.429
 7878TIP3   OH223597   6.193   0.211   1.665
 7878TIP3    H123598   6.227   0.277   1.725
 7878TIP3    H223599   6.216   0.243   1.578
 7879TIP3   OH223600   3.169   2.548   3.904
 7879TIP3    H123601   3.226   2.484   3.861
 7879TIP3    H223602   3.147   2.507   3.988
 7880TIP3   OH223603   6.093   5.395   5.641
 7880TIP3    H123604   6.052   5.392   5.727
 7880TIP3    H223605   6.021   5.387   5.579
 7881TIP3   OH223606   4.029   3.953   2.248
 7881TIP3    H123607   4.074   4.009   2.185
 7881TIP3    H223608   3.983   3.889   2.194
 7882TIP3   OH223609   6.540   3.873   3.897
 7882TIP3    H123610   6.630   3.902   3.911
 7882TIP3    H223611   6.486   3.943   3.932
 7883TIP3   OH223612   2.927   4.949   0.042
 7883TIP3    H123613   2.908   4.990  -0.042
 7883TIP3    H223614   2.851   4.968   0.097
 7884TIP3   OH223615   4.882   1.910   1.603
 7884TIP3    H123616   4.915   1.922   1.692
 7884TIP3    H223617   4.787   1.913   1.612
 7885TIP3   OH223618   3.020   0.791   3.797
 7885TIP3    H123619   2.958   0.860   3.774
 7885TIP3    H223620   3.102   0.819   3.756
 7886TIP3   OH223621   1.311   6.118   2.772
 7886TIP3    H123622   1.253   6.176   2.821
 7886TIP3    H223623   1.399   6.148   2.795
 7887TIP3   OH223624   3.829   2.897   0.522
 7887TIP3    H123625   3.919   2.929   0.517
 7887TIP3    H223626   3.820   2.867   0.612
 7888TIP3   OH223627   5.340   6.440   3.230
 7888TIP3    H123628   5.353   6.357   3.276
 7888TIP3    H223629   5.251   6.467   3.252
 7889TIP3   OH223630   3.028   4.546   1.937
 7889TIP3    H123631   2.988   4.459   1.927
 7889TIP3    H223632   3.082   4.538   2.016
 7890TIP3   OH223633   2.771   1.991   1.562
 7890TIP3    H123634   2.785   2.029   1.649
 7890TIP3    H223635   2.743   2.065   1.508
 7891TIP3   OH223636   0.577   2.696   2.389
 7891TIP3    H123637   0.486   2.670   2.402
 7891TIP3    H223638   0.584   2.717   2.296
 7892TIP3   OH223639   5.096   0.980   2.793
 7892TIP3    H123640   5.119   1.028   2.713
 7892TIP3    H223641   5.134   0.893   2.779
 7893TIP3   OH223642   7.147   2.685   1.432
 7893TIP3    H123643   7.224   2.714   1.480
 7893TIP3    H223644   7.076   2.742   1.462
 7894TIP3   OH223645   6.408   2.624   2.097
 7894TIP3    H123646   6.497   2.661   2.098
 7894TIP3    H223647   6.422   2.531   2.079
 7895TIP3   OH223648   3.802   3.062   1.514
 7895TIP3    H123649   3.895   3.084   1.518
 7895TIP3    H223650   3.761   3.138   1.471
 7896TIP3   OH223651   1.399   0.822   4.408
 7896TIP3    H123652   1.460   0.845   4.478
 7896TIP3    H223653   1.317   0.864   4.434
 7897TIP3   OH223654   7.197   5.755   5.614
 7897TIP3    H123655   7.132   5.763   5.683
 7897TIP3    H223656   7.233   5.844   5.604
 7898TIP3   OH223657   2.376   5.504   5.177
 7898TIP3    H123658   2.363   5.417   5.141
 7898TIP3    H223659   2.287   5.540   5.187
 7899TIP3   OH223660   5.898   0.287   4.556
 7899TIP3    H123661   5.810   0.283   4.521
 7899TIP3    H223662   5.935   0.368   4.522
 7900TIP3   OH223663   1.988   6.063   4.674
 7900TIP3    H123664   1.972   5.968   4.673
 7900TIP3    H223665   1.943   6.094   4.752
 7901TIP3   OH223666   0.825   2.926   2.556
 7901TIP3    H123667   0.792   2.839   2.531
 7901TIP3    H223668   0.848   2.967   2.472
 7902TIP3   OH223669   0.527   5.452   1.789
 7902TIP3    H123670   0.577   5.531   1.769
 7902TIP3    H223671   0.539   5.395   1.713
 7903TIP3   OH223672   2.433   1.897   1.086
 7903TIP3    H123673   2.461   1.883   0.996
 7903TIP3    H223674   2.485   1.835   1.137
 7904TIP3   OH223675   1.028   0.614   5.010
 7904TIP3    H123676   0.968   0.684   5.034
 7904TIP3    H223677   0.979   0.560   4.947
 7905TIP3   OH223678   4.920   4.777   5.730
 7905TIP3    H123679   4.862   4.851   5.712
 7905TIP3    H223680   4.874   4.725   5.796
 7906TIP3   OH223681   4.180   1.869   5.559
 7906TIP3    H123682   4.263   1.901   5.594
 7906TIP3    H223683   4.205   1.792   5.507
 7907TIP3   OH223684   6.195   3.057   3.372
 7907TIP3    H123685   6.171   2.983   3.317
 7907TIP3    H223686   6.207   3.130   3.311
 7908TIP3   OH223687   6.839   1.688   2.666
 7908TIP3    H123688   6.799   1.631   2.732
 7908TIP3    H223689   6.919   1.642   2.640
 7909TIP3   OH223690   2.737   0.816   0.288
 7909TIP3    H123691   2.734   0.721   0.284
 7909TIP3    H223692   2.671   0.845   0.224
 7910TIP3   OH223693   4.818   1.605   3.618
 7910TIP3    H123694   4.747   1.644   3.567
 7910TIP3    H223695   4.862   1.546   3.557
 7911TIP3   OH223696   3.779   2.081   1.088
 7911TIP3    H123697   3.780   1.988   1.110
 7911TIP3    H223698   3.870   2.102   1.068
 7912TIP3   OH223699   3.345   3.138   3.392
 7912TIP3    H123700   3.389   3.218   3.421
 7912TIP3    H223701   3.346   3.144   3.296
 7913TIP3   OH223702   6.298   2.789   0.609
 7913TIP3    H123703   6.231   2.783   0.541
 7913TIP3    H223704   6.251   2.817   0.687
 7914TIP3   OH223705   2.827   5.175   3.818
 7914TIP3    H123706   2.819   5.226   3.899
 7914TIP3    H223707   2.757   5.208   3.762
 7915TIP3   OH223708   0.515   2.184   5.204
 7915TIP3    H123709   0.503   2.279   5.203
 7915TIP3    H223710   0.446   2.150   5.148
 7916TIP3   OH223711   3.830   3.402   5.328
 7916TIP3    H123712   3.866   3.348   5.399
 7916TIP3    H223713   3.735   3.394   5.337
 7917TIP3   OH223714   6.638   0.137   5.405
 7917TIP3    H123715   6.645   0.173   5.493
 7917TIP3    H223716   6.657   0.211   5.347
 7918TIP3   OH223717   5.211   6.109   0.521
 7918TIP3    H123718   5.194   6.195   0.482
 7918TIP3    H223719   5.133   6.057   0.499
 7919TIP3   OH223720   1.751   1.764   4.778
 7919TIP3    H123721   1.797   1.682   4.762
 7919TIP3    H223722   1.663   1.739   4.803
 7920TIP3   OH223723   1.887   4.922   4.141
 7920TIP3    H123724   1.899   4.846   4.085
 7920TIP3    H223725   1.901   4.997   4.083
 7921TIP3   OH223726   5.864   6.671   0.292
 7921TIP3    H123727   5.841   6.654   0.384
 7921TIP3    H223728   5.959   6.671   0.290
 7922TIP3   OH223729   1.527   1.169   3.115
 7922TIP3    H123730   1.454   1.157   3.054
 7922TIP3    H223731   1.605   1.154   3.061
 7923TIP3   OH223732   7.027   2.997   1.025
 7923TIP3    H123733   6.984   3.081   1.009
 7923TIP3    H223734   7.114   3.007   0.987
 7924TIP3   OH223735   4.963   1.513   1.769
 7924TIP3    H123736   4.949   1.558   1.686
 7924TIP3    H223737   4.910   1.562   1.832
 7925TIP3   OH223738   6.694   6.383   3.768
 7925TIP3    H123739   6.717   6.403   3.859
 7925TIP3    H223740   6.670   6.290   3.770
 7926TIP3   OH223741   3.428   5.480   2.475
 7926TIP3    H123742   3.457   5.545   2.539
 7926TIP3    H223743   3.405   5.532   2.398
 7927TIP3   OH223744   0.350   6.059   4.373
 7927TIP3    H123745   0.366   6.114   4.295
 7927TIP3    H223746   0.303   6.116   4.433
 7928TIP3   OH223747   5.370   1.175   1.512
 7928TIP3    H123748   5.294   1.119   1.496
 7928TIP3    H223749   5.355   1.211   1.600
 7929TIP3   OH223750   2.627   2.197   5.647
 7929TIP3    H123751   2.609   2.103   5.650
 7929TIP3    H223752   2.571   2.234   5.715
 7930TIP3   OH223753   3.947   3.732   1.803
 7930TIP3    H123754   3.915   3.681   1.729
 7930TIP3    H223755   4.015   3.788   1.766
 7931TIP3   OH223756   1.581   5.122   4.757
 7931TIP3    H123757   1.609   5.161   4.839
 7931TIP3    H223758   1.660   5.079   4.722
 7932TIP3   OH223759   4.492   6.197   3.090
 7932TIP3    H123760   4.574   6.178   3.135
 7932TIP3    H223761   4.474   6.289   3.109
 7933TIP3   OH223762   1.445   0.168   3.775
 7933TIP3    H123763   1.363   0.211   3.799
 7933TIP3    H223764   1.419   0.079   3.749
 7934TIP3   OH223765   4.334   3.994   4.027
 7934TIP3    H123766   4.402   4.040   4.075
 7934TIP3    H223767   4.378   3.918   3.990
 7935TIP3   OH223768   3.578   5.060   5.433
 7935TIP3    H123769   3.573   5.007   5.512
 7935TIP3    H223770   3.517   5.017   5.372
 7936TIP3   OH223771   3.159   3.220   0.859
 7936TIP3    H123772   3.162   3.160   0.934
 7936TIP3    H223773   3.141   3.163   0.784
 7937TIP3   OH223774   0.068   5.978   4.353
 7937TIP3    H123775   0.163   5.967   4.344
 7937TIP3    H223776   0.034   5.889   4.356
 7938TIP3   OH223777   4.818   3.727   3.595
 7938TIP3    H123778   4.875   3.773   3.533
 7938TIP3    H223779   4.785   3.652   3.546
 7939TIP3   OH223780   3.326   4.806   4.214
 7939TIP3    H123781   3.276   4.727   4.233
 7939TIP3    H223782   3.415   4.786   4.242
 7940TIP3   OH223783   0.302   1.288   5.008
 7940TIP3    H123784   0.317   1.230   4.934
 7940TIP3    H223785   0.363   1.361   4.994
 7941TIP3   OH223786   7.077   1.605   4.958
 7941TIP3    H123787   7.036   1.572   4.878
 7941TIP3    H223788   7.170   1.584   4.947
 7942TIP3   OH223789   6.957   6.004   2.992
 7942TIP3    H123790   6.959   6.079   2.932
 7942TIP3    H223791   7.030   5.949   2.962
 7943TIP3   OH223792   4.684   5.946   4.186
 7943TIP3    H123793   4.673   5.906   4.099
 7943TIP3    H223794   4.755   5.896   4.226
 7944TIP3   OH223795   1.522   4.399   3.730
 7944TIP3    H123796   1.433   4.394   3.695
 7944TIP3    H223797   1.570   4.333   3.681
 7945TIP3   OH223798   3.403   2.952   0.957
 7945TIP3    H123799   3.495   2.977   0.944
 7945TIP3    H223800   3.408   2.868   1.003
 7946TIP3   OH223801   2.938   0.627   4.952
 7946TIP3    H123802   2.907   0.690   4.887
 7946TIP3    H223803   3.012   0.584   4.910
 7947TIP3   OH223804   2.047   4.065   2.825
 7947TIP3    H123805   2.065   4.098   2.737
 7947TIP3    H223806   1.957   4.032   2.821
 7948TIP3   OH223807   0.187   4.798   3.540
 7948TIP3    H123808   0.217   4.799   3.449
 7948TIP3    H223809   0.249   4.853   3.586
 7949TIP3   OH223810   3.496   1.267   1.435
 7949TIP3    H123811   3.427   1.332   1.427
 7949TIP3    H223812   3.566   1.299   1.378
 7950TIP3   OH223813   5.731   4.807   0.225
 7950TIP3    H123814   5.679   4.828   0.148
 7950TIP3    H223815   5.818   4.840   0.206
 7951TIP3   OH223816   3.286   2.327   3.500
 7951TIP3    H123817   3.210   2.385   3.505
 7951TIP3    H223818   3.342   2.366   3.432
 7952TIP3   OH223819   6.106   4.657   0.901
 7952TIP3    H123820   6.048   4.699   0.837
 7952TIP3    H223821   6.051   4.646   0.979
 7953TIP3   OH223822   2.939   0.741   2.436
 7953TIP3    H123823   2.980   0.654   2.431
 7953TIP3    H223824   2.876   0.734   2.508
 7954TIP3   OH223825   6.242   6.808   5.182
 7954TIP3    H123826   6.209   6.856   5.258
 7954TIP3    H223827   6.314   6.862   5.149
 7955TIP3   OH223828   5.442   1.251   1.003
 7955TIP3    H123829   5.457   1.191   0.930
 7955TIP3    H223830   5.464   1.201   1.081
 7956TIP3   OH223831   5.015   5.280   1.642
 7956TIP3    H123832   4.972   5.195   1.644
 7956TIP3    H223833   4.981   5.326   1.719
 7957TIP3   OH223834   5.482   5.324   4.738
 7957TIP3    H123835   5.518   5.408   4.708
 7957TIP3    H223836   5.498   5.323   4.832
 7958TIP3   OH223837   6.347   6.362   2.608
 7958TIP3    H123838   6.269   6.311   2.628
 7958TIP3    H223839   6.380   6.390   2.693
 7959TIP3   OH223840   6.690   6.705   5.748
 7959TIP3    H123841   6.754   6.765   5.711
 7959TIP3    H223842   6.615   6.759   5.770
 7960TIP3   OH223843   1.706   4.640   5.207
 7960TIP3    H123844   1.760   4.568   5.239
 7960TIP3    H223845   1.662   4.604   5.129
 7961TIP3   OH223846   4.981   1.459   4.861
 7961TIP3    H123847   5.011   1.550   4.857
 7961TIP3    H223848   4.930   1.447   4.781
 7962TIP3   OH223849   4.738   4.436   0.388
 7962TIP3    H123850   4.803   4.414   0.321
 7962TIP3    H223851   4.662   4.384   0.364
 7963TIP3   OH223852   5.958   3.995   3.878
 7963TIP3    H123853   5.977   4.066   3.938
 7963TIP3    H223854   6.035   3.938   3.883
 7964TIP3   OH223855   5.793   2.171   3.783
 7964TIP3    H123856   5.732   2.228   3.736
 7964TIP3    H223857   5.836   2.121   3.714
 7965TIP3   OH223858   7.192   0.212   0.893
 7965TIP3    H123859   7.099   0.231   0.910
 7965TIP3    H223860   7.238   0.252   0.967
 7966TIP3   OH223861   4.308   6.485   2.752
 7966TIP3    H123862   4.391   6.456   2.790
 7966TIP3    H223863   4.265   6.533   2.823
 7967TIP3   OH223864   2.029   2.865   4.138
 7967TIP3    H123865   1.936   2.874   4.116
 7967TIP3    H223866   2.031   2.865   4.234
 7968TIP3   OH223867   4.735   5.100   5.227
 7968TIP3    H123868   4.830   5.087   5.230
 7968TIP3    H223869   4.709   5.108   5.319
 7969TIP3   OH223870   2.090   4.596   0.806
 7969TIP3    H123871   2.155   4.634   0.748
 7969TIP3    H223872   2.132   4.517   0.842
 7970TIP3   OH223873   6.347   4.779   1.761
 7970TIP3    H123874   6.314   4.862   1.797
 7970TIP3    H223875   6.336   4.788   1.667
 7971TIP3   OH223876   3.097   5.133   3.923
 7971TIP3    H123877   3.010   5.116   3.888
 7971TIP3    H223878   3.083   5.154   4.015
 7972TIP3   OH223879   1.007   4.446   3.200
 7972TIP3    H123880   1.004   4.506   3.125
 7972TIP3    H223881   0.967   4.365   3.168
 7973TIP3   OH223882   4.781   0.895   4.950
 7973TIP3    H123883   4.823   0.909   4.865
 7973TIP3    H223884   4.698   0.943   4.943
 7974TIP3   OH223885   6.489   0.409   1.424
 7974TIP3    H123886   6.463   0.320   1.402
 7974TIP3    H223887   6.574   0.420   1.382
 7975TIP3   OH223888   0.120   5.550   3.502
 7975TIP3    H123889   0.130   5.564   3.596
 7975TIP3    H223890   0.071   5.626   3.472
 7976TIP3   OH223891   4.486   1.068   5.809
 7976TIP3    H123892   4.577   1.051   5.785
 7976TIP3    H223893   4.485   1.068   5.905
 7977TIP3   OH223894   3.665   0.344   4.779
 7977TIP3    H123895   3.570   0.351   4.783
 7977TIP3    H223896   3.684   0.313   4.691
 7978TIP3   OH223897   3.845   1.055   2.109
 7978TIP3    H123898   3.761   1.058   2.064
 7978TIP3    H223899   3.844   0.973   2.158
 7979TIP3   OH223900   1.778   0.414   2.547
 7979TIP3    H123901   1.827   0.475   2.492
 7979TIP3    H223902   1.817   0.329   2.529
 7980TIP3   OH223903   2.557   5.774   1.253
 7980TIP3    H123904   2.478   5.778   1.306
 7980TIP3    H223905   2.549   5.693   1.203
 7981TIP3   OH223906   6.886   5.100   4.514
 7981TIP3    H123907   6.949   5.159   4.472
 7981TIP3    H223908   6.800   5.138   4.493
 7982TIP3   OH223909   1.198   0.668   3.323
 7982TIP3    H123910   1.245   0.738   3.278
 7982TIP3    H223911   1.215   0.684   3.416
 7983TIP3   OH223912   4.676   2.940   3.777
 7983TIP3    H123913   4.748   2.989   3.738
 7983TIP3    H223914   4.717   2.867   3.822
 7984TIP3   OH223915   5.141   3.759   0.463
 7984TIP3    H123916   5.192   3.830   0.503
 7984TIP3    H223917   5.202   3.686   0.456
 7985TIP3   OH223918   4.380   3.637   2.702
 7985TIP3    H123919   4.348   3.645   2.791
 7985TIP3    H223920   4.435   3.559   2.703
 7986TIP3   OH223921   1.435   2.534   1.785
 7986TIP3    H123922   1.384   2.610   1.811
 7986TIP3    H223923   1.418   2.525   1.691
 7987TIP3   OH223924   3.037   5.689   1.634
 7987TIP3    H123925   2.978   5.671   1.561
 7987TIP3    H223926   3.025   5.615   1.693
 7988TIP3   OH223927   0.955   6.169   5.522
 7988TIP3    H123928   0.871   6.209   5.503
 7988TIP3    H223929   0.960   6.094   5.463
 7989TIP3   OH223930   4.385   6.100   2.857
 7989TIP3    H123931   4.429   6.151   2.925
 7989TIP3    H223932   4.375   6.013   2.894
 7990TIP3   OH223933   0.621   0.591   2.820
 7990TIP3    H123934   0.704   0.634   2.797
 7990TIP3    H223935   0.616   0.601   2.915
 7991TIP3   OH223936   1.781   0.952   3.407
 7991TIP3    H123937   1.748   0.867   3.437
 7991TIP3    H223938   1.841   0.930   3.336
 7992TIP3   OH223939   4.148   1.498   2.113
 7992TIP3    H123940   4.131   1.538   2.028
 7992TIP3    H223941   4.105   1.557   2.176
 7993TIP3   OH223942   5.448   5.924   3.290
 7993TIP3    H123943   5.385   5.880   3.347
 7993TIP3    H223944   5.488   5.853   3.239
 7994TIP3   OH223945   0.745   1.943   0.619
 7994TIP3    H123946   0.735   1.925   0.526
 7994TIP3    H223947   0.745   2.038   0.626
 7995TIP3   OH223948   0.464   3.308   3.523
 7995TIP3    H123949   0.410   3.275   3.452
 7995TIP3    H223950   0.445   3.249   3.596
 7996TIP3   OH223951   5.771   3.841   3.774
 7996TIP3    H123952   5.822   3.911   3.815
 7996TIP3    H223953   5.724   3.884   3.703
 7997TIP3   OH223954   1.322   3.967   1.662
 7997TIP3    H123955   1.280   3.887   1.632
 7997TIP3    H223956   1.386   3.938   1.727
 7998TIP3   OH223957   3.896   1.033   3.619
 7998TIP3    H123958   3.840   0.967   3.660
 7998TIP3    H223959   3.842   1.069   3.548
 7999TIP3   OH223960   6.362   3.787   5.474
 7999TIP3    H123961   6.291   3.731   5.440
 7999TIP3    H223962   6.408   3.817   5.396
 8000TIP3   OH223963   2.376   2.160   0.594
 8000TIP3    H123964   2.466   2.166   0.564
 8000TIP3    H223965   2.371   2.222   0.667
 8001TIP3   OH223966   5.764   3.106   0.223
 8001TIP3    H123967   5.730   3.047   0.155
 8001TIP3    H223968   5.800   3.180   0.174
 8002TIP3   OH223969   0.916   0.611   3.311
 8002TIP3    H123970   1.007   0.639   3.313
 8002TIP3    H223971   0.898   0.594   3.218
 8003TIP3   OH223972   5.431   5.526   1.856
 8003TIP3    H123973   5.409   5.519   1.763
 8003TIP3    H223974   5.404   5.615   1.880
 8004TIP3   OH223975   4.176   4.233   3.520
 8004TIP3    H123976   4.152   4.229   3.613
 8004TIP3    H223977   4.252   4.291   3.518
 8005TIP3   OH223978   2.243   1.268   3.872
 8005TIP3    H123979   2.256   1.354   3.831
 8005TIP3    H223980   2.162   1.235   3.833
 8006TIP3   OH223981   3.821   5.650   3.083
 8006TIP3    H123982   3.774   5.569   3.100
 8006TIP3    H223983   3.796   5.708   3.155
 8007TIP3   OH223984   3.544   0.515   1.355
 8007TIP3    H123985   3.609   0.561   1.302
 8007TIP3    H223986   3.485   0.585   1.386
 8008TIP3   OH223987   2.624   2.633   3.296
 8008TIP3    H123988   2.566   2.669   3.230
 8008TIP3    H223989   2.579   2.648   3.379
 8009TIP3   OH223990   3.463   0.945   2.374
 8009TIP3    H123991   3.448   1.040   2.378
 8009TIP3    H223992   3.376   0.907   2.368
 8010TIP3   OH223993   6.581   5.808   4.750
 8010TIP3    H123994   6.650   5.814   4.817
 8010TIP3    H223995   6.625   5.831   4.668
 8011TIP3   OH223996   0.932   1.615   2.736
 8011TIP3    H123997   0.980   1.683   2.782
 8011TIP3    H223998   0.997   1.570   2.682
 8012TIP3   OH223999   4.949   4.657   1.892
 8012TIP3    H124000   4.961   4.662   1.987
 8012TIP3    H224001   4.865   4.699   1.876
 8013TIP3   OH224002   4.332   2.875   0.896
 8013TIP3    H124003   4.406   2.818   0.919
 8013TIP3    H224004   4.369   2.941   0.838
 8014TIP3   OH224005   0.547   6.199   5.277
 8014TIP3    H124006   0.628   6.197   5.328
 8014TIP3    H224007   0.572   6.163   5.192
 8015TIP3   OH224008   0.044   2.715   1.734
 8015TIP3    H124009   0.088   2.706   1.819
 8015TIP3    H224010   0.106   2.679   1.671
 8016TIP3   OH224011   7.197   4.725   1.987
 8016TIP3    H124012   7.125   4.761   1.935
 8016TIP3    H224013   7.274   4.737   1.931
 8017TIP3   OH224014   2.975   3.313   3.814
 8017TIP3    H124015   2.912   3.248   3.847
 8017TIP3    H224016   3.050   3.261   3.786
 8018TIP3   OH224017   4.539   6.104   2.489
 8018TIP3    H124018   4.471   6.159   2.527
 8018TIP3    H224019   4.495   6.055   2.420
 8019TIP3   OH224020   3.153   3.514   4.464
 8019TIP3    H124021   3.126   3.602   4.492
 8019TIP3    H224022   3.238   3.501   4.507
 8020TIP3   OH224023   0.334   0.101   3.256
 8020TIP3    H124024   0.427   0.098   3.279
 8020TIP3    H224025   0.333   0.092   3.161
 8021TIP3   OH224026   5.615   5.087   3.859
 8021TIP3    H124027   5.523   5.060   3.860
 8021TIP3    H224028   5.662   5.013   3.899
 8022TIP3   OH224029   2.377   3.112   4.064
 8022TIP3    H124030   2.401   3.197   4.100
 8022TIP3    H224031   2.296   3.127   4.016
 8023TIP3   OH224032   2.591   4.755   0.691
 8023TIP3    H124033   2.684   4.776   0.684
 8023TIP3    H224034   2.553   4.831   0.735
 8024TIP3   OH224035   4.913   3.722   4.661
 8024TIP3    H124036   4.925   3.629   4.680
 8024TIP3    H224037   4.942   3.732   4.570
 8025TIP3   OH224038   0.496   0.123   0.550
 8025TIP3    H124039   0.443   0.044   0.560
 8025TIP3    H224040   0.535   0.116   0.463
 8026TIP3   OH224041   4.439   1.126   4.671
 8026TIP3    H124042   4.526   1.092   4.694
 8026TIP3    H224043   4.386   1.112   4.750
 8027TIP3   OH224044   2.969   3.233   1.498
 8027TIP3    H124045   3.035   3.293   1.463
 8027TIP3    H224046   3.003   3.209   1.584
 8028TIP3   OH224047   1.097   6.127   4.793
 8028TIP3    H124048   1.117   6.036   4.816
 8028TIP3    H224049   1.087   6.125   4.697
 8029TIP3   OH224050   0.627   2.104   0.043
 8029TIP3    H124051   0.572   2.052   0.102
 8029TIP3    H224052   0.585   2.096  -0.043
 8030TIP3   OH224053   1.773   2.283   5.349
 8030TIP3    H124054   1.788   2.376   5.368
 8030TIP3    H224055   1.678   2.274   5.346
 8031TIP3   OH224056   5.957   1.572   5.004
 8031TIP3    H124057   5.895   1.510   4.966
 8031TIP3    H224058   6.019   1.518   5.051
 8032TIP3   OH224059   0.142   6.385   2.590
 8032TIP3    H124060   0.195   6.363   2.514
 8032TIP3    H224061   0.192   6.455   2.634
 8033TIP3   OH224062   6.248   4.097   0.864
 8033TIP3    H124063   6.171   4.128   0.912
 8033TIP3    H224064   6.322   4.125   0.917
 8034TIP3   OH224065   1.541   5.993   3.971
 8034TIP3    H124066   1.513   6.062   3.910
 8034TIP3    H224067   1.532   6.033   4.058
 8035TIP3   OH224068   4.574   1.090   4.951
 8035TIP3    H124069   4.484   1.080   4.921
 8035TIP3    H224070   4.570   1.157   5.019
 8036TIP3   OH224071   5.635   4.921   1.168
 8036TIP3    H124072   5.577   4.888   1.099
 8036TIP3    H224073   5.669   4.842   1.210
 8037TIP3   OH224074   7.014   4.647   2.862
 8037TIP3    H124075   6.999   4.694   2.944
 8037TIP3    H224076   6.929   4.609   2.840
 8038TIP3   OH224077   6.942   4.854   0.962
 8038TIP3    H124078   6.893   4.890   1.035
 8038TIP3    H224079   7.032   4.846   0.994
 8039TIP3   OH224080   4.710   3.994   3.373
 8039TIP3    H124081   4.753   3.952   3.298
 8039TIP3    H224082   4.637   4.042   3.335
 8040TIP3   OH224083   1.458   3.492   5.693
 8040TIP3    H124084   1.552   3.473   5.684
 8040TIP3    H224085   1.416   3.427   5.637
 8041TIP3   OH224086   3.825   1.482   0.565
 8041TIP3    H124087   3.730   1.488   0.560
 8041TIP3    H224088   3.856   1.509   0.478
 8042TIP3   OH224089   6.514   5.812   2.029
 8042TIP3    H124090   6.483   5.871   1.961
 8042TIP3    H224091   6.467   5.730   2.013
 8043TIP3   OH224092   4.235   2.398   1.728
 8043TIP3    H124093   4.305   2.442   1.777
 8043TIP3    H224094   4.270   2.388   1.640
 8044TIP3   OH224095   4.791   1.634   1.957
 8044TIP3    H124096   4.698   1.656   1.956
 8044TIP3    H224097   4.825   1.674   2.036
 8045TIP3   OH224098   0.264   4.934   2.778
 8045TIP3    H124099   0.192   4.909   2.835
 8045TIP3    H224100   0.337   4.877   2.805
 8046TIP3   OH224101   1.975   0.959   1.532
 8046TIP3    H124102   2.045   0.902   1.501
 8046TIP3    H224103   2.009   0.997   1.613
 8047TIP3   OH224104   2.920   0.746   5.537
 8047TIP3    H124105   2.888   0.797   5.612
 8047TIP3    H224106   2.989   0.799   5.499
 8048TIP3   OH224107   4.262   1.953   0.987
 8048TIP3    H124108   4.179   1.908   1.005
 8048TIP3    H224109   4.300   1.969   1.073
 8049TIP3   OH224110   4.378   5.414   4.517
 8049TIP3    H124111   4.375   5.321   4.496
 8049TIP3    H224112   4.438   5.452   4.453
 8050TIP3   OH224113   6.860   3.964   0.249
 8050TIP3    H124114   6.833   3.940   0.160
 8050TIP3    H224115   6.954   3.943   0.252
 8051TIP3   OH224116   1.326   1.558   1.652
 8051TIP3    H124117   1.414   1.554   1.688
 8051TIP3    H224118   1.338   1.594   1.564
 8052TIP3   OH224119   3.143   0.745   0.356
 8052TIP3    H124120   3.191   0.662   0.356
 8052TIP3    H224121   3.108   0.752   0.267
 8053TIP3   OH224122   1.632   6.812   0.233
 8053TIP3    H124123   1.691   6.773   0.298
 8053TIP3    H224124   1.669   6.898   0.215
 8054TIP3   OH224125   2.406   0.594   4.379
 8054TIP3    H124126   2.431   0.616   4.289
 8054TIP3    H224127   2.325   0.544   4.369
 8055TIP3   OH224128   3.583   0.089   5.106
 8055TIP3    H124129   3.632   0.161   5.146
 8055TIP3    H224130   3.640   0.013   5.115
 8056TIP3   OH224131   6.637   0.195   5.669
 8056TIP3    H124132   6.556   0.206   5.718
 8056TIP3    H224133   6.670   0.108   5.695
 8057TIP3   OH224134   6.684   1.922   0.606
 8057TIP3    H124135   6.756   1.958   0.554
 8057TIP3    H224136   6.711   1.933   0.697
 8058TIP3   OH224137   5.294   0.171   2.589
 8058TIP3    H124138   5.233   0.221   2.536
 8058TIP3    H224139   5.285   0.081   2.557
 8059TIP3   OH224140   6.757   5.287   0.308
 8059TIP3    H124141   6.704   5.339   0.248
 8059TIP3    H224142   6.809   5.351   0.356
 8060TIP3   OH224143   0.972   3.178   5.495
 8060TIP3    H124144   0.997   3.088   5.475
 8060TIP3    H224145   1.006   3.194   5.583
 8061TIP3   OH224146   7.001   2.094   3.860
 8061TIP3    H124147   6.927   2.134   3.816
 8061TIP3    H224148   6.976   2.093   3.953
 8062TIP3   OH224149   3.663   0.598   1.710
 8062TIP3    H124150   3.631   0.678   1.750
 8062TIP3    H224151   3.718   0.627   1.638
 8063TIP3   OH224152   3.130   3.483   0.927
 8063TIP3    H124153   3.124   3.388   0.918
 8063TIP3    H224154   3.223   3.502   0.922
 8064TIP3   OH224155   5.399   0.952   0.319
 8064TIP3    H124156   5.325   0.897   0.297
 8064TIP3    H224157   5.369   1.042   0.304
 8065TIP3   OH224158   1.508   6.589   2.500
 8065TIP3    H124159   1.483   6.592   2.592
 8065TIP3    H224160   1.592   6.637   2.497
 8066TIP3   OH224161   3.165   1.981   5.857
 8066TIP3    H124162   3.168   1.911   5.922
 8066TIP3    H224163   3.256   1.994   5.831
 8067TIP3   OH224164   0.908   0.637   4.111
 8067TIP3    H124165   0.827   0.589   4.096
 8067TIP3    H224166   0.976   0.570   4.108
 8068TIP3   OH224167   4.502   4.891   3.747
 8068TIP3    H124168   4.439   4.923   3.812
 8068TIP3    H224169   4.490   4.796   3.747
 8069TIP3   OH224170   2.729   3.785   1.030
 8069TIP3    H124171   2.760   3.724   0.963
 8069TIP3    H224172   2.783   3.863   1.019
 8070TIP3   OH224173   5.670   2.040   1.960
 8070TIP3    H124174   5.634   2.105   1.899
 8070TIP3    H224175   5.688   1.963   1.906
 8071TIP3   OH224176   6.612   1.805   2.269
 8071TIP3    H124177   6.527   1.825   2.229
 8071TIP3    H224178   6.637   1.885   2.315
 8072TIP3   OH224179   2.114   4.503   3.739
 8072TIP3    H124180   2.120   4.451   3.660
 8072TIP3    H224181   2.104   4.439   3.810
 8073TIP3   OH224182   1.664   1.937   4.593
 8073TIP3    H124183   1.699   1.869   4.651
 8073TIP3    H224184   1.572   1.946   4.620
 8074TIP3   OH224185   1.463   5.832   2.098
 8074TIP3    H124186   1.511   5.913   2.079
 8074TIP3    H224187   1.459   5.828   2.194
 8075TIP3   OH224188   4.560   1.266   5.458
 8075TIP3    H124189   4.468   1.248   5.439
 8075TIP3    H224190   4.602   1.268   5.372
 8076TIP3   OH224191   4.444   2.300   2.834
 8076TIP3    H124192   4.368   2.356   2.819
 8076TIP3    H224193   4.480   2.284   2.747
 8077TIP3   OH224194   6.429   4.955   3.898
 8077TIP3    H124195   6.442   4.976   3.991
 8077TIP3    H224196   6.517   4.934   3.866
 8078TIP3   OH224197   5.066   6.731   5.163
 8078TIP3    H124198   4.996   6.779   5.117
 8078TIP3    H224199   5.144   6.785   5.151
 8079TIP3   OH224200   1.028   4.996   4.994
 8079TIP3    H124201   0.943   5.039   4.988
 8079TIP3    H224202   1.016   4.912   4.949
 8080TIP3   OH224203   2.347   0.570   3.505
 8080TIP3    H124204   2.254   0.578   3.526
 8080TIP3    H224205   2.350   0.573   3.409
 8081TIP3   OH224206   1.193   1.885   1.844
 8081TIP3    H124207   1.159   1.797   1.826
 8081TIP3    H224208   1.267   1.870   1.902
 8082TIP3   OH224209   1.680   4.483   0.557
 8082TIP3    H124210   1.618   4.540   0.510
 8082TIP3    H224211   1.714   4.537   0.628
 8083TIP3   OH224212   5.687   1.827   0.102
 8083TIP3    H124213   5.610   1.859   0.149
 8083TIP3    H224214   5.676   1.860   0.013
 8084TIP3   OH224215   3.398   5.467   0.396
 8084TIP3    H124216   3.391   5.374   0.416
 8084TIP3    H224217   3.443   5.504   0.472
 8085TIP3   OH224218   4.086   4.237   2.605
 8085TIP3    H124219   4.045   4.268   2.685
 8085TIP3    H224220   4.069   4.142   2.604
 8086TIP3   OH224221   5.922   0.049   1.506
 8086TIP3    H124222   5.900  -0.033   1.551
 8086TIP3    H224223   5.870   0.116   1.550
 8087TIP3   OH224224   6.732   4.838   5.337
 8087TIP3    H124225   6.735   4.822   5.243
 8087TIP3    H224226   6.704   4.929   5.345
 8088TIP3   OH224227   5.703   4.969   4.236
 8088TIP3    H124228   5.619   4.923   4.248
 8088TIP3    H224229   5.749   4.918   4.169
 8089TIP3   OH224230   5.992   3.442   4.327
 8089TIP3    H124231   5.960   3.404   4.245
 8089TIP3    H224232   5.933   3.408   4.395
 8090TIP3   OH224233   1.257   1.600   2.820
 8090TIP3    H124234   1.204   1.676   2.841
 8090TIP3    H224235   1.272   1.607   2.725
 8091TIP3   OH224236   6.795   3.113   1.281
 8091TIP3    H124237   6.734   3.173   1.237
 8091TIP3    H224238   6.880   3.156   1.274
 8092TIP3   OH224239   4.514   3.848   3.893
 8092TIP3    H124240   4.496   3.777   3.831
 8092TIP3    H224241   4.590   3.893   3.856
 8093TIP3   OH224242   0.104   0.850   1.810
 8093TIP3    H124243   0.070   0.767   1.844
 8093TIP3    H224244   0.156   0.886   1.882
 8094TIP3   OH224245   3.362   6.802   3.110
 8094TIP3    H124246   3.408   6.765   3.034
 8094TIP3    H224247   3.363   6.897   3.094
 8095TIP3   OH224248   4.305   0.906   1.441
 8095TIP3    H124249   4.284   0.944   1.355
 8095TIP3    H224250   4.310   0.981   1.500
 8096TIP3   OH224251   3.384   2.140   0.223
 8096TIP3    H124252   3.468   2.134   0.178
 8096TIP3    H224253   3.327   2.184   0.161
 8097TIP3   OH224254   4.005   5.520   0.822
 8097TIP3    H124255   3.990   5.471   0.741
 8097TIP3    H224256   3.929   5.500   0.876
 8098TIP3   OH224257   1.294   0.299   0.105
 8098TIP3    H124258   1.260   0.210   0.115
 8098TIP3    H224259   1.363   0.306   0.171
 8099TIP3   OH224260   0.014   5.307   1.454
 8099TIP3    H124261  -0.064   5.342   1.497
 8099TIP3    H224262   0.087   5.343   1.503
 8100TIP3   OH224263   4.705   5.828   3.942
 8100TIP3    H124264   4.693   5.734   3.929
 8100TIP3    H224265   4.777   5.851   3.883
 8101TIP3   OH224266   5.573   5.309   3.278
 8101TIP3    H124267   5.547   5.321   3.187
 8101TIP3    H224268   5.614   5.392   3.303
 8102TIP3   OH224269   4.137   6.246   1.965
 8102TIP3    H124270   4.069   6.305   1.997
 8102TIP3    H224271   4.182   6.297   1.897
 8103TIP3   OH224272   3.271   6.655   4.659
 8103TIP3    H124273   3.215   6.583   4.630
 8103TIP3    H224274   3.323   6.677   4.582
 8104TIP3   OH224275   4.582   0.887   0.497
 8104TIP3    H124276   4.567   0.888   0.592
 8104TIP3    H224277   4.518   0.949   0.462
 8105TIP3   OH224278   1.563   3.171   4.092
 8105TIP3    H124279   1.601   3.184   4.179
 8105TIP3    H224280   1.618   3.223   4.033
 8106TIP3   OH224281   3.542   2.288   5.246
 8106TIP3    H124282   3.580   2.215   5.197
 8106TIP3    H224283   3.451   2.261   5.261
 8107TIP3   OH224284   3.565   6.583   2.350
 8107TIP3    H124285   3.584   6.673   2.325
 8107TIP3    H224286   3.485   6.589   2.402
 8108TIP3   OH224287   6.785   2.418   1.552
 8108TIP3    H124288   6.712   2.476   1.577
 8108TIP3    H224289   6.754   2.330   1.573
 8109TIP3   OH224290   6.544   4.483   1.687
 8109TIP3    H124291   6.461   4.466   1.732
 8109TIP3    H224292   6.518   4.501   1.597
 8110TIP3   OH224293   3.884   4.448   4.110
 8110TIP3    H124294   3.978   4.444   4.098
 8110TIP3    H224295   3.847   4.413   4.029
 8111TIP3   OH224296   2.894   0.088   2.873
 8111TIP3    H124297   2.900   0.155   2.942
 8111TIP3    H224298   2.813   0.108   2.827
 8112TIP3   OH224299   2.884   3.989   4.806
 8112TIP3    H124300   2.798   3.978   4.845
 8112TIP3    H224301   2.916   4.073   4.839
 8113TIP3   OH224302   0.464   4.636   3.520
 8113TIP3    H124303   0.430   4.595   3.599
 8113TIP3    H224304   0.472   4.729   3.543
 8114TIP3   OH224305   5.111   0.049   4.320
 8114TIP3    H124306   5.127   0.124   4.378
 8114TIP3    H224307   5.189  -0.005   4.329
 8115TIP3   OH224308   0.466   0.596   5.746
 8115TIP3    H124309   0.484   0.520   5.690
 8115TIP3    H224310   0.387   0.572   5.794
 8116TIP3   OH224311   2.030   1.670   0.552
 8116TIP3    H124312   1.998   1.760   0.552
 8116TIP3    H224313   2.005   1.636   0.638
 8117TIP3   OH224314   4.351   5.592   0.375
 8117TIP3    H124315   4.375   5.654   0.444
 8117TIP3    H224316   4.314   5.646   0.306
 8118TIP3   OH224317   6.595   4.672   1.867
 8118TIP3    H124318   6.582   4.609   1.797
 8118TIP3    H224319   6.521   4.732   1.860
 8119TIP3   OH224320   2.156   1.679   4.201
 8119TIP3    H124321   2.121   1.592   4.184
 8119TIP3    H224322   2.152   1.724   4.117
 8120TIP3   OH224323   1.494   5.359   4.661
 8120TIP3    H124324   1.551   5.365   4.584
 8120TIP3    H224325   1.524   5.281   4.707
 8121TIP3   OH224326   3.674   0.124   0.031
 8121TIP3    H124327   3.690   0.193  -0.033
 8121TIP3    H224328   3.629   0.169   0.104
 8122TIP3   OH224329   5.521  -0.001   0.289
 8122TIP3    H124330   5.558   0.006   0.201
 8122TIP3    H224331   5.572   0.062   0.341
 8123TIP3   OH224332   0.871   5.721   3.992
 8123TIP3    H124333   0.928   5.785   3.951
 8123TIP3    H224334   0.917   5.637   3.983
 8124TIP3   OH224335   1.399   2.565   5.857
 8124TIP3    H124336   1.461   2.588   5.926
 8124TIP3    H224337   1.416   2.629   5.788
 8125TIP3   OH224338   1.195   0.726   0.872
 8125TIP3    H124339   1.222   0.685   0.954
 8125TIP3    H224340   1.270   0.781   0.847
 8126TIP3   OH224341   3.252   4.129   4.528
 8126TIP3    H124342   3.160   4.146   4.550
 8126TIP3    H224343   3.301   4.158   4.605
 8127TIP3   OH224344   4.735   4.022   1.998
 8127TIP3    H124345   4.705   4.074   2.072
 8127TIP3    H224346   4.657   4.009   1.944
 8128TIP3   OH224347   5.653   2.249   1.264
 8128TIP3    H124348   5.729   2.192   1.271
 8128TIP3    H224349   5.578   2.193   1.284
 8129TIP3   OH224350   0.171   5.377   0.195
 8129TIP3    H124351   0.238   5.402   0.258
 8129TIP3    H224352   0.097   5.433   0.215
 8130TIP3   OH224353   0.930   1.285   3.680
 8130TIP3    H124354   0.923   1.347   3.607
 8130TIP3    H224355   1.016   1.244   3.669
 8131TIP3   OH224356   5.448   3.721   3.806
 8131TIP3    H124357   5.366   3.758   3.773
 8131TIP3    H224358   5.503   3.711   3.728
 8132TIP3   OH224359   6.642   6.832   2.216
 8132TIP3    H124360   6.734   6.854   2.231
 8132TIP3    H224361   6.606   6.821   2.304
 8133TIP3   OH224362   1.913   4.218   3.129
 8133TIP3    H124363   1.995   4.219   3.079
 8133TIP3    H224364   1.913   4.133   3.173
 8134TIP3   OH224365   4.709   5.371   5.579
 8134TIP3    H124366   4.774   5.314   5.621
 8134TIP3    H224367   4.729   5.459   5.613
 8135TIP3   OH224368   1.201   4.892   3.894
 8135TIP3    H124369   1.295   4.879   3.908
 8135TIP3    H224370   1.169   4.807   3.866
 8136TIP3   OH224371   2.684   0.379   2.272
 8136TIP3    H124372   2.589   0.391   2.273
 8136TIP3    H224373   2.696   0.284   2.279
 8137TIP3   OH224374   1.972   3.922   5.721
 8137TIP3    H124375   2.051   3.951   5.765
 8137TIP3    H224376   1.932   3.860   5.783
 8138TIP3   OH224377   6.578   3.544   1.698
 8138TIP3    H124378   6.517   3.601   1.744
 8138TIP3    H224379   6.613   3.486   1.766
 8139TIP3   OH224380   3.174   5.881   2.584
 8139TIP3    H124381   3.183   5.940   2.509
 8139TIP3    H224382   3.140   5.937   2.654
 8140TIP3   OH224383   4.789  -0.013   5.397
 8140TIP3    H124384   4.748   0.073   5.389
 8140TIP3    H224385   4.722  -0.069   5.434
 8141TIP3   OH224386   1.281   3.179   3.040
 8141TIP3    H124387   1.270   3.137   3.125
 8141TIP3    H224388   1.216   3.250   3.040
 8142TIP3   OH224389   2.810   1.869   5.637
 8142TIP3    H124390   2.848   1.941   5.687
 8142TIP3    H224391   2.843   1.790   5.681
 8143TIP3   OH224392   7.001   4.858   2.674
 8143TIP3    H124393   7.011   4.785   2.734
 8143TIP3    H224394   7.016   4.820   2.587
 8144TIP3   OH224395   2.639   2.659   1.828
 8144TIP3    H124396   2.681   2.666   1.913
 8144TIP3    H224397   2.662   2.572   1.796
 8145TIP3   OH224398   1.190   2.072   3.940
 8145TIP3    H124399   1.141   2.086   3.859
 8145TIP3    H224400   1.280   2.096   3.918
 8146TIP3   OH224401   0.470   0.794   2.641
 8146TIP3    H124402   0.515   0.728   2.693
 8146TIP3    H224403   0.417   0.842   2.704
 8147TIP3   OH224404   0.484   0.569   1.325
 8147TIP3    H124405   0.397   0.608   1.317
 8147TIP3    H224406   0.512   0.552   1.235
 8148TIP3   OH224407   6.385   6.697   4.185
 8148TIP3    H124408   6.403   6.780   4.230
 8148TIP3    H224409   6.409   6.714   4.094
 8149TIP3   OH224410   4.100   5.237   5.175
 8149TIP3    H124411   4.037   5.248   5.104
 8149TIP3    H224412   4.057   5.178   5.236
 8150TIP3   OH224413   3.619   1.925   2.225
 8150TIP3    H124414   3.614   1.992   2.156
 8150TIP3    H224415   3.558   1.956   2.292
 8151TIP3   OH224416   5.363   0.093   3.851
 8151TIP3    H124417   5.371   0.009   3.808
 8151TIP3    H224418   5.402   0.080   3.938
 8152TIP3   OH224419  -0.014   3.479   5.535
 8152TIP3    H124420  -0.007   3.400   5.481
 8152TIP3    H224421  -0.099   3.517   5.512
 8153TIP3   OH224422   5.448   4.703   3.421
 8153TIP3    H124423   5.519   4.704   3.357
 8153TIP3    H224424   5.389   4.773   3.393
 8154TIP3   OH224425   2.482   3.503   5.385
 8154TIP3    H124426   2.427   3.426   5.375
 8154TIP3    H224427   2.423   3.577   5.372
 8155TIP3   OH224428   6.912   4.955   3.562
 8155TIP3    H124429   7.006   4.961   3.547
 8155TIP3    H224430   6.886   5.045   3.583
 8156TIP3   OH224431   0.764   0.786   1.031
 8156TIP3    H124432   0.722   0.862   1.070
 8156TIP3    H224433   0.780   0.727   1.105
 8157TIP3   OH224434   3.503   2.722   1.230
 8157TIP3    H124435   3.522   2.733   1.323
 8157TIP3    H224436   3.407   2.721   1.226
 8158TIP3   OH224437   2.491   0.931   3.848
 8158TIP3    H124438   2.432   0.915   3.774
 8158TIP3    H224439   2.433   0.946   3.922
 8159TIP3   OH224440   1.471   0.489   4.000
 8159TIP3    H124441   1.484   0.465   3.908
 8159TIP3    H224442   1.557   0.483   4.040
 8160TIP3   OH224443   4.465   5.228   3.774
 8160TIP3    H124444   4.549   5.274   3.767
 8160TIP3    H224445   4.469   5.183   3.859
 8161TIP3   OH224446   6.817   5.255   3.460
 8161TIP3    H124447   6.745   5.195   3.440
 8161TIP3    H224448   6.867   5.262   3.378
 8162TIP3   OH224449   0.592   4.266   3.232
 8162TIP3    H124450   0.512   4.220   3.256
 8162TIP3    H224451   0.578   4.356   3.260
 8163TIP3   OH224452   1.359   6.508   2.173
 8163TIP3    H124453   1.399   6.582   2.220
 8163TIP3    H224454   1.280   6.487   2.223
 8164TIP3   OH224455   4.803   2.999   1.697
 8164TIP3    H124456   4.894   3.028   1.697
 8164TIP3    H224457   4.794   2.945   1.775
 8165TIP3   OH224458   6.845   2.103   5.109
 8165TIP3    H124459   6.870   2.015   5.082
 8165TIP3    H224460   6.871   2.108   5.201
 8166TIP3   OH224461   5.941   2.163   3.060
 8166TIP3    H124462   5.902   2.250   3.063
 8166TIP3    H224463   5.905   2.118   3.137
 8167TIP3   OH224464   2.520   6.236   1.170
 8167TIP3    H124465   2.527   6.165   1.107
 8167TIP3    H224466   2.607   6.242   1.209
 8168TIP3   OH224467   2.837   5.432   0.945
 8168TIP3    H124468   2.779   5.356   0.938
 8168TIP3    H224469   2.922   5.400   0.913
 8169TIP3   OH224470   3.680   2.161   0.814
 8169TIP3    H124471   3.687   2.256   0.829
 8169TIP3    H224472   3.739   2.122   0.878
 8170TIP3   OH224473   3.556   0.874   1.135
 8170TIP3    H124474   3.482   0.924   1.169
 8170TIP3    H224475   3.565   0.904   1.045
 8171TIP3   OH224476   0.911   3.293   1.511
 8171TIP3    H124477   0.970   3.217   1.509
 8171TIP3    H224478   0.850   3.274   1.583
 8172TIP3   OH224479   6.567   6.479   4.874
 8172TIP3    H124480   6.496   6.421   4.845
 8172TIP3    H224481   6.640   6.457   4.817
 8173TIP3   OH224482   2.505   4.205   3.571
 8173TIP3    H124483   2.495   4.110   3.565
 8173TIP3    H224484   2.592   4.223   3.537
 8174TIP3   OH224485   4.132   4.500   5.513
 8174TIP3    H124486   4.084   4.525   5.434
 8174TIP3    H224487   4.224   4.516   5.492
 8175TIP3   OH224488   0.244   2.200   5.088
 8175TIP3    H124489   0.156   2.163   5.081
 8175TIP3    H224490   0.233   2.293   5.067
 8176TIP3   OH224491   4.040   2.899   1.793
 8176TIP3    H124492   4.087   2.976   1.760
 8176TIP3    H224493   4.104   2.853   1.847
 8177TIP3   OH224494   2.157   3.573   4.281
 8177TIP3    H124495   2.251   3.582   4.260
 8177TIP3    H224496   2.143   3.633   4.353
 8178TIP3   OH224497   3.449   6.110   3.998
 8178TIP3    H124498   3.512   6.142   4.063
 8178TIP3    H224499   3.469   6.017   3.989
 8179TIP3   OH224500   4.402   2.159   4.619
 8179TIP3    H124501   4.326   2.142   4.564
 8179TIP3    H224502   4.368   2.212   4.692
 8180TIP3   OH224503   1.231   1.346   1.909
 8180TIP3    H124504   1.162   1.375   1.970
 8180TIP3    H224505   1.186   1.333   1.826
 8181TIP3   OH224506   6.513   5.951   3.081
 8181TIP3    H124507   6.542   6.037   3.110
 8181TIP3    H224508   6.552   5.890   3.144
 8182TIP3   OH224509   0.875   4.729   2.249
 8182TIP3    H124510   0.818   4.653   2.262
 8182TIP3    H224511   0.816   4.804   2.247
 8183TIP3   OH224512   1.856   3.865   5.403
 8183TIP3    H124513   1.797   3.789   5.404
 8183TIP3    H224514   1.942   3.828   5.385
 8184TIP3   OH224515   6.326   1.847   2.920
 8184TIP3    H124516   6.232   1.866   2.915
 8184TIP3    H224517   6.339   1.813   3.008
 8185TIP3   OH224518   6.596   4.908   1.564
 8185TIP3    H124519   6.503   4.887   1.558
 8185TIP3    H224520   6.603   4.970   1.636
 8186TIP3   OH224521   5.777   5.379   0.289
 8186TIP3    H124522   5.862   5.414   0.261
 8186TIP3    H224523   5.774   5.291   0.252
 8187TIP3   OH224524   3.616   5.365   3.206
 8187TIP3    H124525   3.660   5.348   3.123
 8187TIP3    H224526   3.534   5.408   3.182
 8188TIP3   OH224527   6.398   1.543   5.761
 8188TIP3    H124528   6.408   1.491   5.682
 8188TIP3    H224529   6.436   1.489   5.831
 8189TIP3   OH224530   1.584   2.196   0.247
 8189TIP3    H124531   1.673   2.230   0.250
 8189TIP3    H224532   1.562   2.178   0.338
 8190TIP3   OH224533   5.469   0.512   1.492
 8190TIP3    H124534   5.518   0.564   1.555
 8190TIP3    H224535   5.498   0.422   1.506
 8191TIP3   OH224536   1.942   4.702   3.690
 8191TIP3    H124537   1.930   4.685   3.597
 8191TIP3    H224538   1.992   4.627   3.723
 8192TIP3   OH224539   5.978   4.132   5.874
 8192TIP3    H124540   6.070   4.114   5.854
 8192TIP3    H224541   5.935   4.136   5.789
 8193TIP3   OH224542   2.929   4.779   5.720
 8193TIP3    H124543   2.894   4.868   5.715
 8193TIP3    H224544   2.852   4.723   5.715
 8194TIP3   OH224545   5.419   4.623   5.236
 8194TIP3    H124546   5.393   4.715   5.244
 8194TIP3    H224547   5.469   4.606   5.316
 8195TIP3   OH224548   0.590   6.154   5.000
 8195TIP3    H124549   0.664   6.160   4.939
 8195TIP3    H224550   0.519   6.200   4.957
 8196TIP3   OH224551   0.901   6.485   1.723
 8196TIP3    H124552   0.814   6.456   1.694
 8196TIP3    H224553   0.933   6.411   1.775
 8197TIP3   OH224554   2.731   3.214   4.384
 8197TIP3    H124555   2.781   3.284   4.426
 8197TIP3    H224556   2.678   3.177   4.454
 8198TIP3   OH224557   2.036   5.204   0.094
 8198TIP3    H124558   1.986   5.155   0.159
 8198TIP3    H224559   2.063   5.139   0.030
 8199TIP3   OH224560   4.873   3.250   3.773
 8199TIP3    H124561   4.905   3.201   3.849
 8199TIP3    H224562   4.853   3.183   3.708
 8200TIP3   OH224563   2.514   6.610   0.379
 8200TIP3    H124564   2.510   6.534   0.321
 8200TIP3    H224565   2.599   6.602   0.422
 8201TIP3   OH224566   5.187   6.775   3.558
 8201TIP3    H124567   5.163   6.709   3.623
 8201TIP3    H224568   5.197   6.856   3.608
 8202TIP3   OH224569   6.502   5.472   2.319
 8202TIP3    H124570   6.551   5.515   2.250
 8202TIP3    H224571   6.442   5.539   2.353
 8203TIP3   OH224572   1.219   6.110   5.505
 8203TIP3    H124573   1.126   6.130   5.501
 8203TIP3    H224574   1.262   6.195   5.512
 8204TIP3   OH224575   7.180   5.737   3.396
 8204TIP3    H124576   7.214   5.826   3.396
 8204TIP3    H224577   7.157   5.720   3.305
 8205TIP3   OH224578   4.978   2.707   4.653
 8205TIP3    H124579   4.947   2.764   4.723
 8205TIP3    H224580   4.930   2.737   4.575
 8206TIP3   OH224581   2.716   5.917   1.698
 8206TIP3    H124582   2.640   5.964   1.663
 8206TIP3    H224583   2.700   5.826   1.675
 8207TIP3   OH224584   1.221   2.429   0.558
 8207TIP3    H124585   1.214   2.333   0.561
 8207TIP3    H224586   1.279   2.446   0.484
 8208TIP3   OH224587   1.262   4.885   5.363
 8208TIP3    H124588   1.238   4.936   5.440
 8208TIP3    H224589   1.356   4.867   5.375
 8209TIP3   OH224590   1.465   1.137   5.342
 8209TIP3    H124591   1.474   1.164   5.250
 8209TIP3    H224592   1.524   1.062   5.350
 8210TIP3   OH224593   0.862   5.115   0.169
 8210TIP3    H124594   0.936   5.089   0.224
 8210TIP3    H224595   0.789   5.063   0.202
 8211TIP3   OH224596   1.289   2.066   0.038
 8211TIP3    H124597   1.347   2.139   0.016
 8211TIP3    H224598   1.219   2.070  -0.027
 8212TIP3   OH224599   6.983   1.227   4.045
 8212TIP3    H124600   6.910   1.173   4.015
 8212TIP3    H224601   7.018   1.180   4.120
 8213TIP3   OH224602   4.873   1.118   0.254
 8213TIP3    H124603   4.830   1.175   0.318
 8213TIP3    H224604   4.868   1.168   0.172
 8214TIP3   OH224605   2.634   2.471   5.050
 8214TIP3    H124606   2.696   2.520   4.996
 8214TIP3    H224607   2.592   2.537   5.106
 8215TIP3   OH224608   5.219   1.918   3.469
 8215TIP3    H124609   5.272   1.996   3.452
 8215TIP3    H224610   5.159   1.913   3.395
 8216TIP3   OH224611   6.645   1.900   1.460
 8216TIP3    H124612   6.554   1.868   1.466
 8216TIP3    H224613   6.643   1.964   1.389
 8217TIP3   OH224614   1.150   1.187   1.378
 8217TIP3    H124615   1.243   1.168   1.369
 8217TIP3    H224616   1.126   1.232   1.297
 8218TIP3   OH224617   1.082   5.088   5.249
 8218TIP3    H124618   1.042   5.061   5.166
 8218TIP3    H224619   1.150   5.022   5.265
 8219TIP3   OH224620   0.479   5.341   3.049
 8219TIP3    H124621   0.426   5.329   2.970
 8219TIP3    H224622   0.570   5.339   3.018
 8220TIP3   OH224623   1.533   4.569   0.123
 8220TIP3    H124624   1.440   4.557   0.144
 8220TIP3    H224625   1.565   4.480   0.105
 8221TIP3   OH224626   1.584   3.249   5.595
 8221TIP3    H124627   1.518   3.256   5.526
 8221TIP3    H224628   1.667   3.246   5.547
 8222TIP3   OH224629   5.480   0.900   4.894
 8222TIP3    H124630   5.465   0.859   4.980
 8222TIP3    H224631   5.400   0.881   4.845
 8223TIP3   OH224632   3.701   0.821   3.630
 8223TIP3    H124633   3.761   0.760   3.585
 8223TIP3    H224634   3.634   0.841   3.565
 8224TIP3   OH224635   1.697   0.663   1.074
 8224TIP3    H124636   1.605   0.667   1.048
 8224TIP3    H224637   1.719   0.570   1.067
 8225TIP3   OH224638   2.257   0.722   4.993
 8225TIP3    H124639   2.296   0.733   5.080
 8225TIP3    H224640   2.317   0.662   4.948
 8226TIP3   OH224641   2.837   3.771   4.617
 8226TIP3    H124642   2.930   3.766   4.592
 8226TIP3    H224643   2.836   3.831   4.691
 8227TIP3   OH224644   4.460   1.866   0.798
 8227TIP3    H124645   4.401   1.914   0.856
 8227TIP3    H224646   4.547   1.899   0.820
 8228TIP3   OH224647   2.569   3.967   1.826
 8228TIP3    H124648   2.601   3.880   1.847
 8228TIP3    H224649   2.475   3.964   1.846
 8229TIP3   OH224650   3.468   0.768   2.727
 8229TIP3    H124651   3.405   0.740   2.661
 8229TIP3    H224652   3.415   0.785   2.805
 8230TIP3   OH224653   3.675   0.049   1.175
 8230TIP3    H124654   3.613   0.038   1.247
 8230TIP3    H224655   3.739   0.112   1.207
 8231TIP3   OH224656   1.343   2.112   0.882
 8231TIP3    H124657   1.306   2.189   0.925
 8231TIP3    H224658   1.280   2.090   0.813
 8232TIP3   OH224659   6.478   2.981   2.337
 8232TIP3    H124660   6.515   3.035   2.267
 8232TIP3    H224661   6.553   2.943   2.381
 8233TIP3   OH224662   4.246   4.891   4.605
 8233TIP3    H124663   4.309   4.821   4.593
 8233TIP3    H224664   4.193   4.864   4.680
 8234TIP3   OH224665   7.041   3.132   2.154
 8234TIP3    H124666   7.096   3.126   2.232
 8234TIP3    H224667   7.103   3.123   2.081
 8235TIP3   OH224668   0.839   6.375   4.703
 8235TIP3    H124669   0.780   6.306   4.672
 8235TIP3    H224670   0.856   6.428   4.626
 8236TIP3   OH224671   2.000   3.224   4.247
 8236TIP3    H124672   2.058   3.256   4.178
 8236TIP3    H224673   1.940   3.297   4.263
 8237TIP3   OH224674   6.405   3.618   1.031
 8237TIP3    H124675   6.398   3.527   1.002
 8237TIP3    H224676   6.497   3.628   1.057
 8238TIP3   OH224677   2.565   0.783   5.796
 8238TIP3    H124678   2.659   0.780   5.818
 8238TIP3    H224679   2.523   0.733   5.866
 8239TIP3   OH224680   0.116   0.211   4.399
 8239TIP3    H124681   0.103   0.117   4.384
 8239TIP3    H224682   0.055   0.232   4.470
 8240TIP3   OH224683   4.900   4.342   4.062
 8240TIP3    H124684   4.891   4.396   3.983
 8240TIP3    H224685   4.951   4.396   4.122
 8241TIP3   OH224686   5.655   6.001   4.743
 8241TIP3    H124687   5.604   5.957   4.811
 8241TIP3    H224688   5.739   6.021   4.785
 8242TIP3   OH224689   4.533   5.987   4.421
 8242TIP3    H124690   4.443   5.998   4.392
 8242TIP3    H224691   4.582   5.967   4.341
 8243TIP3   OH224692   5.837   0.536   2.154
 8243TIP3    H124693   5.820   0.590   2.231
 8243TIP3    H224694   5.930   0.546   2.137
 8244TIP3   OH224695   6.816   4.526   0.191
 8244TIP3    H124696   6.859   4.564   0.268
 8244TIP3    H224697   6.723   4.544   0.204
 8245TIP3   OH224698   6.349   4.244   5.143
 8245TIP3    H124699   6.285   4.313   5.125
 8245TIP3    H224700   6.386   4.268   5.228
 8246TIP3   OH224701   4.479   3.518   5.249
 8246TIP3    H124702   4.534   3.590   5.219
 8246TIP3    H224703   4.436   3.485   5.170
 8247TIP3   OH224704   0.690   2.527   2.690
 8247TIP3    H124705   0.757   2.507   2.625
 8247TIP3    H224706   0.626   2.457   2.682
 8248TIP3   OH224707   3.775   3.078   2.271
 8248TIP3    H124708   3.702   3.044   2.219
 8248TIP3    H224709   3.798   3.161   2.230
 8249TIP3   OH224710   4.990   6.728   1.886
 8249TIP3    H124711   4.911   6.742   1.938
 8249TIP3    H224712   5.052   6.688   1.946
 8250TIP3   OH224713   4.951   1.795   4.499
 8250TIP3    H124714   4.929   1.704   4.481
 8250TIP3    H224715   4.911   1.813   4.585
 8251TIP3   OH224716   5.829   0.648   1.880
 8251TIP3    H124717   5.840   0.743   1.872
 8251TIP3    H224718   5.819   0.633   1.974
 8252TIP3   OH224719   0.374   5.527   0.703
 8252TIP3    H124720   0.306   5.549   0.767
 8252TIP3    H224721   0.428   5.606   0.698
 8253TIP3   OH224722   5.582   3.888   1.022
 8253TIP3    H124723   5.568   3.974   0.982
 8253TIP3    H224724   5.641   3.843   0.962
 8254TIP3   OH224725   1.677   3.763   4.171
 8254TIP3    H124726   1.615   3.771   4.099
 8254TIP3    H224727   1.735   3.839   4.162
 8255TIP3   OH224728   3.193   1.820   2.473
 8255TIP3    H124729   3.113   1.774   2.451
 8255TIP3    H224730   3.228   1.774   2.550
 8256TIP3   OH224731   0.514   0.288   1.068
 8256TIP3    H124732   0.464   0.247   0.998
 8256TIP3    H224733   0.499   0.382   1.056
 8257TIP3   OH224734   1.484   2.596   4.310
 8257TIP3    H124735   1.529   2.512   4.314
 8257TIP3    H224736   1.517   2.645   4.385
 8258TIP3   OH224737   5.788   0.513   4.922
 8258TIP3    H124738   5.751   0.433   4.885
 8258TIP3    H224739   5.750   0.519   5.009
 8259TIP3   OH224740   5.249   3.848   1.225
 8259TIP3    H124741   5.326   3.900   1.204
 8259TIP3    H224742   5.203   3.898   1.293
 8260TIP3   OH224743   3.247   6.605   5.574
 8260TIP3    H124744   3.324   6.563   5.534
 8260TIP3    H224745   3.276   6.693   5.596
 8261TIP3   OH224746   5.114   5.153   3.483
 8261TIP3    H124747   5.176   5.158   3.410
 8261TIP3    H224748   5.096   5.059   3.492
 8262TIP3   OH224749   0.522   4.702   5.863
 8262TIP3    H124750   0.429   4.684   5.847
 8262TIP3    H224751   0.564   4.686   5.778
 8263TIP3   OH224752   2.616   0.160   4.389
 8263TIP3    H124753   2.605   0.131   4.299
 8263TIP3    H224754   2.628   0.255   4.382
 8264TIP3   OH224755   3.607   3.651   1.487
 8264TIP3    H124756   3.594   3.635   1.394
 8264TIP3    H224757   3.690   3.699   1.492
 8265TIP3   OH224758   1.752   3.924   0.276
 8265TIP3    H124759   1.815   3.857   0.249
 8265TIP3    H224760   1.802   3.982   0.333
 8266TIP3   OH224761   3.768   0.353   0.605
 8266TIP3    H124762   3.689   0.406   0.590
 8266TIP3    H224763   3.771   0.293   0.530
 8267TIP3   OH224764   2.939   4.470   2.432
 8267TIP3    H124765   3.005   4.407   2.461
 8267TIP3    H224766   2.908   4.511   2.513
 8268TIP3   OH224767   3.063   1.961   3.133
 8268TIP3    H124768   3.076   1.905   3.056
 8268TIP3    H224769   3.051   1.899   3.205
 8269TIP3   OH224770   2.510   5.885   4.303
 8269TIP3    H124771   2.518   5.830   4.224
 8269TIP3    H224772   2.446   5.952   4.279
 8270TIP3   OH224773   5.398   1.358   4.028
 8270TIP3    H124774   5.394   1.453   4.012
 8270TIP3    H224775   5.443   1.351   4.112
 8271TIP3   OH224776   2.156   3.142   2.700
 8271TIP3    H124777   2.189   3.101   2.780
 8271TIP3    H224778   2.076   3.094   2.680
 8272TIP3   OH224779   2.054   2.957   3.166
 8272TIP3    H124780   1.994   3.016   3.119
 8272TIP3    H224781   2.005   2.875   3.173
 8273TIP3   OH224782   5.299   3.703   0.972
 8273TIP3    H124783   5.376   3.647   0.985
 8273TIP3    H224784   5.289   3.749   1.055
 8274TIP3   OH224785   2.536   5.976   0.426
 8274TIP3    H124786   2.614   5.948   0.377
 8274TIP3    H224787   2.565   6.055   0.472
 8275TIP3   OH224788   4.492   5.194   1.898
 8275TIP3    H124789   4.570   5.144   1.875
 8275TIP3    H224790   4.423   5.127   1.906
 8276TIP3   OH224791   4.643   2.669   1.591
 8276TIP3    H124792   4.664   2.706   1.505
 8276TIP3    H224793   4.717   2.695   1.646
 8277TIP3   OH224794   3.927   3.584   4.563
 8277TIP3    H124795   3.840   3.545   4.558
 8277TIP3    H224796   3.958   3.562   4.651
 8278TIP3   OH224797   7.050   4.811   1.783
 8278TIP3    H124798   7.116   4.831   1.717
 8278TIP3    H224799   7.001   4.737   1.746
 8279TIP3   OH224800   0.717   2.199   3.372
 8279TIP3    H124801   0.749   2.109   3.377
 8279TIP3    H224802   0.709   2.217   3.279
 8280TIP3   OH224803   1.095   2.694   4.862
 8280TIP3    H124804   1.063   2.782   4.883
 8280TIP3    H224805   1.076   2.684   4.769
 8281TIP3   OH224806   5.480   1.283   5.253
 8281TIP3    H124807   5.556   1.341   5.251
 8281TIP3    H224808   5.516   1.197   5.278
 8282TIP3   OH224809   6.368   3.061   5.155
 8282TIP3    H124810   6.279   3.094   5.142
 8282TIP3    H224811   6.408   3.065   5.068
 8283TIP3   OH224812   5.134   1.939   3.208
 8283TIP3    H124813   5.170   1.905   3.126
 8283TIP3    H224814   5.068   2.003   3.181
 8284TIP3   OH224815   1.999   1.025   0.165
 8284TIP3    H124816   2.047   1.071   0.096
 8284TIP3    H224817   2.009   1.081   0.242
 8285TIP3   OH224818   2.483   2.609   1.474
 8285TIP3    H124819   2.552   2.665   1.510
 8285TIP3    H224820   2.406   2.666   1.468
 8286TIP3   OH224821   6.763   6.137   4.547
 8286TIP3    H124822   6.815   6.162   4.471
 8286TIP3    H224823   6.718   6.217   4.574
 8287TIP3   OH224824   4.622   3.194   1.734
 8287TIP3    H124825   4.685   3.122   1.734
 8287TIP3    H224826   4.605   3.211   1.642
 8288TIP3   OH224827   5.086   1.463   3.080
 8288TIP3    H124828   5.137   1.383   3.071
 8288TIP3    H224829   5.033   1.449   3.159
 8289TIP3   OH224830   4.141   6.358   2.426
 8289TIP3    H124831   4.106   6.308   2.500
 8289TIP3    H224832   4.209   6.301   2.388
 8290TIP3   OH224833   0.340   3.137   5.123
 8290TIP3    H124834   0.312   3.170   5.038
 8290TIP3    H224835   0.354   3.216   5.176
 8291TIP3   OH224836   4.321   6.389   5.776
 8291TIP3    H124837   4.288   6.398   5.865
 8291TIP3    H224838   4.245   6.363   5.724
 8292TIP3   OH224839   1.878   0.293   4.344
 8292TIP3    H124840   1.815   0.340   4.398
 8292TIP3    H224841   1.943   0.261   4.407
 8293TIP3   OH224842   4.819   4.763   3.218
 8293TIP3    H124843   4.767   4.832   3.258
 8293TIP3    H224844   4.827   4.696   3.286
 8294TIP3   OH224845   5.962   6.446   3.887
 8294TIP3    H124846   5.989   6.527   3.844
 8294TIP3    H224847   5.876   6.466   3.923
 8295TIP3   OH224848   0.051   0.073   4.987
 8295TIP3    H124849  -0.040   0.090   4.961
 8295TIP3    H224850   0.085   0.016   4.918
 8296TIP3   OH224851   0.114   5.928   1.223
 8296TIP3    H124852   0.112   5.925   1.127
 8296TIP3    H224853   0.204   5.906   1.246
 8297TIP3   OH224854   4.477   5.151   4.789
 8297TIP3    H124855   4.534   5.219   4.752
 8297TIP3    H224856   4.511   5.137   4.877
 8298TIP3   OH224857   4.961   5.139   4.878
 8298TIP3    H124858   4.909   5.163   4.954
 8298TIP3    H224859   5.052   5.154   4.905
 8299TIP3   OH224860   6.800   6.596   4.498
 8299TIP3    H124861   6.759   6.515   4.528
 8299TIP3    H224862   6.730   6.661   4.498
 8300TIP3   OH224863   4.541   6.670   0.221
 8300TIP3    H124864   4.512   6.653   0.310
 8300TIP3    H224865   4.629   6.707   0.230
 8301TIP3   OH224866   0.311   4.969   5.794
 8301TIP3    H124867   0.351   4.923   5.720
 8301TIP3    H224868   0.253   5.033   5.754
 8302TIP3   OH224869   1.910   0.294   1.545
 8302TIP3    H124870   1.990   0.259   1.506
 8302TIP3    H224871   1.934   0.311   1.637
 8303TIP3   OH224872   5.048   4.533   2.419
 8303TIP3    H124873   5.004   4.448   2.426
 8303TIP3    H224874   5.052   4.565   2.509
 8304TIP3   OH224875   4.923   0.388   2.338
 8304TIP3    H124876   4.849   0.341   2.376
 8304TIP3    H224877   4.899   0.399   2.246
 8305TIP3   OH224878   2.321   4.924   5.719
 8305TIP3    H124879   2.325   4.999   5.660
 8305TIP3    H224880   2.394   4.868   5.692
 8306TIP3   OH224881   3.504   0.467   0.527
 8306TIP3    H124882   3.480   0.558   0.545
 8306TIP3    H224883   3.482   0.454   0.435
 8307TIP3   OH224884   5.204   5.042   4.526
 8307TIP3    H124885   5.285   5.048   4.577
 8307TIP3    H224886   5.137   5.080   4.582
 8308TIP3   OH224887   2.913   4.635   4.797
 8308TIP3    H124888   2.935   4.726   4.777
 8308TIP3    H224889   2.933   4.625   4.890
 8309TIP3   OH224890   4.013   6.678   1.359
 8309TIP3    H124891   4.101   6.641   1.350
 8309TIP3    H224892   4.028   6.769   1.385
 8310TIP3   OH224893   1.974   1.193   3.762
 8310TIP3    H124894   1.880   1.176   3.762
 8310TIP3    H224895   1.986   1.257   3.692
 8311TIP3   OH224896   3.047   5.298   0.807
 8311TIP3    H124897   3.100   5.220   0.824
 8311TIP3    H224898   2.994   5.274   0.731
 8312TIP3   OH224899   2.276   3.858   1.126
 8312TIP3    H124900   2.330   3.842   1.049
 8312TIP3    H224901   2.339   3.883   1.194
 8313TIP3   OH224902   3.855   2.311   3.106
 8313TIP3    H124903   3.837   2.218   3.088
 8313TIP3    H224904   3.845   2.354   3.021
 8314TIP3   OH224905   6.155   6.369   5.663
 8314TIP3    H124906   6.101   6.430   5.612
 8314TIP3    H224907   6.241   6.409   5.665
 8315TIP3   OH224908   3.808   5.650   4.735
 8315TIP3    H124909   3.774   5.713   4.672
 8315TIP3    H224910   3.895   5.682   4.756
 8316TIP3   OH224911   3.419   5.687   1.133
 8316TIP3    H124912   3.476   5.613   1.110
 8316TIP3    H224913   3.339   5.646   1.165
 8317TIP3   OH224914   2.002   4.619   1.498
 8317TIP3    H124915   2.028   4.531   1.524
 8317TIP3    H224916   1.995   4.667   1.581
 8318TIP3   OH224917   7.187   0.016   2.697
 8318TIP3    H124918   7.110  -0.040   2.694
 8318TIP3    H224919   7.195   0.052   2.608
 8319TIP3   OH224920   0.998   6.290   3.715
 8319TIP3    H124921   1.031   6.214   3.667
 8319TIP3    H224922   0.910   6.266   3.742
 8320TIP3   OH224923   5.108   6.212   3.732
 8320TIP3    H124924   5.043   6.228   3.801
 8320TIP3    H224925   5.146   6.127   3.754
 8321TIP3   OH224926   3.565   0.310   3.282
 8321TIP3    H124927   3.660   0.324   3.272
 8321TIP3    H224928   3.540   0.263   3.202
 8322TIP3   OH224929   2.686   6.711   0.077
 8322TIP3    H124930   2.746   6.641   0.053
 8322TIP3    H224931   2.706   6.729   0.169
 8323TIP3   OH224932   2.248   2.182   5.712
 8323TIP3    H124933   2.277   2.273   5.712
 8323TIP3    H224934   2.314   2.136   5.661
 8324TIP3   OH224935   5.913   0.476   5.330
 8324TIP3    H124936   5.916   0.381   5.316
 8324TIP3    H224937   5.910   0.487   5.425
 8325TIP3   OH224938   5.042   2.104   4.751
 8325TIP3    H124939   5.056   2.168   4.821
 8325TIP3    H224940   5.011   2.156   4.677
 8326TIP3   OH224941   3.429   2.093   5.540
 8326TIP3    H124942   3.524   2.099   5.529
 8326TIP3    H224943   3.416   2.095   5.634
 8327TIP3   OH224944   4.087   4.085   2.004
 8327TIP3    H124945   4.007   4.052   1.963
 8327TIP3    H224946   4.143   4.111   1.930
 8328TIP3   OH224947   6.327   5.738   3.283
 8328TIP3    H124948   6.264   5.668   3.270
 8328TIP3    H224949   6.274   5.815   3.303
 8329TIP3   OH224950   4.115   3.594   5.821
 8329TIP3    H124951   4.075   3.618   5.904
 8329TIP3    H224952   4.063   3.641   5.755
 8330TIP3   OH224953   1.800   3.373   5.254
 8330TIP3    H124954   1.795   3.289   5.298
 8330TIP3    H224955   1.822   3.435   5.323
 8331TIP3   OH224956   7.132   1.476   0.725
 8331TIP3    H124957   7.109   1.455   0.634
 8331TIP3    H224958   7.048   1.473   0.772
 8332TIP3   OH224959   0.490   3.797   5.098
 8332TIP3    H124960   0.536   3.719   5.066
 8332TIP3    H224961   0.502   3.793   5.193
 8333TIP3   OH224962   6.380   5.586   1.991
 8333TIP3    H124963   6.374   5.582   1.895
 8333TIP3    H224964   6.337   5.506   2.020
 8334TIP3   OH224965   1.377   3.980   1.095
 8334TIP3    H124966   1.353   3.948   1.008
 8334TIP3    H224967   1.310   3.944   1.153
 8335TIP3   OH224968   4.598   1.682   0.067
 8335TIP3    H124969   4.657   1.611   0.041
 8335TIP3    H224970   4.561   1.654   0.150
 8336TIP3   OH224971   4.239   6.708   4.188
 8336TIP3    H124972   4.255   6.781   4.248
 8336TIP3    H224973   4.157   6.730   4.144
 8337TIP3   OH224974   6.999   6.127   4.254
 8337TIP3    H124975   7.010   6.222   4.246
 8337TIP3    H224976   7.070   6.091   4.202
 8338TIP3   OH224977   3.143   5.099   1.335
 8338TIP3    H124978   3.099   5.021   1.299
 8338TIP3    H224979   3.154   5.157   1.260
 8339TIP3   OH224980   5.066   4.430   4.523
 8339TIP3    H124981   5.116   4.511   4.530
 8339TIP3    H224982   5.076   4.388   4.609
 8340TIP3   OH224983   2.372   2.107   3.133
 8340TIP3    H124984   2.344   2.126   3.044
 8340TIP3    H224985   2.455   2.062   3.123
 8341TIP3   OH224986   4.350   2.059   3.777
 8341TIP3    H124987   4.326   2.104   3.696
 8341TIP3    H224988   4.374   1.971   3.750
 8342TIP3   OH224989   2.160   6.750   0.341
 8342TIP3    H124990   2.161   6.734   0.436
 8342TIP3    H224991   2.142   6.664   0.303
 8343TIP3   OH224992   4.130   3.470   4.400
 8343TIP3    H124993   4.115   3.471   4.305
 8343TIP3    H224994   4.065   3.531   4.435
 8344TIP3   OH224995   5.680   6.259   1.096
 8344TIP3    H124996   5.747   6.196   1.124
 8344TIP3    H224997   5.619   6.206   1.044
 8345TIP3   OH224998   5.364   0.838   0.780
 8345TIP3    H124999   5.390   0.805   0.695
 8345TIP3    H225000   5.286   0.891   0.762
 8346TIP3   OH225001   5.087   4.693   4.966
 8346TIP3    H125002   5.143   4.620   4.995
 8346TIP3    H225003   5.048   4.726   5.047
 8347TIP3   OH225004   4.942   3.027   5.605
 8347TIP3    H125005   4.897   3.111   5.612
 8347TIP3    H225006   4.937   2.990   5.693
 8348TIP3   OH225007   4.926   4.258   2.411
 8348TIP3    H125008   4.842   4.239   2.453
 8348TIP3    H225009   4.974   4.175   2.413
 8349TIP3   OH225010   1.085   0.897   5.558
 8349TIP3    H125011   1.106   0.978   5.605
 8349TIP3    H225012   1.121   0.910   5.471
 8350TIP3   OH225013   0.023   4.551   3.886
 8350TIP3    H125014   0.091   4.591   3.832
 8350TIP3    H225015   0.039   4.457   3.880
 8351TIP3   OH225016   4.467   1.374   1.917
 8351TIP3    H125017   4.521   1.353   1.993
 8351TIP3    H225018   4.523   1.354   1.841
 8352TIP3   OH225019   7.091   6.814   5.655
 8352TIP3    H125020   7.092   6.797   5.749
 8352TIP3    H225021   7.077   6.728   5.615
 8353TIP3   OH225022   3.121   3.698   4.185
 8353TIP3    H125023   3.040   3.713   4.234
 8353TIP3    H225024   3.128   3.603   4.177
 8354TIP3   OH225025   4.972   4.430   3.612
 8354TIP3    H125026   5.037   4.381   3.663
 8354TIP3    H225027   5.014   4.446   3.528
 8355TIP3   OH225028   0.340   0.084   2.991
 8355TIP3    H125029   0.434   0.068   2.996
 8355TIP3    H225030   0.329   0.138   2.912
 8356TIP3   OH225031   4.610   5.305   1.646
 8356TIP3    H125032   4.580   5.224   1.604
 8356TIP3    H225033   4.590   5.294   1.738
 8357TIP3   OH225034   4.756   5.705   2.898
 8357TIP3    H125035   4.763   5.630   2.839
 8357TIP3    H225036   4.667   5.702   2.932
 8358TIP3   OH225037   2.401   3.544   2.543
 8358TIP3    H125038   2.469   3.589   2.592
 8358TIP3    H225039   2.337   3.517   2.609
 8359TIP3   OH225040   2.784   6.780   2.120
 8359TIP3    H125041   2.711   6.841   2.127
 8359TIP3    H225042   2.832   6.808   2.042
 8360TIP3   OH225043   2.390   1.353   2.988
 8360TIP3    H125044   2.466   1.295   2.988
 8360TIP3    H225045   2.334   1.318   3.057
 8361TIP3   OH225046   5.125   1.894   0.815
 8361TIP3    H125047   5.208   1.846   0.809
 8361TIP3    H225048   5.112   1.929   0.727
 8362TIP3   OH225049   4.574   0.852   1.410
 8362TIP3    H125050   4.484   0.880   1.424
 8362TIP3    H225051   4.597   0.886   1.324
 8363TIP3   OH225052   4.098   4.802   1.140
 8363TIP3    H125053   4.168   4.742   1.167
 8363TIP3    H225054   4.121   4.886   1.181
 8364TIP3   OH225055   6.393   2.450   2.330
 8364TIP3    H125056   6.307   2.436   2.369
 8364TIP3    H225057   6.374   2.487   2.243
 8365TIP3   OH225058   6.266   0.636   2.736
 8365TIP3    H125059   6.359   0.640   2.716
 8365TIP3    H225060   6.235   0.725   2.726
 8366TIP3   OH225061   0.154   0.140   0.569
 8366TIP3    H125062   0.175   0.196   0.643
 8366TIP3    H225063   0.067   0.170   0.540
 8367TIP3   OH225064   2.786   4.361   4.042
 8367TIP3    H125065   2.861   4.402   4.000
 8367TIP3    H225066   2.820   4.280   4.079
 8368TIP3   OH225067   6.811   6.298   4.908
 8368TIP3    H125068   6.880   6.268   4.967
 8368TIP3    H225069   6.857   6.329   4.830
 8369TIP3   OH225070   6.045   0.832   3.446
 8369TIP3    H125071   6.106   0.898   3.477
 8369TIP3    H225072   6.060   0.756   3.502
 8370TIP3   OH225073   1.501   5.236   2.606
 8370TIP3    H125074   1.456   5.292   2.542
 8370TIP3    H225075   1.542   5.168   2.553
 8371TIP3   OH225076   3.133   5.076   2.593
 8371TIP3    H125077   3.223   5.047   2.599
 8371TIP3    H225078   3.138   5.172   2.592
 8372TIP3   OH225079   2.537   5.975   1.050
 8372TIP3    H125080   2.560   5.933   1.133
 8372TIP3    H225081   2.556   5.908   0.984
 8373TIP3   OH225082   1.095   5.336   0.730
 8373TIP3    H125083   1.136   5.274   0.670
 8373TIP3    H225084   1.094   5.419   0.681
 8374TIP3   OH225085   3.842   1.878   2.842
 8374TIP3    H125086   3.889   1.807   2.799
 8374TIP3    H225087   3.910   1.937   2.873
 8375TIP3   OH225088   6.925   1.858   5.021
 8375TIP3    H125089   6.919   1.765   5.040
 8375TIP3    H225090   6.999   1.866   4.960
 8376TIP3   OH225091   1.652   3.163   4.971
 8376TIP3    H125092   1.575   3.108   4.962
 8376TIP3    H225093   1.717   3.108   5.015
 8377TIP3   OH225094   1.439   4.900   2.223
 8377TIP3    H125095   1.374   4.833   2.243
 8377TIP3    H225096   1.391   4.967   2.175
 8378TIP3   OH225097   6.652   6.348   1.426
 8378TIP3    H125098   6.724   6.395   1.385
 8378TIP3    H225099   6.660   6.367   1.519
 8379TIP3   OH225100   3.377   5.675   3.222
 8379TIP3    H125101   3.336   5.730   3.155
 8379TIP3    H225102   3.367   5.586   3.189
 8380TIP3   OH225103   3.598   3.663   0.813
 8380TIP3    H125104   3.530   3.607   0.776
 8380TIP3    H225105   3.553   3.745   0.834
 8381TIP3   OH225106   6.807   2.438   4.587
 8381TIP3    H125107   6.738   2.372   4.589
 8381TIP3    H225108   6.865   2.410   4.516
 8382TIP3   OH225109   3.508   2.376   1.049
 8382TIP3    H125110   3.483   2.377   1.141
 8382TIP3    H225111   3.579   2.312   1.044
 8383TIP3   OH225112   6.285   5.378   5.106
 8383TIP3    H125113   6.297   5.443   5.176
 8383TIP3    H225114   6.207   5.330   5.132
 8384TIP3   OH225115   2.212   3.054   1.353
 8384TIP3    H125116   2.265   2.993   1.302
 8384TIP3    H225117   2.218   3.137   1.305
 8385TIP3   OH225118   2.831   2.615   4.675
 8385TIP3    H125119   2.817   2.705   4.644
 8385TIP3    H225120   2.924   2.599   4.659
 8386TIP3   OH225121   2.682   3.703   4.920
 8386TIP3    H125122   2.688   3.799   4.929
 8386TIP3    H225123   2.771   3.673   4.939
 8387TIP3   OH225124   2.452   3.537   2.289
 8387TIP3    H125125   2.447   3.538   2.385
 8387TIP3    H225126   2.466   3.445   2.267
 8388TIP3   OH225127   5.695   2.588   3.414
 8388TIP3    H125128   5.676   2.644   3.339
 8388TIP3    H225129   5.755   2.640   3.468
 8389TIP3   OH225130   7.027   4.886   0.544
 8389TIP3    H125131   6.989   4.957   0.492
 8389TIP3    H225132   7.076   4.930   0.613
 8390TIP3   OH225133   2.368   3.683   2.074
 8390TIP3    H125134   2.286   3.635   2.057
 8390TIP3    H225135   2.396   3.650   2.160
 8391TIP3   OH225136   6.739   5.496   5.762
 8391TIP3    H125137   6.734   5.500   5.857
 8391TIP3    H225138   6.725   5.586   5.733
 8392TIP3   OH225139   4.799   6.665   5.835
 8392TIP3    H125140   4.767   6.740   5.785
 8392TIP3    H225141   4.850   6.704   5.906
 8393TIP3   OH225142   4.815   3.814   0.887
 8393TIP3    H125143   4.869   3.738   0.909
 8393TIP3    H225144   4.771   3.789   0.806
 8394TIP3   OH225145   3.652   6.099   4.611
 8394TIP3    H125146   3.658   6.148   4.529
 8394TIP3    H225147   3.713   6.143   4.670
 8395TIP3   OH225148   2.005   5.260   4.311
 8395TIP3    H125149   2.082   5.221   4.352
 8395TIP3    H225150   1.951   5.185   4.285
 8396TIP3   OH225151   2.852   3.476   3.619
 8396TIP3    H125152   2.857   3.393   3.668
 8396TIP3    H225153   2.932   3.523   3.643
 8397TIP3   OH225154   2.126   3.424   4.959
 8397TIP3    H125155   2.032   3.410   4.969
 8397TIP3    H225156   2.164   3.337   4.954
 8398TIP3   OH225157   3.191   3.785   5.125
 8398TIP3    H125158   3.286   3.769   5.120
 8398TIP3    H225159   3.181   3.876   5.097
 8399TIP3   OH225160   3.284   4.767   4.962
 8399TIP3    H125161   3.258   4.858   4.973
 8399TIP3    H225162   3.349   4.752   5.031
 8400TIP3   OH225163   4.379   2.749   3.414
 8400TIP3    H125164   4.452   2.749   3.476
 8400TIP3    H225165   4.316   2.810   3.451
 8401TIP3   OH225166   2.614   2.991   0.111
 8401TIP3    H125167   2.539   3.006   0.054
 8401TIP3    H225168   2.648   2.905   0.085
 8402TIP3   OH225169   5.086   3.451   3.190
 8402TIP3    H125170   5.018   3.495   3.241
 8402TIP3    H225171   5.044   3.431   3.107
 8403TIP3   OH225172   2.985   2.971   1.374
 8403TIP3    H125173   2.967   3.063   1.390
 8403TIP3    H225174   3.010   2.936   1.459
 8404TIP3   OH225175   2.596   1.247   0.749
 8404TIP3    H125176   2.553   1.195   0.681
 8404TIP3    H225177   2.525   1.278   0.804
 8405TIP3   OH225178   2.359   5.698   5.781
 8405TIP3    H125179   2.390   5.625   5.728
 8405TIP3    H225180   2.268   5.711   5.753
 8406TIP3   OH225181   0.923   0.525   5.745
 8406TIP3    H125182   0.900   0.605   5.698
 8406TIP3    H225183   0.888   0.454   5.692
 8407TIP3   OH225184   6.960   3.633   4.291
 8407TIP3    H125185   7.027   3.646   4.358
 8407TIP3    H225186   6.950   3.538   4.286
 8408TIP3   OH225187   4.824   0.792   4.705
 8408TIP3    H125188   4.836   0.705   4.744
 8408TIP3    H225189   4.732   0.793   4.677
 8409TIP3   OH225190   4.907   1.821   4.236
 8409TIP3    H125191   4.932   1.819   4.328
 8409TIP3    H225192   4.979   1.778   4.190
 8410TIP3   OH225193   3.192   2.693   0.469
 8410TIP3    H125194   3.282   2.671   0.447
 8410TIP3    H225195   3.199   2.772   0.523
 8411TIP3   OH225196   0.177   3.603   2.919
 8411TIP3    H125197   0.246   3.657   2.881
 8411TIP3    H225198   0.118   3.666   2.961
 8412TIP3   OH225199   5.950   1.836   3.817
 8412TIP3    H125200   5.935   1.848   3.910
 8412TIP3    H225201   6.040   1.805   3.810
 8413TIP3   OH225202   6.465   3.697   0.521
 8413TIP3    H125203   6.521   3.748   0.579
 8413TIP3    H225204   6.407   3.762   0.480
 8414TIP3   OH225205   1.354   6.523   1.866
 8414TIP3    H125206   1.384   6.462   1.933
 8414TIP3    H225207   1.364   6.610   1.906
 8415TIP3   OH225208   6.294   5.669   5.128
 8415TIP3    H125209   6.224   5.643   5.069
 8415TIP3    H225210   6.250   5.718   5.198
 8416TIP3   OH225211   6.319   2.386   4.684
 8416TIP3    H125212   6.284   2.297   4.683
 8416TIP3    H225213   6.392   2.383   4.746
 8417TIP3   OH225214   2.265   5.021   2.310
 8417TIP3    H125215   2.181   4.985   2.339
 8417TIP3    H225216   2.326   4.947   2.313
 8418TIP3   OH225217   1.707   3.905  -0.026
 8418TIP3    H125218   1.795   3.898   0.013
 8418TIP3    H225219   1.663   3.972   0.026
 8419TIP3   OH225220   5.251   1.571   2.325
 8419TIP3    H125221   5.172   1.603   2.368
 8419TIP3    H225222   5.312   1.645   2.327
 8420TIP3   OH225223   5.779   3.096   2.671
 8420TIP3    H125224   5.784   3.002   2.687
 8420TIP3    H225225   5.718   3.105   2.598
 8421TIP3   OH225226   4.167   6.792   2.135
 8421TIP3    H125227   4.134   6.706   2.108
 8421TIP3    H225228   4.261   6.789   2.117
 8422TIP3   OH225229   5.162   0.021   1.824
 8422TIP3    H125230   5.072   0.044   1.799
 8422TIP3    H225231   5.213   0.099   1.804
 8423TIP3   OH225232   7.034   1.349   0.484
 8423TIP3    H125233   7.053   1.266   0.528
 8423TIP3    H225234   6.960   1.385   0.532
 8424TIP3   OH225235   0.938   5.342   3.380
 8424TIP3    H125236   0.966   5.280   3.447
 8424TIP3    H225237   0.863   5.387   3.418
 8425TIP3   OH225238   3.506   1.477   2.409
 8425TIP3    H125239   3.486   1.547   2.348
 8425TIP3    H225240   3.599   1.488   2.430
 8426TIP3   OH225241   2.770   1.614   1.942
 8426TIP3    H125242   2.719   1.676   1.889
 8426TIP3    H225243   2.709   1.543   1.961
 8427TIP3   OH225244   1.206   4.374   4.571
 8427TIP3    H125245   1.116   4.341   4.573
 8427TIP3    H225246   1.254   4.309   4.520
 8428TIP3   OH225247   5.301   1.558   0.237
 8428TIP3    H125248   5.257   1.643   0.234
 8428TIP3    H225249   5.333   1.544   0.148
 8429TIP3   OH225250   0.167   6.456   0.647
 8429TIP3    H125251   0.135   6.526   0.704
 8429TIP3    H225252   0.190   6.501   0.565
 8430TIP3   OH225253   3.930   5.702   2.462
 8430TIP3    H125254   4.020   5.720   2.438
 8430TIP3    H225255   3.878   5.740   2.391
 8431TIP3   OH225256   3.606   1.626   2.752
 8431TIP3    H125257   3.676   1.598   2.693
 8431TIP3    H225258   3.590   1.718   2.729
 8432TIP3   OH225259   6.056   2.399   5.426
 8432TIP3    H125260   6.045   2.370   5.335
 8432TIP3    H225261   6.025   2.326   5.479
 8433TIP3   OH225262   1.456   1.289   0.262
 8433TIP3    H125263   1.502   1.261   0.341
 8433TIP3    H225264   1.501   1.369   0.236
 8434TIP3   OH225265   6.484   2.655   4.363
 8434TIP3    H125266   6.461   2.677   4.273
 8434TIP3    H225267   6.548   2.722   4.388
 8435TIP3   OH225268   4.255   2.740   4.308
 8435TIP3    H125269   4.335   2.691   4.327
 8435TIP3    H225270   4.186   2.690   4.352
 8436TIP3   OH225271   5.953   2.490   1.686
 8436TIP3    H125272   5.941   2.553   1.614
 8436TIP3    H225273   5.972   2.407   1.642
 8437TIP3   OH225274   2.131   1.571   5.284
 8437TIP3    H125275   2.085   1.637   5.233
 8437TIP3    H225276   2.215   1.561   5.239
 8438TIP3   OH225277   5.827   5.635   4.648
 8438TIP3    H125278   5.805   5.605   4.560
 8438TIP3    H225279   5.920   5.613   4.659
 8439TIP3   OH225280   5.789   3.596   3.878
 8439TIP3    H125281   5.877   3.615   3.910
 8439TIP3    H225282   5.756   3.681   3.848
 8440TIP3   OH225283   4.237   0.452   4.811
 8440TIP3    H125284   4.281   0.368   4.823
 8440TIP3    H225285   4.146   0.430   4.793
 8441TIP3   OH225286   7.246   0.483   3.796
 8441TIP3    H125287   7.172   0.429   3.824
 8441TIP3    H225288   7.224   0.508   3.706
 8442TIP3   OH225289   3.756   5.028   3.657
 8442TIP3    H125290   3.702   5.013   3.734
 8442TIP3    H225291   3.823   5.090   3.686
 8443TIP3   OH225292   5.206   2.059   5.565
 8443TIP3    H125293   5.183   2.151   5.554
 8443TIP3    H225294   5.254   2.056   5.647
 8444TIP3   OH225295   0.080   1.005   1.002
 8444TIP3    H125296   0.096   0.923   1.048
 8444TIP3    H225297   0.050   1.065   1.069
 8445TIP3   OH225298   7.155   0.959   5.365
 8445TIP3    H125299   7.176   0.926   5.452
 8445TIP3    H225300   7.141   0.881   5.312
 8446TIP3   OH225301   2.751   3.566   0.548
 8446TIP3    H125302   2.738   3.549   0.455
 8446TIP3    H225303   2.829   3.516   0.571
 8447TIP3   OH225304   4.965   5.228   4.426
 8447TIP3    H125305   5.051   5.191   4.407
 8447TIP3    H225306   4.921   5.161   4.478
 8448TIP3   OH225307   6.204   0.426   2.916
 8448TIP3    H125308   6.243   0.491   2.858
 8448TIP3    H225309   6.136   0.475   2.964
 8449TIP3   OH225310   4.525   1.390   4.597
 8449TIP3    H125311   4.465   1.427   4.662
 8449TIP3    H225312   4.502   1.297   4.594
 8450TIP3   OH225313   3.943   2.833   2.843
 8450TIP3    H125314   4.034   2.815   2.864
 8450TIP3    H225315   3.947   2.901   2.775
 8451TIP3   OH225316   6.482   2.546   3.170
 8451TIP3    H125317   6.454   2.593   3.248
 8451TIP3    H225318   6.402   2.532   3.120
 8452TIP3   OH225319   1.580   5.052   2.414
 8452TIP3    H125320   1.528   5.011   2.344
 8452TIP3    H225321   1.667   5.063   2.376
 8453TIP3   OH225322   6.267   3.349   5.370
 8453TIP3    H125323   6.239   3.331   5.280
 8453TIP3    H225324   6.192   3.323   5.424
 8454TIP3   OH225325   4.404   4.662   3.802
 8454TIP3    H125326   4.454   4.581   3.790
 8454TIP3    H225327   4.343   4.642   3.873
 8455TIP3   OH225328   6.279   4.086   3.757
 8455TIP3    H125329   6.261   4.179   3.748
 8455TIP3    H225330   6.325   4.078   3.840
 8456TIP3   OH225331   2.135   5.692   4.781
 8456TIP3    H125332   2.060   5.647   4.742
 8456TIP3    H225333   2.208   5.632   4.767
 8457TIP3   OH225334   6.145   3.585   5.645
 8457TIP3    H125335   6.205   3.516   5.672
 8457TIP3    H225336   6.112   3.557   5.560
 8458TIP3   OH225337   5.755   4.153   2.267
 8458TIP3    H125338   5.796   4.239   2.280
 8458TIP3    H225339   5.828   4.094   2.251
 8459TIP3   OH225340   5.234   3.298   0.753
 8459TIP3    H125341   5.270   3.303   0.841
 8459TIP3    H225342   5.194   3.211   0.748
 8460TIP3   OH225343   3.886   5.351   4.678
 8460TIP3    H125344   3.837   5.356   4.595
 8460TIP3    H225345   3.855   5.426   4.728
 8461TIP3   OH225346   6.727   6.635   4.197
 8461TIP3    H125347   6.716   6.729   4.186
 8461TIP3    H225348   6.810   6.625   4.243
 8462TIP3   OH225349   2.098   4.020   1.256
 8462TIP3    H125350   2.007   4.006   1.231
 8462TIP3    H225351   2.138   3.934   1.251
 8463TIP3   OH225352   5.507   6.509   1.503
 8463TIP3    H125353   5.478   6.554   1.424
 8463TIP3    H225354   5.589   6.466   1.477
 8464TIP3   OH225355   5.565   5.713   3.186
 8464TIP3    H125356   5.604   5.784   3.136
 8464TIP3    H225357   5.523   5.657   3.121
 8465TIP3   OH225358   4.544   0.390   4.258
 8465TIP3    H125359   4.588   0.417   4.338
 8465TIP3    H225360   4.476   0.457   4.244
 8466TIP3   OH225361   2.860   1.522   4.908
 8466TIP3    H125362   2.888   1.537   4.817
 8466TIP3    H225363   2.793   1.589   4.924
 8467TIP3   OH225364   0.344   2.096   2.252
 8467TIP3    H125365   0.424   2.045   2.244
 8467TIP3    H225366   0.336   2.143   2.169
 8468TIP3   OH225367   5.674   4.359   5.539
 8468TIP3    H125368   5.622   4.390   5.464
 8468TIP3    H225369   5.726   4.435   5.565
 8469TIP3   OH225370   0.129   0.592   0.167
 8469TIP3    H125371   0.044   0.566   0.132
 8469TIP3    H225372   0.110   0.639   0.247
 8470TIP3   OH225373   3.355   4.100   2.482
 8470TIP3    H125374   3.390   4.021   2.523
 8470TIP3    H225375   3.261   4.082   2.471
 8471TIP3   OH225376   2.841   3.352   3.375
 8471TIP3    H125377   2.845   3.272   3.427
 8471TIP3    H225378   2.846   3.423   3.439
 8472TIP3   OH225379   1.673   6.375   3.528
 8472TIP3    H125380   1.673   6.471   3.523
 8472TIP3    H225381   1.711   6.356   3.614
 8473TIP3   OH225382   4.089   2.887   1.028
 8473TIP3    H125383   4.177   2.890   0.991
 8473TIP3    H225384   4.091   2.946   1.102
 8474TIP3   OH225385   0.135   5.668   1.452
 8474TIP3    H125386   0.190   5.596   1.483
 8474TIP3    H225387   0.180   5.747   1.480
 8475TIP3   OH225388   5.737   1.673   2.770
 8475TIP3    H125389   5.761   1.698   2.860
 8475TIP3    H225390   5.643   1.656   2.774
 8476TIP3   OH225391   3.486   5.427   4.062
 8476TIP3    H125392   3.508   5.411   3.971
 8476TIP3    H225393   3.519   5.351   4.110
 8477TIP3   OH225394   2.182   1.830   0.839
 8477TIP3    H125395   2.193   1.745   0.882
 8477TIP3    H225396   2.268   1.849   0.802
 8478TIP3   OH225397   0.400   6.371   1.035
 8478TIP3    H125398   0.423   6.425   1.111
 8478TIP3    H225399   0.419   6.427   0.960
 8479TIP3   OH225400   0.087   0.685   1.059
 8479TIP3    H125401   0.139   0.697   0.979
 8479TIP3    H225402   0.005   0.648   1.028
 8480TIP3   OH225403   0.428   4.956   0.272
 8480TIP3    H125404   0.333   4.973   0.275
 8480TIP3    H225405   0.468   5.043   0.280
 8481TIP3   OH225406   6.473   6.327   0.363
 8481TIP3    H125407   6.542   6.262   0.369
 8481TIP3    H225408   6.508   6.404   0.408
 8482TIP3   OH225409   3.204   5.141   1.692
 8482TIP3    H125410   3.177   5.218   1.641
 8482TIP3    H225411   3.300   5.141   1.685
 8483TIP3   OH225412   3.433   3.518   4.861
 8483TIP3    H125413   3.468   3.447   4.915
 8483TIP3    H225414   3.413   3.477   4.777
 8484TIP3   OH225415   1.090   4.989   4.362
 8484TIP3    H125416   1.021   5.051   4.338
 8484TIP3    H225417   1.046   4.923   4.415
 8485TIP3   OH225418   2.256   4.253   1.337
 8485TIP3    H125419   2.220   4.165   1.350
 8485TIP3    H225420   2.194   4.296   1.278
 8486TIP3   OH225421   5.144   2.384   2.593
 8486TIP3    H125422   5.051   2.367   2.609
 8486TIP3    H225423   5.149   2.400   2.498
 8487TIP3   OH225424   3.017   5.477   1.853
 8487TIP3    H125425   2.968   5.523   1.922
 8487TIP3    H225426   3.102   5.459   1.893
 8488TIP3   OH225427   1.482   5.545   2.085
 8488TIP3    H125428   1.472   5.638   2.064
 8488TIP3    H225429   1.426   5.531   2.161
 8489TIP3   OH225430   3.764   0.306   1.296
 8489TIP3    H125431   3.819   0.372   1.255
 8489TIP3    H225432   3.687   0.354   1.326
 8490TIP3   OH225433   5.696   5.852   3.537
 8490TIP3    H125434   5.733   5.782   3.484
 8490TIP3    H225435   5.723   5.932   3.493
 8491TIP3   OH225436   5.306   3.162   3.588
 8491TIP3    H125437   5.252   3.188   3.663
 8491TIP3    H225438   5.272   3.213   3.515
 8492TIP3   OH225439   3.950   2.211   4.574
 8492TIP3    H125440   4.023   2.188   4.632
 8492TIP3    H225441   3.981   2.186   4.487
 8493TIP3   OH225442   6.497   4.324   0.497
 8493TIP3    H125443   6.590   4.324   0.474
 8493TIP3    H225444   6.488   4.251   0.558
 8494TIP3   OH225445   3.961   3.471   2.904
 8494TIP3    H125446   4.006   3.549   2.872
 8494TIP3    H225447   3.877   3.471   2.858
 8495TIP3   OH225448   5.336   0.702   3.411
 8495TIP3    H125449   5.423   0.728   3.379
 8495TIP3    H225450   5.349   0.613   3.443
 8496TIP3   OH225451   3.707   3.786   4.363
 8496TIP3    H125452   3.706   3.798   4.458
 8496TIP3    H225453   3.615   3.779   4.339
 8497TIP3   OH225454   7.168   0.573   2.402
 8497TIP3    H125455   7.222   0.504   2.440
 8497TIP3    H225456   7.173   0.645   2.466
 8498TIP3   OH225457   6.343   4.416   0.910
 8498TIP3    H125458   6.427   4.422   0.864
 8498TIP3    H225459   6.278   4.434   0.843
 8499TIP3   OH225460   3.059   6.175   0.434
 8499TIP3    H125461   3.004   6.123   0.492
 8499TIP3    H225462   3.132   6.118   0.412
 8500TIP3   OH225463   5.932   4.092   3.436
 8500TIP3    H125464   5.882   4.088   3.518
 8500TIP3    H225465   5.866   4.087   3.367
 8501TIP3   OH225466   0.370   4.112   3.294
 8501TIP3    H125467   0.406   4.058   3.364
 8501TIP3    H225468   0.275   4.108   3.307
 8502TIP3   OH225469   5.381   0.634   0.964
 8502TIP3    H125470   5.355   0.714   0.919
 8502TIP3    H225471   5.300   0.596   0.996
 8503TIP3   OH225472   5.469   0.239   1.528
 8503TIP3    H125473   5.412   0.168   1.498
 8503TIP3    H225474   5.558   0.210   1.507
 8504TIP3   OH225475   4.778   1.345   4.704
 8504TIP3    H125476   4.696   1.347   4.654
 8504TIP3    H225477   4.805   1.254   4.704
 8505TIP3   OH225478   1.868   3.393   0.035
 8505TIP3    H125479   1.827   3.332   0.096
 8505TIP3    H225480   1.798   3.418  -0.024
 8506TIP3   OH225481   3.928   3.962   4.243
 8506TIP3    H125482   3.840   3.961   4.206
 8506TIP3    H225483   3.925   3.897   4.313
 8507TIP3   OH225484   5.238   0.029   3.129
 8507TIP3    H125485   5.229   0.003   3.038
 8507TIP3    H225486   5.329   0.057   3.137
 8508TIP3   OH225487   1.799   1.985   2.783
 8508TIP3    H125488   1.765   1.896   2.796
 8508TIP3    H225489   1.864   1.996   2.853
 8509TIP3   OH225490   3.067   2.043   0.537
 8509TIP3    H125491   3.054   2.073   0.447
 8509TIP3    H225492   2.983   2.004   0.561
 8510TIP3   OH225493   5.996   2.126   5.580
 8510TIP3    H125494   5.968   2.051   5.528
 8510TIP3    H225495   6.092   2.117   5.585
 8511TIP3   OH225496   0.313   5.728   2.741
 8511TIP3    H125497   0.261   5.683   2.807
 8511TIP3    H225498   0.402   5.695   2.753
 8512TIP3   OH225499   2.027   6.136   1.148
 8512TIP3    H125500   2.115   6.142   1.111
 8512TIP3    H225501   1.982   6.214   1.116
 8513TIP3   OH225502   1.508   4.959   5.483
 8513TIP3    H125503   1.485   4.975   5.574
 8513TIP3    H225504   1.571   4.887   5.486
 8514TIP3   OH225505   6.212   3.348   2.766
 8514TIP3    H125506   6.154   3.278   2.736
 8514TIP3    H225507   6.160   3.396   2.830
 8515TIP3   OH225508   6.004   1.644   1.831
 8515TIP3    H125509   6.050   1.726   1.845
 8515TIP3    H225510   5.950   1.633   1.909
 8516TIP3   OH225511   6.059   5.142   3.574
 8516TIP3    H125512   6.011   5.072   3.619
 8516TIP3    H225513   5.991   5.202   3.545
 8517TIP3   OH225514   6.342   5.659   2.450
 8517TIP3    H125515   6.324   5.628   2.539
 8517TIP3    H225516   6.332   5.754   2.455
 8518TIP3   OH225517   6.090   2.301   3.350
 8518TIP3    H125518   6.182   2.329   3.353
 8518TIP3    H225519   6.068   2.282   3.441
 8519TIP3   OH225520   4.704   5.417   3.764
 8519TIP3    H125521   4.678   5.457   3.681
 8519TIP3    H225522   4.795   5.390   3.750
 8520TIP3   OH225523   3.111   1.232   4.807
 8520TIP3    H125524   3.062   1.189   4.878
 8520TIP3    H225525   3.053   1.227   4.732
 8521TIP3   OH225526   0.477   5.233   0.238
 8521TIP3    H125527   0.544   5.290   0.200
 8521TIP3    H225528   0.455   5.275   0.321
 8522TIP3   OH225529   2.054   2.070   3.542
 8522TIP3    H125530   2.148   2.054   3.553
 8522TIP3    H225531   2.014   1.983   3.547
 8523TIP3   OH225532   0.628   4.382   3.566
 8523TIP3    H125533   0.699   4.401   3.627
 8523TIP3    H225534   0.576   4.462   3.565
 8524TIP3   OH225535   4.540   2.691   5.479
 8524TIP3    H125536   4.563   2.774   5.436
 8524TIP3    H225537   4.520   2.632   5.407
 8525TIP3   OH225538   2.191   1.550   3.906
 8525TIP3    H125539   2.189   1.561   3.811
 8525TIP3    H225540   2.177   1.638   3.940
 8526TIP3   OH225541   1.446   4.946   3.528
 8526TIP3    H125542   1.402   4.861   3.521
 8526TIP3    H225543   1.538   4.924   3.540
 8527TIP3   OH225544   3.205   0.129   1.294
 8527TIP3    H125545   3.268   0.200   1.305
 8527TIP3    H225546   3.127   0.172   1.259
 8528TIP3   OH225547   2.228   5.410   0.123
 8528TIP3    H125548   2.156   5.355   0.091
 8528TIP3    H225549   2.211   5.420   0.216
 8529TIP3   OH225550   2.687   1.128   3.748
 8529TIP3    H125551   2.638   1.050   3.773
 8529TIP3    H225552   2.677   1.133   3.653
 8530TIP3   OH225553   2.526   3.933   0.261
 8530TIP3    H125554   2.522   4.027   0.244
 8530TIP3    H225555   2.560   3.925   0.350
 8531TIP3   OH225556   2.159   0.154   3.673
 8531TIP3    H125557   2.088   0.128   3.614
 8531TIP3    H225558   2.174   0.076   3.727
 8532TIP3   OH225559   0.055   2.533   0.449
 8532TIP3    H125560   0.145   2.520   0.478
 8532TIP3    H225561   0.048   2.482   0.368
 8533TIP3   OH225562   3.321   1.456   0.619
 8533TIP3    H125563   3.360   1.540   0.593
 8533TIP3    H225564   3.282   1.422   0.538
 8534TIP3   OH225565   1.836   6.095   2.062
 8534TIP3    H125566   1.845   6.110   1.968
 8534TIP3    H225567   1.854   6.180   2.101
 8535TIP3   OH225568   2.236   3.483   2.754
 8535TIP3    H125569   2.282   3.408   2.794
 8535TIP3    H225570   2.234   3.549   2.823
 8536TIP3   OH225571   3.679   4.521   0.579
 8536TIP3    H125572   3.632   4.544   0.499
 8536TIP3    H225573   3.757   4.577   0.577
 8537TIP3   OH225574   2.860   2.352   4.399
 8537TIP3    H125575   2.916   2.417   4.439
 8537TIP3    H225576   2.858   2.280   4.462
 8538TIP3   OH225577   5.720   2.438   5.323
 8538TIP3    H125578   5.644   2.390   5.290
 8538TIP3    H225579   5.732   2.406   5.412
 8539TIP3   OH225580   2.807   4.728   2.471
 8539TIP3    H125581   2.876   4.792   2.455
 8539TIP3    H225582   2.841   4.673   2.541
 8540TIP3   OH225583   2.142   0.660   1.975
 8540TIP3    H125584   2.213   0.724   1.978
 8540TIP3    H225585   2.163   0.604   1.900
 8541TIP3   OH225586   6.286   5.361   0.829
 8541TIP3    H125587   6.232   5.429   0.788
 8541TIP3    H225588   6.356   5.409   0.872
 8542TIP3   OH225589   4.366   6.257   2.620
 8542TIP3    H125590   4.406   6.207   2.691
 8542TIP3    H225591   4.317   6.327   2.663
 8543TIP3   OH225592   1.729   6.748   2.478
 8543TIP3    H125593   1.819   6.737   2.509
 8543TIP3    H225594   1.733   6.728   2.384
 8544TIP3   OH225595   6.217   2.382   0.622
 8544TIP3    H125596   6.296   2.352   0.667
 8544TIP3    H225597   6.202   2.470   0.655
 8545TIP3   OH225598   5.131   2.088   3.673
 8545TIP3    H125599   5.163   2.015   3.621
 8545TIP3    H225600   5.058   2.124   3.623
 8546TIP3   OH225601   1.092   3.085   1.529
 8546TIP3    H125602   1.169   3.061   1.479
 8546TIP3    H225603   1.126   3.109   1.615
 8547TIP3   OH225604   6.908   0.490   4.549
 8547TIP3    H125605   6.947   0.435   4.482
 8547TIP3    H225606   6.834   0.533   4.506
 8548TIP3   OH225607   3.755   0.752   0.263
 8548TIP3    H125608   3.821   0.730   0.329
 8548TIP3    H225609   3.695   0.677   0.263
 8549TIP3   OH225610   0.382   1.315   4.368
 8549TIP3    H125611   0.363   1.276   4.453
 8549TIP3    H225612   0.373   1.409   4.382
 8550TIP3   OH225613   5.836   6.174   0.352
 8550TIP3    H125614   5.841   6.135   0.265
 8550TIP3    H225615   5.919   6.151   0.393
 8551TIP3   OH225616   3.535   4.645   2.393
 8551TIP3    H125617   3.607   4.590   2.363
 8551TIP3    H225618   3.461   4.585   2.400
 8552TIP3   OH225619   0.803   5.989   0.778
 8552TIP3    H125620   0.817   5.995   0.873
 8552TIP3    H225621   0.712   6.014   0.765
 8553TIP3   OH225622   2.035   5.437   3.203
 8553TIP3    H125623   2.021   5.365   3.265
 8553TIP3    H225624   2.063   5.511   3.258
 8554TIP3   OH225625   6.869   0.069   3.002
 8554TIP3    H125626   6.964   0.079   3.001
 8554TIP3    H225627   6.843   0.105   3.087
 8555TIP3   OH225628   4.985   6.268   2.641
 8555TIP3    H125629   4.992   6.296   2.550
 8555TIP3    H225630   4.890   6.261   2.656
 8556TIP3   OH225631   4.953   3.091   3.334
 8556TIP3    H125632   5.017   3.078   3.264
 8556TIP3    H225633   4.893   3.157   3.299
 8557TIP3   OH225634   5.624   4.775   5.640
 8557TIP3    H125635   5.621   4.779   5.544
 8557TIP3    H225636   5.593   4.861   5.668
 8558TIP3   OH225637   5.511   3.535   0.979
 8558TIP3    H125638   5.605   3.521   0.995
 8558TIP3    H225639   5.503   3.540   0.884
 8559TIP3   OH225640   5.388   0.365   3.069
 8559TIP3    H125641   5.310   0.402   3.111
 8559TIP3    H225642   5.354   0.299   3.009
 8560TIP3   OH225643   2.255   6.714   5.036
 8560TIP3    H125644   2.208   6.786   5.077
 8560TIP3    H225645   2.302   6.671   5.107
 8561TIP3   OH225646   4.528   5.518   4.240
 8561TIP3    H125647   4.521   5.425   4.223
 8561TIP3    H225648   4.459   5.558   4.186
 8562TIP3   OH225649   5.491   4.364   2.715
 8562TIP3    H125650   5.537   4.396   2.637
 8562TIP3    H225651   5.553   4.304   2.756
 8563TIP3   OH225652   2.082   1.999   5.475
 8563TIP3    H125653   2.047   2.059   5.541
 8563TIP3    H225654   2.129   2.056   5.414
 8564TIP3   OH225655   4.111   3.888   1.292
 8564TIP3    H125656   4.072   3.961   1.243
 8564TIP3    H225657   4.155   3.930   1.366
 8565TIP3   OH225658   3.527   4.171   3.284
 8565TIP3    H125659   3.601   4.220   3.250
 8565TIP3    H225660   3.517   4.201   3.374
 8566TIP3   OH225661   1.612   5.046   0.173
 8566TIP3    H125662   1.623   4.958   0.137
 8566TIP3    H225663   1.690   5.061   0.227
 8567TIP3   OH225664   6.903   2.789   4.581
 8567TIP3    H125665   6.818   2.799   4.624
 8567TIP3    H225666   6.882   2.773   4.489
 8568TIP3   OH225667   5.692   6.711   3.707
 8568TIP3    H125668   5.639   6.726   3.785
 8568TIP3    H225669   5.628   6.690   3.639
 8569TIP3   OH225670   6.272   5.408   0.102
 8569TIP3    H125671   6.285   5.328   0.152
 8569TIP3    H225672   6.325   5.396   0.023
 8570TIP3   OH225673   7.025   5.903   2.651
 8570TIP3    H125674   7.048   5.824   2.602
 8570TIP3    H225675   7.108   5.951   2.660
 8571TIP3   OH225676   3.811   1.673   5.824
 8571TIP3    H125677   3.831   1.670   5.918
 8571TIP3    H225678   3.747   1.602   5.811
 8572TIP3   OH225679   5.658   1.463   4.609
 8572TIP3    H125680   5.696   1.528   4.549
 8572TIP3    H225681   5.733   1.412   4.639
 8573TIP3   OH225682   4.278   4.917   4.340
 8573TIP3    H125683   4.363   4.873   4.334
 8573TIP3    H225684   4.275   4.949   4.431
 8574TIP3   OH225685   4.875   3.382   3.036
 8574TIP3    H125686   4.822   3.335   3.101
 8574TIP3    H225687   4.871   3.328   2.957
 8575TIP3   OH225688   3.386   0.204   2.653
 8575TIP3    H125689   3.335   0.210   2.734
 8575TIP3    H225690   3.421   0.292   2.641
 8576TIP3   OH225691   1.048   2.333   3.665
 8576TIP3    H125692   1.143   2.332   3.679
 8576TIP3    H225693   1.019   2.245   3.693
 8577TIP3   OH225694   2.861   6.748   2.427
 8577TIP3    H125695   2.778   6.740   2.379
 8577TIP3    H225696   2.928   6.756   2.359
 8578TIP3   OH225697   3.797   6.721   0.510
 8578TIP3    H125698   3.776   6.631   0.533
 8578TIP3    H225699   3.886   6.734   0.541
 8579TIP3   OH225700   6.104   1.731   5.197
 8579TIP3    H125701   6.036   1.724   5.131
 8579TIP3    H225702   6.074   1.801   5.255
 8580TIP3   OH225703   4.690   0.235   0.321
 8580TIP3    H125704   4.780   0.205   0.311
 8580TIP3    H225705   4.697   0.323   0.358
 8581TIP3   OH225706   4.373   0.046   3.062
 8581TIP3    H125707   4.392   0.078   2.974
 8581TIP3    H225708   4.443  -0.016   3.081
 8582TIP3   OH225709   3.071   4.238   4.000
 8582TIP3    H125710   3.097   4.328   3.985
 8582TIP3    H225711   3.065   4.199   3.913
 8583TIP3   OH225712   2.922   4.448   0.026
 8583TIP3    H125713   2.963   4.371  -0.013
 8583TIP3    H225714   2.953   4.522  -0.027
 8584TIP3   OH225715   1.481   5.893   3.103
 8584TIP3    H125716   1.513   5.817   3.055
 8584TIP3    H225717   1.525   5.968   3.062
 8585TIP3   OH225718   5.419   5.846   2.902
 8585TIP3    H125719   5.431   5.933   2.941
 8585TIP3    H225720   5.447   5.857   2.812
 8586TIP3   OH225721   4.633   2.190   2.209
 8586TIP3    H125722   4.697   2.260   2.204
 8586TIP3    H225723   4.552   2.228   2.173
 8587TIP3   OH225724   3.297   1.090   2.056
 8587TIP3    H125725   3.243   1.016   2.030
 8587TIP3    H225726   3.242   1.139   2.118
 8588TIP3   OH225727   2.222   5.068   1.686
 8588TIP3    H125728   2.145   5.121   1.709
 8588TIP3    H225729   2.268   5.119   1.620
 8589TIP3   OH225730   0.128   6.641   5.144
 8589TIP3    H125731   0.158   6.723   5.182
 8589TIP3    H225732   0.105   6.587   5.220
 8590TIP3   OH225733   0.454   6.437   5.139
 8590TIP3    H125734   0.463   6.407   5.049
 8590TIP3    H225735   0.467   6.358   5.192
 8591TIP3   OH225736   4.420   6.760   5.114
 8591TIP3    H125737   4.459   6.699   5.051
 8591TIP3    H225738   4.419   6.844   5.069
 8592TIP3   OH225739   5.611   3.384   1.622
 8592TIP3    H125740   5.568   3.311   1.666
 8592TIP3    H225741   5.565   3.393   1.539
 8593TIP3   OH225742   0.685   6.209   3.559
 8593TIP3    H125743   0.685   6.146   3.487
 8593TIP3    H225744   0.740   6.281   3.528
 8594TIP3   OH225745   1.863   3.388   1.076
 8594TIP3    H125746   1.933   3.424   1.022
 8594TIP3    H225747   1.814   3.330   1.017
 8595TIP3   OH225748   4.472   4.864   2.988
 8595TIP3    H125749   4.385   4.826   2.999
 8595TIP3    H225750   4.522   4.795   2.943
 8596TIP3   OH225751   6.151   6.698   5.635
 8596TIP3    H125752   6.238   6.740   5.637
 8596TIP3    H225753   6.122   6.702   5.726
 8597TIP3   OH225754   2.051   5.402   0.880
 8597TIP3    H125755   2.023   5.328   0.827
 8597TIP3    H225756   1.969   5.446   0.905
 8598TIP3   OH225757   6.825   5.532   3.005
 8598TIP3    H125758   6.876   5.558   2.928
 8598TIP3    H225759   6.799   5.615   3.045
 8599TIP3   OH225760   4.077   5.455   2.099
 8599TIP3    H125761   3.984   5.456   2.125
 8599TIP3    H225762   4.108   5.370   2.128
 8600TIP3   OH225763   4.398   5.151   0.961
 8600TIP3    H125764   4.440   5.086   1.018
 8600TIP3    H225765   4.305   5.142   0.980
 8601TIP3   OH225766   1.353   0.543   1.828
 8601TIP3    H125767   1.279   0.601   1.843
 8601TIP3    H225768   1.321   0.479   1.765
 8602TIP3   OH225769   4.485   3.048   5.082
 8602TIP3    H125770   4.405   3.101   5.082
 8602TIP3    H225771   4.507   3.037   5.174
 8603TIP3   OH225772   2.231   4.647   2.829
 8603TIP3    H125773   2.138   4.668   2.826
 8603TIP3    H225774   2.235   4.558   2.865
 8604TIP3   OH225775   2.671   1.053   2.909
 8604TIP3    H125776   2.644   1.094   2.991
 8604TIP3    H225777   2.763   1.032   2.922
 8605TIP3   OH225778   4.124   5.415   0.501
 8605TIP3    H125779   4.077   5.350   0.448
 8605TIP3    H225780   4.217   5.396   0.486
 8606TIP3   OH225781   1.332   5.894   5.405
 8606TIP3    H125782   1.268   5.955   5.440
 8606TIP3    H225783   1.368   5.939   5.328
 8607TIP3   OH225784   2.648   6.443   5.474
 8607TIP3    H125785   2.645   6.504   5.548
 8607TIP3    H225786   2.560   6.405   5.470
 8608TIP3   OH225787   3.637   4.163   0.068
 8608TIP3    H125788   3.580   4.089   0.091
 8608TIP3    H225789   3.624   4.226   0.139
 8609TIP3   OH225790   1.297   0.663   3.629
 8609TIP3    H125791   1.205   0.653   3.650
 8609TIP3    H225792   1.339   0.584   3.663
 8610TIP3   OH225793   1.047   1.117   3.225
 8610TIP3    H125794   0.983   1.065   3.178
 8610TIP3    H225795   1.091   1.169   3.158
 8611TIP3   OH225796   4.262   6.829   3.337
 8611TIP3    H125797   4.306   6.883   3.272
 8611TIP3    H225798   4.328   6.765   3.364
 8612TIP3   OH225799   5.233   1.471   1.172
 8612TIP3    H125800   5.224   1.505   1.083
 8612TIP3    H225801   5.324   1.489   1.196
 8613TIP3   OH225802   2.361   5.968   1.475
 8613TIP3    H125803   2.319   5.974   1.389
 8613TIP3    H225804   2.351   5.876   1.500
 8614TIP3   OH225805   4.209   1.786   4.906
 8614TIP3    H125806   4.135   1.809   4.851
 8614TIP3    H225807   4.258   1.868   4.917
 8615TIP3   OH225808   3.837   0.208   0.371
 8615TIP3    H125809   3.853   0.290   0.324
 8615TIP3    H225810   3.898   0.145   0.332
 8616TIP3   OH225811   1.240   0.981   0.031
 8616TIP3    H125812   1.264   1.004  -0.059
 8616TIP3    H225813   1.207   1.063   0.068
 8617TIP3   OH225814   5.512   1.330   5.625
 8617TIP3    H125815   5.528   1.270   5.697
 8617TIP3    H225816   5.469   1.405   5.665
 8618TIP3   OH225817   1.987   3.811   2.602
 8618TIP3    H125818   1.978   3.893   2.553
 8618TIP3    H225819   2.057   3.764   2.556
 8619TIP3   OH225820   4.884   0.048   1.277
 8619TIP3    H125821   4.821   0.099   1.226
 8619TIP3    H225822   4.948   0.113   1.308
 8620TIP3   OH225823   2.968   2.024   5.351
 8620TIP3    H125824   3.039   1.964   5.375
 8620TIP3    H225825   2.915   1.975   5.289
 8621TIP3   OH225826   3.192   3.941   1.813
 8621TIP3    H125827   3.222   3.859   1.852
 8621TIP3    H225828   3.118   3.917   1.758
 8622TIP3   OH225829   5.927   3.949   4.698
 8622TIP3    H125830   5.944   3.863   4.660
 8622TIP3    H225831   6.014   3.984   4.717
 8623TIP3   OH225832   3.346   5.757   2.773
 8623TIP3    H125833   3.411   5.820   2.743
 8623TIP3    H225834   3.280   5.756   2.704
 8624TIP3   OH225835   6.422   6.146   2.880
 8624TIP3    H125836   6.378   6.071   2.919
 8624TIP3    H225837   6.468   6.188   2.953
 8625TIP3   OH225838   1.918   2.688   4.956
 8625TIP3    H125839   1.990   2.666   4.897
 8625TIP3    H225840   1.869   2.606   4.965
 8626TIP3   OH225841   7.208   1.804   5.733
 8626TIP3    H125842   7.229   1.859   5.657
 8626TIP3    H225843   7.171   1.724   5.695
 8627TIP3   OH225844   1.960   0.768   2.891
 8627TIP3    H125845   1.893   0.707   2.861
 8627TIP3    H225846   1.947   0.773   2.986
 8628TIP3   OH225847   1.296   2.428   5.412
 8628TIP3    H125848   1.279   2.392   5.325
 8628TIP3    H225849   1.209   2.433   5.453
 8629TIP3   OH225850   2.800   4.481   2.159
 8629TIP3    H125851   2.793   4.463   2.253
 8629TIP3    H225852   2.801   4.395   2.118
 8630TIP3   OH225853   7.108   3.248   5.332
 8630TIP3    H125854   7.069   3.328   5.296
 8630TIP3    H225855   7.090   3.182   5.265
 8631TIP3   OH225856   2.330   1.943   4.192
 8631TIP3    H125857   2.315   1.902   4.277
 8631TIP3    H225858   2.397   1.889   4.150
 8632TIP3   OH225859   3.704   6.267   4.894
 8632TIP3    H125860   3.782   6.299   4.940
 8632TIP3    H225861   3.654   6.346   4.874
 8633TIP3   OH225862   2.206   3.757   4.516
 8633TIP3    H125863   2.218   3.747   4.611
 8633TIP3    H225864   2.280   3.710   4.478
 8634TIP3   OH225865   2.808   4.414   5.215
 8634TIP3    H125866   2.826   4.390   5.306
 8634TIP3    H225867   2.713   4.406   5.206
 8635TIP3   OH225868   7.091   6.282   1.151
 8635TIP3    H125869   7.146   6.328   1.088
 8635TIP3    H225870   7.147   6.273   1.229
 8636TIP3   OH225871   0.273   2.484   3.738
 8636TIP3    H125872   0.294   2.439   3.656
 8636TIP3    H225873   0.318   2.568   3.732
 8637TIP3   OH225874   5.401   5.938   5.580
 8637TIP3    H125875   5.367   5.999   5.646
 8637TIP3    H225876   5.323   5.896   5.544
 8638TIP3   OH225877   0.286   1.936   3.849
 8638TIP3    H125878   0.244   1.889   3.920
 8638TIP3    H225879   0.214   1.975   3.799
 8639TIP3   OH225880   7.164   5.162   1.894
 8639TIP3    H125881   7.135   5.131   1.808
 8639TIP3    H225882   7.097   5.132   1.955
 8640TIP3   OH225883   6.951   3.050   4.675
 8640TIP3    H125884   6.899   2.972   4.658
 8640TIP3    H225885   7.035   3.017   4.707
 8641TIP3   OH225886   2.040   4.278   0.772
 8641TIP3    H125887   2.126   4.320   0.764
 8641TIP3    H225888   1.992   4.306   0.694
 8642TIP3   OH225889   6.207   6.627   1.210
 8642TIP3    H125890   6.208   6.580   1.293
 8642TIP3    H225891   6.229   6.717   1.233
 8643TIP3   OH225892   3.345   1.591   4.298
 8643TIP3    H125893   3.344   1.640   4.216
 8643TIP3    H225894   3.295   1.645   4.359
 8644TIP3   OH225895   2.479   3.953   3.484
 8644TIP3    H125896   2.487   3.900   3.564
 8644TIP3    H225897   2.487   3.889   3.413
 8645TIP3   OH225898   5.667   0.259   3.103
 8645TIP3    H125899   5.600   0.309   3.056
 8645TIP3    H225900   5.646   0.270   3.195
 8646TIP3   OH225901   0.393   4.719   1.113
 8646TIP3    H125902   0.368   4.689   1.026
 8646TIP3    H225903   0.401   4.639   1.165
 8647TIP3   OH225904   4.296   4.381   0.553
 8647TIP3    H125905   4.300   4.456   0.612
 8647TIP3    H225906   4.219   4.397   0.498
 8648TIP3   OH225907   3.787   6.701   0.833
 8648TIP3    H125908   3.875   6.700   0.871
 8648TIP3    H225909   3.789   6.633   0.767
 8649TIP3   OH225910   1.969   3.707   0.424
 8649TIP3    H125911   2.035   3.665   0.480
 8649TIP3    H225912   2.019   3.744   0.351
 8650TIP3   OH225913   3.079   6.391   0.942
 8650TIP3    H125914   3.116   6.306   0.967
 8650TIP3    H225915   3.010   6.370   0.879
 8651TIP3   OH225916   0.269   2.595   0.838
 8651TIP3    H125917   0.177   2.600   0.815
 8651TIP3    H225918   0.292   2.503   0.825
 8652TIP3   OH225919   6.570   3.927   3.566
 8652TIP3    H125920   6.546   3.889   3.650
 8652TIP3    H225921   6.513   3.884   3.502
 8653TIP3   OH225922   4.834   5.810   5.416
 8653TIP3    H125923   4.860   5.898   5.388
 8653TIP3    H225924   4.866   5.753   5.346
 8654TIP3   OH225925   6.542   0.950   4.895
 8654TIP3    H125926   6.601   1.023   4.880
 8654TIP3    H225927   6.461   0.990   4.927
 8655TIP3   OH225928   1.619   2.999   4.689
 8655TIP3    H125929   1.695   3.053   4.666
 8655TIP3    H225930   1.637   2.970   4.779
 8656TIP3   OH225931   0.073   3.031   5.499
 8656TIP3    H125932   0.051   3.038   5.592
 8656TIP3    H225933   0.056   3.118   5.464
 8657TIP3   OH225934   6.461   5.925   4.469
 8657TIP3    H125935   6.544   5.878   4.476
 8657TIP3    H225936   6.477   5.994   4.405
 8658TIP3   OH225937   3.161   1.415   0.388
 8658TIP3    H125938   3.144   1.382   0.301
 8658TIP3    H225939   3.075   1.439   0.423
 8659TIP3   OH225940   2.879   4.801   2.922
 8659TIP3    H125941   2.926   4.749   2.987
 8659TIP3    H225942   2.926   4.783   2.840
 8660TIP3   OH225943   1.693   3.003   3.145
 8660TIP3    H125944   1.712   2.912   3.165
 8660TIP3    H225945   1.744   3.022   3.066
 8661TIP3   OH225946   6.896   1.372   2.946
 8661TIP3    H125947   6.817   1.427   2.940
 8661TIP3    H225948   6.917   1.372   3.040
 8662TIP3   OH225949   1.192   6.457   3.832
 8662TIP3    H125950   1.155   6.543   3.815
 8662TIP3    H225951   1.137   6.396   3.782
 8663TIP3   OH225952   4.361   2.019   2.954
 8663TIP3    H125953   4.360   1.977   3.040
 8663TIP3    H225954   4.435   2.079   2.957
 8664TIP3   OH225955   1.287   5.630   5.330
 8664TIP3    H125956   1.305   5.712   5.376
 8664TIP3    H225957   1.192   5.629   5.318
 8665TIP3   OH225958   4.223   1.668   0.692
 8665TIP3    H125959   4.137   1.689   0.729
 8665TIP3    H225960   4.207   1.659   0.598
 8666TIP3   OH225961   6.138   6.527   5.233
 8666TIP3    H125962   6.168   6.617   5.245
 8666TIP3    H225963   6.211   6.473   5.263
 8667TIP3   OH225964   2.844   1.601   3.209
 8667TIP3    H125965   2.827   1.681   3.259
 8667TIP3    H225966   2.919   1.622   3.154
 8668TIP3   OH225967   5.462   3.047   1.077
 8668TIP3    H125968   5.505   2.965   1.098
 8668TIP3    H225969   5.374   3.022   1.049
 8669TIP3   OH225970   6.965   5.325   3.227
 8669TIP3    H125971   7.045   5.378   3.232
 8669TIP3    H225972   6.981   5.266   3.153
 8670TIP3   OH225973   0.686   5.951   4.674
 8670TIP3    H125974   0.680   5.939   4.769
 8670TIP3    H225975   0.779   5.937   4.654
 8671TIP3   OH225976   6.289   1.683   3.935
 8671TIP3    H125977   6.253   1.620   3.871
 8671TIP3    H225978   6.248   1.658   4.018
 8672TIP3   OH225979   4.327   4.684   1.219
 8672TIP3    H125980   4.353   4.684   1.126
 8672TIP3    H225981   4.338   4.775   1.247
 8673TIP3   OH225982   6.510   5.459   3.257
 8673TIP3    H125983   6.527   5.365   3.261
 8673TIP3    H225984   6.581   5.498   3.309
 8674TIP3   OH225985   5.048   3.424   0.614
 8674TIP3    H125986   5.095   3.456   0.537
 8674TIP3    H225987   5.116   3.400   0.676
 8675TIP3   OH225988   7.193   1.051   3.347
 8675TIP3    H125989   7.175   1.040   3.253
 8675TIP3    H225990   7.106   1.054   3.387
 8676TIP3   OH225991   5.662   0.620   1.667
 8676TIP3    H125992   5.705   0.666   1.594
 8676TIP3    H225993   5.726   0.625   1.738
 8677TIP3   OH225994   3.513   5.375   0.917
 8677TIP3    H125995   3.536   5.410   1.003
 8677TIP3    H225996   3.424   5.405   0.902
 8678TIP3   OH225997   1.997   6.736   2.554
 8678TIP3    H125998   1.999   6.659   2.611
 8678TIP3    H225999   2.080   6.732   2.507
 8679TIP3   OH226000   7.194   5.415  -0.028
 8679TIP3    H126001   7.111   5.435   0.015
 8679TIP3    H226002   7.233   5.346   0.025
 8680TIP3   OH226003   3.977   2.488   2.327
 8680TIP3    H126004   4.007   2.562   2.274
 8680TIP3    H226005   4.053   2.464   2.379
 8681TIP3   OH226006   6.116   5.170   0.900
 8681TIP3    H126007   6.188   5.228   0.876
 8681TIP3    H226008   6.039   5.208   0.858
 8682TIP3   OH226009   0.956   3.853   2.631
 8682TIP3    H126010   0.878   3.812   2.668
 8682TIP3    H226011   1.026   3.790   2.647
 8683TIP3   OH226012   1.057   3.327   4.900
 8683TIP3    H126013   1.065   3.340   4.805
 8683TIP3    H226014   1.130   3.268   4.922
 8684TIP3   OH226015   3.284   3.971   0.781
 8684TIP3    H126016   3.244   4.027   0.847
 8684TIP3    H226017   3.232   3.891   0.782
 8685TIP3   OH226018   0.607   4.215   0.790
 8685TIP3    H126019   0.624   4.281   0.857
 8685TIP3    H226020   0.600   4.133   0.838
 8686TIP3   OH226021   1.080   6.525   4.297
 8686TIP3    H126022   1.080   6.561   4.208
 8686TIP3    H226023   1.129   6.589   4.349
 8687TIP3   OH226024   1.307   3.499   1.976
 8687TIP3    H126025   1.393   3.460   1.991
 8687TIP3    H226026   1.288   3.482   1.884
 8688TIP3   OH226027   2.796   0.479   5.212
 8688TIP3    H126028   2.813   0.385   5.204
 8688TIP3    H226029   2.703   0.484   5.234
 8689TIP3   OH226030   4.819   3.970   4.772
 8689TIP3    H126031   4.874   4.045   4.750
 8689TIP3    H226032   4.863   3.895   4.732
 8690TIP3   OH226033   2.465   0.076   4.750
 8690TIP3    H126034   2.550   0.109   4.779
 8690TIP3    H226035   2.476  -0.019   4.743
 8691TIP3   OH226036   1.595   2.116   2.653
 8691TIP3    H126037   1.540   2.039   2.670
 8691TIP3    H226038   1.679   2.093   2.691
 8692TIP3   OH226039   1.928   6.443   4.671
 8692TIP3    H126040   1.902   6.380   4.603
 8692TIP3    H226041   1.901   6.528   4.637
 8693TIP3   OH226042   3.737  -0.020   1.971
 8693TIP3    H126043   3.704  -0.042   2.058
 8693TIP3    H226044   3.662   0.021   1.927
 8694TIP3   OH226045   2.343   0.454   1.077
 8694TIP3    H126046   2.376   0.393   1.011
 8694TIP3    H226047   2.406   0.449   1.149
 8695TIP3   OH226048   7.036   1.832   4.229
 8695TIP3    H126049   6.943   1.827   4.207
 8695TIP3    H226050   7.049   1.922   4.258
 8696TIP3   OH226051   1.599   2.752   4.967
 8696TIP3    H126052   1.513   2.710   4.959
 8696TIP3    H226053   1.659   2.691   4.924
 8697TIP3   OH226054   6.767   5.056   4.143
 8697TIP3    H126055   6.675   5.069   4.168
 8697TIP3    H226056   6.770   4.965   4.113
 8698TIP3   OH226057   1.561   3.439   2.014
 8698TIP3    H126058   1.561   3.354   1.969
 8698TIP3    H226059   1.652   3.468   2.008
 8699TIP3   OH226060   6.493   4.357   2.839
 8699TIP3    H126061   6.442   4.315   2.908
 8699TIP3    H226062   6.514   4.444   2.874
 8700TIP3   OH226063   4.809   6.277   2.028
 8700TIP3    H126064   4.742   6.302   1.964
 8700TIP3    H226065   4.831   6.187   2.005
 8701TIP3   OH226066   6.916   3.635   0.267
 8701TIP3    H126067   6.956   3.663   0.349
 8701TIP3    H226068   6.828   3.606   0.292
 8702TIP3   OH226069   2.346   3.332   2.956
 8702TIP3    H126070   2.319   3.347   3.046
 8702TIP3    H226071   2.387   3.245   2.957
 8703TIP3   OH226072   0.879   2.380   5.890
 8703TIP3    H126073   0.942   2.434   5.940
 8703TIP3    H226074   0.803   2.373   5.948
 8704TIP3   OH226075   4.187   4.597   2.106
 8704TIP3    H126076   4.228   4.603   2.192
 8704TIP3    H226077   4.161   4.505   2.099
 8705TIP3   OH226078   6.970   2.530   0.511
 8705TIP3    H126079   7.017   2.610   0.532
 8705TIP3    H226080   6.886   2.539   0.556
 8706TIP3   OH226081   5.259   0.456   4.202
 8706TIP3    H126082   5.343   0.489   4.235
 8706TIP3    H226083   5.280   0.423   4.114
 8707TIP3   OH226084   0.149   1.255   1.810
 8707TIP3    H126085   0.071   1.222   1.855
 8707TIP3    H226086   0.177   1.330   1.862
 8708TIP3   OH226087   6.707   4.220   0.150
 8708TIP3    H126088   6.765   4.149   0.176
 8708TIP3    H226089   6.714   4.285   0.221
 8709TIP3   OH226090   2.657   5.075   0.664
 8709TIP3    H126091   2.747   5.104   0.679
 8709TIP3    H226092   2.663   5.018   0.588
 8710TIP3   OH226093   0.530   1.544   1.139
 8710TIP3    H126094   0.442   1.508   1.142
 8710TIP3    H226095   0.576   1.501   1.212
 8711TIP3   OH226096   6.339   5.554   5.500
 8711TIP3    H126097   6.271   5.494   5.532
 8711TIP3    H226098   6.393   5.499   5.442
 8712TIP3   OH226099   2.923   2.803   0.728
 8712TIP3    H126100   2.859   2.857   0.774
 8712TIP3    H226101   2.929   2.722   0.780
 8713TIP3   OH226102   6.460   5.053   5.162
 8713TIP3    H126103   6.496   4.991   5.099
 8713TIP3    H226104   6.366   5.055   5.144
 8714TIP3   OH226105   0.161   3.358   0.907
 8714TIP3    H126106   0.071   3.382   0.886
 8714TIP3    H226107   0.167   3.366   1.002
 8715TIP3   OH226108   3.709   1.091   0.269
 8715TIP3    H126109   3.803   1.094   0.284
 8715TIP3    H226110   3.677   1.176   0.301
 8716TIP3   OH226111   3.964   3.982   5.359
 8716TIP3    H126112   4.006   4.060   5.324
 8716TIP3    H226113   4.014   3.960   5.438
 8717TIP3   OH226114   3.469   1.948   3.243
 8717TIP3    H126115   3.557   1.979   3.267
 8717TIP3    H226116   3.413   1.978   3.314
 8718TIP3   OH226117   1.832   5.942   1.169
 8718TIP3    H126118   1.892   6.016   1.167
 8718TIP3    H226119   1.888   5.866   1.179
 8719TIP3   OH226120   4.552   2.445   2.146
 8719TIP3    H126121   4.477   2.428   2.202
 8719TIP3    H226122   4.560   2.541   2.143
 8720TIP3   OH226123   4.957   1.608   2.856
 8720TIP3    H126124   4.877   1.583   2.902
 8720TIP3    H226125   5.028   1.586   2.916
 8721TIP3   OH226126   4.349   2.819   5.026
 8721TIP3    H126127   4.260   2.823   4.991
 8721TIP3    H226128   4.357   2.899   5.079
 8722TIP3   OH226129   4.577   0.678   3.689
 8722TIP3    H126130   4.547   0.621   3.760
 8722TIP3    H226131   4.547   0.634   3.609
 8723TIP3   OH226132   5.172   5.510   1.680
 8723TIP3    H126133   5.219   5.534   1.600
 8723TIP3    H226134   5.113   5.440   1.653
 8724TIP3   OH226135   2.146   2.032   3.273
 8724TIP3    H126136   2.221   2.067   3.225
 8724TIP3    H226137   2.132   2.094   3.345
 8725TIP3   OH226138   0.164   0.863   4.770
 8725TIP3    H126139   0.096   0.800   4.744
 8725TIP3    H226140   0.226   0.812   4.821
 8726TIP3   OH226141   4.523   3.335   0.286
 8726TIP3    H126142   4.570   3.416   0.263
 8726TIP3    H226143   4.558   3.269   0.227
 8727TIP3   OH226144   2.556   1.453   1.363
 8727TIP3    H126145   2.506   1.438   1.444
 8727TIP3    H226146   2.647   1.439   1.388
 8728TIP3   OH226147   1.458   0.889   4.090
 8728TIP3    H126148   1.423   0.844   4.167
 8728TIP3    H226149   1.542   0.924   4.118
 8729TIP3   OH226150   6.632   4.200   5.096
 8729TIP3    H126151   6.681   4.173   5.174
 8729TIP3    H226152   6.540   4.199   5.124
 8730TIP3   OH226153   5.720   2.025   5.346
 8730TIP3    H126154   5.708   1.939   5.305
 8730TIP3    H226155   5.638   2.040   5.393
 8731TIP3   OH226156   0.481   2.137   2.502
 8731TIP3    H126157   0.420   2.114   2.432
 8731TIP3    H226158   0.522   2.054   2.527
 8732TIP3   OH226159   4.176   4.741   3.676
 8732TIP3    H126160   4.256   4.691   3.692
 8732TIP3    H226161   4.136   4.698   3.600
 8733TIP3   OH226162   0.815   0.408   5.112
 8733TIP3    H126163   0.798   0.457   5.192
 8733TIP3    H226164   0.903   0.372   5.123
 8734TIP3   OH226165   4.515   6.386   2.152
 8734TIP3    H126166   4.582   6.355   2.213
 8734TIP3    H226167   4.516   6.481   2.163
 8735TIP3   OH226168   7.213   2.963   4.793
 8735TIP3    H126169   7.188   2.937   4.882
 8735TIP3    H226170   7.262   2.888   4.759
 8736TIP3   OH226171   3.994   2.904   5.659
 8736TIP3    H126172   3.915   2.905   5.713
 8736TIP3    H226173   3.962   2.885   5.570
 8737TIP3   OH226174   0.714   2.090   2.087
 8737TIP3    H126175   0.761   2.029   2.144
 8737TIP3    H226176   0.686   2.161   2.145
 8738TIP3   OH226177   5.053   4.531   4.254
 8738TIP3    H126178   5.009   4.613   4.276
 8738TIP3    H226179   5.075   4.492   4.339
 8739TIP3   OH226180   1.911   4.339   3.877
 8739TIP3    H126181   1.881   4.262   3.829
 8739TIP3    H226182   1.913   4.312   3.968
 8740TIP3   OH226183   1.371   4.233   5.831
 8740TIP3    H126184   1.291   4.207   5.787
 8740TIP3    H226185   1.369   4.329   5.831
 8741TIP3   OH226186   2.709   4.665   0.292
 8741TIP3    H126187   2.617   4.655   0.317
 8741TIP3    H226188   2.751   4.700   0.371
 8742TIP3   OH226189   0.064   4.038   1.873
 8742TIP3    H126190   0.057   4.083   1.957
 8742TIP3    H226191   0.128   4.089   1.823
 8743TIP3   OH226192   4.571   3.020   3.372
 8743TIP3    H126193   4.587   2.934   3.409
 8743TIP3    H226194   4.573   3.080   3.447
 8744TIP3   OH226195   2.266   3.172   4.987
 8744TIP3    H126196   2.344   3.157   5.041
 8744TIP3    H226197   2.193   3.163   5.048
 8745TIP3   OH226198   4.558   4.837   2.360
 8745TIP3    H126199   4.506   4.759   2.340
 8745TIP3    H226200   4.547   4.850   2.454
 8746TIP3   OH226201   1.541   3.109   1.156
 8746TIP3    H126202   1.584   3.024   1.165
 8746TIP3    H226203   1.591   3.167   1.214
 8747TIP3   OH226204   1.465   6.733   4.021
 8747TIP3    H126205   1.421   6.760   3.940
 8747TIP3    H226206   1.546   6.690   3.991
 8748TIP3   OH226207   3.332   3.448   5.672
 8748TIP3    H126208   3.364   3.363   5.704
 8748TIP3    H226209   3.295   3.490   5.750
 8749TIP3   OH226210   6.895   1.566   3.560
 8749TIP3    H126211   6.871   1.616   3.638
 8749TIP3    H226212   6.936   1.629   3.502
 8750TIP3   OH226213   3.861   2.015   2.027
 8750TIP3    H126214   3.891   2.069   2.100
 8750TIP3    H226215   3.843   2.078   1.957
 8751TIP3   OH226216   0.932   1.254   0.118
 8751TIP3    H126217   1.023   1.271   0.142
 8751TIP3    H226218   0.929   1.160   0.099
 8752TIP3   OH226219   2.357   4.128   0.913
 8752TIP3    H126220   2.273   4.084   0.921
 8752TIP3    H226221   2.416   4.078   0.969
 8753TIP3   OH226222   0.808   6.254   1.447
 8753TIP3    H126223   0.895   6.294   1.445
 8753TIP3    H226224   0.755   6.306   1.387
 8754TIP3   OH226225   2.784   2.759   5.251
 8754TIP3    H126226   2.786   2.851   5.277
 8754TIP3    H226227   2.690   2.737   5.249
 8755TIP3   OH226228   5.580   1.005   0.880
 8755TIP3    H126229   5.496   0.980   0.840
 8755TIP3    H226230   5.623   0.922   0.898
 8756TIP3   OH226231   2.425   1.945   2.116
 8756TIP3    H126232   2.473   1.988   2.187
 8756TIP3    H226233   2.344   1.995   2.107
 8757TIP3   OH226234   5.395   6.690   1.655
 8757TIP3    H126235   5.449   6.640   1.594
 8757TIP3    H226236   5.330   6.628   1.687
 8758TIP3   OH226237   4.427   4.666   3.253
 8758TIP3    H126238   4.420   4.761   3.254
 8758TIP3    H226239   4.384   4.639   3.171
 8759TIP3   OH226240   3.952   1.203   1.577
 8759TIP3    H126241   3.865   1.205   1.536
 8759TIP3    H226242   3.945   1.136   1.644
 8760TIP3   OH226243   6.198   1.676   4.495
 8760TIP3    H126244   6.159   1.665   4.582
 8760TIP3    H226245   6.206   1.771   4.485
 8761TIP3   OH226246   1.964   4.330   4.414
 8761TIP3    H126247   2.019   4.261   4.451
 8761TIP3    H226248   2.024   4.404   4.402
 8762TIP3   OH226249   5.992   1.831   2.385
 8762TIP3    H126250   5.922   1.896   2.386
 8762TIP3    H226251   6.011   1.814   2.477
 8763TIP3   OH226252   2.064   0.857   4.561
 8763TIP3    H126253   2.041   0.858   4.654
 8763TIP3    H226254   1.986   0.890   4.517
 8764TIP3   OH226255   0.850   3.674   4.090
 8764TIP3    H126256   0.814   3.640   4.172
 8764TIP3    H226257   0.821   3.611   4.023
 8765TIP3   OH226258   2.262   5.888  -0.026
 8765TIP3    H126259   2.349   5.893   0.013
 8765TIP3    H226260   2.204   5.926   0.040
 8766TIP3   OH226261   6.076   5.379   0.555
 8766TIP3    H126262   6.049   5.409   0.641
 8766TIP3    H226263   6.158   5.426   0.537
 8767TIP3   OH226264   1.931   5.984   3.292
 8767TIP3    H126265   1.893   6.070   3.308
 8767TIP3    H226266   1.885   5.926   3.353
 8768TIP3   OH226267   0.995   3.747   2.183
 8768TIP3    H126268   0.934   3.732   2.256
 8768TIP3    H226269   0.943   3.793   2.118
 8769TIP3   OH226270   1.185   0.654   0.471
 8769TIP3    H126271   1.129   0.637   0.547
 8769TIP3    H226272   1.189   0.750   0.465
 8770TIP3   OH226273   7.187   1.412   3.983
 8770TIP3    H126274   7.138   1.334   4.009
 8770TIP3    H226275   7.131   1.486   4.009
 8771TIP3   OH226276   1.923   0.747   0.140
 8771TIP3    H126277   1.957   0.825   0.183
 8771TIP3    H226278   1.883   0.695   0.210
 8772TIP3   OH226279   0.580   5.831   1.067
 8772TIP3    H126280   0.555   5.895   1.001
 8772TIP3    H226281   0.666   5.799   1.038
 8773TIP3   OH226282   4.082   2.001   0.744
 8773TIP3    H126283   4.079   2.094   0.719
 8773TIP3    H226284   4.154   1.996   0.807
 8774TIP3   OH226285   3.217   4.423   3.132
 8774TIP3    H126286   3.283   4.489   3.113
 8774TIP3    H226287   3.231   4.354   3.067
 8775TIP3   OH226288   6.814   3.186   0.152
 8775TIP3    H126289   6.880   3.254   0.157
 8775TIP3    H226290   6.730   3.233   0.150
 8776TIP3   OH226291   4.528   3.262   1.476
 8776TIP3    H126292   4.608   3.277   1.425
 8776TIP3    H226293   4.523   3.338   1.534
 8777TIP3   OH226294   1.365   3.064   1.423
 8777TIP3    H126295   1.336   2.976   1.398
 8777TIP3    H226296   1.432   3.049   1.489
 8778TIP3   OH226297   1.387   3.555   3.933
 8778TIP3    H126298   1.405   3.479   3.878
 8778TIP3    H226299   1.346   3.518   4.012
 8779TIP3   OH226300   6.459   3.100   4.889
 8779TIP3    H126301   6.436   3.026   4.832
 8779TIP3    H226302   6.441   3.178   4.836
 8780TIP3   OH226303   1.545   5.817   4.481
 8780TIP3    H126304   1.493   5.783   4.554
 8780TIP3    H226305   1.543   5.912   4.493
 8781TIP3   OH226306   2.517   4.702   2.503
 8781TIP3    H126307   2.502   4.754   2.583
 8781TIP3    H226308   2.606   4.724   2.476
 8782TIP3   OH226309   6.175   0.110   3.298
 8782TIP3    H126310   6.184   0.065   3.214
 8782TIP3    H226311   6.082   0.103   3.319
 8783TIP3   OH226312   2.261   0.129   2.630
 8783TIP3    H126313   2.318   0.064   2.589
 8783TIP3    H226314   2.242   0.092   2.716
 8784TIP3   OH226315   2.211   6.457   0.949
 8784TIP3    H126316   2.276   6.416   0.891
 8784TIP3    H226317   2.131   6.407   0.933
 8785TIP3   OH226318   1.432   5.339   3.298
 8785TIP3    H126319   1.439   5.384   3.214
 8785TIP3    H226320   1.461   5.403   3.363
 8786TIP3   OH226321   3.339   1.679   1.896
 8786TIP3    H126322   3.310   1.633   1.974
 8786TIP3    H226323   3.293   1.635   1.824
 8787TIP3   OH226324   2.536   4.010   1.103
 8787TIP3    H126325   2.545   4.076   1.172
 8787TIP3    H226326   2.623   3.973   1.093
 8788TIP3   OH226327   7.066   3.429   0.174
 8788TIP3    H126328   7.012   3.507   0.188
 8788TIP3    H226329   7.067   3.417   0.080
 8789TIP3   OH226330   1.543   0.569   0.100
 8789TIP3    H126331   1.461   0.571   0.150
 8789TIP3    H226332   1.579   0.657   0.111
 8790TIP3   OH226333   4.847   2.561   0.727
 8790TIP3    H126334   4.835   2.645   0.682
 8790TIP3    H226335   4.938   2.563   0.757
 8791TIP3   OH226336   1.249   3.011   2.450
 8791TIP3    H126337   1.171   3.048   2.493
 8791TIP3    H226338   1.310   3.085   2.443
 8792TIP3   OH226339   0.387   0.673   3.571
 8792TIP3    H126340   0.365   0.674   3.478
 8792TIP3    H226341   0.461   0.733   3.578
 8793TIP3   OH226342   5.004   1.301   3.313
 8793TIP3    H126343   5.056   1.230   3.275
 8793TIP3    H226344   4.991   1.274   3.404
 8794TIP3   OH226345   2.567   6.648   0.906
 8794TIP3    H126346   2.638   6.711   0.895
 8794TIP3    H226347   2.599   6.567   0.866
 8795TIP3   OH226348   2.420   1.574   5.485
 8795TIP3    H126349   2.344   1.548   5.537
 8795TIP3    H226350   2.415   1.669   5.481
 8796TIP3   OH226351   5.872   5.320   3.493
 8796TIP3    H126352   5.908   5.408   3.495
 8796TIP3    H226353   5.794   5.325   3.548
 8797TIP3   OH226354   0.862   4.227   3.148
 8797TIP3    H126355   0.879   4.134   3.165
 8797TIP3    H226356   0.769   4.238   3.165
 8798TIP3   OH226357   0.828   4.161   5.557
 8798TIP3    H126358   0.910   4.147   5.509
 8798TIP3    H226359   0.767   4.098   5.520
 8799TIP3   OH226360   0.275   6.546   5.757
 8799TIP3    H126361   0.337   6.610   5.794
 8799TIP3    H226362   0.331   6.478   5.719
 8800TIP3   OH226363   1.863   3.985   1.508
 8800TIP3    H126364   1.858   4.067   1.459
 8800TIP3    H226365   1.951   3.985   1.545
 8801TIP3   OH226366   2.601   2.844   3.068
 8801TIP3    H126367   2.637   2.872   3.152
 8801TIP3    H226368   2.559   2.922   3.032
 8802TIP3   OH226369   4.828   0.535   3.126
 8802TIP3    H126370   4.768   0.602   3.158
 8802TIP3    H226371   4.785   0.452   3.147
 8803TIP3   OH226372   0.062   2.333   4.313
 8803TIP3    H126373   0.128   2.386   4.359
 8803TIP3    H226374   0.112   2.284   4.248
 8804TIP3   OH226375   1.396   6.680   1.596
 8804TIP3    H126376   1.418   6.646   1.509
 8804TIP3    H226377   1.381   6.773   1.582
 8805TIP3   OH226378   4.196   2.274   1.477
 8805TIP3    H126379   4.202   2.361   1.437
 8805TIP3    H226380   4.283   2.237   1.467
 8806TIP3   OH226381   2.425   1.172   2.285
 8806TIP3    H126382   2.357   1.236   2.306
 8806TIP3    H226383   2.440   1.125   2.367
 8807TIP3   OH226384   6.707   3.155   3.318
 8807TIP3    H126385   6.731   3.209   3.243
 8807TIP3    H226386   6.631   3.199   3.356
 8808TIP3   OH226387   2.085   5.860   4.045
 8808TIP3    H126388   2.099   5.818   4.129
 8808TIP3    H226389   2.143   5.936   4.045
 8809TIP3   OH226390   6.828   0.487   0.777
 8809TIP3    H126391   6.851   0.565   0.725
 8809TIP3    H226392   6.768   0.439   0.720
 8810TIP3   OH226393   2.757  -0.011   3.895
 8810TIP3    H126394   2.769   0.059   3.960
 8810TIP3    H226395   2.717   0.034   3.820
 8811TIP3   OH226396   5.189   0.297   4.457
 8811TIP3    H126397   5.264   0.324   4.509
 8811TIP3    H226398   5.200   0.341   4.373
 8812TIP3   OH226399   3.321   4.283   2.919
 8812TIP3    H126400   3.406   4.311   2.954
 8812TIP3    H226401   3.326   4.187   2.916
 8813TIP3   OH226402   1.405   2.077   1.298
 8813TIP3    H126403   1.311   2.089   1.284
 8813TIP3    H226404   1.415   2.075   1.393
 8814TIP3   OH226405   5.415   1.773   3.310
 8814TIP3    H126406   5.389   1.681   3.312
 8814TIP3    H226407   5.333   1.822   3.316
 8815TIP3   OH226408   2.871   5.979   4.338
 8815TIP3    H126409   2.818   5.956   4.262
 8815TIP3    H226410   2.807   6.007   4.404
 8816TIP3   OH226411   2.102   0.400   3.497
 8816TIP3    H126412   2.123   0.310   3.521
 8816TIP3    H226413   2.026   0.422   3.550
 8817TIP3   OH226414   4.250   0.256   1.069
 8817TIP3    H126415   4.320   0.233   1.008
 8817TIP3    H226416   4.170   0.253   1.017
 8818TIP3   OH226417   7.053   4.704   2.461
 8818TIP3    H126418   7.146   4.685   2.465
 8818TIP3    H226419   7.016   4.635   2.407
 8819TIP3   OH226420   6.669   5.144   1.344
 8819TIP3    H126421   6.730   5.106   1.281
 8819TIP3    H226422   6.717   5.145   1.427
 8820TIP3   OH226423   4.813   5.044   5.739
 8820TIP3    H126424   4.815   5.055   5.834
 8820TIP3    H226425   4.852   5.125   5.705
 8821TIP3   OH226426   6.486   6.670   0.088
 8821TIP3    H126427   6.505   6.726   0.013
 8821TIP3    H226428   6.521   6.718   0.163
 8822TIP3   OH226429   6.748   1.539   2.300
 8822TIP3    H126430   6.808   1.488   2.355
 8822TIP3    H226431   6.681   1.570   2.360
 8823TIP3   OH226432   2.447   5.389   5.697
 8823TIP3    H126433   2.401   5.334   5.634
 8823TIP3    H226434   2.507   5.442   5.643
 8824TIP3   OH226435   2.571   4.897   5.558
 8824TIP3    H126436   2.592   4.804   5.561
 8824TIP3    H226437   2.599   4.925   5.471
 8825TIP3   OH226438   0.609   1.782   1.000
 8825TIP3    H126439   0.556   1.722   1.052
 8825TIP3    H226440   0.692   1.736   0.986
 8826TIP3   OH226441   6.442   5.841   0.284
 8826TIP3    H126442   6.438   5.863   0.377
 8826TIP3    H226443   6.352   5.821   0.260
 8827TIP3   OH226444   3.888   4.029   3.392
 8827TIP3    H126445   3.864   4.040   3.484
 8827TIP3    H226446   3.835   4.093   3.345
 8828TIP3   OH226447   6.600   0.701   4.811
 8828TIP3    H126448   6.659   0.654   4.871
 8828TIP3    H226449   6.582   0.783   4.856
 8829TIP3   OH226450   2.763   0.223   5.498
 8829TIP3    H126451   2.810   0.179   5.427
 8829TIP3    H226452   2.686   0.167   5.513
 8830TIP3   OH226453   6.018   3.676   2.686
 8830TIP3    H126454   6.030   3.654   2.778
 8830TIP3    H226455   5.961   3.608   2.651
 8831TIP3   OH226456   4.864   0.823   3.674
 8831TIP3    H126457   4.899   0.827   3.763
 8831TIP3    H226458   4.770   0.810   3.685
 8832TIP3   OH226459   4.486   0.117   0.133
 8832TIP3    H126460   4.414   0.096   0.074
 8832TIP3    H226461   4.565   0.106   0.079
 8833TIP3   OH226462   1.951   4.986   4.407
 8833TIP3    H126463   1.890   4.982   4.333
 8833TIP3    H226464   2.030   4.941   4.376
 8834TIP3   OH226465   0.486   4.377   4.748
 8834TIP3    H126466   0.579   4.376   4.770
 8834TIP3    H226467   0.440   4.361   4.830
 8835TIP3   OH226468   4.602   2.855   3.131
 8835TIP3    H126469   4.666   2.803   3.180
 8835TIP3    H226470   4.607   2.942   3.169
 8836TIP3   OH226471   1.396   6.250   0.800
 8836TIP3    H126472   1.453   6.203   0.739
 8836TIP3    H226473   1.453   6.312   0.845
 8837TIP3   OH226474   3.494   4.087   5.495
 8837TIP3    H126475   3.471   4.039   5.416
 8837TIP3    H226476   3.428   4.156   5.502
 8838TIP3   OH226477   2.643   6.333   4.129
 8838TIP3    H126478   2.705   6.406   4.132
 8838TIP3    H226479   2.623   6.313   4.220
 8839TIP3   OH226480   0.043   6.295   1.613
 8839TIP3    H126481   0.072   6.262   1.528
 8839TIP3    H226482   0.021   6.216   1.663
 8840TIP3   OH226483   2.538   6.069   4.880
 8840TIP3    H126484   2.482   5.992   4.874
 8840TIP3    H226485   2.627   6.034   4.888
 8841TIP3   OH226486   0.706   6.738   0.662
 8841TIP3    H126487   0.630   6.682   0.649
 8841TIP3    H226488   0.781   6.679   0.656
 8842TIP3   OH226489   5.457   0.192   3.610
 8842TIP3    H126490   5.546   0.221   3.631
 8842TIP3    H226491   5.419   0.168   3.694
 8843TIP3   OH226492   6.653   6.821   0.809
 8843TIP3    H126493   6.733   6.801   0.856
 8843TIP3    H226494   6.590   6.755   0.837
 8844TIP3   OH226495   4.903   1.249   1.739
 8844TIP3    H126496   4.941   1.202   1.814
 8844TIP3    H226497   4.930   1.340   1.753
 8845TIP3   OH226498   6.579   5.313   5.079
 8845TIP3    H126499   6.632   5.292   5.002
 8845TIP3    H226500   6.527   5.235   5.094
 8846TIP3   OH226501   6.801   2.528   1.302
 8846TIP3    H126502   6.884   2.508   1.260
 8846TIP3    H226503   6.809   2.489   1.390
 8847TIP3   OH226504   5.252   6.334   1.874
 8847TIP3    H126505   5.322   6.391   1.908
 8847TIP3    H226506   5.236   6.367   1.786
 8848TIP3   OH226507   3.358   3.317   3.838
 8848TIP3    H126508   3.314   3.313   3.753
 8848TIP3    H226509   3.294   3.358   3.897
 8849TIP3   OH226510   4.209   1.116   5.518
 8849TIP3    H126511   4.276   1.104   5.451
 8849TIP3    H226512   4.249   1.080   5.598
 8850TIP3   OH226513   1.598   6.314   4.762
 8850TIP3    H126514   1.533   6.301   4.830
 8850TIP3    H226515   1.559   6.379   4.703
 8851TIP3   OH226516   3.371   6.155   0.159
 8851TIP3    H126517   3.278   6.180   0.158
 8851TIP3    H226518   3.377   6.088   0.226
 8852TIP3   OH226519   6.941   2.770   3.486
 8852TIP3    H126520   6.894   2.687   3.480
 8852TIP3    H226521   7.027   2.746   3.522
 8853TIP3   OH226522   7.181   6.081   1.901
 8853TIP3    H126523   7.087   6.081   1.919
 8853TIP3    H226524   7.190   6.032   1.820
 8854TIP3   OH226525   2.204   3.945   2.173
 8854TIP3    H126526   2.277   3.942   2.111
 8854TIP3    H226527   2.226   4.018   2.231
 8855TIP3   OH226528   6.354   3.007   4.424
 8855TIP3    H126529   6.295   2.946   4.380
 8855TIP3    H226530   6.365   3.079   4.361
 8856TIP3   OH226531   0.620   5.456   4.127
 8856TIP3    H126532   0.687   5.431   4.191
 8856TIP3    H226533   0.609   5.550   4.138
 8857TIP3   OH226534   4.203   3.532   2.314
 8857TIP3    H126535   4.142   3.459   2.304
 8857TIP3    H226536   4.149   3.604   2.347
 8858TIP3   OH226537   4.691   3.280   1.153
 8858TIP3    H126538   4.772   3.242   1.117
 8858TIP3    H226539   4.707   3.374   1.155
 8859TIP3   OH226540   4.358   3.417   3.148
 8859TIP3    H126541   4.294   3.459   3.205
 8859TIP3    H226542   4.349   3.323   3.166
 8860TIP3   OH226543   2.679   1.879   5.348
 8860TIP3    H126544   2.594   1.921   5.338
 8860TIP3    H226545   2.709   1.906   5.434
 8861TIP3   OH226546   5.471   5.340   0.884
 8861TIP3    H126547   5.437   5.290   0.809
 8861TIP3    H226548   5.423   5.305   0.959
 8862TIP3   OH226549   1.956   2.698   3.219
 8862TIP3    H126550   1.959   2.676   3.312
 8862TIP3    H226551   2.014   2.633   3.178
 8863TIP3   OH226552   6.602   2.886   4.225
 8863TIP3    H126553   6.568   2.893   4.136
 8863TIP3    H226554   6.614   2.977   4.254
 8864TIP3   OH226555   0.693   5.084   4.708
 8864TIP3    H126556   0.734   5.004   4.674
 8864TIP3    H226557   0.697   5.075   4.803
 8865TIP3   OH226558   1.263   6.748   2.829
 8865TIP3    H126559   1.170   6.748   2.853
 8865TIP3    H226560   1.264   6.774   2.737
 8866TIP3   OH226561   3.738   4.905   1.651
 8866TIP3    H126562   3.672   4.838   1.634
 8866TIP3    H226563   3.766   4.889   1.741
 8867TIP3   OH226564   2.999   6.647   3.753
 8867TIP3    H126565   2.971   6.629   3.663
 8867TIP3    H226566   2.947   6.587   3.806
 8868TIP3   OH226567   3.378   2.021   4.221
 8868TIP3    H126568   3.431   2.076   4.279
 8868TIP3    H226569   3.289   2.027   4.256
 8869TIP3   OH226570   0.233   3.900   0.414
 8869TIP3    H126571   0.180   3.832   0.374
 8869TIP3    H226572   0.266   3.861   0.495
 8870TIP3   OH226573   3.847   4.823   1.262
 8870TIP3    H126574   3.852   4.918   1.249
 8870TIP3    H226575   3.930   4.800   1.303
 8871TIP3   OH226576   6.276   2.511   1.533
 8871TIP3    H126577   6.268   2.571   1.458
 8871TIP3    H226578   6.206   2.447   1.521
 8872TIP3   OH226579   1.920   4.763   3.012
 8872TIP3    H126580   1.921   4.764   2.916
 8872TIP3    H226581   1.941   4.673   3.036
 8873TIP3   OH226582   1.713   2.777   4.196
 8873TIP3    H126583   1.680   2.712   4.258
 8873TIP3    H226584   1.716   2.858   4.247
 8874TIP3   OH226585   4.439   1.271   3.089
 8874TIP3    H126586   4.486   1.327   3.028
 8874TIP3    H226587   4.439   1.185   3.048
 8875TIP3   OH226588   1.258   0.667   5.701
 8875TIP3    H126589   1.214   0.741   5.661
 8875TIP3    H226590   1.277   0.696   5.791
 8876TIP3   OH226591   4.696   4.935   2.783
 8876TIP3    H126592   4.723   5.026   2.765
 8876TIP3    H226593   4.679   4.933   2.877
 8877TIP3   OH226594   7.120   1.946   5.453
 8877TIP3    H126595   7.191   2.010   5.464
 8877TIP3    H226596   7.048   1.996   5.416
 8878TIP3   OH226597   4.396   5.938   1.259
 8878TIP3    H126598   4.322   5.949   1.199
 8878TIP3    H226599   4.441   6.023   1.256
 8879TIP3   OH226600   1.114   3.763   4.348
 8879TIP3    H126601   1.052   3.809   4.291
 8879TIP3    H226602   1.199   3.803   4.328
 8880TIP3   OH226603   4.728   0.623   3.407
 8880TIP3    H126604   4.676   0.563   3.460
 8880TIP3    H226605   4.816   0.584   3.404
 8881TIP3   OH226606   6.472   4.263   5.405
 8881TIP3    H126607   6.547   4.204   5.393
 8881TIP3    H226608   6.501   4.325   5.472
 8882TIP3   OH226609   0.471   6.703   4.619
 8882TIP3    H126610   0.474   6.714   4.523
 8882TIP3    H226611   0.506   6.616   4.634
 8883TIP3   OH226612   6.746   5.469   2.444
 8883TIP3    H126613   6.650   5.465   2.438
 8883TIP3    H226614   6.768   5.557   2.414
 8884TIP3   OH226615   6.120   5.821   1.342
 8884TIP3    H126616   6.042   5.773   1.316
 8884TIP3    H226617   6.087   5.890   1.400
 8885TIP3   OH226618   0.948   5.213   1.203
 8885TIP3    H126619   0.947   5.258   1.118
 8885TIP3    H226620   0.858   5.183   1.215
 8886TIP3   OH226621   6.654   1.529   0.176
 8886TIP3    H126622   6.712   1.469   0.128
 8886TIP3    H226623   6.713   1.595   0.212
 8887TIP3   OH226624   6.749   2.781   5.122
 8887TIP3    H126625   6.733   2.742   5.208
 8887TIP3    H226626   6.815   2.726   5.082
 8888TIP3   OH226627   3.565   2.191   3.617
 8888TIP3    H126628   3.584   2.111   3.568
 8888TIP3    H226629   3.589   2.262   3.557
 8889TIP3   OH226630   2.478   5.008   3.211
 8889TIP3    H126631   2.453   5.019   3.119
 8889TIP3    H226632   2.548   5.072   3.224
 8890TIP3   OH226633   6.500   5.355   4.345
 8890TIP3    H126634   6.420   5.348   4.398
 8890TIP3    H226635   6.511   5.449   4.331
 8891TIP3   OH226636   5.210   4.344   0.731
 8891TIP3    H126637   5.255   4.281   0.786
 8891TIP3    H226638   5.130   4.366   0.779
 8892TIP3   OH226639   2.191   2.212   2.423
 8892TIP3    H126640   2.121   2.248   2.477
 8892TIP3    H226641   2.149   2.191   2.339
 8893TIP3   OH226642   6.361   6.387   4.675
 8893TIP3    H126643   6.361   6.479   4.649
 8893TIP3    H226644   6.312   6.343   4.605
 8894TIP3   OH226645   0.512   4.867   1.302
 8894TIP3    H126646   0.517   4.805   1.374
 8894TIP3    H226647   0.468   4.818   1.232
 8895TIP3   OH226648   3.251   5.348   2.053
 8895TIP3    H126649   3.251   5.256   2.026
 8895TIP3    H226650   3.212   5.347   2.141
 8896TIP3   OH226651   0.110   5.698   2.413
 8896TIP3    H126652   0.079   5.782   2.447
 8896TIP3    H226653   0.109   5.710   2.318
 8897TIP3   OH226654   0.193   2.538   2.376
 8897TIP3    H126655   0.167   2.515   2.286
 8897TIP3    H226656   0.116   2.516   2.429
 8898TIP3   OH226657   3.272   6.675   3.721
 8898TIP3    H126658   3.176   6.672   3.712
 8898TIP3    H226659   3.304   6.696   3.634
 8899TIP3   OH226660   3.618   4.420   2.144
 8899TIP3    H126661   3.681   4.490   2.125
 8899TIP3    H226662   3.535   4.452   2.109
 8900TIP3   OH226663   6.513   6.497   4.325
 8900TIP3    H126664   6.466   6.579   4.310
 8900TIP3    H226665   6.602   6.513   4.292
 8901TIP3   OH226666   1.685   3.308   4.602
 8901TIP3    H126667   1.762   3.356   4.632
 8901TIP3    H226668   1.616   3.374   4.596
 8902TIP3   OH226669   3.244   4.725   2.542
 8902TIP3    H126670   3.178   4.760   2.602
 8902TIP3    H226671   3.274   4.644   2.584
 8903TIP3   OH226672   2.082   0.902   5.450
 8903TIP3    H126673   2.138   0.838   5.406
 8903TIP3    H226674   2.118   0.909   5.538
 8904TIP3   OH226675   1.552   6.082   4.561
 8904TIP3    H126676   1.478   6.134   4.527
 8904TIP3    H226677   1.562   6.112   4.651
 8905TIP3   OH226678   3.312   1.488   5.501
 8905TIP3    H126679   3.324   1.543   5.424
 8905TIP3    H226680   3.233   1.438   5.483
 8906TIP3   OH226681   5.175   3.354   1.541
 8906TIP3    H126682   5.145   3.273   1.583
 8906TIP3    H226683   5.195   3.413   1.614
 8907TIP3   OH226684   4.047   4.047   2.888
 8907TIP3    H126685   4.099   4.008   2.959
 8907TIP3    H226686   3.976   3.984   2.873
 8908TIP3   OH226687   6.386   0.970   0.687
 8908TIP3    H126688   6.428   0.917   0.620
 8908TIP3    H226689   6.385   0.914   0.765
 8909TIP3   OH226690   6.456   1.260   3.501
 8909TIP3    H126691   6.480   1.245   3.592
 8909TIP3    H226692   6.532   1.303   3.463
 8910TIP3   OH226693   4.122   1.004   2.083
 8910TIP3    H126694   4.036   1.044   2.088
 8910TIP3    H226695   4.110   0.928   2.026
 8911TIP3   OH226696   0.048   0.698   2.172
 8911TIP3    H126697   0.005   0.641   2.235
 8911TIP3    H226698   0.014   0.785   2.191
 8912TIP3   OH226699   0.285   0.237   2.476
 8912TIP3    H126700   0.264   0.162   2.421
 8912TIP3    H226701   0.367   0.271   2.439
 8913TIP3   OH226702   6.798   2.271   0.731
 8913TIP3    H126703   6.800   2.352   0.680
 8913TIP3    H226704   6.850   2.291   0.809
 8914TIP3   OH226705   5.451   1.115   4.514
 8914TIP3    H126706   5.388   1.044   4.502
 8914TIP3    H226707   5.398   1.191   4.535
 8915TIP3   OH226708   6.613   5.694   5.615
 8915TIP3    H126709   6.564   5.629   5.564
 8915TIP3    H226710   6.616   5.771   5.558
 8916TIP3   OH226711   0.860   4.595   5.726
 8916TIP3    H126712   0.933   4.589   5.787
 8916TIP3    H226713   0.817   4.510   5.731
 8917TIP3   OH226714   0.554   2.319   1.762
 8917TIP3    H126715   0.505   2.395   1.794
 8917TIP3    H226716   0.520   2.304   1.674
 8918TIP3   OH226717   5.159   4.990   1.474
 8918TIP3    H126718   5.113   4.930   1.533
 8918TIP3    H226719   5.251   4.970   1.486
 8919TIP3   OH226720   6.759   5.695   2.764
 8919TIP3    H126721   6.698   5.621   2.753
 8919TIP3    H226722   6.703   5.772   2.770
 8920TIP3   OH226723   6.409   5.585   3.007
 8920TIP3    H126724   6.470   5.558   3.076
 8920TIP3    H226725   6.360   5.658   3.045
 8921TIP3   OH226726   0.792   1.523   5.709
 8921TIP3    H126727   0.874   1.504   5.756
 8921TIP3    H226728   0.763   1.606   5.745
 8922TIP3   OH226729   0.343   3.534   0.390
 8922TIP3    H126730   0.270   3.589   0.417
 8922TIP3    H226731   0.420   3.590   0.403
 8923TIP3   OH226732   4.952   3.783   2.591
 8923TIP3    H126733   4.939   3.871   2.626
 8923TIP3    H226734   4.895   3.727   2.644
 8924TIP3   OH226735   5.026   5.838   4.943
 8924TIP3    H126736   4.961   5.784   4.897
 8924TIP3    H226737   4.986   5.924   4.949
 8925TIP3   OH226738   2.521   4.548   0.890
 8925TIP3    H126739   2.561   4.610   0.951
 8925TIP3    H226740   2.529   4.590   0.805
 8926TIP3   OH226741   3.378   6.608   1.628
 8926TIP3    H126742   3.302   6.574   1.674
 8926TIP3    H226743   3.384   6.555   1.548
 8927TIP3   OH226744   5.824   4.216   1.246
 8927TIP3    H126745   5.745   4.265   1.223
 8927TIP3    H226746   5.893   4.282   1.248
 8928TIP3   OH226747   6.234   4.119   5.482
 8928TIP3    H126748   6.324   4.150   5.472
 8928TIP3    H226749   6.221   4.057   5.410
 8929TIP3   OH226750   1.750   4.811   3.251
 8929TIP3    H126751   1.806   4.789   3.177
 8929TIP3    H226752   1.680   4.864   3.214
 8930TIP3   OH226753   2.950   1.244   0.945
 8930TIP3    H126754   3.038   1.212   0.965
 8930TIP3    H226755   2.959   1.291   0.862
 8931TIP3   OH226756   6.442   3.503   2.739
 8931TIP3    H126757   6.363   3.452   2.721
 8931TIP3    H226758   6.418   3.561   2.811
 8932TIP3   OH226759   0.229   0.348   3.577
 8932TIP3    H126760   0.167   0.384   3.641
 8932TIP3    H226761   0.277   0.281   3.625
 8933TIP3   OH226762   0.404   5.239   3.709
 8933TIP3    H126763   0.364   5.277   3.787
 8933TIP3    H226764   0.329   5.215   3.654
 8934TIP3   OH226765   3.317   4.966   0.359
 8934TIP3    H126766   3.409   4.962   0.334
 8934TIP3    H226767   3.272   4.998   0.280
 8935TIP3   OH226768   0.034   1.345   3.695
 8935TIP3    H126769  -0.012   1.341   3.778
 8935TIP3    H226770   0.044   1.439   3.678
 8936TIP3   OH226771   0.674   1.914   5.857
 8936TIP3    H126772   0.632   1.990   5.898
 8936TIP3    H226773   0.729   1.951   5.789
 8937TIP3   OH226774   6.907   0.730   0.626
 8937TIP3    H126775   6.862   0.814   0.619
 8937TIP3    H226776   6.958   0.722   0.546
 8938TIP3   OH226777   5.543   3.345   4.285
 8938TIP3    H126778   5.562   3.409   4.217
 8938TIP3    H226779   5.468   3.380   4.332
 8939TIP3   OH226780   2.091   5.609   3.672
 8939TIP3    H126781   2.000   5.598   3.699
 8939TIP3    H226782   2.112   5.699   3.694
 8940TIP3   OH226783   4.520   0.755   0.085
 8940TIP3    H126784   4.610   0.776   0.106
 8940TIP3    H226785   4.525   0.694   0.012
 8941TIP3   OH226786   4.163   2.235   2.524
 8941TIP3    H126787   4.208   2.167   2.575
 8941TIP3    H226788   4.142   2.303   2.588
 8942TIP3   OH226789   4.223   0.064   5.131
 8942TIP3    H126790   4.212   0.093   5.222
 8942TIP3    H226791   4.161  -0.008   5.120
 8943TIP3   OH226792   4.457   1.528   3.808
 8943TIP3    H126793   4.532   1.468   3.803
 8943TIP3    H226794   4.492   1.608   3.847
 8944TIP3   OH226795   2.174   4.475   0.136
 8944TIP3    H126796   2.140   4.539   0.073
 8944TIP3    H226797   2.269   4.488   0.134
 8945TIP3   OH226798   5.995   4.812   3.485
 8945TIP3    H126799   5.973   4.824   3.393
 8945TIP3    H226800   5.991   4.900   3.522
 8946TIP3   OH226801   2.440   6.121   0.206
 8946TIP3    H126802   2.521   6.091   0.164
 8946TIP3    H226803   2.436   6.071   0.287
 8947TIP3   OH226804   5.834   3.888   1.136
 8947TIP3    H126805   5.838   3.982   1.120
 8947TIP3    H226806   5.742   3.870   1.151
 8948TIP3   OH226807   4.585   5.115   0.348
 8948TIP3    H126808   4.491   5.100   0.344
 8948TIP3    H226809   4.622   5.050   0.288
 8949TIP3   OH226810   3.842   4.887   5.486
 8949TIP3    H126811   3.785   4.821   5.446
 8949TIP3    H226812   3.806   4.900   5.573
 8950TIP3   OH226813   0.069   0.184   5.730
 8950TIP3    H126814   0.159   0.159   5.710
 8950TIP3    H226815   0.074   0.225   5.817
 8951TIP3   OH226816   6.392   1.847   1.446
 8951TIP3    H126817   6.370   1.755   1.454
 8951TIP3    H226818   6.405   1.860   1.352
 8952TIP3   OH226819   3.983   6.507   2.280
 8952TIP3    H126820   4.023   6.541   2.200
 8952TIP3    H226821   4.053   6.458   2.323
 8953TIP3   OH226822   6.121   2.867   0.798
 8953TIP3    H126823   6.132   2.959   0.775
 8953TIP3    H226824   6.034   2.862   0.838
 8954TIP3   OH226825   3.833   3.288   2.479
 8954TIP3    H126826   3.896   3.306   2.409
 8954TIP3    H226827   3.748   3.285   2.435
 8955TIP3   OH226828   2.790   2.382   4.010
 8955TIP3    H126829   2.719   2.321   3.990
 8955TIP3    H226830   2.745   2.464   4.031
 8956TIP3   OH226831   4.852   5.762   2.608
 8956TIP3    H126832   4.780   5.796   2.660
 8956TIP3    H226833   4.881   5.684   2.656
 8957TIP3   OH226834   6.107   0.168   2.728
 8957TIP3    H126835   6.179   0.137   2.782
 8957TIP3    H226836   6.139   0.249   2.689
 8958TIP3   OH226837   1.339   4.251   5.441
 8958TIP3    H126838   1.279   4.288   5.506
 8958TIP3    H226839   1.369   4.170   5.481
 8959TIP3   OH226840   4.067   0.169   1.984
 8959TIP3    H126841   4.133   0.141   2.048
 8959TIP3    H226842   4.014   0.090   1.968
 8960TIP3   OH226843   5.351   2.894   4.776
 8960TIP3    H126844   5.332   2.806   4.808
 8960TIP3    H226845   5.278   2.947   4.806
 8961TIP3   OH226846   1.941   6.140   4.093
 8961TIP3    H126847   1.978   6.098   4.171
 8961TIP3    H226848   1.900   6.220   4.125
 8962TIP3   OH226849   5.402   3.270   2.932
 8962TIP3    H126850   5.438   3.182   2.940
 8962TIP3    H226851   5.445   3.320   3.002
 8963TIP3   OH226852   1.877   5.258   2.537
 8963TIP3    H126853   1.842   5.243   2.449
 8963TIP3    H226854   1.840   5.186   2.590
 8964TIP3   OH226855   5.739   0.568   3.732
 8964TIP3    H126856   5.645   0.562   3.749
 8964TIP3    H226857   5.769   0.477   3.735
 8965TIP3   OH226858   0.282   4.249   1.213
 8965TIP3    H126859   0.208   4.308   1.223
 8965TIP3    H226860   0.280   4.224   1.120
 8966TIP3   OH226861   0.488   3.032   3.111
 8966TIP3    H126862   0.471   3.066   3.023
 8966TIP3    H226863   0.437   2.951   3.115
 8967TIP3   OH226864   0.071   5.998   3.388
 8967TIP3    H126865   0.110   6.080   3.419
 8967TIP3    H226866  -0.004   6.025   3.336
 8968TIP3   OH226867   6.737   2.548   3.485
 8968TIP3    H126868   6.798   2.545   3.558
 8968TIP3    H226869   6.653   2.519   3.523
 8969TIP3   OH226870   3.681   5.126   1.196
 8969TIP3    H126871   3.725   5.112   1.280
 8969TIP3    H226872   3.598   5.167   1.219
 8970TIP3   OH226873   4.346   2.988   3.203
 8970TIP3    H126874   4.402   2.916   3.177
 8970TIP3    H226875   4.373   3.010   3.292
 8971TIP3   OH226876   0.114   5.870   5.873
 8971TIP3    H126877   0.152   5.902   5.792
 8971TIP3    H226878   0.098   5.777   5.857
 8972TIP3   OH226879   4.918   6.040   5.282
 8972TIP3    H126880   4.959   6.119   5.317
 8972TIP3    H226881   4.975   6.013   5.210
 8973TIP3   OH226882   6.222   5.145   3.353
 8973TIP3    H126883   6.172   5.153   3.435
 8973TIP3    H226884   6.265   5.059   3.360
 8974TIP3   OH226885   0.887   3.135   3.946
 8974TIP3    H126886   0.903   3.040   3.941
 8974TIP3    H226887   0.961   3.174   3.899
 8975TIP3   OH226888   0.492   6.402   4.860
 8975TIP3    H126889   0.417   6.461   4.850
 8975TIP3    H226890   0.550   6.423   4.787
 8976TIP3   OH226891   4.057   6.632   2.669
 8976TIP3    H126892   4.132   6.573   2.663
 8976TIP3    H226893   3.983   6.579   2.639
 8977TIP3   OH226894   3.736   1.315   4.557
 8977TIP3    H126895   3.829   1.340   4.556
 8977TIP3    H226896   3.717   1.297   4.649
 8978TIP3   OH226897   4.961   3.681   3.892
 8978TIP3    H126898   4.994   3.596   3.920
 8978TIP3    H226899   4.880   3.661   3.845
 8979TIP3   OH226900   4.366   2.720   2.307
 8979TIP3    H126901   4.418   2.800   2.318
 8979TIP3    H226902   4.414   2.669   2.241
 8980TIP3   OH226903   2.000   1.369   4.487
 8980TIP3    H126904   1.971   1.326   4.407
 8980TIP3    H226905   2.003   1.462   4.464
 8981TIP3   OH226906   5.531   2.912   3.902
 8981TIP3    H126907   5.605   2.958   3.941
 8981TIP3    H226908   5.569   2.833   3.864
 8982TIP3   OH226909   4.447   2.208   3.139
 8982TIP3    H126910   4.536   2.233   3.117
 8982TIP3    H226911   4.396   2.289   3.128
 8983TIP3   OH226912   5.053   3.920   1.052
 8983TIP3    H126913   5.080   3.904   1.142
 8983TIP3    H226914   5.028   3.833   1.019
 8984TIP3   OH226915   0.928   0.119   2.039
 8984TIP3    H126916   0.833   0.125   2.046
 8984TIP3    H226917   0.955   0.073   2.119
 8985TIP3   OH226918   3.923   1.118   5.668
 8985TIP3    H126919   3.889   1.205   5.647
 8985TIP3    H226920   4.010   1.115   5.629
 8986TIP3   OH226921   2.332   3.303   0.810
 8986TIP3    H126922   2.327   3.351   0.893
 8986TIP3    H226923   2.325   3.211   0.836
 8987TIP3   OH226924   6.976   0.790   3.894
 8987TIP3    H126925   6.988   0.718   3.957
 8987TIP3    H226926   6.967   0.868   3.949
 8988TIP3   OH226927   0.983   3.129   5.102
 8988TIP3    H126928   0.934   3.182   5.164
 8988TIP3    H226929   0.995   3.187   5.026
 8989TIP3   OH226930   3.378   0.531   5.374
 8989TIP3    H126931   3.307   0.563   5.430
 8989TIP3    H226932   3.398   0.605   5.317
 8990TIP3   OH226933   6.346   6.297   4.197
 8990TIP3    H126934   6.368   6.381   4.236
 8990TIP3    H226935   6.304   6.319   4.114
 8991TIP3   OH226936   0.411   3.728   4.612
 8991TIP3    H126937   0.384   3.640   4.584
 8991TIP3    H226938   0.505   3.721   4.629
 8992TIP3   OH226939   4.157   5.200   2.174
 8992TIP3    H126940   4.212   5.138   2.128
 8992TIP3    H226941   4.111   5.148   2.240
 8993TIP3   OH226942   2.248   1.869   1.762
 8993TIP3    H126943   2.295   1.896   1.841
 8993TIP3    H226944   2.278   1.928   1.694
 8994TIP3   OH226945   0.975   4.671   0.335
 8994TIP3    H126946   0.984   4.604   0.403
 8994TIP3    H226947   0.885   4.661   0.303
 8995TIP3   OH226948   2.203   2.954   2.919
 8995TIP3    H126949   2.176   2.936   3.009
 8995TIP3    H226950   2.281   2.900   2.906
 8996TIP3   OH226951   4.307   1.834   4.574
 8996TIP3    H126952   4.387   1.842   4.625
 8996TIP3    H226953   4.273   1.923   4.569
 8997TIP3   OH226954   2.218   3.156   4.673
 8997TIP3    H126955   2.135   3.163   4.720
 8997TIP3    H226956   2.283   3.193   4.732
 8998TIP3   OH226957   0.625   3.890   1.518
 8998TIP3    H126958   0.574   3.877   1.438
 8998TIP3    H226959   0.595   3.822   1.578
 8999TIP3   OH226960   4.490   0.613   1.275
 8999TIP3    H126961   4.539   0.542   1.233
 8999TIP3    H226962   4.552   0.653   1.335
 9000TIP3   OH226963   5.564   5.350   5.451
 9000TIP3    H126964   5.566   5.331   5.545
 9000TIP3    H226965   5.547   5.444   5.445
 9001TIP3   OH226966   3.710   6.073   3.701
 9001TIP3    H126967   3.668   6.105   3.781
 9001TIP3    H226968   3.654   6.002   3.671
 9002TIP3   OH226969   4.050   0.237   2.807
 9002TIP3    H126970   4.075   0.234   2.899
 9002TIP3    H226971   3.992   0.314   2.800
 9003TIP3   OH226972   6.974   6.460   2.655
 9003TIP3    H126973   6.967   6.387   2.718
 9003TIP3    H226974   6.892   6.507   2.664
 9004TIP3   OH226975   2.294   4.342   4.110
 9004TIP3    H126976   2.354   4.273   4.140
 9004TIP3    H226977   2.339   4.383   4.036
 9005TIP3   OH226978   4.761   2.407   5.192
 9005TIP3    H126979   4.685   2.397   5.250
 9005TIP3    H226980   4.795   2.493   5.213
 9006TIP3   OH226981   6.191   2.431   1.822
 9006TIP3    H126982   6.229   2.485   1.752
 9006TIP3    H226983   6.101   2.463   1.831
 9007TIP3   OH226984   1.246   2.103   3.538
 9007TIP3    H126985   1.185   2.038   3.504
 9007TIP3    H226986   1.321   2.052   3.567
 9008TIP3   OH226987   1.999   1.118   0.516
 9008TIP3    H126988   2.042   1.172   0.582
 9008TIP3    H226989   1.989   1.176   0.440
 9009TIP3   OH226990   6.341   2.653   3.369
 9009TIP3    H126991   6.308   2.710   3.300
 9009TIP3    H226992   6.264   2.629   3.420
 9010TIP3   OH226993   0.698   6.480   0.990
 9010TIP3    H126994   0.733   6.556   1.038
 9010TIP3    H226995   0.620   6.514   0.947
 9011TIP3   OH226996   6.763   5.330   5.484
 9011TIP3    H126997   6.727   5.249   5.448
 9011TIP3    H226998   6.715   5.399   5.439
 9012TIP3   OH226999   2.583   0.294   5.106
 9012TIP3    H127000   2.605   0.253   5.022
 9012TIP3    H227001   2.569   0.221   5.166
 9013TIP3   OH227002   5.030   1.411   5.570
 9013TIP3    H127003   5.082   1.358   5.509
 9013TIP3    H227004   4.941   1.377   5.562
 9014TIP3   OH227005   0.646   5.469   4.756
 9014TIP3    H127006   0.617   5.390   4.710
 9014TIP3    H227007   0.576   5.487   4.819
 9015TIP3   OH227008   0.738   0.556   3.508
 9015TIP3    H127009   0.694   0.640   3.521
 9015TIP3    H227010   0.803   0.574   3.440
 9016TIP3   OH227011   3.327   4.935   1.464
 9016TIP3    H127012   3.244   4.949   1.509
 9016TIP3    H227013   3.322   4.991   1.387
 9017TIP3   OH227014   0.308   1.307   3.243
 9017TIP3    H127015   0.261   1.365   3.183
 9017TIP3    H227016   0.396   1.343   3.248
 9018TIP3   OH227017   4.613   3.705   3.374
 9018TIP3    H127018   4.631   3.743   3.288
 9018TIP3    H227019   4.564   3.773   3.420
 9019TIP3   OH227020   0.029   3.120   4.570
 9019TIP3    H127021   0.009   3.043   4.517
 9019TIP3    H227022   0.025   3.090   4.660
 9020TIP3   OH227023   4.387   5.981   0.440
 9020TIP3    H127024   4.426   5.974   0.527
 9020TIP3    H227025   4.303   5.936   0.447
 9021TIP3   OH227026   2.787   5.545   2.333
 9021TIP3    H127027   2.740   5.490   2.396
 9021TIP3    H227028   2.793   5.630   2.377
 9022TIP3   OH227029   0.908   3.519   2.425
 9022TIP3    H127030   0.848   3.592   2.413
 9022TIP3    H227031   0.911   3.476   2.340
 9023TIP3   OH227032   1.708   4.847   3.540
 9023TIP3    H127033   1.694   4.765   3.588
 9023TIP3    H227034   1.743   4.820   3.455
 9024TIP3   OH227035   3.877   2.591   5.030
 9024TIP3    H127036   3.803   2.625   5.080
 9024TIP3    H227037   3.936   2.554   5.096
 9025TIP3   OH227038   2.485   1.329   4.694
 9025TIP3    H127039   2.521   1.306   4.779
 9025TIP3    H227040   2.420   1.397   4.712
 9026TIP3   OH227041   2.923   0.764   0.494
 9026TIP3    H127042   3.008   0.780   0.453
 9026TIP3    H227043   2.859   0.805   0.435
 9027TIP3   OH227044   5.985   5.825   0.668
 9027TIP3    H127045   6.002   5.766   0.594
 9027TIP3    H227046   5.891   5.841   0.665
 9028TIP3   OH227047   6.239   5.383   4.843
 9028TIP3    H127048   6.318   5.400   4.793
 9028TIP3    H227049   6.270   5.354   4.929
 9029TIP3   OH227050   3.983   0.507   1.902
 9029TIP3    H127051   4.072   0.503   1.937
 9029TIP3    H227052   3.990   0.564   1.825
 9030TIP3   OH227053   0.542   0.575   0.585
 9030TIP3    H127054   0.597   0.531   0.649
 9030TIP3    H227055   0.473   0.510   0.565
 9031TIP3   OH227056   6.542   2.642   1.089
 9031TIP3    H127057   6.509   2.579   1.025
 9031TIP3    H227058   6.499   2.724   1.067
 9032TIP3   OH227059   1.576   0.455   3.181
 9032TIP3    H127060   1.587   0.397   3.256
 9032TIP3    H227061   1.662   0.455   3.138
 9033TIP3   OH227062   4.138   2.567   5.198
 9033TIP3    H127063   4.161   2.488   5.247
 9033TIP3    H227064   4.199   2.568   5.124
 9034TIP3   OH227065   3.000   4.213   4.584
 9034TIP3    H127066   3.006   4.236   4.676
 9034TIP3    H227067   2.935   4.144   4.580
 9035TIP3   OH227068   0.661   4.049   5.379
 9035TIP3    H127069   0.713   4.050   5.298
 9035TIP3    H227070   0.637   3.957   5.390
 9036TIP3   OH227071   0.550   5.580   2.812
 9036TIP3    H127072   0.476   5.542   2.859
 9036TIP3    H227073   0.593   5.505   2.771
 9037TIP3   OH227074   5.818   5.775   5.329
 9037TIP3    H127075   5.756   5.831   5.376
 9037TIP3    H227076   5.872   5.837   5.279
 9038TIP3   OH227077   2.590   2.239   2.077
 9038TIP3    H127078   2.540   2.234   1.995
 9038TIP3    H227079   2.672   2.281   2.053
 9039TIP3   OH227080   5.800   4.635   4.994
 9039TIP3    H127081   5.836   4.590   4.918
 9039TIP3    H227082   5.825   4.579   5.068
 9040TIP3   OH227083   2.749   3.048   5.784
 9040TIP3    H127084   2.666   3.052   5.832
 9040TIP3    H227085   2.771   3.139   5.766
 9041TIP3   OH227086   4.747   1.005   5.759
 9041TIP3    H127087   4.719   0.925   5.714
 9041TIP3    H227088   4.842   1.008   5.747
 9042TIP3   OH227089   5.372   3.219   0.007
 9042TIP3    H127090   5.375   3.269   0.089
 9042TIP3    H227091   5.400   3.282  -0.059
 9043TIP3   OH227092   1.557   1.408   3.271
 9043TIP3    H127093   1.545   1.342   3.203
 9043TIP3    H227094   1.570   1.359   3.352
 9044TIP3   OH227095   4.006   2.189   1.011
 9044TIP3    H127096   4.052   2.212   0.930
 9044TIP3    H227097   3.954   2.266   1.032
 9045TIP3   OH227098   6.505   3.605   3.253
 9045TIP3    H127099   6.526   3.585   3.162
 9045TIP3    H227100   6.590   3.619   3.295
 9046TIP3   OH227101   0.188   2.210   2.525
 9046TIP3    H127102   0.174   2.116   2.521
 9046TIP3    H227103   0.100   2.247   2.532
 9047TIP3   OH227104   3.160   4.776   5.537
 9047TIP3    H127105   3.071   4.766   5.572
 9047TIP3    H227106   3.216   4.780   5.615
 9048TIP3   OH227107   3.942   2.161   3.357
 9048TIP3    H127108   3.899   2.246   3.350
 9048TIP3    H227109   3.987   2.150   3.273
 9049TIP3   OH227110   2.100   5.383   1.826
 9049TIP3    H127111   2.067   5.452   1.885
 9049TIP3    H227112   2.080   5.302   1.872
 9050TIP3   OH227113   6.055   2.774   4.684
 9050TIP3    H127114   6.115   2.810   4.750
 9050TIP3    H227115   6.110   2.762   4.607
 9051TIP3   OH227116   3.467   0.353   5.567
 9051TIP3    H127117   3.462   0.432   5.513
 9051TIP3    H227118   3.555   0.319   5.553
 9052TIP3   OH227119   5.493   3.644   5.702
 9052TIP3    H127120   5.509   3.557   5.668
 9052TIP3    H227121   5.568   3.662   5.759
 9053TIP3   OH227122   1.573   3.866   4.577
 9053TIP3    H127123   1.598   3.797   4.515
 9053TIP3    H227124   1.478   3.855   4.587
 9054TIP3   OH227125   0.966   0.826   3.905
 9054TIP3    H127126   0.998   0.908   3.942
 9054TIP3    H227127   0.948   0.771   3.981
 9055TIP3   OH227128   0.621   0.154   4.190
 9055TIP3    H127129   0.694   0.183   4.245
 9055TIP3    H227130   0.544   0.163   4.245
 9056TIP3   OH227131   4.698   5.853   1.271
 9056TIP3    H127132   4.669   5.856   1.180
 9056TIP3    H227133   4.758   5.779   1.275
 9057TIP3   OH227134   1.384   6.514   2.745
 9057TIP3    H127135   1.356   6.574   2.813
 9057TIP3    H227136   1.303   6.477   2.710
 9058TIP3   OH227137   2.726   5.009   4.752
 9058TIP3    H127138   2.633   5.017   4.774
 9058TIP3    H227139   2.728   5.002   4.657
 9059TIP3   OH227140   3.159   2.269   3.088
 9059TIP3    H127141   3.250   2.277   3.060
 9059TIP3    H227142   3.134   2.358   3.115
 9060TIP3   OH227143   2.406   4.691   0.269
 9060TIP3    H127144   2.317   4.703   0.303
 9060TIP3    H227145   2.401   4.611   0.216
 9061TIP3   OH227146   5.467   4.887   2.239
 9061TIP3    H127147   5.465   4.801   2.197
 9061TIP3    H227148   5.560   4.901   2.258
 9062TIP3   OH227149   3.274   3.889   4.410
 9062TIP3    H127150   3.270   3.912   4.317
 9062TIP3    H227151   3.273   3.973   4.456
 9063TIP3   OH227152   7.133   2.411   3.996
 9063TIP3    H127153   7.175   2.325   3.999
 9063TIP3    H227154   7.147   2.441   3.906
 9064TIP3   OH227155   3.829   0.558   4.530
 9064TIP3    H127156   3.849   0.469   4.499
 9064TIP3    H227157   3.875   0.615   4.469
 9065TIP3   OH227158   0.158   4.273   4.330
 9065TIP3    H127159   0.177   4.193   4.379
 9065TIP3    H227160   0.121   4.243   4.247
 9066TIP3   OH227161   3.505   5.167   4.842
 9066TIP3    H127162   3.566   5.135   4.776
 9066TIP3    H227163   3.491   5.259   4.819
 9067TIP3   OH227164   3.549   1.830   1.311
 9067TIP3    H127165   3.532   1.877   1.392
 9067TIP3    H227166   3.486   1.758   1.311
 9068TIP3   OH227167   6.784   4.961   4.976
 9068TIP3    H127168   6.703   4.945   4.928
 9068TIP3    H227169   6.825   4.874   4.982
 9069TIP3   OH227170   2.359   4.059   4.584
 9069TIP3    H127171   2.391   3.975   4.617
 9069TIP3    H227172   2.410   4.125   4.631
 9070TIP3   OH227173   3.845   6.717   2.010
 9070TIP3    H127174   3.926   6.766   1.996
 9070TIP3    H227175   3.784   6.755   1.946
 9071TIP3   OH227176   5.555   6.025   1.302
 9071TIP3    H127177   5.562   6.005   1.396
 9071TIP3    H227178   5.490   5.963   1.269
 9072TIP3   OH227179   0.266   0.589   1.566
 9072TIP3    H127180   0.332   0.589   1.636
 9072TIP3    H227181   0.309   0.631   1.492
 9073TIP3   OH227182   4.517   4.808   5.171
 9073TIP3    H127183   4.425   4.833   5.179
 9073TIP3    H227184   4.554   4.825   5.258
 9074TIP3   OH227185   5.635   2.568   2.422
 9074TIP3    H127186   5.571   2.497   2.430
 9074TIP3    H227187   5.670   2.580   2.510
 9075TIP3   OH227188   5.539   1.302   0.161
 9075TIP3    H127189   5.586   1.352   0.095
 9075TIP3    H227190   5.470   1.256   0.113
 9076TIP3   OH227191   0.542   6.436   4.569
 9076TIP3    H127192   0.586   6.352   4.554
 9076TIP3    H227193   0.572   6.492   4.498
 9077TIP3   OH227194   1.126   4.972   1.180
 9077TIP3    H127195   1.111   5.058   1.140
 9077TIP3    H227196   1.048   4.956   1.233
 9078TIP3   OH227197   3.932   4.643   0.559
 9078TIP3    H127198   4.013   4.621   0.605
 9078TIP3    H227199   3.957   4.652   0.467
 9079TIP3   OH227200   0.974   3.542   5.786
 9079TIP3    H127201   0.958   3.628   5.749
 9079TIP3    H227202   1.007   3.559   5.874
 9080TIP3   OH227203   1.897   5.447   5.767
 9080TIP3    H127204   1.840   5.474   5.839
 9080TIP3    H227205   1.964   5.392   5.808
 9081TIP3   OH227206   5.649   3.889   4.358
 9081TIP3    H127207   5.593   3.822   4.318
 9081TIP3    H227208   5.677   3.943   4.284
 9082TIP3   OH227209   5.749   2.400   3.017
 9082TIP3    H127210   5.789   2.485   2.995
 9082TIP3    H227211   5.681   2.421   3.080
 9083TIP3   OH227212   6.767   5.874   0.216
 9083TIP3    H127213   6.758   5.877   0.121
 9083TIP3    H227214   6.828   5.803   0.232
 9084TIP3   OH227215   2.628   4.763   0.025
 9084TIP3    H127216   2.666   4.838  -0.020
 9084TIP3    H227217   2.666   4.766   0.113
 9085TIP3   OH227218   0.329   1.425   0.849
 9085TIP3    H127219   0.370   1.439   0.763
 9085TIP3    H227220   0.282   1.342   0.839
 9086TIP3   OH227221   3.593   6.290   4.209
 9086TIP3    H127222   3.501   6.271   4.227
 9086TIP3    H227223   3.639   6.258   4.286
 9087TIP3   OH227224   1.295   2.961   3.804
 9087TIP3    H127225   1.233   2.903   3.848
 9087TIP3    H227226   1.318   3.026   3.871
 9088TIP3   OH227227   4.522   3.681   2.036
 9088TIP3    H127228   4.520   3.763   1.987
 9088TIP3    H227229   4.514   3.708   2.128
 9089TIP3   OH227230   0.133   4.820   0.747
 9089TIP3    H127231   0.065   4.887   0.748
 9089TIP3    H227232   0.101   4.753   0.687
 9090TIP3   OH227233   2.545   5.846   0.088
 9090TIP3    H127234   2.496   5.768   0.114
 9090TIP3    H227235   2.620   5.849   0.148
 9091TIP3   OH227236   0.563   5.760   0.613
 9091TIP3    H127237   0.579   5.727   0.525
 9091TIP3    H227238   0.474   5.797   0.610
 9092TIP3   OH227239   1.419   5.440   3.048
 9092TIP3    H127240   1.506   5.476   3.031
 9092TIP3    H227241   1.378   5.435   2.962
 9093TIP3   OH227242   1.006   2.473   1.412
 9093TIP3    H127243   1.086   2.445   1.368
 9093TIP3    H227244   0.972   2.543   1.356
 9094TIP3   OH227245   2.382   2.304   5.311
 9094TIP3    H127246   2.397   2.339   5.223
 9094TIP3    H227247   2.466   2.319   5.356
 9095TIP3   OH227248   1.708   2.226   3.700
 9095TIP3    H127249   1.658   2.145   3.693
 9095TIP3    H227250   1.650   2.286   3.747
 9096TIP3   OH227251   3.048   5.177   4.219
 9096TIP3    H127252   3.101   5.254   4.196
 9096TIP3    H227253   2.986   5.209   4.284
 9097TIP3   OH227254   5.380   4.984   0.178
 9097TIP3    H127255   5.383   4.889   0.184
 9097TIP3    H227256   5.340   5.012   0.261
 9098TIP3   OH227257   1.577   5.607   1.394
 9098TIP3    H127258   1.615   5.658   1.466
 9098TIP3    H227259   1.566   5.670   1.323
 9099TIP3   OH227260   6.480   0.811   0.484
 9099TIP3    H127261   6.437   0.820   0.399
 9099TIP3    H227262   6.541   0.738   0.473
 9100TIP3   OH227263   4.761   1.407   3.312
 9100TIP3    H127264   4.792   1.490   3.276
 9100TIP3    H227265   4.837   1.349   3.306
 9101TIP3   OH227266   5.445   6.470   3.777
 9101TIP3    H127267   5.350   6.481   3.775
 9101TIP3    H227268   5.474   6.530   3.846
 9102TIP3   OH227269   4.206   2.265   5.298
 9102TIP3    H127270   4.257   2.246   5.376
 9102TIP3    H227271   4.217   2.188   5.243
 9103TIP3   OH227272   0.404   0.369   0.467
 9103TIP3    H127273   0.441   0.373   0.378
 9103TIP3    H227274   0.415   0.278   0.494
 9104TIP3   OH227275   3.114   6.394   5.844
 9104TIP3    H127276   3.187   6.338   5.869
 9104TIP3    H227277   3.039   6.335   5.839
 9105TIP3   OH227278   4.717   2.086   1.291
 9105TIP3    H127279   4.705   1.991   1.299
 9105TIP3    H227280   4.727   2.101   1.197
 9106TIP3   OH227281   2.403   6.327   1.692
 9106TIP3    H127282   2.454   6.402   1.722
 9106TIP3    H227283   2.391   6.273   1.770
 9107TIP3   OH227284   6.693   4.095   5.371
 9107TIP3    H127285   6.714   4.091   5.464
 9107TIP3    H227286   6.709   4.007   5.338
 9108TIP3   OH227287   7.229   5.475   0.462
 9108TIP3    H127288   7.229   5.389   0.504
 9108TIP3    H227289   7.145   5.513   0.486
 9109TIP3   OH227290   0.059   1.419   2.786
 9109TIP3    H127291   0.082   1.452   2.699
 9109TIP3    H227292   0.027   1.496   2.834
 9110TIP3   OH227293   2.932   5.349   3.285
 9110TIP3    H127294   2.916   5.325   3.377
 9110TIP3    H227295   2.969   5.437   3.289
 9111TIP3   OH227296   1.142   1.313   4.253
 9111TIP3    H127297   1.057   1.328   4.213
 9111TIP3    H227298   1.145   1.370   4.329
 9112TIP3   OH227299   3.579   4.174   1.978
 9112TIP3    H127300   3.494   4.219   1.973
 9112TIP3    H227301   3.639   4.240   2.012
 9113TIP3   OH227302   0.183   5.382   4.529
 9113TIP3    H127303   0.164   5.299   4.486
 9113TIP3    H227304   0.242   5.427   4.468
 9114TIP3   OH227305   1.757   5.967   5.630
 9114TIP3    H127306   1.813   6.004   5.697
 9114TIP3    H227307   1.674   6.014   5.640
 9115TIP3   OH227308   3.318   6.800   4.881
 9115TIP3    H127309   3.304   6.754   4.798
 9115TIP3    H227310   3.374   6.742   4.932
 9116TIP3   OH227311   5.721   6.234   2.853
 9116TIP3    H127312   5.677   6.318   2.848
 9116TIP3    H227313   5.683   6.191   2.930
 9117TIP3   OH227314   1.347   6.697   4.741
 9117TIP3    H127315   1.386   6.629   4.685
 9117TIP3    H227316   1.254   6.696   4.719
 9118TIP3   OH227317   6.696   6.121   3.610
 9118TIP3    H127318   6.631   6.098   3.676
 9118TIP3    H227319   6.691   6.051   3.545
 9119TIP3   OH227320   1.477   3.918   0.249
 9119TIP3    H127321   1.572   3.920   0.238
 9119TIP3    H227322   1.458   3.986   0.313
 9120TIP3   OH227323   2.353   5.856   1.847
 9120TIP3    H127324   2.329   5.839   1.756
 9120TIP3    H227325   2.419   5.789   1.867
 9121TIP3   OH227326   2.257   6.095   5.685
 9121TIP3    H127327   2.310   6.080   5.763
 9121TIP3    H227328   2.186   6.152   5.715
 9122TIP3   OH227329   0.731   6.465   5.271
 9122TIP3    H127330   0.664   6.510   5.219
 9122TIP3    H227331   0.766   6.534   5.327
 9123TIP3   OH227332   3.104   2.743   4.644
 9123TIP3    H127333   3.094   2.828   4.688
 9123TIP3    H227334   3.198   2.726   4.647
 9124TIP3   OH227335   0.514   6.474   3.195
 9124TIP3    H127336   0.479   6.557   3.162
 9124TIP3    H227337   0.521   6.487   3.289
 9125TIP3   OH227338   5.611   0.635   0.657
 9125TIP3    H127339   5.530   0.656   0.609
 9125TIP3    H227340   5.619   0.706   0.721
 9126TIP3   OH227341   5.038   6.212   1.693
 9126TIP3    H127342   4.984   6.288   1.673
 9126TIP3    H227343   5.080   6.233   1.776
 9127TIP3   OH227344   3.542   3.213   4.189
 9127TIP3    H127345   3.558   3.129   4.233
 9127TIP3    H227346   3.503   3.188   4.105
 9128TIP3   OH227347   1.499   0.856   2.519
 9128TIP3    H127348   1.440   0.784   2.499
 9128TIP3    H227349   1.514   0.848   2.613
 9129TIP3   OH227350   6.859   4.378   2.695
 9129TIP3    H127351   6.856   4.317   2.769
 9129TIP3    H227352   6.812   4.456   2.726
 9130TIP3   OH227353   2.376   5.588   3.105
 9130TIP3    H127354   2.335   5.546   3.181
 9130TIP3    H227355   2.461   5.617   3.137
 9131TIP3   OH227356   4.619   4.671   0.362
 9131TIP3    H127357   4.543   4.664   0.420
 9131TIP3    H227358   4.663   4.587   0.370
 9132TIP3   OH227359   5.421   1.969   2.480
 9132TIP3    H127360   5.428   1.909   2.406
 9132TIP3    H227361   5.476   2.044   2.456
 9133TIP3   OH227362   2.869   4.025   1.863
 9133TIP3    H127363   2.809   3.967   1.909
 9133TIP3    H227364   2.891   3.978   1.783
 9134TIP3   OH227365   1.665   2.855   2.845
 9134TIP3    H127366   1.742   2.890   2.800
 9134TIP3    H227367   1.673   2.760   2.837
 9135TIP3   OH227368   4.771   5.936   3.691
 9135TIP3    H127369   4.699   5.873   3.686
 9135TIP3    H227370   4.840   5.899   3.636
 9136TIP3   OH227371   5.471   2.885   0.535
 9136TIP3    H127372   5.551   2.934   0.518
 9136TIP3    H227373   5.425   2.883   0.450
 9137TIP3   OH227374   3.378   2.652   4.631
 9137TIP3    H127375   3.397   2.574   4.684
 9137TIP3    H227376   3.408   2.628   4.544
 9138TIP3   OH227377   2.939   2.092   5.767
 9138TIP3    H127378   3.019   2.048   5.797
 9138TIP3    H227379   2.971   2.170   5.722
 9139TIP3   OH227380   6.194   2.730   5.518
 9139TIP3    H127381   6.184   2.820   5.550
 9139TIP3    H227382   6.104   2.699   5.508
 9140TIP3   OH227383   4.435   5.711   5.346
 9140TIP3    H127384   4.449   5.712   5.252
 9140TIP3    H227385   4.361   5.769   5.361
 9141TIP3   OH227386   4.601   2.711   2.181
 9141TIP3    H127387   4.690   2.711   2.147
 9141TIP3    H227388   4.585   2.802   2.208
 9142TIP3   OH227389   2.800   2.444   1.703
 9142TIP3    H127390   2.841   2.362   1.673
 9142TIP3    H227391   2.866   2.511   1.684
 9143TIP3   OH227392   1.882   6.011   5.076
 9143TIP3    H127393   1.868   6.040   4.986
 9143TIP3    H227394   1.803   5.961   5.098
 9144TIP3   OH227395   4.377   5.470   2.051
 9144TIP3    H127396   4.452   5.414   2.028
 9144TIP3    H227397   4.303   5.431   2.004
 9145TIP3   OH227398   2.315   4.761   3.288
 9145TIP3    H127399   2.350   4.711   3.214
 9145TIP3    H227400   2.372   4.838   3.294
 9146TIP3   OH227401   1.036   4.125   5.371
 9146TIP3    H127402   1.070   4.039   5.346
 9146TIP3    H227403   1.058   4.182   5.297
 9147TIP3   OH227404   2.246   2.598   2.171
 9147TIP3    H127405   2.290   2.635   2.095
 9147TIP3    H227406   2.307   2.531   2.203
 9148TIP3   OH227407   3.946   4.009   5.067
 9148TIP3    H127408   3.945   3.922   5.027
 9148TIP3    H227409   3.955   3.992   5.161
 9149TIP3   OH227410   6.439   5.720   3.863
 9149TIP3    H127411   6.454   5.628   3.884
 9149TIP3    H227412   6.507   5.767   3.912
 9150TIP3   OH227413   1.162   6.618   0.378
 9150TIP3    H127414   1.253   6.623   0.348
 9150TIP3    H227415   1.146   6.525   0.391
 9151TIP3   OH227416   0.938   4.449   0.587
 9151TIP3    H127417   0.860   4.393   0.595
 9151TIP3    H227418   0.937   4.502   0.667
 9152TIP3   OH227419   3.022   0.053   3.653
 9152TIP3    H127420   2.931   0.021   3.650
 9152TIP3    H227421   3.059   0.011   3.731
 9153TIP3   OH227422   1.040   2.545   2.294
 9153TIP3    H127423   1.032   2.506   2.207
 9153TIP3    H227424   1.090   2.625   2.280
 9154TIP3   OH227425   5.592   0.112   0.622
 9154TIP3    H127426   5.535   0.036   0.610
 9154TIP3    H227427   5.679   0.081   0.598
 9155TIP3   OH227428   4.067   0.302   3.986
 9155TIP3    H127429   4.079   0.379   4.041
 9155TIP3    H227430   4.041   0.233   4.047
 9156TIP3   OH227431   1.975   6.483   3.609
 9156TIP3    H127432   1.910   6.553   3.604
 9156TIP3    H227433   2.057   6.526   3.587
 9157TIP3   OH227434   4.132   1.653   5.829
 9157TIP3    H127435   4.199   1.668   5.896
 9157TIP3    H227436   4.083   1.735   5.826
 9158TIP3   OH227437   4.200   4.875   3.910
 9158TIP3    H127438   4.266   4.822   3.955
 9158TIP3    H227439   4.172   4.821   3.836
 9159TIP3   OH227440   5.675   2.046   0.847
 9159TIP3    H127441   5.627   2.115   0.892
 9159TIP3    H227442   5.713   2.089   0.771
 9160TIP3   OH227443   0.041   4.540   0.570
 9160TIP3    H127444   0.006   4.545   0.659
 9160TIP3    H227445  -0.034   4.516   0.516
 9161TIP3   OH227446   5.521   6.665   5.346
 9161TIP3    H127447   5.578   6.697   5.276
 9161TIP3    H227448   5.533   6.570   5.344
 9162TIP3   OH227449   0.247   2.191   0.642
 9162TIP3    H127450   0.190   2.190   0.565
 9162TIP3    H227451   0.191   2.218   0.714
 9163TIP3   OH227452   3.381   0.692   4.337
 9163TIP3    H127453   3.409   0.629   4.271
 9163TIP3    H227454   3.381   0.776   4.291
 9164TIP3   OH227455   6.172   6.319  -0.022
 9164TIP3    H127456   6.199   6.386   0.041
 9164TIP3    H227457   6.229   6.245  -0.004
 9165TIP3   OH227458   3.181   0.189   1.850
 9165TIP3    H127459   3.241   0.130   1.804
 9165TIP3    H227460   3.205   0.181   1.942
 9166TIP3   OH227461   2.855   2.003   2.482
 9166TIP3    H127462   2.774   2.003   2.431
 9166TIP3    H227463   2.898   2.086   2.458
 9167TIP3   OH227464   6.106   1.048   5.440
 9167TIP3    H127465   6.145   0.961   5.444
 9167TIP3    H227466   6.012   1.032   5.439
 9168TIP3   OH227467   6.131   2.979   0.236
 9168TIP3    H127468   6.086   3.057   0.205
 9168TIP3    H227469   6.222   2.992   0.210
 9169TIP3   OH227470   4.732   3.478   3.859
 9169TIP3    H127471   4.730   3.482   3.955
 9169TIP3    H227472   4.780   3.397   3.840
 9170TIP3   OH227473   3.716   1.328   2.992
 9170TIP3    H127474   3.639   1.291   2.948
 9170TIP3    H227475   3.704   1.423   2.987
 9171TIP3   OH227476   1.986   4.766   2.744
 9171TIP3    H127477   1.930   4.744   2.669
 9171TIP3    H227478   2.044   4.835   2.711
 9172TIP3   OH227479   0.906   3.711   0.493
 9172TIP3    H127480   0.841   3.766   0.451
 9172TIP3    H227481   0.855   3.646   0.542
 9173TIP3   OH227482   6.906   4.805   4.487
 9173TIP3    H127483   6.861   4.750   4.422
 9173TIP3    H227484   6.874   4.893   4.469
 9174TIP3   OH227485   0.585   5.808   4.918
 9174TIP3    H127486   0.581   5.864   4.996
 9174TIP3    H227487   0.514   5.745   4.930
 9175TIP3   OH227488   6.266   5.119   1.141
 9175TIP3    H127489   6.215   5.181   1.194
 9175TIP3    H227490   6.204   5.084   1.078
 9176TIP3   OH227491   4.235   3.599   0.306
 9176TIP3    H127492   4.213   3.657   0.379
 9176TIP3    H227493   4.183   3.521   0.320
 9177TIP3   OH227494   1.337   3.956   4.145
 9177TIP3    H127495   1.319   4.048   4.124
 9177TIP3    H227496   1.347   3.914   4.060
 9178TIP3   OH227497   0.965   3.119   0.409
 9178TIP3    H127498   0.890   3.114   0.349
 9178TIP3    H227499   1.015   3.195   0.379
 9179TIP3   OH227500   6.210   6.109   0.895
 9179TIP3    H127501   6.131   6.068   0.931
 9179TIP3    H227502   6.177   6.182   0.842
 9180TIP3   OH227503   4.529   0.957   3.725
 9180TIP3    H127504   4.513   0.989   3.637
 9180TIP3    H227505   4.552   0.864   3.713
 9181TIP3   OH227506   0.292   2.954   1.727
 9181TIP3    H127507   0.272   2.915   1.642
 9181TIP3    H227508   0.206   2.966   1.768
 9182TIP3   OH227509   6.325   6.680   2.068
 9182TIP3    H127510   6.279   6.640   1.994
 9182TIP3    H227511   6.418   6.669   2.046
 9183TIP3   OH227512   7.140   1.886   0.039
 9183TIP3    H127513   7.186   1.922  -0.037
 9183TIP3    H227514   7.079   1.955   0.065
 9184TIP3   OH227515   2.288   4.788   1.769
 9184TIP3    H127516   2.322   4.874   1.792
 9184TIP3    H227517   2.364   4.739   1.738
 9185TIP3   OH227518   0.921   1.945   1.163
 9185TIP3    H127519   0.879   1.906   1.239
 9185TIP3    H227520   0.962   2.025   1.196
 9186TIP3   OH227521   2.899   3.646   2.831
 9186TIP3    H127522   2.955   3.698   2.889
 9186TIP3    H227523   2.890   3.562   2.875
 9187TIP3   OH227524   1.243   0.302   1.697
 9187TIP3    H127525   1.195   0.372   1.653
 9187TIP3    H227526   1.175   0.242   1.728
 9188TIP3   OH227527   0.585   1.404   1.625
 9188TIP3    H127528   0.528   1.450   1.686
 9188TIP3    H227529   0.527   1.343   1.580
 9189TIP3   OH227530   0.028   3.284   3.466
 9189TIP3    H127531   0.072   3.368   3.450
 9189TIP3    H227532  -0.041   3.305   3.529
 9190TIP3   OH227533   2.691   3.612   5.841
 9190TIP3    H127534   2.626   3.543   5.828
 9190TIP3    H227535   2.656   3.666   5.912
 9191TIP3   OH227536   3.946   0.481   4.787
 9191TIP3    H127537   3.890   0.508   4.860
 9191TIP3    H227538   3.895   0.504   4.709
 9192TIP3   OH227539   4.433   4.269   1.998
 9192TIP3    H127540   4.431   4.181   1.961
 9192TIP3    H227541   4.424   4.327   1.922
 9193TIP3   OH227542   3.331   5.109   3.461
 9193TIP3    H127543   3.282   5.095   3.542
 9193TIP3    H227544   3.283   5.057   3.396
 9194TIP3   OH227545   4.936   2.308   3.610
 9194TIP3    H127546   4.962   2.308   3.703
 9194TIP3    H227547   4.891   2.391   3.597
 9195TIP3   OH227548   6.237   1.293   2.318
 9195TIP3    H127549   6.178   1.297   2.243
 9195TIP3    H227550   6.194   1.233   2.379
 9196TIP3   OH227551   0.210   6.005   2.779
 9196TIP3    H127552   0.272   6.030   2.847
 9196TIP3    H227553   0.241   5.920   2.748
 9197TIP3   OH227554   4.248   1.157   2.861
 9197TIP3    H127555   4.170   1.210   2.878
 9197TIP3    H227556   4.242   1.135   2.768
 9198TIP3   OH227557   6.916   6.180   5.268
 9198TIP3    H127558   6.954   6.220   5.189
 9198TIP3    H227559   6.840   6.133   5.236
 9199TIP3   OH227560   3.351   5.836   4.750
 9199TIP3    H127561   3.397   5.757   4.779
 9199TIP3    H227562   3.299   5.862   4.826
 9200TIP3   OH227563   5.229   3.018   0.586
 9200TIP3    H127564   5.304   2.958   0.579
 9200TIP3    H227565   5.190   2.998   0.672
 9201TIP3   OH227566   6.757   5.511   3.333
 9201TIP3    H127567   6.811   5.583   3.300
 9201TIP3    H227568   6.802   5.432   3.304
 9202TIP3   OH227569   3.749   3.835   5.735
 9202TIP3    H127570   3.736   3.809   5.826
 9202TIP3    H227571   3.718   3.926   5.732
 9203TIP3   OH227572   5.789   4.448   0.624
 9203TIP3    H127573   5.859   4.513   0.613
 9203TIP3    H227574   5.750   4.440   0.537
 9204TIP3   OH227575   0.242   2.759   0.354
 9204TIP3    H127576   0.273   2.838   0.311
 9204TIP3    H227577   0.214   2.702   0.282
 9205TIP3   OH227578   5.423   4.976   4.889
 9205TIP3    H127579   5.495   4.919   4.863
 9205TIP3    H227580   5.365   4.978   4.813
 9206TIP3   OH227581   1.091   3.328   4.357
 9206TIP3    H127582   1.186   3.327   4.342
 9206TIP3    H227583   1.064   3.237   4.346
 9207TIP3   OH227584   0.735   4.089   4.575
 9207TIP3    H127585   0.755   4.003   4.612
 9207TIP3    H227586   0.641   4.101   4.593
 9208TIP3   OH227587   0.115   6.344   5.828
 9208TIP3    H127588   0.146   6.285   5.760
 9208TIP3    H227589   0.137   6.432   5.796
 9209TIP3   OH227590   1.989   3.295   4.522
 9209TIP3    H127591   1.913   3.331   4.476
 9209TIP3    H227592   2.056   3.289   4.454
 9210TIP3   OH227593   4.250   4.389   5.790
 9210TIP3    H127594   4.328   4.341   5.761
 9210TIP3    H227595   4.270   4.413   5.881
 9211TIP3   OH227596   6.404   3.551   3.712
 9211TIP3    H127597   6.330   3.605   3.685
 9211TIP3    H227598   6.374   3.461   3.699
 9212TIP3   OH227599   2.554   1.939   0.149
 9212TIP3    H127600   2.635   1.978   0.182
 9212TIP3    H227601   2.517   1.892   0.223
 9213TIP3   OH227602   1.763   3.571   0.294
 9213TIP3    H127603   1.762   3.479   0.320
 9213TIP3    H227604   1.820   3.613   0.358
 9214TIP3   OH227605   1.611   2.489   2.558
 9214TIP3    H127606   1.666   2.415   2.534
 9214TIP3    H227607   1.578   2.523   2.475
 9215TIP3   OH227608   1.212   6.105   0.932
 9215TIP3    H127609   1.263   6.025   0.934
 9215TIP3    H227610   1.268   6.169   0.888
 9216TIP3   OH227611   1.784   4.629   0.751
 9216TIP3    H127612   1.877   4.626   0.773
 9216TIP3    H227613   1.741   4.663   0.830
 9217TIP3   OH227614   4.951   5.543   2.731
 9217TIP3    H127615   5.008   5.489   2.676
 9217TIP3    H227616   4.973   5.518   2.821
 9218TIP3   OH227617   4.041   0.462   0.033
 9218TIP3    H127618   4.044   0.402  -0.042
 9218TIP3    H227619   4.131   0.490   0.046
 9219TIP3   OH227620   1.041   3.798   2.955
 9219TIP3    H127621   1.085   3.751   2.884
 9219TIP3    H227622   1.041   3.890   2.927
 9220TIP3   OH227623   1.025   6.772   3.391
 9220TIP3    H127624   1.064   6.817   3.466
 9220TIP3    H227625   0.931   6.772   3.411
 9221TIP3   OH227626   1.712   2.684   3.480
 9221TIP3    H127627   1.772   2.716   3.547
 9221TIP3    H227628   1.659   2.761   3.458
 9222TIP3   OH227629   4.680   3.622   2.280
 9222TIP3    H127630   4.616   3.579   2.337
 9222TIP3    H227631   4.697   3.558   2.211
 9223TIP3   OH227632   2.742   2.760   2.082
 9223TIP3    H127633   2.685   2.749   2.158
 9223TIP3    H227634   2.782   2.847   2.093
 9224TIP3   OH227635   5.015   5.705   3.118
 9224TIP3    H127636   5.077   5.734   3.185
 9224TIP3    H227637   4.937   5.758   3.132
 9225TIP3   OH227638   2.450   6.552   5.215
 9225TIP3    H127639   2.413   6.484   5.272
 9225TIP3    H227640   2.437   6.634   5.263
 9226TIP3   OH227641   0.578   1.215   5.711
 9226TIP3    H127642   0.663   1.205   5.667
 9226TIP3    H227643   0.522   1.258   5.647
 9227TIP3   OH227644   6.499   4.083   4.493
 9227TIP3    H127645   6.551   4.039   4.426
 9227TIP3    H227646   6.409   4.076   4.462
 9228TIP3   OH227647   2.527   3.896   5.476
 9228TIP3    H127648   2.464   3.847   5.423
 9228TIP3    H227649   2.489   3.898   5.563
 9229TIP3   OH227650   5.029   5.743   3.911
 9229TIP3    H127651   5.125   5.751   3.908
 9229TIP3    H227652   5.005   5.708   3.826
 9230TIP3   OH227653   3.647   2.537   3.150
 9230TIP3    H127654   3.672   2.625   3.178
 9230TIP3    H227655   3.713   2.480   3.189
 9231TIP3   OH227656   6.090   1.333   2.100
 9231TIP3    H127657   6.045   1.250   2.084
 9231TIP3    H227658   6.174   1.324   2.054
 9232TIP3   OH227659   4.233   1.208   3.441
 9232TIP3    H127660   4.216   1.218   3.347
 9232TIP3    H227661   4.172   1.269   3.482
 9233TIP3   OH227662   0.254   4.435   3.146
 9233TIP3    H127663   0.251   4.383   3.066
 9233TIP3    H227664   0.287   4.521   3.118
 9234TIP3   OH227665   5.028   6.323   4.820
 9234TIP3    H127666   5.054   6.346   4.909
 9234TIP3    H227667   4.934   6.340   4.817
 9235TIP3   OH227668   5.875   2.822   1.060
 9235TIP3    H127669   5.842   2.910   1.077
 9235TIP3    H227670   5.841   2.799   0.974
 9236TIP3   OH227671   1.738   2.768   2.311
 9236TIP3    H127672   1.820   2.720   2.298
 9236TIP3    H227673   1.677   2.703   2.345
 9237TIP3   OH227674   2.277   5.149   4.042
 9237TIP3    H127675   2.333   5.075   4.066
 9237TIP3    H227676   2.216   5.112   3.977
 9238TIP3   OH227677   6.743   1.011   2.154
 9238TIP3    H127678   6.665   0.960   2.175
 9238TIP3    H227679   6.720   1.101   2.178
 9239TIP3   OH227680   5.656   3.444   4.071
 9239TIP3    H127681   5.705   3.499   4.009
 9239TIP3    H227682   5.564   3.456   4.047
 9240TIP3   OH227683  -0.045   1.084   4.198
 9240TIP3    H127684  -0.029   0.997   4.161
 9240TIP3    H227685   0.033   1.134   4.176
 9241TIP3   OH227686   2.230   0.374   1.865
 9241TIP3    H127687   2.285   0.399   1.939
 9241TIP3    H227688   2.164   0.315   1.902
 9242TIP3   OH227689   1.323   4.634   2.211
 9242TIP3    H127690   1.311   4.566   2.146
 9242TIP3    H227691   1.317   4.589   2.295
 9243TIP3   OH227692   2.674   0.311   5.858
 9243TIP3    H127693   2.677   0.366   5.936
 9243TIP3    H227694   2.581   0.303   5.838
 9244TIP3   OH227695   4.658   5.610   0.220
 9244TIP3    H127696   4.677   5.516   0.219
 9244TIP3    H227697   4.710   5.644   0.293
 9245TIP3   OH227698   4.077   3.664   5.112
 9245TIP3    H127699   4.052   3.666   5.204
 9245TIP3    H227700   4.166   3.699   5.110
 9246TIP3   OH227701   1.417   3.386   3.723
 9246TIP3    H127702   1.393   3.475   3.696
 9246TIP3    H227703   1.426   3.337   3.641
 9247TIP3   OH227704   1.678   2.725   3.204
 9247TIP3    H127705   1.771   2.704   3.213
 9247TIP3    H227706   1.633   2.641   3.211
 9248TIP3   OH227707   5.819   3.493   2.656
 9248TIP3    H127708   5.830   3.475   2.563
 9248TIP3    H227709   5.728   3.469   2.675
 9249TIP3   OH227710   5.201   3.488   5.349
 9249TIP3    H127711   5.220   3.567   5.298
 9249TIP3    H227712   5.109   3.468   5.330
 9250TIP3   OH227713   2.274   2.241   4.792
 9250TIP3    H127714   2.186   2.203   4.786
 9250TIP3    H227715   2.330   2.168   4.818
 9251TIP3   OH227716   3.387   3.491   3.609
 9251TIP3    H127717   3.350   3.577   3.588
 9251TIP3    H227718   3.481   3.506   3.616
 9252TIP3   OH227719   0.710   2.791   0.199
 9252TIP3    H127720   0.637   2.752   0.150
 9252TIP3    H227721   0.674   2.808   0.286
 9253TIP3   OH227722   1.632   3.438   2.416
 9253TIP3    H127723   1.648   3.477   2.502
 9253TIP3    H227724   1.689   3.487   2.357
 9254TIP3   OH227725   5.676   5.460   3.894
 9254TIP3    H127726   5.654   5.400   3.966
 9254TIP3    H227727   5.713   5.537   3.937
 9255TIP3   OH227728   5.320   2.624   4.904
 9255TIP3    H127729   5.236   2.624   4.951
 9255TIP3    H227730   5.295   2.611   4.813
 9256TIP3   OH227731   4.205   4.830   1.976
 9256TIP3    H127732   4.254   4.887   2.034
 9256TIP3    H227733   4.174   4.759   2.032
 9257TIP3   OH227734   1.227   3.140   1.778
 9257TIP3    H127735   1.221   3.185   1.862
 9257TIP3    H227736   1.315   3.102   1.777
 9258TIP3   OH227737   0.271   4.342   4.984
 9258TIP3    H127738   0.205   4.357   4.916
 9258TIP3    H227739   0.225   4.292   5.052
 9259TIP3   OH227740   5.270   4.668   0.501
 9259TIP3    H127741   5.332   4.642   0.432
 9259TIP3    H227742   5.196   4.608   0.490
 9260TIP3   OH227743   4.551   0.115   4.417
 9260TIP3    H127744   4.591   0.142   4.499
 9260TIP3    H227745   4.556   0.193   4.361
 9261TIP3   OH227746   7.127   5.370   5.371
 9261TIP3    H127747   7.190   5.312   5.328
 9261TIP3    H227748   7.181   5.433   5.419
 9262TIP3   OH227749   5.617   5.342   3.000
 9262TIP3    H127750   5.671   5.327   2.922
 9262TIP3    H227751   5.541   5.285   2.988
 9263TIP3   OH227752   1.796   5.136   1.001
 9263TIP3    H127753   1.731   5.194   1.039
 9263TIP3    H227754   1.816   5.072   1.070
 9264TIP3   OH227755   5.867   6.232   4.349
 9264TIP3    H127756   5.844   6.231   4.256
 9264TIP3    H227757   5.866   6.324   4.374
 9265TIP3   OH227758   4.139   1.547   3.117
 9265TIP3    H127759   4.166   1.583   3.202
 9265TIP3    H227760   4.148   1.621   3.056
 9266TIP3   OH227761   4.379   0.103   2.793
 9266TIP3    H127762   4.415   0.043   2.728
 9266TIP3    H227763   4.431   0.183   2.782
 9267TIP3   OH227764   5.715   2.204   5.909
 9267TIP3    H127765   5.730   2.171   5.821
 9267TIP3    H227766   5.707   2.299   5.897
 9268TIP3   OH227767   2.707   0.911   0.764
 9268TIP3    H127768   2.800   0.902   0.787
 9268TIP3    H227769   2.669   0.959   0.838
 9269TIP3   OH227770   5.468   5.064   4.588
 9269TIP3    H127771   5.480   5.152   4.624
 9269TIP3    H227772   5.552   5.021   4.602
 9270TIP3   OH227773   6.650   1.746   2.914
 9270TIP3    H127774   6.636   1.751   3.009
 9270TIP3    H227775   6.744   1.732   2.904
 9271TIP3   OH227776   4.828   4.592   4.434
 9271TIP3    H127777   4.820   4.679   4.472
 9271TIP3    H227778   4.870   4.539   4.502
 9272TIP3   OH227779   0.379   0.217   1.292
 9272TIP3    H127780   0.408   0.262   1.212
 9272TIP3    H227781   0.453   0.227   1.352
 9273TIP3   OH227782   2.280   1.609   5.055
 9273TIP3    H127783   2.239   1.531   5.018
 9273TIP3    H227784   2.215   1.678   5.044
 9274TIP3   OH227785   0.613   5.237   4.276
 9274TIP3    H127786   0.562   5.312   4.244
 9274TIP3    H227787   0.588   5.165   4.218
 9275TIP3   OH227788   3.796   5.749   0.920
 9275TIP3    H127789   3.781   5.656   0.900
 9275TIP3    H227790   3.709   5.782   0.943
 9276TIP3   OH227791   5.913   1.848   4.092
 9276TIP3    H127792   5.931   1.811   4.178
 9276TIP3    H227793   5.818   1.861   4.091
 9277TIP3   OH227794   6.113   0.375   4.002
 9277TIP3    H127795   6.154   0.444   3.950
 9277TIP3    H227796   6.113   0.298   3.945
 9278TIP3   OH227797   4.555   2.694   4.590
 9278TIP3    H127798   4.499   2.692   4.667
 9278TIP3    H227799   4.590   2.783   4.588
 9279TIP3   OH227800   3.560   6.559   2.927
 9279TIP3    H127801   3.610   6.507   2.864
 9279TIP3    H227802   3.530   6.635   2.876
 9280TIP3   OH227803   4.477   6.334   4.903
 9280TIP3    H127804   4.431   6.362   4.824
 9280TIP3    H227805   4.434   6.252   4.929
 9281TIP3   OH227806   2.846   5.259   4.854
 9281TIP3    H127807   2.890   5.299   4.779
 9281TIP3    H227808   2.819   5.173   4.822
 9282TIP3   OH227809   3.059   5.763   0.161
 9282TIP3    H127810   3.012   5.686   0.130
 9282TIP3    H227811   3.112   5.730   0.234
 9283TIP3   OH227812   3.579   4.680   4.096
 9283TIP3    H127813   3.581   4.622   4.020
 9283TIP3    H227814   3.579   4.620   4.171
 9284TIP3   OH227815   3.211   5.266   5.377
 9284TIP3    H127816   3.185   5.174   5.376
 9284TIP3    H227817   3.157   5.307   5.310
 9285TIP3   OH227818   0.718   0.866   3.273
 9285TIP3    H127819   0.786   0.813   3.315
 9285TIP3    H227820   0.761   0.900   3.194
 9286TIP3   OH227821   3.969   5.876   4.922
 9286TIP3    H127822   3.881   5.852   4.891
 9286TIP3    H227823   3.959   5.884   5.017
 9287TIP3   OH227824   6.239   5.915   2.421
 9287TIP3    H127825   6.146   5.901   2.438
 9287TIP3    H227826   6.242   5.958   2.335
 9288TIP3   OH227827   6.316   4.670   3.929
 9288TIP3    H127828   6.320   4.764   3.907
 9288TIP3    H227829   6.342   4.626   3.848
 9289TIP3   OH227830   0.244   2.246   3.845
 9289TIP3    H127831   0.315   2.196   3.805
 9289TIP3    H227832   0.263   2.337   3.821
 9290TIP3   OH227833   6.217   5.246   3.778
 9290TIP3    H127834   6.176   5.189   3.713
 9290TIP3    H227835   6.308   5.216   3.782
 9291TIP3   OH227836   2.431   1.543   3.207
 9291TIP3    H127837   2.437   1.491   3.127
 9291TIP3    H227838   2.497   1.612   3.196
 9292TIP3   OH227839   3.129   0.708   4.038
 9292TIP3    H127840   3.065   0.637   4.048
 9292TIP3    H227841   3.103   0.754   3.959
 9293TIP3   OH227842   3.633   0.892   3.223
 9293TIP3    H127843   3.618   0.804   3.188
 9293TIP3    H227844   3.726   0.893   3.248
 9294TIP3   OH227845   1.512   6.748   5.043
 9294TIP3    H127846   1.435   6.708   5.083
 9294TIP3    H227847   1.548   6.679   4.987
 9295TIP3   OH227848   5.784   3.742   2.115
 9295TIP3    H127849   5.689   3.748   2.130
 9295TIP3    H227850   5.794   3.757   2.021
 9296TIP3   OH227851   1.168   0.927   2.162
 9296TIP3    H127852   1.115   0.924   2.082
 9296TIP3    H227853   1.123   0.869   2.223
 9297TIP3   OH227854   2.529   1.297   5.438
 9297TIP3    H127855   2.489   1.384   5.439
 9297TIP3    H227856   2.519   1.264   5.527
 9298TIP3   OH227857   6.542  -0.009   0.211
 9298TIP3    H127858   6.527  -0.096   0.175
 9298TIP3    H227859   6.490   0.049   0.156
 9299TIP3   OH227860   2.525   0.063   3.015
 9299TIP3    H127861   2.448   0.118   3.001
 9299TIP3    H227862   2.564   0.054   2.928
 9300TIP3   OH227863   6.651   1.671   2.016
 9300TIP3    H127864   6.657   1.707   1.927
 9300TIP3    H227865   6.564   1.633   2.022
 9301TIP3   OH227866   1.008   1.159   1.786
 9301TIP3    H127867   1.051   1.223   1.729
 9301TIP3    H227868   0.917   1.189   1.790
 9302TIP3   OH227869   7.137   2.622   5.126
 9302TIP3    H127870   7.114   2.668   5.207
 9302TIP3    H227871   7.053   2.610   5.081
 9303TIP3   OH227872   5.691   4.064   5.252
 9303TIP3    H127873   5.784   4.074   5.228
 9303TIP3    H227874   5.660   4.154   5.261
 9304TIP3   OH227875   1.479   4.494   1.917
 9304TIP3    H127876   1.439   4.408   1.906
 9304TIP3    H227877   1.531   4.487   1.997
 9305TIP3   OH227878   3.838   0.618   3.484
 9305TIP3    H127879   3.848   0.624   3.389
 9305TIP3    H227880   3.899   0.549   3.510
 9306TIP3   OH227881   5.507   4.659   3.884
 9306TIP3    H127882   5.535   4.582   3.835
 9306TIP3    H227883   5.579   4.676   3.945
 9307TIP3   OH227884   2.776   4.261   3.490
 9307TIP3    H127885   2.856   4.312   3.504
 9307TIP3    H227886   2.808   4.176   3.459
 9308TIP3   OH227887   6.673   3.463   4.361
 9308TIP3    H127888   6.627   3.501   4.286
 9308TIP3    H227889   6.723   3.390   4.324
 9309TIP3   OH227890   5.222   1.417   0.552
 9309TIP3    H127891   5.230   1.368   0.633
 9309TIP3    H227892   5.255   1.357   0.484
 9310TIP3   OH227893   3.672   2.707   5.712
 9310TIP3    H127894   3.690   2.796   5.741
 9310TIP3    H227895   3.579   2.707   5.689
 9311TIP3   OH227896   5.559   3.198   5.295
 9311TIP3    H127897   5.535   3.252   5.219
 9311TIP3    H227898   5.647   3.166   5.274
 9312TIP3   OH227899   5.368   2.254   5.789
 9312TIP3    H127900   5.437   2.306   5.747
 9312TIP3    H227901   5.298   2.249   5.724
 9313TIP3   OH227902   4.663   4.202   2.510
 9313TIP3    H127903   4.674   4.115   2.549
 9313TIP3    H227904   4.569   4.220   2.518
 9314TIP3   OH227905   1.400   6.661   0.239
 9314TIP3    H127906   1.351   6.695   0.165
 9314TIP3    H227907   1.483   6.709   0.238
 9315TIP3   OH227908   4.702   6.123   3.270
 9315TIP3    H127909   4.765   6.150   3.204
 9315TIP3    H227910   4.690   6.201   3.324
 9316TIP3   OH227911   4.809   3.445   0.050
 9316TIP3    H127912   4.747   3.485   0.111
 9316TIP3    H227913   4.832   3.361   0.090
 9317TIP3   OH227914   1.310   2.110   0.319
 9317TIP3    H127915   1.336   2.113   0.227
 9317TIP3    H227916   1.393   2.114   0.368
 9318TIP3   OH227917   4.140   4.985   3.558
 9318TIP3    H127918   4.165   4.914   3.617
 9318TIP3    H227919   4.096   5.048   3.615
 9319TIP3   OH227920   2.424   4.136   3.847
 9319TIP3    H127921   2.461   4.205   3.902
 9319TIP3    H227922   2.433   4.170   3.758
 9320TIP3   OH227923   3.880   6.777   2.322
 9320TIP3    H127924   3.921   6.717   2.385
 9320TIP3    H227925   3.858   6.721   2.247
 9321TIP3   OH227926   7.032   2.558   1.961
 9321TIP3    H127927   7.050   2.469   1.992
 9321TIP3    H227928   7.013   2.548   1.868
 9322TIP3   OH227929   4.654   5.300   4.030
 9322TIP3    H127930   4.728   5.283   4.089
 9322TIP3    H227931   4.693   5.345   3.955
 9323TIP3   OH227932   3.698   3.930   1.253
 9323TIP3    H127933   3.785   3.908   1.219
 9323TIP3    H227934   3.649   3.848   1.250
 9324TIP3   OH227935   6.113   1.053   0.288
 9324TIP3    H127936   6.145   1.039   0.378
 9324TIP3    H227937   6.018   1.046   0.295
 9325TIP3   OH227938   7.008   3.745   4.970
 9325TIP3    H127939   7.035   3.689   4.897
 9325TIP3    H227940   6.924   3.708   4.998
 9326TIP3   OH227941   4.208   2.578   0.768
 9326TIP3    H127942   4.215   2.638   0.693
 9326TIP3    H227943   4.262   2.617   0.836
 9327TIP3   OH227944   2.202   2.122   4.023
 9327TIP3    H127945   2.226   2.058   4.089
 9327TIP3    H227946   2.206   2.206   4.068
 9328TIP3   OH227947   6.565   2.856   5.675
 9328TIP3    H127948   6.540   2.770   5.708
 9328TIP3    H227949   6.570   2.846   5.580
 9329TIP3   OH227950   1.208   6.311   0.564
 9329TIP3    H127951   1.190   6.229   0.611
 9329TIP3    H227952   1.303   6.312   0.553
 9330TIP3   OH227953   3.426   2.276   0.777
 9330TIP3    H127954   3.489   2.206   0.795
 9330TIP3    H227955   3.479   2.355   0.775
 9331TIP3   OH227956   4.323   6.683   0.931
 9331TIP3    H127957   4.367   6.698   0.847
 9331TIP3    H227958   4.386   6.716   0.996
 9332TIP3   OH227959   2.056   5.176   5.447
 9332TIP3    H127960   1.997   5.106   5.473
 9332TIP3    H227961   2.071   5.162   5.354
 9333TIP3   OH227962   3.718   5.065   0.538
 9333TIP3    H127963   3.757   4.999   0.595
 9333TIP3    H227964   3.697   5.138   0.597
 9334TIP3   OH227965   2.345   1.047   4.642
 9334TIP3    H127966   2.327   0.976   4.580
 9334TIP3    H227967   2.269   1.104   4.637
 9335TIP3   OH227968   1.675   1.317   5.578
 9335TIP3    H127969   1.759   1.306   5.534
 9335TIP3    H227970   1.660   1.234   5.623
 9336TIP3   OH227971   0.680   5.370   0.100
 9336TIP3    H127972   0.676   5.464   0.085
 9336TIP3    H227973   0.662   5.331   0.015
 9337TIP3   OH227974   2.724   3.303   4.118
 9337TIP3    H127975   2.714   3.219   4.073
 9337TIP3    H227976   2.728   3.280   4.211
 9338TIP3   OH227977   0.955   6.728   2.927
 9338TIP3    H127978   0.886   6.752   2.865
 9338TIP3    H227979   0.907   6.692   3.002
 9339TIP3   OH227980   7.155   6.493   4.990
 9339TIP3    H127981   7.194   6.561   5.046
 9339TIP3    H227982   7.229   6.450   4.948
 9340TIP3   OH227983   0.613   5.647   0.370
 9340TIP3    H127984   0.609   5.687   0.284
 9340TIP3    H227985   0.659   5.564   0.356
 9341TIP3   OH227986   2.597   1.764   2.660
 9341TIP3    H127987   2.545   1.837   2.627
 9341TIP3    H227988   2.688   1.792   2.648
 9342TIP3   OH227989   6.109   1.559   0.646
 9342TIP3    H127990   6.195   1.564   0.604
 9342TIP3    H227991   6.104   1.637   0.701
 9343TIP3   OH227992   1.197   6.694   3.159
 9343TIP3    H127993   1.189   6.600   3.145
 9343TIP3    H227994   1.158   6.710   3.245
 9344TIP3   OH227995   4.051   3.090   4.510
 9344TIP3    H127996   3.958   3.096   4.488
 9344TIP3    H227997   4.064   2.998   4.533
 9345TIP3   OH227998   3.546   0.284   2.228
 9345TIP3    H127999   3.614   0.233   2.184
 9345TIP3    H228000   3.476   0.222   2.245
 9346TIP3   OH228001   2.516   3.586   3.062
 9346TIP3    H128002   2.525   3.547   2.976
 9346TIP3    H228003   2.576   3.537   3.118
 9347TIP3   OH228004   1.735   3.866   4.803
 9347TIP3    H128005   1.676   3.889   4.731
 9347TIP3    H228006   1.731   3.771   4.808
 9348TIP3   OH228007   0.309   6.088   4.912
 9348TIP3    H128008   0.218   6.067   4.890
 9348TIP3    H228009   0.361   6.042   4.847
 9349TIP3   OH228010   2.789   4.396   0.254
 9349TIP3    H128011   2.840   4.420   0.177
 9349TIP3    H228012   2.776   4.478   0.301
 9350TIP3   OH228013   2.286   0.565   2.527
 9350TIP3    H128014   2.313   0.477   2.503
 9350TIP3    H228015   2.228   0.554   2.602
 9351TIP3   OH228016   3.988   4.208   0.598
 9351TIP3    H128017   3.907   4.250   0.627
 9351TIP3    H228018   4.023   4.267   0.531
 9352TIP3   OH228019   0.667   0.075   1.818
 9352TIP3    H128020   0.623   0.009   1.765
 9352TIP3    H228021   0.759   0.073   1.789
 9353TIP3   OH228022   2.412   3.560   4.552
 9353TIP3    H128023   2.417   3.489   4.487
 9353TIP3    H228024   2.491   3.612   4.536
 9354TIP3   OH228025   6.450   5.172   4.781
 9354TIP3    H128026   6.474   5.168   4.689
 9354TIP3    H228027   6.529   5.202   4.826
 9355TIP3   OH228028   5.960   4.634   1.154
 9355TIP3    H128029   5.887   4.664   1.209
 9355TIP3    H228030   6.032   4.693   1.176
 9356TIP3   OH228031   4.559   0.470   5.562
 9356TIP3    H128032   4.489   0.535   5.551
 9356TIP3    H228033   4.603   0.468   5.477
 9357TIP3   OH228034   4.582   1.784   4.671
 9357TIP3    H128035   4.654   1.843   4.694
 9357TIP3    H228036   4.603   1.754   4.583
 9358TIP3   OH228037   2.436   3.726   0.080
 9358TIP3    H128038   2.469   3.800   0.131
 9358TIP3    H228039   2.376   3.765   0.017
 9359TIP3   OH228040   3.833   2.692   4.728
 9359TIP3    H128041   3.783   2.773   4.719
 9359TIP3    H228042   3.809   2.659   4.814
 9360TIP3   OH228043   4.180   0.204   4.595
 9360TIP3    H128044   4.227   0.224   4.676
 9360TIP3    H228045   4.111   0.144   4.621
 9361TIP3   OH228046   4.530   5.102   3.101
 9361TIP3    H128047   4.503   5.025   3.051
 9361TIP3    H228048   4.470   5.105   3.175
 9362TIP3   OH228049   6.336   2.822   0.983
 9362TIP3    H128050   6.276   2.853   1.050
 9362TIP3    H228051   6.281   2.810   0.905
 9363TIP3   OH228052   5.353   2.832   3.186
 9363TIP3    H128053   5.362   2.927   3.188
 9363TIP3    H228054   5.436   2.799   3.220
 9364TIP3   OH228055   2.377   4.663   4.209
 9364TIP3    H128056   2.424   4.601   4.264
 9364TIP3    H228057   2.434   4.675   4.133
 9365TIP3   OH228058   1.142   0.248   2.395
 9365TIP3    H128059   1.099   0.190   2.333
 9365TIP3    H228060   1.194   0.308   2.341
 9366TIP3   OH228061   2.663   6.422   1.614
 9366TIP3    H128062   2.715   6.355   1.657
 9366TIP3    H228063   2.583   6.376   1.588
 9367TIP3   OH228064   3.747   1.397   2.095
 9367TIP3    H128065   3.816   1.463   2.098
 9367TIP3    H228066   3.772   1.334   2.164
 9368TIP3   OH228067   3.958   3.251   5.540
 9368TIP3    H128068   3.895   3.290   5.601
 9368TIP3    H228069   4.042   3.287   5.566
 9369TIP3   OH228070   3.602   4.774   2.641
 9369TIP3    H128071   3.630   4.706   2.703
 9369TIP3    H228072   3.557   4.726   2.572
 9370TIP3   OH228073   0.187   6.516   5.405
 9370TIP3    H128074   0.271   6.563   5.412
 9370TIP3    H228075   0.204   6.431   5.445
 9371TIP3   OH228076   4.041   0.472   4.212
 9371TIP3    H128077   4.034   0.553   4.262
 9371TIP3    H228078   3.999   0.406   4.268
 9372TIP3   OH228079   3.586   1.515   5.842
 9372TIP3    H128080   3.590   1.434   5.893
 9372TIP3    H228081   3.499   1.515   5.802
 9373TIP3   OH228082   3.525   3.764   4.676
 9373TIP3    H128083   3.524   3.686   4.620
 9373TIP3    H228084   3.433   3.777   4.700
 9374TIP3   OH228085   1.788   0.676   3.498
 9374TIP3    H128086   1.805   0.582   3.491
 9374TIP3    H228087   1.705   0.688   3.451
 9375TIP3   OH228088   0.625   3.297   4.109
 9375TIP3    H128089   0.654   3.206   4.111
 9375TIP3    H228090   0.529   3.291   4.107
 9376TIP3   OH228091   1.330   3.357   0.847
 9376TIP3    H128092   1.334   3.312   0.931
 9376TIP3    H228093   1.385   3.435   0.858
 9377TIP3   OH228094   6.148   5.783   1.749
 9377TIP3    H128095   6.135   5.704   1.801
 9377TIP3    H228096   6.186   5.751   1.667
 9378TIP3   OH228097   2.498   1.046   3.408
 9378TIP3    H128098   2.590   1.056   3.432
 9378TIP3    H228099   2.469   0.969   3.458
 9379TIP3   OH228100   0.282   5.346   3.438
 9379TIP3    H128101   0.233   5.275   3.481
 9379TIP3    H228102   0.224   5.422   3.443
 9380TIP3   OH228103   4.781   2.060   5.248
 9380TIP3    H128104   4.819   2.095   5.167
 9380TIP3    H228105   4.760   1.969   5.227
 9381TIP3   OH228106   1.949   3.217   3.787
 9381TIP3    H128107   1.945   3.162   3.709
 9381TIP3    H228108   2.038   3.250   3.789
 9382TIP3   OH228109   3.322   0.907   4.149
 9382TIP3    H128110   3.236   0.866   4.142
 9382TIP3    H228111   3.325   0.969   4.076
 9383TIP3   OH228112   6.654   1.905   4.919
 9383TIP3    H128113   6.749   1.893   4.916
 9383TIP3    H228114   6.636   1.972   4.853
 9384TIP3   OH228115   1.831   6.664   3.178
 9384TIP3    H128116   1.870   6.746   3.148
 9384TIP3    H228117   1.745   6.663   3.137
 9385TIP3   OH228118   4.729   6.205   4.356
 9385TIP3    H128119   4.752   6.139   4.421
 9385TIP3    H228120   4.692   6.155   4.283
 9386TIP3   OH228121   2.123   1.707   1.986
 9386TIP3    H128122   2.181   1.669   2.052
 9386TIP3    H228123   2.166   1.687   1.902
 9387TIP3   OH228124   4.346   0.741   3.050
 9387TIP3    H128125   4.265   0.778   3.083
 9387TIP3    H228126   4.347   0.764   2.957
 9388TIP3   OH228127   7.078   2.392   1.529
 9388TIP3    H128128   7.122   2.472   1.499
 9388TIP3    H228129   6.986   2.418   1.540
 9389TIP3   OH228130   3.253   5.071   4.360
 9389TIP3    H128131   3.288   4.991   4.320
 9389TIP3    H228132   3.205   5.114   4.289
 9390TIP3   OH228133   5.287   2.776   1.106
 9390TIP3    H128134   5.371   2.786   1.150
 9390TIP3    H228135   5.247   2.700   1.148
 9391TIP3   OH228136   4.503   5.233   5.897
 9391TIP3    H128137   4.503   5.216   5.803
 9391TIP3    H228138   4.567   5.303   5.909
 9392TIP3   OH228139   6.656   3.140   4.363
 9392TIP3    H128140   6.695   3.192   4.434
 9392TIP3    H228141   6.564   3.165   4.362
 9393TIP3   OH228142   0.675   6.043   0.092
 9393TIP3    H128143   0.594   6.052   0.042
 9393TIP3    H228144   0.648   6.055   0.183
 9394TIP3   OH228145   7.173   2.321   2.036
 9394TIP3    H128146   7.152   2.267   1.959
 9394TIP3    H228147   7.194   2.258   2.104
 9395TIP3   OH228148   4.365   3.260   2.911
 9395TIP3    H128149   4.296   3.194   2.911
 9395TIP3    H228150   4.326   3.336   2.955
 9396TIP3   OH228151   1.313   1.906   4.905
 9396TIP3    H128152   1.235   1.959   4.921
 9396TIP3    H228153   1.282   1.815   4.905
 9397TIP3   OH228154   0.118   2.331   0.839
 9397TIP3    H128155   0.055   2.403   0.849
 9397TIP3    H228156   0.143   2.308   0.928
 9398TIP3   OH228157   2.552   4.523   0.528
 9398TIP3    H128158   2.462   4.499   0.506
 9398TIP3    H228159   2.548   4.618   0.541
 9399TIP3   OH228160   0.923   5.580   2.772
 9399TIP3    H128161   0.880   5.650   2.822
 9399TIP3    H228162   0.970   5.528   2.838
 9400TIP3   OH228163   6.358   4.900   4.647
 9400TIP3    H128164   6.308   4.973   4.684
 9400TIP3    H228165   6.300   4.863   4.581
 9401TIP3   OH228166   4.545   5.414   2.935
 9401TIP3    H128167   4.469   5.401   2.992
 9401TIP3    H228168   4.615   5.364   2.977
 9402TIP3   OH228169   3.169   0.092   1.565
 9402TIP3    H128170   3.254   0.060   1.595
 9402TIP3    H228171   3.181   0.112   1.472
 9403TIP3   OH228172   5.493   6.647   0.718
 9403TIP3    H128173   5.436   6.618   0.647
 9403TIP3    H228174   5.516   6.567   0.765
 9404TIP3   OH228175   0.056   0.724   3.293
 9404TIP3    H128176   0.117   0.688   3.229
 9404TIP3    H228177   0.110   0.786   3.344
 9405TIP3   OH228178   1.609   3.546   3.264
 9405TIP3    H128179   1.639   3.551   3.355
 9405TIP3    H228180   1.619   3.454   3.240
 9406TIP3   OH228181   6.733   5.649   1.820
 9406TIP3    H128182   6.786   5.596   1.880
 9406TIP3    H228183   6.680   5.704   1.878
 9407TIP3   OH228184   1.340   6.246   4.499
 9407TIP3    H128185   1.337   6.259   4.405
 9407TIP3    H228186   1.249   6.248   4.527
 9408TIP3   OH228187   6.813   4.811   4.027
 9408TIP3    H128188   6.835   4.730   4.074
 9408TIP3    H228189   6.778   4.780   3.943
 9409TIP3   OH228190   0.145   5.121   0.174
 9409TIP3    H128191   0.104   5.104   0.089
 9409TIP3    H228192   0.155   5.216   0.177
 9410TIP3   OH228193   4.311   0.285   3.644
 9410TIP3    H128194   4.333   0.374   3.671
 9410TIP3    H228195   4.394   0.248   3.614
 9411TIP3   OH228196   2.714   4.255   2.421
 9411TIP3    H128197   2.789   4.293   2.465
 9411TIP3    H228198   2.702   4.170   2.463
 9412TIP3   OH228199   0.402   4.697   3.115
 9412TIP3    H128200   0.356   4.768   3.159
 9412TIP3    H228201   0.412   4.727   3.024
 9413TIP3   OH228202   1.493   1.298   4.724
 9413TIP3    H128203   1.511   1.369   4.786
 9413TIP3    H228204   1.418   1.252   4.763
 9414TIP3   OH228205   5.181   1.330   5.863
 9414TIP3    H128206   5.266   1.360   5.895
 9414TIP3    H228207   5.147   1.404   5.813
 9415TIP3   OH228208   5.621   3.156   2.477
 9415TIP3    H128209   5.592   3.078   2.429
 9415TIP3    H228210   5.682   3.200   2.418
 9416TIP3   OH228211   1.702   1.394   3.544
 9416TIP3    H128212   1.677   1.302   3.536
 9416TIP3    H228213   1.633   1.432   3.599
 9417TIP3   OH228214   2.720   0.704   1.634
 9417TIP3    H128215   2.650   0.768   1.620
 9417TIP3    H228216   2.678   0.633   1.682
 9418TIP3   OH228217   3.803   4.863   0.691
 9418TIP3    H128218   3.852   4.792   0.650
 9418TIP3    H228219   3.757   4.821   0.764
 9419TIP3   OH228220   0.261   1.847   0.674
 9419TIP3    H128221   0.354   1.824   0.677
 9419TIP3    H228222   0.216   1.771   0.712
 9420TIP3   OH228223   6.607   6.086   1.324
 9420TIP3    H128224   6.638   6.088   1.234
 9420TIP3    H228225   6.630   6.172   1.359
 9421TIP3   OH228226   7.028   0.036   4.853
 9421TIP3    H128227   7.025  -0.059   4.838
 9421TIP3    H228228   6.984   0.074   4.777
 9422TIP3   OH228229   1.428   1.516   1.363
 9422TIP3    H128230   1.352   1.539   1.310
 9422TIP3    H228231   1.502   1.517   1.302
 9423TIP3   OH228232   3.929   3.504   3.859
 9423TIP3    H128233   3.977   3.583   3.883
 9423TIP3    H228234   3.845   3.512   3.904
 9424TIP3   OH228235   6.521   1.507   3.258
 9424TIP3    H128236   6.562   1.423   3.276
 9424TIP3    H228237   6.444   1.509   3.315
 9425TIP3   OH228238   0.962   5.883   5.066
 9425TIP3    H128239   1.045   5.837   5.053
 9425TIP3    H228240   0.898   5.813   5.077
 9426TIP3   OH228241   5.694   5.633   5.608
 9426TIP3    H128242   5.755   5.571   5.569
 9426TIP3    H228243   5.633   5.578   5.657
 9427TIP3   OH228244   6.361   4.140   1.986
 9427TIP3    H128245   6.267   4.144   2.000
 9427TIP3    H228246   6.399   4.149   2.073
 9428TIP3   OH228247   1.782   2.591   2.776
 9428TIP3    H128248   1.734   2.566   2.697
 9428TIP3    H228249   1.770   2.517   2.836
 9429TIP3   OH228250   3.419   6.253   1.767
 9429TIP3    H128251   3.484   6.318   1.792
 9429TIP3    H228252   3.337   6.284   1.805
 9430TIP3   OH228253   3.312   6.402   4.277
 9430TIP3    H128254   3.290   6.327   4.333
 9430TIP3    H228255   3.231   6.421   4.230
 9431TIP3   OH228256   6.206   5.178   5.436
 9431TIP3    H128257   6.153   5.227   5.374
 9431TIP3    H228258   6.152   5.172   5.515
 9432TIP3   OH228259   3.277   2.419   0.293
 9432TIP3    H128260   3.183   2.409   0.277
 9432TIP3    H228261   3.300   2.347   0.352
 9433TIP3   OH228262   4.643   3.897   4.967
 9433TIP3    H128263   4.588   3.862   4.897
 9433TIP3    H228264   4.721   3.931   4.923
 9434TIP3   OH228265   4.230   4.598   4.000
 9434TIP3    H128266   4.178   4.518   4.000
 9434TIP3    H228267   4.254   4.611   4.092
 9435TIP3   OH228268   5.026   6.637   2.609
 9435TIP3    H128269   4.980   6.690   2.674
 9435TIP3    H228270   4.958   6.610   2.548
 9436TIP3   OH228271   1.683   0.895   2.162
 9436TIP3    H128272   1.770   0.902   2.201
 9436TIP3    H228273   1.666   0.801   2.159
 9437TIP3   OH228274   5.768   5.955   1.780
 9437TIP3    H128275   5.748   5.864   1.803
 9437TIP3    H228276   5.720   6.007   1.843
 9438TIP3   OH228277   6.934   1.422   3.250
 9438TIP3    H128278   7.025   1.399   3.270
 9438TIP3    H228279   6.923   1.509   3.287
 9439TIP3   OH228280   5.498   0.056   3.012
 9439TIP3    H128281   5.576   0.072   3.066
 9439TIP3    H228282   5.529   0.064   2.922
 9440TIP3   OH228283   2.052   2.125   4.907
 9440TIP3    H128284   2.081   2.040   4.940
 9440TIP3    H228285   2.011   2.168   4.981
 9441TIP3   OH228286   0.861   6.306   2.197
 9441TIP3    H128287   0.838   6.308   2.104
 9441TIP3    H228288   0.821   6.385   2.233
 9442TIP3   OH228289   6.869   0.357   0.094
 9442TIP3    H128290   6.878   0.265   0.070
 9442TIP3    H228291   6.806   0.358   0.165
 9443TIP3   OH228292   3.524   5.867   0.947
 9443TIP3    H128293   3.498   5.796   1.006
 9443TIP3    H228294   3.459   5.866   0.877
 9444TIP3   OH228295   2.880   3.287   4.765
 9444TIP3    H128296   2.849   3.371   4.732
 9444TIP3    H228297   2.974   3.298   4.777
 9445TIP3   OH228298   5.038   4.113   3.215
 9445TIP3    H128299   5.102   4.135   3.283
 9445TIP3    H228300   5.029   4.018   3.221
 9446TIP3   OH228301   5.536   2.706   2.980
 9446TIP3    H128302   5.536   2.643   3.052
 9446TIP3    H228303   5.507   2.655   2.904
 9447TIP3   OH228304   0.452   5.979   1.755
 9447TIP3    H128305   0.374   6.024   1.790
 9447TIP3    H228306   0.524   6.039   1.774
 9448TIP3   OH228307   2.107   4.322   5.203
 9448TIP3    H128308   2.091   4.235   5.168
 9448TIP3    H228309   2.167   4.308   5.277
 9449TIP3   OH228310   3.826   1.765   5.575
 9449TIP3    H128311   3.762   1.715   5.524
 9449TIP3    H228312   3.806   1.744   5.666
 9450TIP3   OH228313   0.396   0.854   4.957
 9450TIP3    H128314   0.459   0.849   4.885
 9450TIP3    H228315   0.395   0.766   4.994
 9451TIP3   OH228316   5.204   1.932   2.689
 9451TIP3    H128317   5.175   1.858   2.636
 9451TIP3    H228318   5.296   1.943   2.667
 9452TIP3   OH228319   3.606   3.264   3.479
 9452TIP3    H128320   3.696   3.246   3.453
 9452TIP3    H228321   3.600   3.360   3.478
 9453TIP3   OH228322   5.581   1.779   3.572
 9453TIP3    H128323   5.540   1.823   3.497
 9453TIP3    H228324   5.515   1.783   3.641
 9454TIP3   OH228325   7.023   5.363   5.631
 9454TIP3    H128326   7.051   5.364   5.540
 9454TIP3    H228327   7.091   5.314   5.677
 9455TIP3   OH228328   1.994   4.370   1.237
 9455TIP3    H128329   1.918   4.319   1.264
 9455TIP3    H228330   1.967   4.411   1.154
 9456TIP3   OH228331   0.861   0.724   2.766
 9456TIP3    H128332   0.892   0.811   2.791
 9456TIP3    H228333   0.940   0.677   2.740
 9457TIP3   OH228334   6.922   2.037   1.105
 9457TIP3    H128335   7.016   2.033   1.089
 9457TIP3    H228336   6.906   1.967   1.170
 9458TIP3   OH228337   2.002   2.110   2.206
 9458TIP3    H128338   2.018   2.015   2.202
 9458TIP3    H228339   1.908   2.119   2.192
 9459TIP3   OH228340   4.087   6.047   5.591
 9459TIP3    H128341   4.045   5.966   5.564
 9459TIP3    H228342   4.044   6.070   5.673
 9460TIP3   OH228343   1.785   4.083   5.224
 9460TIP3    H128344   1.830   4.021   5.282
 9460TIP3    H228345   1.750   4.150   5.283
 9461TIP3   OH228346   5.802   4.466   1.424
 9461TIP3    H128347   5.796   4.371   1.426
 9461TIP3    H228348   5.871   4.488   1.486
 9462TIP3   OH228349   3.536   4.355   1.707
 9462TIP3    H128350   3.514   4.263   1.690
 9462TIP3    H228351   3.456   4.393   1.742
 9463TIP3   OH228352   3.802   3.048   5.431
 9463TIP3    H128353   3.825   3.132   5.471
 9463TIP3    H228354   3.721   3.022   5.474
 9464TIP3   OH228355   2.957   1.569   4.640
 9464TIP3    H128356   2.896   1.509   4.597
 9464TIP3    H228357   2.946   1.652   4.594
 9465TIP3   OH228358   0.968   1.410   2.439
 9465TIP3    H128359   1.030   1.343   2.410
 9465TIP3    H228360   1.013   1.493   2.423
 9466TIP3   OH228361   1.748   6.651   3.644
 9466TIP3    H128362   1.690   6.705   3.699
 9466TIP3    H228363   1.709   6.655   3.557
 9467TIP3   OH228364   3.211   1.051   3.596
 9467TIP3    H128365   3.156   1.110   3.646
 9467TIP3    H228366   3.230   0.978   3.656
 9468TIP3   OH228367   3.188   4.595   4.006
 9468TIP3    H128368   3.264   4.563   3.958
 9468TIP3    H228369   3.212   4.585   4.099
 9469TIP3   OH228370   0.100   6.032   0.916
 9469TIP3    H128371   0.184   6.069   0.944
 9469TIP3    H228372   0.040   6.107   0.915
 9470TIP3   OH228373   3.818   6.178   5.315
 9470TIP3    H128374   3.751   6.118   5.350
 9470TIP3    H228375   3.845   6.230   5.391
 9471TIP3   OH228376   1.236   0.252   3.455
 9471TIP3    H128377   1.194   0.168   3.476
 9471TIP3    H228378   1.163   0.313   3.448
 9472TIP3   OH228379   4.717   0.208   1.607
 9472TIP3    H128380   4.640   0.156   1.585
 9472TIP3    H228381   4.744   0.248   1.524
 9473TIP3   OH228382   0.047   3.149   2.704
 9473TIP3    H128383   0.028   3.104   2.786
 9473TIP3    H228384  -0.025   3.211   2.694
 9474TIP3   OH228385   4.050   4.532   3.057
 9474TIP3    H128386   4.019   4.595   3.122
 9474TIP3    H228387   4.124   4.575   3.016
 9475TIP3   OH228388   0.147   3.186   4.910
 9475TIP3    H128389   0.223   3.165   4.856
 9475TIP3    H228390   0.089   3.110   4.900
 9476TIP3   OH228391   3.240   6.000   1.170
 9476TIP3    H128392   3.335   5.998   1.183
 9476TIP3    H228393   3.205   6.031   1.253
 9477TIP3   OH228394   6.851   4.485   5.335
 9477TIP3    H128395   6.768   4.467   5.292
 9477TIP3    H228396   6.830   4.556   5.397
 9478TIP3   OH228397   2.284   6.103   0.995
 9478TIP3    H128398   2.375   6.073   0.988
 9478TIP3    H228399   2.232   6.024   0.984
 9479TIP3   OH228400   4.776   1.152   1.156
 9479TIP3    H128401   4.852   1.204   1.131
 9479TIP3    H228402   4.810   1.089   1.219
 9480TIP3   OH228403   3.133   5.995   3.652
 9480TIP3    H128404   3.055   6.034   3.613
 9480TIP3    H228405   3.188   5.971   3.577
 9481TIP3   OH228406   6.523   6.554   5.152
 9481TIP3    H128407   6.514   6.461   5.171
 9481TIP3    H228408   6.512   6.560   5.057
 9482TIP3   OH228409   0.361   5.335   4.728
 9482TIP3    H128410   0.293   5.299   4.671
 9482TIP3    H228411   0.443   5.303   4.691
 9483TIP3   OH228412   3.051   6.477   4.398
 9483TIP3    H128413   3.084   6.389   4.380
 9483TIP3    H228414   3.008   6.470   4.483
 9484TIP3   OH228415   6.257   4.676   1.190
 9484TIP3    H128416   6.319   4.697   1.120
 9484TIP3    H228417   6.255   4.580   1.192
 9485TIP3   OH228418   3.410   3.751   0.419
 9485TIP3    H128419   3.336   3.699   0.450
 9485TIP3    H228420   3.380   3.842   0.425
 9486TIP3   OH228421   0.152   4.473   4.532
 9486TIP3    H128422   0.143   4.393   4.480
 9486TIP3    H228423   0.142   4.443   4.623
 9487TIP3   OH228424   6.643   2.103   4.732
 9487TIP3    H128425   6.724   2.153   4.743
 9487TIP3    H228426   6.619   2.116   4.640
 9488TIP3   OH228427   2.867   5.068   1.663
 9488TIP3    H128428   2.883   5.158   1.636
 9488TIP3    H228429   2.837   5.076   1.754
 9489TIP3   OH228430   4.590   6.290   5.690
 9489TIP3    H128431   4.497   6.280   5.709
 9489TIP3    H228432   4.595   6.302   5.595
 9490TIP3   OH228433   6.032   3.925   0.739
 9490TIP3    H128434   6.110   3.898   0.787
 9490TIP3    H228435   6.033   3.871   0.660
 9491TIP3   OH228436   4.456   0.423   5.206
 9491TIP3    H128437   4.425   0.513   5.203
 9491TIP3    H228438   4.539   0.427   5.253
 9492TIP3   OH228439   2.909   1.030   5.694
 9492TIP3    H128440   2.913   1.040   5.599
 9492TIP3    H228441   2.985   0.976   5.716
 9493TIP3   OH228442   1.719   1.585   0.711
 9493TIP3    H128443   1.811   1.591   0.735
 9493TIP3    H228444   1.678   1.660   0.755
 9494TIP3   OH228445   2.434   2.925   4.462
 9494TIP3    H128446   2.417   2.875   4.382
 9494TIP3    H228447   2.399   3.013   4.443
 9495TIP3   OH228448   5.304   2.476   1.273
 9495TIP3    H128449   5.279   2.427   1.352
 9495TIP3    H228450   5.281   2.417   1.201
 9496TIP3   OH228451   3.907   6.076   0.855
 9496TIP3    H128452   3.961   5.997   0.869
 9496TIP3    H228453   3.882   6.103   0.943
 9497TIP3   OH228454   4.437   0.069   5.795
 9497TIP3    H128455   4.416   0.092   5.705
 9497TIP3    H228456   4.526   0.033   5.791
 9498TIP3   OH228457   0.215   6.228   5.607
 9498TIP3    H128458   0.197   6.238   5.513
 9498TIP3    H228459   0.202   6.134   5.623
 9499TIP3   OH228460   1.264   4.226   4.014
 9499TIP3    H128461   1.228   4.226   3.926
 9499TIP3    H228462   1.203   4.280   4.065
 9500TIP3   OH228463   1.042   6.512   5.141
 9500TIP3    H128464   1.047   6.419   5.118
 9500TIP3    H228465   0.971   6.547   5.086
 9501TIP3   OH228466   6.638   2.231   4.442
 9501TIP3    H128467   6.559   2.184   4.417
 9501TIP3    H228468   6.706   2.196   4.384
 9502TIP3   OH228469   3.105   0.518   2.710
 9502TIP3    H128470   3.010   0.526   2.718
 9502TIP3    H228471   3.119   0.433   2.668
 9503TIP3   OH228472   2.915   1.804   0.606
 9503TIP3    H128473   3.009   1.789   0.596
 9503TIP3    H228474   2.895   1.772   0.694
 9504TIP3   OH228475   1.844   3.987   0.876
 9504TIP3    H128476   1.920   4.045   0.882
 9504TIP3    H228477   1.839   3.964   0.783
 9505TIP3   OH228478   1.219   5.520   1.937
 9505TIP3    H128479   1.197   5.609   1.907
 9505TIP3    H228480   1.292   5.493   1.880
 9506TIP3   OH228481   0.557   1.066   5.114
 9506TIP3    H128482   0.502   1.025   5.048
 9506TIP3    H228483   0.545   1.012   5.192
 9507TIP3   OH228484   5.236   4.764   5.408
 9507TIP3    H128485   5.152   4.722   5.425
 9507TIP3    H228486   5.301   4.699   5.434
 9508TIP3   OH228487   1.149   1.080   3.914
 9508TIP3    H128488   1.136   1.097   4.007
 9508TIP3    H228489   1.198   0.998   3.912
 9509TIP3   OH228490   0.531   1.951   1.934
 9509TIP3    H128491   0.599   2.011   1.966
 9509TIP3    H228492   0.518   1.889   2.006
 9510TIP3   OH228493   1.253   1.404   3.271
 9510TIP3    H128494   1.348   1.417   3.268
 9510TIP3    H228495   1.228   1.389   3.180
 9511TIP3   OH228496   6.058   5.235   5.208
 9511TIP3    H128497   6.015   5.184   5.140
 9511TIP3    H228498   5.986   5.263   5.265
 9512TIP3   OH228499   6.997   1.904   1.764
 9512TIP3    H128500   7.054   1.840   1.807
 9512TIP3    H228501   6.941   1.852   1.706
 9513TIP3   OH228502   7.009   4.142   2.388
 9513TIP3    H128503   6.961   4.064   2.360
 9513TIP3    H228504   7.005   4.139   2.483
 9514TIP3   OH228505   0.911   0.913   0.519
 9514TIP3    H128506   0.871   0.998   0.502
 9514TIP3    H228507   0.838   0.852   0.528
 9515TIP3   OH228508   0.299   2.449   0.538
 9515TIP3    H128509   0.391   2.456   0.512
 9515TIP3    H228510   0.289   2.358   0.566
 9516TIP3   OH228511   5.710   1.186   2.238
 9516TIP3    H128512   5.724   1.230   2.154
 9516TIP3    H228513   5.625   1.218   2.268
 9517TIP3   OH228514   4.988   4.514   0.922
 9517TIP3    H128515   4.922   4.506   0.990
 9517TIP3    H228516   4.938   4.518   0.840
 9518TIP3   OH228517   6.556   6.737   3.495
 9518TIP3    H128518   6.552   6.649   3.534
 9518TIP3    H228519   6.475   6.743   3.443
 9519TIP3   OH228520   4.634   2.342   1.869
 9519TIP3    H128521   4.664   2.309   1.784
 9519TIP3    H228522   4.558   2.287   1.890
 9520TIP3   OH228523   3.192   5.090   4.655
 9520TIP3    H128524   3.271   5.074   4.706
 9520TIP3    H228525   3.223   5.112   4.567
 9521TIP3   OH228526   6.634   4.724   1.355
 9521TIP3    H128527   6.587   4.792   1.308
 9521TIP3    H228528   6.661   4.765   1.437
 9522TIP3   OH228529   1.337   2.808   4.633
 9522TIP3    H128530   1.423   2.768   4.615
 9522TIP3    H228531   1.358   2.894   4.668
 9523TIP3   OH228532   2.686   1.151   1.647
 9523TIP3    H128533   2.622   1.159   1.718
 9523TIP3    H228534   2.654   1.078   1.595
 9524TIP3   OH228535   4.325   5.579   1.293
 9524TIP3    H128536   4.344   5.660   1.340
 9524TIP3    H228537   4.406   5.529   1.297
 9525TIP3   OH228538   1.623   3.833   0.925
 9525TIP3    H128539   1.535   3.866   0.942
 9525TIP3    H228540   1.677   3.911   0.917
 9526TIP3   OH228541   6.614   6.104   4.925
 9526TIP3    H128542   6.575   6.086   4.840
 9526TIP3    H228543   6.682   6.169   4.906
 9527TIP3   OH228544   2.379   0.902   0.338
 9527TIP3    H128545   2.438   0.909   0.262
 9527TIP3    H228546   2.437   0.884   0.412
 9528TIP3   OH228547   5.117   2.912   2.273
 9528TIP3    H128548   5.096   2.972   2.201
 9528TIP3    H228549   5.165   2.967   2.336
 9529TIP3   OH228550   5.938   1.802   0.560
 9529TIP3    H128551   5.849   1.790   0.595
 9529TIP3    H228552   5.993   1.812   0.637
 9530TIP3   OH228553   1.450   5.037   4.030
 9530TIP3    H128554   1.491   5.119   4.003
 9530TIP3    H228555   1.436   5.046   4.124
 9531TIP3   OH228556   1.730   6.608   3.941
 9531TIP3    H128557   1.743   6.562   3.858
 9531TIP3    H228558   1.817   6.635   3.968
 9532TIP3   OH228559   6.068   5.547   0.776
 9532TIP3    H128560   6.066   5.642   0.766
 9532TIP3    H228561   6.060   5.533   0.870
 9533TIP3   OH228562   6.615   0.119   3.753
 9533TIP3    H128563   6.658   0.204   3.754
 9533TIP3    H228564   6.685   0.057   3.732
 9534TIP3   OH228565   3.204   5.861   2.259
 9534TIP3    H128566   3.123   5.907   2.236
 9534TIP3    H228567   3.179   5.769   2.265
 9535TIP3   OH228568   4.370   3.034   4.763
 9535TIP3    H128569   4.318   2.991   4.831
 9535TIP3    H228570   4.389   2.966   4.699
 9536TIP3   OH228571   3.672   1.782   4.917
 9536TIP3    H128572   3.608   1.829   4.971
 9536TIP3    H228573   3.689   1.701   4.964
 9537TIP3   OH228574   0.127   4.081   4.555
 9537TIP3    H128575   0.104   4.076   4.648
 9537TIP3    H228576   0.175   4.001   4.537
 9538TIP3   OH228577   3.139   2.977   1.032
 9538TIP3    H128578   3.105   2.887   1.037
 9538TIP3    H228579   3.229   2.966   1.001
 9539TIP3   OH228580   4.197   4.715   1.722
 9539TIP3    H128581   4.211   4.753   1.809
 9539TIP3    H228582   4.135   4.643   1.736
 9540TIP3   OH228583   1.524   6.318   2.515
 9540TIP3    H128584   1.535   6.413   2.504
 9540TIP3    H228585   1.518   6.284   2.426
 9541TIP3   OH228586   1.864   1.180   1.862
 9541TIP3    H128587   1.872   1.270   1.829
 9541TIP3    H228588   1.855   1.191   1.957
 9542TIP3   OH228589   5.407   6.791   4.518
 9542TIP3    H128590   5.369   6.704   4.503
 9542TIP3    H228591   5.348   6.852   4.474
 9543TIP3   OH228592   3.192   3.863   3.686
 9543TIP3    H128593   3.161   3.954   3.694
 9543TIP3    H228594   3.258   3.866   3.617
 9544TIP3   OH228595   1.642   4.152   5.889
 9544TIP3    H128596   1.664   4.098   5.812
 9544TIP3    H228597   1.547   4.147   5.895
 9545TIP3   OH228598   5.727   5.605   3.381
 9545TIP3    H128599   5.768   5.540   3.323
 9545TIP3    H228600   5.663   5.649   3.326
 9546TIP3   OH228601   5.282   1.265   4.875
 9546TIP3    H128602   5.314   1.317   4.801
 9546TIP3    H228603   5.201   1.225   4.843
 9547TIP3   OH228604   0.117   6.146   1.388
 9547TIP3    H128605   0.208   6.169   1.369
 9547TIP3    H228606   0.099   6.070   1.333
 9548TIP3   OH228607   2.392   1.136   0.546
 9548TIP3    H128608   2.435   1.142   0.460
 9548TIP3    H228609   2.394   1.042   0.567
 9549TIP3   OH228610   6.468   5.210   3.531
 9549TIP3    H128611   6.438   5.296   3.504
 9549TIP3    H228612   6.491   5.220   3.623
 9550TIP3   OH228613   3.415   0.730   5.157
 9550TIP3    H128614   3.416   0.695   5.068
 9550TIP3    H228615   3.365   0.811   5.151
 9551TIP3   OH228616   3.456   1.114   4.667
 9551TIP3    H128617   3.543   1.145   4.690
 9551TIP3    H228618   3.396   1.172   4.714
 9552TIP3   OH228619   3.213   0.379   4.100
 9552TIP3    H128620   3.264   0.439   4.045
 9552TIP3    H228621   3.127   0.420   4.107
 9553TIP3   OH228622   6.858   2.967   0.758
 9553TIP3    H128623   6.853   2.918   0.839
 9553TIP3    H228624   6.949   2.997   0.754
 9554TIP3   OH228625   7.067   0.805   1.308
 9554TIP3    H128626   7.117   0.843   1.381
 9554TIP3    H228627   7.032   0.880   1.261
 9555TIP3   OH228628   4.260   6.688   1.574
 9555TIP3    H128629   4.221   6.602   1.558
 9555TIP3    H228630   4.201   6.731   1.636
 9556TIP3   OH228631   6.010   2.593   0.200
 9556TIP3    H128632   6.095   2.558   0.171
 9556TIP3    H228633   5.948   2.523   0.179
 9557TIP3   OH228634   0.398   3.520   2.015
 9557TIP3    H128635   0.362   3.576   1.947
 9557TIP3    H228636   0.492   3.533   2.010
 9558TIP3   OH228637   2.960   1.614   1.083
 9558TIP3    H128638   2.887   1.555   1.064
 9558TIP3    H228639   3.000   1.579   1.162
 9559TIP3   OH228640   4.736   0.207   2.384
 9559TIP3    H128641   4.729   0.174   2.294
 9559TIP3    H228642   4.771   0.134   2.434
 9560TIP3   OH228643   4.170   0.978   1.196
 9560TIP3    H128644   4.104   0.950   1.259
 9560TIP3    H228645   4.157   1.072   1.186
 9561TIP3   OH228646   6.980   5.509   1.897
 9561TIP3    H128647   7.001   5.435   1.955
 9561TIP3    H228648   7.055   5.568   1.905
 9562TIP3   OH228649   2.367   2.480   0.148
 9562TIP3    H128650   2.391   2.566   0.116
 9562TIP3    H228651   2.356   2.427   0.069
 9563TIP3   OH228652   5.128   3.614   2.818
 9563TIP3    H128653   5.171   3.699   2.831
 9563TIP3    H228654   5.040   3.626   2.852
 9564TIP3   OH228655   2.104   6.042   0.136
 9564TIP3    H128656   2.057   6.084   0.064
 9564TIP3    H228657   2.158   6.111   0.174
 9565TIP3   OH228658   2.543   6.350   4.369
 9565TIP3    H128659   2.553   6.443   4.387
 9565TIP3    H228660   2.519   6.311   4.453
 9566TIP3   OH228661   2.683   3.958   5.825
 9566TIP3    H128662   2.594   3.951   5.792
 9566TIP3    H228663   2.676   3.943   5.919
 9567TIP3   OH228664   3.103   2.684   1.028
 9567TIP3    H128665   3.040   2.651   0.964
 9567TIP3    H228666   3.180   2.629   1.018
 9568TIP3   OH228667   0.115   1.232   5.433
 9568TIP3    H128668   0.201   1.231   5.391
 9568TIP3    H228669   0.114   1.153   5.486
 9569TIP3   OH228670   0.306   2.706   2.522
 9569TIP3    H128671   0.305   2.651   2.600
 9569TIP3    H228672   0.266   2.652   2.453
 9570TIP3   OH228673   0.729   4.330   5.770
 9570TIP3    H128674   0.789   4.277   5.719
 9570TIP3    H228675   0.742   4.302   5.861
 9571TIP3   OH228676   7.055   3.769   2.615
 9571TIP3    H128677   7.097   3.762   2.530
 9571TIP3    H228678   7.124   3.800   2.674
 9572TIP3   OH228679   3.775   3.139   2.705
 9572TIP3    H128680   3.741   3.060   2.664
 9572TIP3    H228681   3.810   3.191   2.633
 9573TIP3   OH228682   3.886   3.649   0.262
 9573TIP3    H128683   3.873   3.570   0.209
 9573TIP3    H228684   3.797   3.681   0.279
 9574TIP3   OH228685   6.387   0.849   0.919
 9574TIP3    H128686   6.476   0.849   0.954
 9574TIP3    H228687   6.338   0.794   0.980
 9575TIP3   OH228688   5.925   0.664   5.146
 9575TIP3    H128689   5.937   0.618   5.229
 9575TIP3    H228690   5.944   0.599   5.079
 9576TIP3   OH228691   4.420   6.553   2.402
 9576TIP3    H128692   4.421   6.483   2.467
 9576TIP3    H228693   4.330   6.587   2.404
 9577TIP3   OH228694   2.468   6.233   2.464
 9577TIP3    H128695   2.433   6.164   2.521
 9577TIP3    H228696   2.412   6.229   2.386
 9578TIP3   OH228697   6.055   0.607   3.069
 9578TIP3    H128698   6.021   0.688   3.029
 9578TIP3    H228699   6.117   0.638   3.135
 9579TIP3   OH228700   7.029   5.763   3.966
 9579TIP3    H128701   7.030   5.818   3.888
 9579TIP3    H228702   6.988   5.681   3.938
 9580TIP3   OH228703   1.863   0.354   5.230
 9580TIP3    H128704   1.935   0.397   5.276
 9580TIP3    H228705   1.894   0.344   5.140
 9581TIP3   OH228706   4.638   2.161   3.684
 9581TIP3    H128707   4.603   2.249   3.671
 9581TIP3    H228708   4.572   2.103   3.648
 9582TIP3   OH228709   0.314   3.807   5.781
 9582TIP3    H128710   0.265   3.781   5.703
 9582TIP3    H228711   0.247   3.832   5.844
 9583TIP3   OH228712   1.513   1.617   4.108
 9583TIP3    H128713   1.475   1.530   4.097
 9583TIP3    H228714   1.444   1.677   4.079
 9584TIP3   OH228715   2.029   2.793   3.545
 9584TIP3    H128716   1.942   2.800   3.583
 9584TIP3    H228717   2.067   2.715   3.585
 9585TIP3   OH228718   5.577   4.703   3.165
 9585TIP3    H128719   5.556   4.640   3.096
 9585TIP3    H228720   5.587   4.786   3.119
 9586TIP3   OH228721   1.177   6.447   5.791
 9586TIP3    H128722   1.094   6.434   5.745
 9586TIP3    H228723   1.175   6.384   5.863
 9587TIP3   OH228724   4.387   1.487   5.739
 9587TIP3    H128725   4.340   1.453   5.663
 9587TIP3    H228726   4.321   1.534   5.789
 9588TIP3   OH228727   3.826   5.087   5.295
 9588TIP3    H128728   3.734   5.112   5.282
 9588TIP3    H228729   3.823   5.015   5.358
 9589TIP3   OH228730   0.364   5.430   5.379
 9589TIP3    H128731   0.315   5.358   5.338
 9589TIP3    H228732   0.300   5.501   5.387
 9590TIP3   OH228733   4.235   3.796   4.435
 9590TIP3    H128734   4.324   3.831   4.429
 9590TIP3    H228735   4.214   3.770   4.345
 9591TIP3   OH228736   5.553   2.991   1.420
 9591TIP3    H128737   5.625   2.989   1.483
 9591TIP3    H228738   5.515   3.078   1.431
 9592TIP3   OH228739   0.716   4.144   3.919
 9592TIP3    H128740   0.799   4.178   3.885
 9592TIP3    H228741   0.718   4.051   3.900
 9593TIP3   OH228742   0.666   3.530   3.622
 9593TIP3    H128743   0.724   3.520   3.547
 9593TIP3    H228744   0.606   3.455   3.616
 9594TIP3   OH228745   3.681   4.593   2.836
 9594TIP3    H128746   3.621   4.541   2.782
 9594TIP3    H228747   3.768   4.558   2.816
 9595TIP3   OH228748   4.470   5.786   1.456
 9595TIP3    H128749   4.563   5.786   1.432
 9595TIP3    H228750   4.430   5.846   1.393
 9596TIP3   OH228751   1.967   5.362   1.209
 9596TIP3    H128752   1.899   5.330   1.150
 9596TIP3    H228753   1.920   5.393   1.286
 9597TIP3   OH228754   5.743   6.723   5.189
 9597TIP3    H128755   5.693   6.796   5.152
 9597TIP3    H228756   5.786   6.759   5.266
 9598TIP3   OH228757   6.919   0.339   2.476
 9598TIP3    H128758   6.911   0.250   2.511
 9598TIP3    H228759   6.972   0.385   2.540
 9599TIP3   OH228760   5.666   1.901   4.668
 9599TIP3    H128761   5.693   1.972   4.726
 9599TIP3    H228762   5.635   1.832   4.727
 9600TIP3   OH228763   6.563   3.132   2.141
 9600TIP3    H128764   6.658   3.148   2.137
 9600TIP3    H228765   6.540   3.105   2.053
 9601TIP3   OH228766   2.768   6.554   1.894
 9601TIP3    H128767   2.776   6.649   1.886
 9601TIP3    H228768   2.673   6.539   1.904
 9602TIP3   OH228769   3.696   3.902   0.608
 9602TIP3    H128770   3.731   3.816   0.584
 9602TIP3    H228771   3.711   3.956   0.531
 9603TIP3   OH228772   3.042   2.088   1.986
 9603TIP3    H128773   3.033   2.162   2.047
 9603TIP3    H228774   3.108   2.117   1.923
 9604TIP3   OH228775   4.423   6.549   3.639
 9604TIP3    H128776   4.347   6.606   3.643
 9604TIP3    H228777   4.442   6.541   3.545
 9605TIP3   OH228778   4.863   2.038   2.232
 9605TIP3    H128779   4.900   2.126   2.242
 9605TIP3    H228780   4.770   2.052   2.215
 9606TIP3   OH228781   7.116   0.667   2.837
 9606TIP3    H128782   7.111   0.672   2.742
 9606TIP3    H228783   7.033   0.627   2.864
 9607TIP3   OH228784   6.295   0.802   1.591
 9607TIP3    H128785   6.206   0.767   1.587
 9607TIP3    H228786   6.336   0.771   1.510
 9608TIP3   OH228787   2.255   0.168   5.326
 9608TIP3    H128788   2.260   0.247   5.272
 9608TIP3    H228789   2.161   0.153   5.338
 9609TIP3   OH228790   5.270   6.060   0.006
 9609TIP3    H128791   5.227   5.980  -0.025
 9609TIP3    H228792   5.220   6.085   0.084
 9610TIP3   OH228793   1.393   3.602   1.566
 9610TIP3    H128794   1.434   3.649   1.493
 9610TIP3    H228795   1.301   3.629   1.564
 9611TIP3   OH228796   1.809   3.543   5.758
 9611TIP3    H128797   1.812   3.635   5.781
 9611TIP3    H228798   1.856   3.499   5.829
 9612TIP3   OH228799   5.447   0.632   4.318
 9612TIP3    H128800   5.448   0.715   4.269
 9612TIP3    H228801   5.539   0.612   4.333
 9613TIP3   OH228802   0.715   4.430   4.307
 9613TIP3    H128803   0.778   4.503   4.299
 9613TIP3    H228804   0.770   4.352   4.310
 9614TIP3   OH228805   5.538   1.218   3.617
 9614TIP3    H128806   5.608   1.214   3.683
 9614TIP3    H228807   5.576   1.178   3.539
 9615TIP3   OH228808   1.081   4.938   3.364
 9615TIP3    H128809   1.109   4.859   3.318
 9615TIP3    H228810   1.078   5.005   3.296
 9616TIP3   OH228811   5.823   4.888   2.816
 9616TIP3    H128812   5.901   4.930   2.779
 9616TIP3    H228813   5.856   4.833   2.887
 9617TIP3   OH228814   2.457   5.894   5.513
 9617TIP3    H128815   2.398   5.937   5.575
 9617TIP3    H228816   2.410   5.895   5.430
 9618TIP3   OH228817   0.436   5.704   5.806
 9618TIP3    H128818   0.527   5.675   5.812
 9618TIP3    H228819   0.394   5.667   5.883
 9619TIP3   OH228820   4.103   2.163   1.793
 9619TIP3    H128821   4.157   2.242   1.779
 9619TIP3    H228822   4.042   2.163   1.719
 9620TIP3   OH228823   0.056   4.041   5.481
 9620TIP3    H128824   0.146   4.073   5.474
 9620TIP3    H228825   0.065   3.945   5.480
 9621TIP3   OH228826   3.908   6.300   5.052
 9621TIP3    H128827   3.885   6.279   5.142
 9621TIP3    H228828   4.003   6.303   5.051
 9622TIP3   OH228829   3.805   5.855   5.888
 9622TIP3    H128830   3.735   5.856   5.823
 9622TIP3    H228831   3.841   5.766   5.884
 9623TIP3   OH228832   6.233   1.995   5.582
 9623TIP3    H128833   6.282   1.962   5.506
 9623TIP3    H228834   6.237   1.924   5.646
 9624TIP3   OH228835   3.716   2.905   4.026
 9624TIP3    H128836   3.773   2.921   4.101
 9624TIP3    H228837   3.691   2.813   4.035
 9625TIP3   OH228838   4.918   0.276   1.022
 9625TIP3    H128839   4.916   0.358   0.973
 9625TIP3    H228840   5.003   0.275   1.064
 9626TIP3   OH228841   5.516   2.670   5.283
 9626TIP3    H128842   5.515   2.744   5.223
 9626TIP3    H228843   5.581   2.610   5.245
 9627TIP3   OH228844   6.069   0.643   3.644
 9627TIP3    H128845   6.152   0.616   3.683
 9627TIP3    H228846   6.013   0.665   3.719
 9628TIP3   OH228847   1.587   3.856   5.418
 9628TIP3    H128848   1.606   3.763   5.423
 9628TIP3    H228849   1.656   3.898   5.470
 9629TIP3   OH228850   2.217   0.770   5.651
 9629TIP3    H128851   2.210   0.791   5.744
 9629TIP3    H228852   2.237   0.676   5.649
 9630TIP3   OH228853   6.504   0.859   4.518
 9630TIP3    H128854   6.463   0.878   4.433
 9630TIP3    H228855   6.431   0.859   4.580
 9631TIP3   OH228856   0.613   0.073   3.005
 9631TIP3    H128857   0.661   0.148   2.969
 9631TIP3    H228858   0.628   0.080   3.100
 9632TIP3   OH228859   2.086   1.673   5.740
 9632TIP3    H128860   2.096   1.616   5.663
 9632TIP3    H228861   2.149   1.744   5.725
 9633TIP3   OH228862   0.856   3.240   1.969
 9633TIP3    H128863   0.761   3.227   1.965
 9633TIP3    H228864   0.870   3.326   1.929
 9634TIP3   OH228865   1.826   0.810   1.906
 9634TIP3    H128866   1.739   0.842   1.929
 9634TIP3    H228867   1.810   0.739   1.844
 9635TIP3   OH228868   5.252   0.951   4.101
 9635TIP3    H128869   5.299   0.967   4.183
 9635TIP3    H228870   5.203   1.032   4.085
 9636TIP3   OH228871   0.515   3.743   0.404
 9636TIP3    H128872   0.489   3.794   0.481
 9636TIP3    H228873   0.593   3.788   0.371
 9637TIP3   OH228874   5.305   6.121   5.796
 9637TIP3    H128875   5.348   6.187   5.851
 9637TIP3    H228876   5.234   6.169   5.753
 9638TIP3   OH228877  -0.003   6.437   3.345
 9638TIP3    H128878   0.026   6.519   3.304
 9638TIP3    H228879  -0.062   6.397   3.281
 9639TIP3   OH228880   1.409   4.803   1.429
 9639TIP3    H128881   1.450   4.782   1.513
 9639TIP3    H228882   1.401   4.719   1.385
 9640TIP3   OH228883   1.414   3.675   3.627
 9640TIP3    H128884   1.321   3.697   3.616
 9640TIP3    H228885   1.446   3.662   3.537
 9641TIP3   OH228886   1.818   0.729   0.826
 9641TIP3    H128887   1.834   0.801   0.765
 9641TIP3    H228888   1.772   0.769   0.900
 9642TIP3   OH228889   1.433   4.535   2.688
 9642TIP3    H128890   1.511   4.567   2.734
 9642TIP3    H228891   1.467   4.470   2.627
 9643TIP3   OH228892   1.203   5.738   5.048
 9643TIP3    H128893   1.264   5.760   5.118
 9643TIP3    H228894   1.198   5.643   5.049
 9644TIP3   OH228895   6.142   6.577   4.158
 9644TIP3    H128896   6.150   6.506   4.095
 9644TIP3    H228897   6.225   6.624   4.152
 9645TIP3   OH228898   2.988   4.266   0.617
 9645TIP3    H128899   2.900   4.294   0.592
 9645TIP3    H228900   2.974   4.203   0.688
 9646TIP3   OH228901   3.302   5.090   5.027
 9646TIP3    H128902   3.230   5.151   5.039
 9646TIP3    H228903   3.362   5.135   4.967
 9647TIP3   OH228904   0.178   1.851   4.477
 9647TIP3    H128905   0.254   1.877   4.425
 9647TIP3    H228906   0.114   1.823   4.412
 9648TIP3   OH228907   4.937   2.993   3.884
 9648TIP3    H128908   4.894   2.909   3.900
 9648TIP3    H228909   5.029   2.970   3.870
 9649TIP3   OH228910   1.641   2.653   3.945
 9649TIP3    H128911   1.669   2.696   4.025
 9649TIP3    H228912   1.583   2.716   3.903
 9650TIP3   OH228913   0.907   2.280   4.278
 9650TIP3    H128914   0.921   2.365   4.236
 9650TIP3    H228915   0.989   2.232   4.266
 9651TIP3   OH228916   4.830   6.063   0.177
 9651TIP3    H128917   4.747   6.109   0.170
 9651TIP3    H228918   4.895   6.132   0.187
 9652TIP3   OH228919   0.158   1.981   0.882
 9652TIP3    H128920   0.198   1.952   0.800
 9652TIP3    H228921   0.232   1.985   0.944
 9653TIP3   OH228922   3.399   5.545   4.327
 9653TIP3    H128923   3.403   5.502   4.241
 9653TIP3    H228924   3.487   5.580   4.340
 9654TIP3   OH228925   6.987   3.218   5.671
 9654TIP3    H128926   7.038   3.138   5.685
 9654TIP3    H228927   6.922   3.217   5.741
 9655TIP3   OH228928   4.744   5.268   3.022
 9655TIP3    H128929   4.688   5.200   3.059
 9655TIP3    H228930   4.789   5.226   2.949
 9656TIP3   OH228931   1.285   0.834   3.884
 9656TIP3    H128932   1.359   0.853   3.941
 9656TIP3    H228933   1.228   0.777   3.936
 9657TIP3   OH228934   5.724   0.213   1.652
 9657TIP3    H128935   5.731   0.306   1.674
 9657TIP3    H228936   5.733   0.168   1.736
 9658TIP3   OH228937   4.761   3.911   2.351
 9658TIP3    H128938   4.855   3.928   2.356
 9658TIP3    H228939   4.754   3.824   2.312
 9659TIP3   OH228940   6.685   0.416   4.318
 9659TIP3    H128941   6.673   0.359   4.394
 9659TIP3    H228942   6.693   0.504   4.355
 9660TIP3   OH228943   4.258   1.089   2.310
 9660TIP3    H128944   4.248   1.184   2.306
 9660TIP3    H228945   4.233   1.058   2.223
 9661TIP3   OH228946   2.008   5.549   2.024
 9661TIP3    H128947   2.021   5.644   2.024
 9661TIP3    H228948   2.025   5.523   2.115
 9662TIP3   OH228949   3.431   2.373   4.690
 9662TIP3    H128950   3.354   2.327   4.723
 9662TIP3    H228951   3.481   2.306   4.642
 9663TIP3   OH228952   2.335   5.713   1.603
 9663TIP3    H128953   2.352   5.669   1.520
 9663TIP3    H228954   2.369   5.653   1.669
 9664TIP3   OH228955   4.530   1.152   2.503
 9664TIP3    H128956   4.591   1.144   2.576
 9664TIP3    H228957   4.529   1.246   2.484
 9665TIP3   OH228958   4.959   4.384   5.167
 9665TIP3    H128959   5.039   4.438   5.167
 9665TIP3    H228960   4.888   4.447   5.180
 9666TIP3   OH228961   6.746   0.356   3.761
 9666TIP3    H128962   6.769   0.441   3.724
 9666TIP3    H228963   6.824   0.302   3.748
 9667TIP3   OH228964   4.778   6.448   3.257
 9667TIP3    H128965   4.831   6.400   3.193
 9667TIP3    H228966   4.743   6.522   3.208
 9668TIP3   OH228967   5.574   3.592   2.903
 9668TIP3    H128968   5.607   3.616   2.817
 9668TIP3    H228969   5.570   3.674   2.951
 9669TIP3   OH228970   1.061   1.510   2.098
 9669TIP3    H128971   1.072   1.544   2.009
 9669TIP3    H228972   0.994   1.442   2.090
 9670TIP3   OH228973   2.990   0.533   3.693
 9670TIP3    H128974   2.981   0.614   3.743
 9670TIP3    H228975   3.084   0.526   3.677
 9671TIP3   OH228976   0.636   4.923   2.246
 9671TIP3    H128977   0.652   4.985   2.174
 9671TIP3    H228978   0.635   4.977   2.325
 9672TIP3   OH228979   5.061   5.497   4.050
 9672TIP3    H128980   5.107   5.481   3.967
 9672TIP3    H228981   5.029   5.587   4.043
 9673TIP3   OH228982   5.661   3.723   2.678
 9673TIP3    H128983   5.586   3.681   2.635
 9673TIP3    H228984   5.737   3.675   2.644
 9674TIP3   OH228985   2.982   2.974   3.866
 9674TIP3    H128986   2.941   2.890   3.887
 9674TIP3    H228987   3.048   2.986   3.934
 9675TIP3   OH228988   5.121   5.485   4.976
 9675TIP3    H128989   5.191   5.476   5.040
 9675TIP3    H228990   5.165   5.483   4.891
 9676TIP3   OH228991   6.024   5.178   1.431
 9676TIP3    H128992   5.959   5.112   1.457
 9676TIP3    H228993   5.987   5.217   1.352
 9677TIP3   OH228994   5.484   2.976   2.950
 9677TIP3    H128995   5.485   2.883   2.974
 9677TIP3    H228996   5.562   3.012   2.992
 9678TIP3   OH228997   0.161   0.561   5.260
 9678TIP3    H128998   0.158   0.466   5.244
 9678TIP3    H228999   0.225   0.571   5.330
 9679TIP3   OH229000   0.571   3.692   0.764
 9679TIP3    H129001   0.523   3.626   0.714
 9679TIP3    H229002   0.537   3.775   0.733
 9680TIP3   OH229003   6.519   3.644   4.832
 9680TIP3    H129004   6.552   3.574   4.776
 9680TIP3    H229005   6.532   3.724   4.781
 9681TIP3   OH229006   3.535   4.614   0.345
 9681TIP3    H129007   3.494   4.623   0.259
 9681TIP3    H229008   3.530   4.701   0.384
 9682TIP3   OH229009   0.627   0.800   3.590
 9682TIP3    H129010   0.672   0.839   3.665
 9682TIP3    H229011   0.583   0.874   3.547
 9683TIP3   OH229012   1.942   2.372   1.358
 9683TIP3    H129013   1.889   2.437   1.312
 9683TIP3    H229014   2.022   2.419   1.383
 9684TIP3   OH229015   0.954   1.863   0.763
 9684TIP3    H129016   0.874   1.877   0.712
 9684TIP3    H229017   0.935   1.902   0.849
 9685TIP3   OH229018   6.336   5.638   1.333
 9685TIP3    H129019   6.372   5.664   1.248
 9685TIP3    H229020   6.253   5.684   1.340
 9686TIP3   OH229021   4.172   2.300   0.797
 9686TIP3    H129022   4.232   2.274   0.727
 9686TIP3    H229023   4.174   2.396   0.796
 9687TIP3   OH229024   4.773   2.196   5.480
 9687TIP3    H129025   4.773   2.128   5.547
 9687TIP3    H229026   4.774   2.148   5.397
 9688TIP3   OH229027   6.170   0.260   5.164
 9688TIP3    H129028   6.081   0.265   5.199
 9688TIP3    H229029   6.192   0.167   5.167
 9689TIP3   OH229030   4.943   0.156   1.765
 9689TIP3    H129031   4.999   0.228   1.735
 9689TIP3    H229032   4.859   0.171   1.721
 9690TIP3   OH229033   0.392   5.440   0.443
 9690TIP3    H129034   0.383   5.519   0.390
 9690TIP3    H229035   0.408   5.473   0.532
 9691TIP3   OH229036   2.063   6.186   5.200
 9691TIP3    H129037   2.130   6.219   5.140
 9691TIP3    H229038   2.013   6.122   5.148
 9692TIP3   OH229039   3.180   0.392   1.078
 9692TIP3    H129040   3.116   0.329   1.112
 9692TIP3    H229041   3.209   0.441   1.155
 9693TIP3   OH229042   3.088   3.216   1.766
 9693TIP3    H129043   3.141   3.136   1.767
 9693TIP3    H229044   3.136   3.278   1.821
 9694TIP3   OH229045   2.771   2.963   4.209
 9694TIP3    H129046   2.738   3.038   4.259
 9694TIP3    H229047   2.865   2.978   4.202
 9695TIP3   OH229048   4.989   1.595   0.962
 9695TIP3    H129049   4.952   1.570   0.877
 9695TIP3    H229050   5.081   1.570   0.957
 9696TIP3   OH229051   0.483   3.541   5.724
 9696TIP3    H129052   0.393   3.531   5.691
 9696TIP3    H229053   0.529   3.588   5.654
 9697TIP3   OH229054   4.887   5.672   1.109
 9697TIP3    H129055   4.901   5.720   1.028
 9697TIP3    H229056   4.803   5.628   1.097
 9698TIP3   OH229057   4.326   1.511   3.560
 9698TIP3    H129058   4.370   1.449   3.502
 9698TIP3    H229059   4.385   1.519   3.635
 9699TIP3   OH229060   0.011   6.161   2.663
 9699TIP3    H129061   0.054   6.244   2.643
 9699TIP3    H229062   0.072   6.116   2.722
 9700TIP3   OH229063   3.944   2.415   0.168
 9700TIP3    H129064   3.934   2.351   0.238
 9700TIP3    H229065   3.866   2.405   0.114
 9701TIP3   OH229066   1.214   1.670   4.950
 9701TIP3    H129067   1.170   1.586   4.941
 9701TIP3    H229068   1.192   1.699   5.039
 9702TIP3   OH229069   6.164   4.940   5.296
 9702TIP3    H129070   6.195   5.028   5.319
 9702TIP3    H229071   6.115   4.953   5.215
 9703TIP3   OH229072   4.378   5.078   0.083
 9703TIP3    H129073   4.300   5.116   0.044
 9703TIP3    H229074   4.442   5.075   0.012
 9704TIP3   OH229075   6.786   3.082   2.705
 9704TIP3    H129076   6.767   2.988   2.714
 9704TIP3    H229077   6.713   3.116   2.655
 9705TIP3   OH229078   0.056   3.343   1.542
 9705TIP3    H129079   0.060   3.426   1.495
 9705TIP3    H229080   0.137   3.298   1.517
 9706TIP3   OH229081   0.240   0.509   5.867
 9706TIP3    H129082   0.184   0.479   5.795
 9706TIP3    H229083   0.181   0.554   5.927
 9707TIP3   OH229084   3.767   4.284   2.718
 9707TIP3    H129085   3.811   4.270   2.802
 9707TIP3    H229086   3.794   4.210   2.664
 9708TIP3   OH229087   6.150   4.956   3.875
 9708TIP3    H129088   6.242   4.962   3.900
 9708TIP3    H229089   6.103   4.943   3.958
 9709TIP3   OH229090   6.016   3.506   0.771
 9709TIP3    H129091   6.043   3.578   0.828
 9709TIP3    H229092   5.939   3.539   0.725
 9710TIP3   OH229093   3.743   2.386   2.196
 9710TIP3    H129094   3.766   2.430   2.114
 9710TIP3    H229095   3.804   2.421   2.260
 9711TIP3   OH229096   1.209   5.197   4.918
 9711TIP3    H129097   1.238   5.136   4.851
 9711TIP3    H229098   1.151   5.145   4.974
 9712TIP3   OH229099   4.629   3.735   5.194
 9712TIP3    H129100   4.663   3.773   5.113
 9712TIP3    H229101   4.663   3.791   5.263
 9713TIP3   OH229102   3.518   2.668   1.506
 9713TIP3    H129103   3.600   2.633   1.540
 9713TIP3    H229104   3.517   2.760   1.534
 9714TIP3   OH229105   0.502   5.147   0.994
 9714TIP3    H129106   0.563   5.100   0.938
 9714TIP3    H229107   0.543   5.147   1.080
 9715TIP3   OH229108   1.301   1.132   2.979
 9715TIP3    H129109   1.275   1.121   2.888
 9715TIP3    H229110   1.297   1.044   3.016
 9716TIP3   OH229111   4.444   6.535   0.472
 9716TIP3    H129112   4.351   6.544   0.494
 9716TIP3    H229113   4.459   6.441   0.467
 9717TIP3   OH229114   0.334   3.033   2.045
 9717TIP3    H129115   0.322   3.127   2.031
 9717TIP3    H229116   0.257   2.992   2.006
 9718TIP3   OH229117   0.711   5.236   5.321
 9718TIP3    H129118   0.702   5.143   5.339
 9718TIP3    H229119   0.679   5.247   5.231
 9719TIP3   OH229120   5.908   5.126   5.721
 9719TIP3    H129121   5.914   5.180   5.800
 9719TIP3    H229122   5.866   5.045   5.750
 9720TIP3   OH229123   4.232   1.861   2.344
 9720TIP3    H129124   4.320   1.846   2.308
 9720TIP3    H229125   4.204   1.943   2.305
 9721TIP3   OH229126   6.103   3.680   4.401
 9721TIP3    H129127   6.078   3.745   4.335
 9721TIP3    H229128   6.059   3.600   4.374
 9722TIP3   OH229129   6.860   4.971   1.925
 9722TIP3    H129130   6.926   4.920   1.879
 9722TIP3    H229131   6.863   4.938   2.015
 9723TIP3   OH229132   1.197   5.102   3.662
 9723TIP3    H129133   1.220   5.048   3.737
 9723TIP3    H229134   1.276   5.104   3.608
 9724TIP3   OH229135   4.148   6.033   1.787
 9724TIP3    H129136   4.228   6.015   1.738
 9724TIP3    H229137   4.177   6.079   1.866
 9725TIP3   OH229138   6.321   1.285   3.134
 9725TIP3    H129139   6.367   1.361   3.168
 9725TIP3    H229140   6.337   1.216   3.198
 9726TIP3   OH229141   5.463   3.755   0.619
 9726TIP3    H129142   5.472   3.664   0.645
 9726TIP3    H229143   5.526   3.767   0.548
 9727TIP3   OH229144   4.073   3.231   3.531
 9727TIP3    H129145   3.988   3.260   3.498
 9727TIP3    H229146   4.070   3.248   3.625
 9728TIP3   OH229147   1.757   1.256   4.372
 9728TIP3    H129148   1.744   1.211   4.455
 9728TIP3    H229149   1.720   1.343   4.385
 9729TIP3   OH229150   2.382   6.379   3.278
 9729TIP3    H129151   2.351   6.409   3.193
 9729TIP3    H229152   2.312   6.324   3.312
 9730TIP3   OH229153   4.652   1.310   3.544
 9730TIP3    H129154   4.689   1.336   3.460
 9730TIP3    H229155   4.612   1.224   3.526
 9731TIP3   OH229156   5.606   0.241   4.449
 9731TIP3    H129157   5.566   0.293   4.519
 9731TIP3    H229158   5.576   0.152   4.465
 9732TIP3   OH229159   0.997   4.812   3.609
 9732TIP3    H129160   1.058   4.767   3.667
 9732TIP3    H229161   1.053   4.854   3.543
 9733TIP3   OH229162   5.039   3.953   2.400
 9733TIP3    H129163   5.015   3.889   2.468
 9733TIP3    H229164   5.129   3.976   2.420
 9734TIP3   OH229165   5.602   2.970   1.827
 9734TIP3    H129166   5.675   2.945   1.883
 9734TIP3    H229167   5.528   2.981   1.888
 9735TIP3   OH229168   2.088   1.052   3.479
 9735TIP3    H129169   1.996   1.035   3.463
 9735TIP3    H229170   2.134   0.984   3.430
 9736TIP3   OH229171   5.461   3.330   0.435
 9736TIP3    H129172   5.492   3.244   0.462
 9736TIP3    H229173   5.410   3.313   0.356
 9737TIP3   OH229174   1.578   4.908   4.339
 9737TIP3    H129175   1.486   4.882   4.327
 9737TIP3    H229176   1.628   4.840   4.293
 9738TIP3   OH229177   1.655   4.656   2.150
 9738TIP3    H129178   1.622   4.721   2.087
 9738TIP3    H229179   1.590   4.586   2.148
 9739TIP3   OH229180   0.080   6.238   4.708
 9739TIP3    H129181   0.006   6.224   4.650
 9739TIP3    H229182   0.157   6.215   4.656
 9740TIP3   OH229183   1.624   6.704   3.001
 9740TIP3    H129184   1.636   6.718   2.908
 9740TIP3    H229185   1.560   6.770   3.027
 9741TIP3   OH229186   1.531   1.503   2.889
 9741TIP3    H129187   1.449   1.552   2.884
 9741TIP3    H229188   1.571   1.529   2.971
 9742TIP3   OH229189   4.477   2.368   0.797
 9742TIP3    H129190   4.563   2.325   0.792
 9742TIP3    H229191   4.436   2.350   0.712
 9743TIP3   OH229192   4.072   5.855   0.567
 9743TIP3    H129193   4.111   5.775   0.602
 9743TIP3    H229194   4.075   5.918   0.639
 9744TIP3   OH229195   3.225   6.258   3.517
 9744TIP3    H129196   3.196   6.264   3.608
 9744TIP3    H229197   3.153   6.296   3.467
 9745TIP3   OH229198   5.437   2.495   3.137
 9745TIP3    H129199   5.432   2.402   3.116
 9745TIP3    H229200   5.369   2.535   3.083
 9746TIP3   OH229201   5.913   2.554   2.099
 9746TIP3    H129202   5.924   2.460   2.113
 9746TIP3    H229203   5.835   2.561   2.044
 9747TIP3   OH229204   1.891   6.350   0.648
 9747TIP3    H129205   1.898   6.277   0.709
 9747TIP3    H229206   1.982   6.370   0.625
 9748TIP3   OH229207   2.007   0.072   5.584
 9748TIP3    H129208   2.103   0.068   5.575
 9748TIP3    H229209   1.974   0.051   5.497
 9749TIP3   OH229210   1.149   1.906   5.717
 9749TIP3    H129211   1.099   1.973   5.763
 9749TIP3    H229212   1.204   1.955   5.656
   7.21609   6.80340   5.89191   0.00000   0.00000  -2.40537   0.00000  -2.40537  -3.40170
