Title t= 221.00000 step= 110500
29212
    1ASP      N    1   2.282   2.252   4.717
    1ASP    HT1    2   2.221   2.332   4.742
    1ASP    HT2    3   2.366   2.267   4.778
    1ASP    HT3    4   2.230   2.166   4.742
    1ASP     CA    5   2.321   2.228   4.577
    1ASP     HA    6   2.341   2.122   4.572
    1ASP     CB    7   2.195   2.253   4.490
    1ASP    HB1    8   2.212   2.224   4.384
    1ASP    HB2    9   2.157   2.356   4.509
    1ASP     CG   10   2.082   2.159   4.531
    1ASP    OD1   11   2.103   2.067   4.616
    1ASP    OD2   12   1.975   2.167   4.468
    1ASP      C   13   2.453   2.294   4.531
    1ASP      O   14   2.537   2.327   4.618
    2GLY      N   15   2.463   2.330   4.403
    2GLY     HN   16   2.402   2.302   4.329
    2GLY     CA   17   2.562   2.416   4.352
    2GLY    HA1   18   2.536   2.427   4.248
    2GLY    HA2   19   2.661   2.373   4.360
    2GLY      C   20   2.575   2.557   4.400
    2GLY      O   21   2.494   2.608   4.482
    3ASP      N   22   2.667   2.635   4.354
    3ASP     HN   23   2.723   2.587   4.287
    3ASP     CA   24   2.692   2.779   4.384
    3ASP     HA   25   2.689   2.796   4.491
    3ASP     CB   26   2.830   2.817   4.326
    3ASP    HB1   27   2.841   2.925   4.303
    3ASP    HB2   28   2.834   2.777   4.222
    3ASP     CG   29   2.952   2.768   4.408
    3ASP    OD1   30   2.934   2.727   4.525
    3ASP    OD2   31   3.065   2.763   4.353
    3ASP      C   32   2.577   2.870   4.342
    3ASP      O   33   2.508   2.843   4.245
    4GLY      N   34   2.559   2.985   4.414
    4GLY     HN   35   2.596   3.007   4.505
    4GLY     CA   36   2.460   3.076   4.376
    4GLY    HA1   37   2.474   3.148   4.455
    4GLY    HA2   38   2.365   3.026   4.378
    4GLY      C   39   2.484   3.157   4.254
    4GLY      O   40   2.595   3.139   4.201
    5PRO      N   41   2.399   3.249   4.220
    5PRO     CD   42   2.266   3.271   4.274
    5PRO    HD1   43   2.284   3.357   4.343
    5PRO    HD2   44   2.226   3.180   4.324
    5PRO     CA   45   2.413   3.322   4.101
    5PRO     HA   46   2.419   3.257   4.015
    5PRO     CB   47   2.278   3.400   4.093
    5PRO    HB1   48   2.252   3.424   3.988
    5PRO    HB2   49   2.270   3.494   4.151
    5PRO     CG   50   2.179   3.308   4.152
    5PRO    HG1   51   2.075   3.344   4.166
    5PRO    HG2   52   2.175   3.215   4.091
    5PRO      C   53   2.522   3.418   4.089
    5PRO      O   54   2.546   3.499   4.177
    6GLY      N   55   2.591   3.416   3.976
    6GLY     HN   56   2.569   3.341   3.915
    6GLY     CA   57   2.672   3.520   3.924
    6GLY    HA1   58   2.747   3.467   3.867
    6GLY    HA2   59   2.723   3.578   3.999
    6GLY      C   60   2.592   3.616   3.835
    6GLY      O   61   2.476   3.644   3.876
    7ASP      N   62   2.651   3.670   3.725
    7ASP     HN   63   2.740   3.641   3.690
    7ASP     CA   64   2.578   3.752   3.630
    7ASP     HA   65   2.481   3.772   3.673
    7ASP     CB   66   2.649   3.890   3.606
    7ASP    HB1   67   2.601   3.953   3.528
    7ASP    HB2   68   2.746   3.862   3.559
    7ASP     CG   69   2.664   3.978   3.740
    7ASP    OD1   70   2.582   3.958   3.834
    7ASP    OD2   71   2.754   4.068   3.743
    7ASP      C   72   2.548   3.676   3.496
    7ASP      O   73   2.619   3.578   3.471
    8PRO      N   74   2.455   3.706   3.416
    8PRO     CD   75   2.354   3.809   3.439
    8PRO    HD1   76   2.400   3.909   3.425
    8PRO    HD2   77   2.309   3.813   3.541
    8PRO     CA   78   2.439   3.641   3.289
    8PRO     HA   79   2.389   3.546   3.303
    8PRO     CB   80   2.338   3.733   3.226
    8PRO    HB1   81   2.284   3.676   3.147
    8PRO    HB2   82   2.386   3.823   3.183
    8PRO     CG   83   2.246   3.773   3.336
    8PRO    HG1   84   2.173   3.852   3.309
    8PRO    HG2   85   2.197   3.680   3.372
    8PRO      C   86   2.562   3.618   3.202
    8PRO      O   87   2.662   3.696   3.220
    9GLY      N   88   2.564   3.514   3.112
    9GLY     HN   89   2.484   3.455   3.110
    9GLY     CA   90   2.685   3.484   3.031
    9GLY    HA1   91   2.661   3.400   2.968
    9GLY    HA2   92   2.775   3.481   3.090
    9GLY      C   93   2.719   3.592   2.932
    9GLY      O   94   2.641   3.690   2.916
   10ASP      N   95   2.839   3.583   2.878
   10ASP     HN   96   2.893   3.502   2.897
   10ASP     CA   97   2.902   3.679   2.793
   10ASP     HA   98   2.946   3.749   2.863
   10ASP     CB   99   3.022   3.603   2.722
   10ASP    HB1  100   3.083   3.673   2.660
   10ASP    HB2  101   2.983   3.524   2.654
   10ASP     CG  102   3.128   3.550   2.823
   10ASP    OD1  103   3.124   3.610   2.937
   10ASP    OD2  104   3.222   3.475   2.785
   10ASP      C  105   2.827   3.736   2.674
   10ASP      O  106   2.749   3.664   2.610
   11GLY      N  107   2.845   3.869   2.653
   11GLY     HN  108   2.906   3.913   2.719
   11GLY     CA  109   2.786   3.943   2.549
   11GLY    HA1  110   2.789   4.046   2.583
   11GLY    HA2  111   2.684   3.910   2.537
   11GLY      C  112   2.855   3.933   2.409
   11GLY    OT1  113   2.784   3.964   2.309
   11GLY    OT2  114   2.975   3.911   2.409
   12SOD    SOD  115   4.378   0.645   1.576
   13SOD    SOD  116   7.160   1.283   1.202
   14SOD    SOD  117   3.028   0.545   3.234
   15SOD    SOD  118   0.865   0.541   3.286
   16SOD    SOD  119   4.150   1.244   3.744
   17SOD    SOD  120   1.639   3.626   4.598
   18SOD    SOD  121   6.782   1.707   1.315
   19SOD    SOD  122   5.040   0.383   4.642
   20SOD    SOD  123   5.610   2.062   4.156
   21SOD    SOD  124   6.969   1.638   0.208
   22SOD    SOD  125   6.244   1.060   5.121
   23SOD    SOD  126   3.440   1.052   2.681
   24SOD    SOD  127   4.554   4.445   0.154
   25SOD    SOD  128   1.538   4.273   1.599
   26SOD    SOD  129   3.655   5.907   2.836
   27SOD    SOD  130   3.755   3.146   3.262
   28SOD    SOD  131   6.064   2.324   3.146
   29SOD    SOD  132   0.843   1.884   2.866
   30SOD    SOD  133   4.135   0.951   4.258
   31SOD    SOD  134   2.491   6.281   3.846
   32SOD    SOD  135   3.133   4.132   2.038
   33SOD    SOD  136   0.937   3.409   2.999
   34SOD    SOD  137   0.506   0.154   2.759
   35SOD    SOD  138   2.910   3.321   1.503
   36SOD    SOD  139   5.626   2.878   4.672
   37SOD    SOD  140   4.070   4.624   1.085
   38SOD    SOD  141   1.269   5.228   4.985
   39SOD    SOD  142   7.146   3.837   3.107
   40SOD    SOD  143   4.188   0.398   0.816
   41SOD    SOD  144   0.403   4.665   2.432
   42SOD    SOD  145   5.774   4.987   5.558
   43CLA    CLA  146   1.283   4.759   4.864
   44CLA    CLA  147   3.413   1.032   4.852
   45CLA    CLA  148   1.930   3.400   0.819
   46CLA    CLA  149   5.143   3.440   4.063
   47CLA    CLA  150   2.313   0.977   1.351
   48CLA    CLA  151   4.519   0.641   3.277
   49CLA    CLA  152   6.656   2.924   5.145
   50CLA    CLA  153   5.189   0.040   3.865
   51CLA    CLA  154   6.756   4.922   4.034
   52CLA    CLA  155   1.679   2.243   3.724
   53CLA    CLA  156   0.588   3.757   1.651
   54CLA    CLA  157   4.194   4.262   2.982
   55CLA    CLA  158   1.762   0.251   3.025
   56CLA    CLA  159   6.758   2.344   0.281
   57CLA    CLA  160   2.024   4.723   1.986
   58CLA    CLA  161   3.786   2.594   2.899
   59CLA    CLA  162   7.077   3.507   2.308
   60CLA    CLA  163   2.341   1.377   5.341
   61CLA    CLA  164   5.969   2.992   1.564
   62CLA    CLA  165   5.552   2.661   2.099
   63CLA    CLA  166   0.810   2.925   3.985
   64CLA    CLA  167   4.748   5.835   1.007
   65CLA    CLA  168   4.875   0.040   3.393
   66CLA    CLA  169   0.658   6.455   3.562
   67CLA    CLA  170   0.929   1.726   1.294
   68CLA    CLA  171   3.168   6.805   1.159
   69CLA    CLA  172   4.909   0.905   2.772
   70TIP3   OH2  173   3.459   5.036   5.706
   70TIP3    H1  174   3.479   5.058   5.615
   70TIP3    H2  175   3.405   5.109   5.737
   71TIP3   OH2  176   3.264   5.949   0.061
   71TIP3    H1  177   3.183   5.902   0.081
   71TIP3    H2  178   3.285   5.997   0.141
   72TIP3   OH2  179   3.924   4.649   5.774
   72TIP3    H1  180   3.886   4.601   5.847
   72TIP3    H2  181   3.849   4.686   5.728
   73TIP3   OH2  182   5.442   6.723   5.615
   73TIP3    H1  183   5.500   6.647   5.611
   73TIP3    H2  184   5.375   6.699   5.679
   74TIP3   OH2  185   3.389   5.737   4.601
   74TIP3    H1  186   3.338   5.737   4.521
   74TIP3    H2  187   3.330   5.699   4.667
   75TIP3   OH2  188   1.781   4.358   1.024
   75TIP3    H1  189   1.845   4.429   1.013
   75TIP3    H2  190   1.833   4.285   1.057
   76TIP3   OH2  191   3.646   1.580   5.672
   76TIP3    H1  192   3.625   1.553   5.583
   76TIP3    H2  193   3.738   1.606   5.669
   77TIP3   OH2  194   1.408   4.596   0.448
   77TIP3    H1  195   1.463   4.519   0.465
   77TIP3    H2  196   1.319   4.561   0.443
   78TIP3   OH2  197   3.489   0.509   0.101
   78TIP3    H1  198   3.554   0.490   0.034
   78TIP3    H2  199   3.517   0.458   0.177
   79TIP3   OH2  200   3.655   3.793   5.733
   79TIP3    H1  201   3.710   3.801   5.655
   79TIP3    H2  202   3.579   3.744   5.703
   80TIP3   OH2  203   2.869   2.391   3.247
   80TIP3    H1  204   2.870   2.346   3.163
   80TIP3    H2  205   2.921   2.470   3.232
   81TIP3   OH2  206   6.522   6.706   1.055
   81TIP3    H1  207   6.488   6.714   1.144
   81TIP3    H2  208   6.456   6.656   1.008
   82TIP3   OH2  209   1.669   1.823   4.698
   82TIP3    H1  210   1.724   1.887   4.743
   82TIP3    H2  211   1.718   1.803   4.617
   83TIP3   OH2  212   4.322   6.353   1.485
   83TIP3    H1  213   4.252   6.383   1.543
   83TIP3    H2  214   4.399   6.347   1.542
   84TIP3   OH2  215   1.504   3.893   3.811
   84TIP3    H1  216   1.584   3.849   3.783
   84TIP3    H2  217   1.433   3.837   3.781
   85TIP3   OH2  218   6.380   0.585   1.441
   85TIP3    H1  219   6.340   0.498   1.444
   85TIP3    H2  220   6.318   0.639   1.393
   86TIP3   OH2  221   4.320   5.085   0.180
   86TIP3    H1  222   4.367   5.081   0.097
   86TIP3    H2  223   4.360   5.158   0.227
   87TIP3   OH2  224   4.273   2.085   4.367
   87TIP3    H1  225   4.348   2.125   4.410
   87TIP3    H2  226   4.295   2.087   4.274
   88TIP3   OH2  227   3.168   6.570   1.566
   88TIP3    H1  228   3.207   6.558   1.652
   88TIP3    H2  229   3.190   6.490   1.518
   89TIP3   OH2  230   4.888   4.638   4.564
   89TIP3    H1  231   4.970   4.673   4.598
   89TIP3    H2  232   4.884   4.670   4.474
   90TIP3   OH2  233   0.084   1.159   2.037
   90TIP3    H1  234   0.087   1.200   2.123
   90TIP3    H2  235   0.086   1.065   2.055
   91TIP3   OH2  236   0.399   1.708   1.459
   91TIP3    H1  237   0.322   1.762   1.440
   91TIP3    H2  238   0.426   1.735   1.547
   92TIP3   OH2  239   6.368   4.838   4.752
   92TIP3    H1  240   6.286   4.807   4.714
   92TIP3    H2  241   6.431   4.768   4.732
   93TIP3   OH2  242   6.740   1.620   0.275
   93TIP3    H1  243   6.708   1.570   0.201
   93TIP3    H2  244   6.661   1.642   0.325
   94TIP3   OH2  245   4.744   0.852   2.519
   94TIP3    H1  246   4.748   0.848   2.614
   94TIP3    H2  247   4.834   0.834   2.490
   95TIP3   OH2  248   1.909   1.373   4.044
   95TIP3    H1  249   1.974   1.392   3.976
   95TIP3    H2  250   1.884   1.460   4.077
   96TIP3   OH2  251  -0.003   3.573   0.485
   96TIP3    H1  252   0.060   3.624   0.434
   96TIP3    H2  253   0.017   3.594   0.576
   97TIP3   OH2  254   0.545   3.207   0.970
   97TIP3    H1  255   0.532   3.227   0.877
   97TIP3    H2  256   0.468   3.157   0.995
   98TIP3   OH2  257   4.194   3.759   3.093
   98TIP3    H1  258   4.099   3.746   3.085
   98TIP3    H2  259   4.216   3.817   3.020
   99TIP3   OH2  260   4.020   0.983   2.293
   99TIP3    H1  261   3.982   1.047   2.233
   99TIP3    H2  262   4.115   0.993   2.283
  100TIP3   OH2  263   7.145   6.570   0.665
  100TIP3    H1  264   7.108   6.658   0.676
  100TIP3    H2  265   7.095   6.532   0.593
  101TIP3   OH2  266   4.794   6.169   5.729
  101TIP3    H1  267   4.747   6.253   5.733
  101TIP3    H2  268   4.874   6.189   5.680
  102TIP3   OH2  269   1.901   1.147   0.196
  102TIP3    H1  270   1.964   1.079   0.173
  102TIP3    H2  271   1.816   1.103   0.196
  103TIP3   OH2  272   1.920   0.431   0.849
  103TIP3    H1  273   1.834   0.458   0.883
  103TIP3    H2  274   1.983   0.465   0.913
  104TIP3   OH2  275   5.567   4.392   1.987
  104TIP3    H1  276   5.524   4.477   1.995
  104TIP3    H2  277   5.509   4.341   1.930
  105TIP3   OH2  278   4.633   2.170   0.756
  105TIP3    H1  279   4.641   2.144   0.847
  105TIP3    H2  280   4.637   2.266   0.757
  106TIP3   OH2  281   4.713   5.825   0.611
  106TIP3    H1  282   4.679   5.899   0.662
  106TIP3    H2  283   4.807   5.842   0.605
  107TIP3   OH2  284   0.884   5.951   4.837
  107TIP3    H1  285   0.895   5.973   4.929
  107TIP3    H2  286   0.842   6.028   4.798
  108TIP3   OH2  287   4.643   0.612   3.569
  108TIP3    H1  288   4.620   0.645   3.482
  108TIP3    H2  289   4.738   0.603   3.567
  109TIP3   OH2  290   2.373   3.614   2.126
  109TIP3    H1  291   2.372   3.536   2.070
  109TIP3    H2  292   2.289   3.611   2.172
  110TIP3   OH2  293   4.587   1.946   1.893
  110TIP3    H1  294   4.629   2.031   1.881
  110TIP3    H2  295   4.649   1.884   1.854
  111TIP3   OH2  296   3.254   1.199   2.158
  111TIP3    H1  297   3.214   1.261   2.096
  111TIP3    H2  298   3.284   1.126   2.103
  112TIP3   OH2  299   0.715   1.990   1.496
  112TIP3    H1  300   0.779   1.979   1.425
  112TIP3    H2  301   0.681   2.079   1.484
  113TIP3   OH2  302   3.111   1.154   5.388
  113TIP3    H1  303   3.188   1.187   5.434
  113TIP3    H2  304   3.142   1.077   5.340
  114TIP3   OH2  305   7.110   6.382   0.024
  114TIP3    H1  306   7.040   6.439   0.056
  114TIP3    H2  307   7.191   6.428   0.047
  115TIP3   OH2  308   3.535   1.412   3.228
  115TIP3    H1  309   3.540   1.319   3.204
  115TIP3    H2  310   3.536   1.412   3.324
  116TIP3   OH2  311   3.198   2.002   3.367
  116TIP3    H1  312   3.210   2.051   3.285
  116TIP3    H2  313   3.108   2.021   3.393
  117TIP3   OH2  314   1.606   3.822   4.134
  117TIP3    H1  315   1.542   3.814   4.205
  117TIP3    H2  316   1.623   3.916   4.128
  118TIP3   OH2  317   1.125   5.340   5.315
  118TIP3    H1  318   1.143   5.292   5.395
  118TIP3    H2  319   1.209   5.339   5.267
  119TIP3   OH2  320   4.873   2.097   3.492
  119TIP3    H1  321   4.934   2.162   3.527
  119TIP3    H2  322   4.828   2.142   3.420
  120TIP3   OH2  323   3.525   1.378   4.873
  120TIP3    H1  324   3.538   1.350   4.963
  120TIP3    H2  325   3.516   1.296   4.824
  121TIP3   OH2  326   5.191   4.288   0.195
  121TIP3    H1  327   5.171   4.203   0.236
  121TIP3    H2  328   5.175   4.274   0.102
  122TIP3   OH2  329   4.622   3.433   1.182
  122TIP3    H1  330   4.637   3.393   1.097
  122TIP3    H2  331   4.708   3.431   1.225
  123TIP3   OH2  332   6.370   5.756   0.741
  123TIP3    H1  333   6.435   5.686   0.743
  123TIP3    H2  334   6.350   5.767   0.648
  124TIP3   OH2  335   5.363   2.156   1.439
  124TIP3    H1  336   5.273   2.138   1.408
  124TIP3    H2  337   5.365   2.251   1.450
  125TIP3   OH2  338   3.588   3.767   4.980
  125TIP3    H1  339   3.593   3.698   5.046
  125TIP3    H2  340   3.501   3.756   4.941
  126TIP3   OH2  341   6.070   3.318   2.720
  126TIP3    H1  342   6.146   3.366   2.752
  126TIP3    H2  343   6.060   3.347   2.629
  127TIP3   OH2  344   2.895   3.227   2.455
  127TIP3    H1  345   2.869   3.304   2.405
  127TIP3    H2  346   2.937   3.262   2.534
  128TIP3   OH2  347   2.433   0.112   3.709
  128TIP3    H1  348   2.400   0.195   3.742
  128TIP3    H2  349   2.449   0.127   3.616
  129TIP3   OH2  350   2.720   2.973   0.802
  129TIP3    H1  351   2.661   3.046   0.821
  129TIP3    H2  352   2.807   3.013   0.797
  130TIP3   OH2  353   0.993   1.861   1.759
  130TIP3    H1  354   0.911   1.872   1.807
  130TIP3    H2  355   1.001   1.940   1.706
  131TIP3   OH2  356   0.075   6.679   0.391
  131TIP3    H1  357  -0.012   6.658   0.425
  131TIP3    H2  358   0.113   6.736   0.457
  132TIP3   OH2  359   4.356   2.421   1.099
  132TIP3    H1  360   4.428   2.360   1.114
  132TIP3    H2  361   4.395   2.493   1.049
  133TIP3   OH2  362   6.460   4.831   0.500
  133TIP3    H1  363   6.509   4.795   0.574
  133TIP3    H2  364   6.442   4.755   0.445
  134TIP3   OH2  365   4.406   4.739   3.620
  134TIP3    H1  366   4.495   4.711   3.642
  134TIP3    H2  367   4.418   4.815   3.563
  135TIP3   OH2  368   1.252   5.025   5.819
  135TIP3    H1  369   1.286   5.034   5.908
  135TIP3    H2  370   1.158   5.039   5.827
  136TIP3   OH2  371   0.810   4.058   3.434
  136TIP3    H1  372   0.824   4.089   3.524
  136TIP3    H2  373   0.840   4.130   3.379
  137TIP3   OH2  374   1.443   5.901   0.176
  137TIP3    H1  375   1.463   5.978   0.123
  137TIP3    H2  376   1.473   5.826   0.124
  138TIP3   OH2  377   4.765   4.356   5.542
  138TIP3    H1  378   4.685   4.306   5.558
  138TIP3    H2  379   4.830   4.290   5.516
  139TIP3   OH2  380   3.917   0.157   5.598
  139TIP3    H1  381   3.857   0.098   5.644
  139TIP3    H2  382   3.878   0.170   5.512
  140TIP3   OH2  383   4.907   0.482   3.033
  140TIP3    H1  384   4.838   0.479   3.099
  140TIP3    H2  385   4.904   0.395   2.992
  141TIP3   OH2  386   2.166   4.743   3.731
  141TIP3    H1  387   2.139   4.720   3.820
  141TIP3    H2  388   2.251   4.699   3.720
  142TIP3   OH2  389   6.409   2.287   4.323
  142TIP3    H1  390   6.345   2.243   4.380
  142TIP3    H2  391   6.410   2.235   4.243
  143TIP3   OH2  392   2.904   5.743   3.032
  143TIP3    H1  393   2.904   5.738   2.936
  143TIP3    H2  394   2.825   5.793   3.053
  144TIP3   OH2  395   6.588   5.407   1.829
  144TIP3    H1  396   6.601   5.351   1.753
  144TIP3    H2  397   6.603   5.496   1.797
  145TIP3   OH2  398   5.676   2.904   1.466
  145TIP3    H1  399   5.657   2.966   1.396
  145TIP3    H2  400   5.761   2.931   1.500
  146TIP3   OH2  401   1.488   3.225   3.171
  146TIP3    H1  402   1.478   3.233   3.266
  146TIP3    H2  403   1.428   3.291   3.135
  147TIP3   OH2  404   3.046   2.500   1.251
  147TIP3    H1  405   2.967   2.499   1.305
  147TIP3    H2  406   3.082   2.588   1.265
  148TIP3   OH2  407   0.123   5.362   0.574
  148TIP3    H1  408   0.211   5.392   0.550
  148TIP3    H2  409   0.069   5.441   0.569
  149TIP3   OH2  410   7.023   2.706   2.179
  149TIP3    H1  411   7.078   2.784   2.189
  149TIP3    H2  412   7.063   2.657   2.108
  150TIP3   OH2  413   7.139   4.308   5.835
  150TIP3    H1  414   7.054   4.318   5.791
  150TIP3    H2  415   7.160   4.395   5.867
  151TIP3   OH2  416   3.575   0.733   1.281
  151TIP3    H1  417   3.528   0.810   1.315
  151TIP3    H2  418   3.513   0.694   1.219
  152TIP3   OH2  419   6.493   0.880   1.542
  152TIP3    H1  420   6.529   0.801   1.502
  152TIP3    H2  421   6.409   0.853   1.578
  153TIP3   OH2  422   6.600   5.733   3.798
  153TIP3    H1  423   6.612   5.778   3.881
  153TIP3    H2  424   6.632   5.795   3.732
  154TIP3   OH2  425   4.034   3.602   5.003
  154TIP3    H1  426   4.096   3.640   5.065
  154TIP3    H2  427   3.984   3.677   4.970
  155TIP3   OH2  428   1.030   2.148   1.955
  155TIP3    H1  429   1.089   2.073   1.943
  155TIP3    H2  430   0.959   2.132   1.893
  156TIP3   OH2  431   1.422   5.896   0.640
  156TIP3    H1  432   1.344   5.841   0.643
  156TIP3    H2  433   1.495   5.834   0.648
  157TIP3   OH2  434   4.387   1.854   5.686
  157TIP3    H1  435   4.452   1.819   5.747
  157TIP3    H2  436   4.389   1.948   5.700
  158TIP3   OH2  437   1.344   0.368   0.484
  158TIP3    H1  438   1.358   0.285   0.438
  158TIP3    H2  439   1.324   0.430   0.414
  159TIP3   OH2  440   6.739   3.110  -0.018
  159TIP3    H1  441   6.757   3.189  -0.069
  159TIP3    H2  442   6.814   3.100   0.040
  160TIP3   OH2  443   1.072   6.038   4.451
  160TIP3    H1  444   0.982   6.050   4.483
  160TIP3    H2  445   1.061   5.998   4.364
  161TIP3   OH2  446   5.350   1.706   4.853
  161TIP3    H1  447   5.273   1.717   4.908
  161TIP3    H2  448   5.319   1.723   4.764
  162TIP3   OH2  449   2.172   5.931   1.938
  162TIP3    H1  450   2.157   6.003   1.877
  162TIP3    H2  451   2.122   5.955   2.016
  163TIP3   OH2  452   5.990   1.405   3.257
  163TIP3    H1  453   5.985   1.317   3.219
  163TIP3    H2  454   6.012   1.390   3.349
  164TIP3   OH2  455   0.961   6.493   1.413
  164TIP3    H1  456   1.049   6.526   1.396
  164TIP3    H2  457   0.968   6.398   1.404
  165TIP3   OH2  458   4.132   5.435   0.398
  165TIP3    H1  459   4.101   5.436   0.489
  165TIP3    H2  460   4.071   5.376   0.353
  166TIP3   OH2  461   5.224   3.465   5.005
  166TIP3    H1  462   5.289   3.410   4.961
  166TIP3    H2  463   5.160   3.403   5.040
  167TIP3   OH2  464   0.191   1.479   3.763
  167TIP3    H1  465   0.223   1.393   3.733
  167TIP3    H2  466   0.155   1.462   3.850
  168TIP3   OH2  467   6.225   4.417   1.251
  168TIP3    H1  468   6.178   4.463   1.320
  168TIP3    H2  469   6.317   4.429   1.271
  169TIP3   OH2  470   6.170   5.267   2.954
  169TIP3    H1  471   6.265   5.275   2.952
  169TIP3    H2  472   6.153   5.184   2.998
  170TIP3   OH2  473   2.019   5.897   4.023
  170TIP3    H1  474   1.995   5.807   4.001
  170TIP3    H2  475   2.013   5.901   4.118
  171TIP3   OH2  476   1.433   0.792   0.799
  171TIP3    H1  477   1.416   0.712   0.749
  171TIP3    H2  478   1.372   0.788   0.872
  172TIP3   OH2  479   6.615   0.449   0.465
  172TIP3    H1  480   6.599   0.512   0.394
  172TIP3    H2  481   6.660   0.499   0.532
  173TIP3   OH2  482   3.794   1.686   4.366
  173TIP3    H1  483   3.750   1.759   4.322
  173TIP3    H2  484   3.743   1.673   4.446
  174TIP3   OH2  485   5.825   4.911   0.189
  174TIP3    H1  486   5.737   4.873   0.189
  174TIP3    H2  487   5.880   4.843   0.151
  175TIP3   OH2  488   2.858   0.627   0.410
  175TIP3    H1  489   2.893   0.714   0.391
  175TIP3    H2  490   2.769   0.644   0.441
  176TIP3   OH2  491   1.590   0.509   0.908
  176TIP3    H1  492   1.503   0.471   0.918
  176TIP3    H2  493   1.601   0.520   0.814
  177TIP3   OH2  494   6.307   1.519   2.272
  177TIP3    H1  495   6.398   1.491   2.270
  177TIP3    H2  496   6.309   1.605   2.315
  178TIP3   OH2  497   4.887   4.610   5.751
  178TIP3    H1  498   4.872   4.693   5.707
  178TIP3    H2  499   4.862   4.627   5.842
  179TIP3   OH2  500   6.801   1.529   1.168
  179TIP3    H1  501   6.786   1.522   1.074
  179TIP3    H2  502   6.857   1.455   1.190
  180TIP3   OH2  503   3.086   5.256   4.366
  180TIP3    H1  504   3.089   5.161   4.349
  180TIP3    H2  505   3.084   5.296   4.279
  181TIP3   OH2  506   2.707   4.880   5.396
  181TIP3    H1  507   2.766   4.906   5.326
  181TIP3    H2  508   2.752   4.905   5.476
  182TIP3   OH2  509   0.162   0.110   1.576
  182TIP3    H1  510   0.113   0.186   1.605
  182TIP3    H2  511   0.138   0.041   1.638
  183TIP3   OH2  512   4.364   0.550   2.165
  183TIP3    H1  513   4.379   0.459   2.193
  183TIP3    H2  514   4.325   0.592   2.242
  184TIP3   OH2  515   0.467   4.360   4.931
  184TIP3    H1  516   0.375   4.380   4.943
  184TIP3    H2  517   0.472   4.265   4.936
  185TIP3   OH2  518   0.169   3.072   3.452
  185TIP3    H1  519   0.159   3.138   3.521
  185TIP3    H2  520   0.135   2.991   3.491
  186TIP3   OH2  521   1.961   2.495   0.558
  186TIP3    H1  522   1.903   2.500   0.633
  186TIP3    H2  523   1.988   2.403   0.554
  187TIP3   OH2  524   4.869   3.258   1.776
  187TIP3    H1  525   4.794   3.306   1.810
  187TIP3    H2  526   4.942   3.286   1.831
  188TIP3   OH2  527   2.265   6.521   4.966
  188TIP3    H1  528   2.210   6.494   5.039
  188TIP3    H2  529   2.233   6.468   4.892
  189TIP3   OH2  530   4.095   1.910   1.871
  189TIP3    H1  531   4.035   1.973   1.831
  189TIP3    H2  532   4.178   1.956   1.877
  190TIP3   OH2  533   5.708   6.344   3.758
  190TIP3    H1  534   5.661   6.401   3.819
  190TIP3    H2  535   5.772   6.402   3.716
  191TIP3   OH2  536   1.737   6.653   0.844
  191TIP3    H1  537   1.662   6.594   0.853
  191TIP3    H2  538   1.813   6.597   0.862
  192TIP3   OH2  539   3.810   1.717   0.824
  192TIP3    H1  540   3.788   1.746   0.736
  192TIP3    H2  541   3.885   1.658   0.812
  193TIP3   OH2  542   0.789   2.246   3.958
  193TIP3    H1  543   0.823   2.157   3.969
  193TIP3    H2  544   0.813   2.291   4.040
  194TIP3   OH2  545   3.673   4.385   3.068
  194TIP3    H1  546   3.613   4.409   3.138
  194TIP3    H2  547   3.755   4.365   3.112
  195TIP3   OH2  548   6.331   3.008   4.611
  195TIP3    H1  549   6.350   2.930   4.663
  195TIP3    H2  550   6.372   3.080   4.659
  196TIP3   OH2  551   3.399   1.782   5.631
  196TIP3    H1  552   3.406   1.723   5.556
  196TIP3    H2  553   3.485   1.823   5.637
  197TIP3   OH2  554   2.585   0.970   1.515
  197TIP3    H1  555   2.493   0.981   1.492
  197TIP3    H2  556   2.630   1.041   1.469
  198TIP3   OH2  557   6.202   3.094   5.782
  198TIP3    H1  558   6.289   3.069   5.814
  198TIP3    H2  559   6.220   3.142   5.701
  199TIP3   OH2  560   2.578   1.887   2.999
  199TIP3    H1  561   2.624   1.809   3.028
  199TIP3    H2  562   2.624   1.959   3.042
  200TIP3   OH2  563   5.442   5.700   3.574
  200TIP3    H1  564   5.361   5.729   3.533
  200TIP3    H2  565   5.416   5.625   3.628
  201TIP3   OH2  566   6.648   2.604   2.575
  201TIP3    H1  567   6.621   2.518   2.542
  201TIP3    H2  568   6.710   2.636   2.509
  202TIP3   OH2  569   2.978   6.691   2.708
  202TIP3    H1  570   2.923   6.676   2.632
  202TIP3    H2  571   3.067   6.672   2.678
  203TIP3   OH2  572   1.726   5.403   3.534
  203TIP3    H1  573   1.786   5.478   3.532
  203TIP3    H2  574   1.676   5.415   3.614
  204TIP3   OH2  575   1.723   2.968   3.792
  204TIP3    H1  576   1.800   3.025   3.783
  204TIP3    H2  577   1.758   2.884   3.821
  205TIP3   OH2  578   4.310   5.936   0.805
  205TIP3    H1  579   4.377   5.975   0.861
  205TIP3    H2  580   4.263   6.010   0.767
  206TIP3   OH2  581   7.129   3.252   5.221
  206TIP3    H1  582   7.126   3.312   5.295
  206TIP3    H2  583   7.103   3.167   5.256
  207TIP3   OH2  584   6.309   3.457   2.771
  207TIP3    H1  585   6.366   3.507   2.712
  207TIP3    H2  586   6.336   3.483   2.859
  208TIP3   OH2  587   1.227   1.689   2.661
  208TIP3    H1  588   1.196   1.600   2.680
  208TIP3    H2  589   1.298   1.704   2.723
  209TIP3   OH2  590   3.114   3.409   1.607
  209TIP3    H1  591   3.113   3.501   1.632
  209TIP3    H2  592   3.160   3.364   1.679
  210TIP3   OH2  593   5.159   1.050   5.896
  210TIP3    H1  594   5.187   0.972   5.848
  210TIP3    H2  595   5.163   1.121   5.832
  211TIP3   OH2  596   6.240   3.834   0.974
  211TIP3    H1  597   6.218   3.871   0.888
  211TIP3    H2  598   6.156   3.815   1.015
  212TIP3   OH2  599   3.827   4.453   3.435
  212TIP3    H1  600   3.848   4.532   3.386
  212TIP3    H2  601   3.829   4.383   3.369
  213TIP3   OH2  602   4.100   6.069   2.134
  213TIP3    H1  603   4.009   6.093   2.152
  213TIP3    H2  604   4.133   6.034   2.216
  214TIP3   OH2  605   4.064   0.748   1.067
  214TIP3    H1  606   3.974   0.730   1.039
  214TIP3    H2  607   4.058   0.761   1.162
  215TIP3   OH2  608   5.692   2.771   1.051
  215TIP3    H1  609   5.758   2.705   1.072
  215TIP3    H2  610   5.674   2.816   1.133
  216TIP3   OH2  611   0.341   4.173   0.306
  216TIP3    H1  612   0.398   4.250   0.309
  216TIP3    H2  613   0.351   4.132   0.392
  217TIP3   OH2  614   0.177   6.458   1.310
  217TIP3    H1  615   0.246   6.510   1.352
  217TIP3    H2  616   0.097   6.486   1.354
  218TIP3   OH2  617   3.221   5.332   0.276
  218TIP3    H1  618   3.148   5.290   0.322
  218TIP3    H2  619   3.289   5.343   0.343
  219TIP3   OH2  620   6.886   3.358   4.795
  219TIP3    H1  621   6.865   3.293   4.862
  219TIP3    H2  622   6.931   3.428   4.843
  220TIP3   OH2  623   6.660   6.235   2.220
  220TIP3    H1  624   6.597   6.233   2.147
  220TIP3    H2  625   6.715   6.310   2.201
  221TIP3   OH2  626   3.451   1.634   0.525
  221TIP3    H1  627   3.384   1.594   0.470
  221TIP3    H2  628   3.412   1.637   0.612
  222TIP3   OH2  629   6.270   1.896   2.982
  222TIP3    H1  630   6.195   1.884   3.040
  222TIP3    H2  631   6.327   1.822   3.000
  223TIP3   OH2  632   0.435   2.052   0.505
  223TIP3    H1  633   0.403   2.122   0.562
  223TIP3    H2  634   0.515   2.022   0.548
  224TIP3   OH2  635   0.091   3.668   2.517
  224TIP3    H1  636   0.020   3.637   2.460
  224TIP3    H2  637   0.074   3.762   2.528
  225TIP3   OH2  638   3.027   0.004   1.194
  225TIP3    H1  639   3.118   0.029   1.175
  225TIP3    H2  640   2.977   0.085   1.181
  226TIP3   OH2  641   4.731   2.728   3.100
  226TIP3    H1  642   4.690   2.705   3.016
  226TIP3    H2  643   4.788   2.654   3.120
  227TIP3   OH2  644   5.917   5.784   5.462
  227TIP3    H1  645   5.868   5.805   5.541
  227TIP3    H2  646   5.892   5.694   5.441
  228TIP3   OH2  647   3.635   4.655   3.013
  228TIP3    H1  648   3.556   4.630   2.965
  228TIP3    H2  649   3.689   4.577   3.013
  229TIP3   OH2  650   3.325   4.782   1.082
  229TIP3    H1  651   3.340   4.832   1.163
  229TIP3    H2  652   3.231   4.761   1.085
  230TIP3   OH2  653   0.738   2.246   2.636
  230TIP3    H1  654   0.784   2.291   2.706
  230TIP3    H2  655   0.792   2.259   2.558
  231TIP3   OH2  656   4.460   1.415   2.726
  231TIP3    H1  657   4.486   1.326   2.750
  231TIP3    H2  658   4.461   1.464   2.809
  232TIP3   OH2  659   2.793   2.640   5.247
  232TIP3    H1  660   2.715   2.586   5.262
  232TIP3    H2  661   2.774   2.686   5.165
  233TIP3   OH2  662   0.114   6.051   5.536
  233TIP3    H1  663   0.028   6.053   5.579
  233TIP3    H2  664   0.094   6.053   5.443
  234TIP3   OH2  665   4.725   2.745   0.834
  234TIP3    H1  666   4.820   2.754   0.838
  234TIP3    H2  667   4.702   2.702   0.916
  235TIP3   OH2  668   3.556   3.350   0.051
  235TIP3    H1  669   3.591   3.416  -0.009
  235TIP3    H2  670   3.465   3.378   0.066
  236TIP3   OH2  671   3.448   4.134   2.904
  236TIP3    H1  672   3.524   4.075   2.898
  236TIP3    H2  673   3.455   4.173   2.991
  237TIP3   OH2  674   0.932   3.167   3.204
  237TIP3    H1  675   0.919   3.165   3.109
  237TIP3    H2  676   0.844   3.169   3.240
  238TIP3   OH2  677   1.108   1.645   3.941
  238TIP3    H1  678   1.182   1.704   3.928
  238TIP3    H2  679   1.078   1.624   3.853
  239TIP3   OH2  680   3.805   3.070   0.936
  239TIP3    H1  681   3.835   3.096   0.849
  239TIP3    H2  682   3.787   3.152   0.981
  240TIP3   OH2  683   5.904   6.120   0.457
  240TIP3    H1  684   5.898   6.207   0.496
  240TIP3    H2  685   5.864   6.130   0.371
  241TIP3   OH2  686   4.291   1.000   2.813
  241TIP3    H1  687   4.386   1.009   2.826
  241TIP3    H2  688   4.278   1.016   2.720
  242TIP3   OH2  689   6.440   3.788   1.818
  242TIP3    H1  690   6.426   3.878   1.846
  242TIP3    H2  691   6.419   3.736   1.896
  243TIP3   OH2  692   2.399   6.215   0.202
  243TIP3    H1  693   2.407   6.310   0.206
  243TIP3    H2  694   2.371   6.189   0.290
  244TIP3   OH2  695   5.128   6.559   5.188
  244TIP3    H1  696   5.194   6.545   5.256
  244TIP3    H2  697   5.129   6.478   5.137
  245TIP3   OH2  698   4.685   6.343   3.944
  245TIP3    H1  699   4.687   6.367   4.037
  245TIP3    H2  700   4.606   6.291   3.935
  246TIP3   OH2  701   6.454   5.920   5.508
  246TIP3    H1  702   6.431   5.842   5.458
  246TIP3    H2  703   6.500   5.886   5.585
  247TIP3   OH2  704   1.359   5.328   4.031
  247TIP3    H1  705   1.300   5.357   3.961
  247TIP3    H2  706   1.428   5.279   3.986
  248TIP3   OH2  707   4.066   2.643   0.336
  248TIP3    H1  708   4.041   2.560   0.295
  248TIP3    H2  709   4.147   2.668   0.290
  249TIP3   OH2  710   0.529   3.626   4.664
  249TIP3    H1  711   0.475   3.590   4.594
  249TIP3    H2  712   0.619   3.607   4.638
  250TIP3   OH2  713   2.697   6.545   2.732
  250TIP3    H1  714   2.635   6.474   2.719
  250TIP3    H2  715   2.643   6.617   2.765
  251TIP3   OH2  716   5.492   3.161   4.382
  251TIP3    H1  717   5.513   3.069   4.393
  251TIP3    H2  718   5.464   3.168   4.290
  252TIP3   OH2  719   0.308   3.938   2.447
  252TIP3    H1  720   0.261   3.978   2.374
  252TIP3    H2  721   0.363   3.870   2.407
  253TIP3   OH2  722   6.449   2.103   0.385
  253TIP3    H1  723   6.439   2.197   0.369
  253TIP3    H2  724   6.360   2.073   0.405
  254TIP3   OH2  725   3.435   0.817   2.610
  254TIP3    H1  726   3.360   0.760   2.625
  254TIP3    H2  727   3.469   0.789   2.525
  255TIP3   OH2  728   6.439   0.854   0.428
  255TIP3    H1  729   6.411   0.779   0.479
  255TIP3    H2  730   6.397   0.842   0.343
  256TIP3   OH2  731   4.179   2.427   3.933
  256TIP3    H1  732   4.180   2.331   3.940
  256TIP3    H2  733   4.106   2.454   3.988
  257TIP3   OH2  734   1.035   1.095   0.705
  257TIP3    H1  735   1.028   1.181   0.748
  257TIP3    H2  736   0.982   1.103   0.626
  258TIP3   OH2  737   0.124   3.039   5.064
  258TIP3    H1  738   0.087   2.969   5.119
  258TIP3    H2  739   0.161   2.994   4.989
  259TIP3   OH2  740   3.500   2.248   4.028
  259TIP3    H1  741   3.496   2.215   3.938
  259TIP3    H2  742   3.504   2.343   4.018
  260TIP3   OH2  743   5.331   0.179   0.855
  260TIP3    H1  744   5.370   0.262   0.827
  260TIP3    H2  745   5.266   0.160   0.787
  261TIP3   OH2  746   5.008   6.019   4.756
  261TIP3    H1  747   4.913   6.009   4.759
  261TIP3    H2  748   5.041   5.957   4.822
  262TIP3   OH2  749   0.362   3.888   1.814
  262TIP3    H1  750   0.455   3.869   1.804
  262TIP3    H2  751   0.358   3.956   1.880
  263TIP3   OH2  752   2.105   0.166   2.578
  263TIP3    H1  753   2.171   0.133   2.517
  263TIP3    H2  754   2.107   0.104   2.651
  264TIP3   OH2  755   6.357   6.473   5.706
  264TIP3    H1  756   6.420   6.541   5.682
  264TIP3    H2  757   6.365   6.465   5.801
  265TIP3   OH2  758   1.256   0.113   5.363
  265TIP3    H1  759   1.261   0.049   5.292
  265TIP3    H2  760   1.281   0.195   5.323
  266TIP3   OH2  761   4.357   3.050   3.659
  266TIP3    H1  762   4.411   3.123   3.691
  266TIP3    H2  763   4.415   3.002   3.600
  267TIP3   OH2  764   2.248   4.731   1.740
  267TIP3    H1  765   2.174   4.726   1.799
  267TIP3    H2  766   2.216   4.780   1.664
  268TIP3   OH2  767   0.832   0.211   4.519
  268TIP3    H1  768   0.907   0.238   4.468
  268TIP3    H2  769   0.769   0.283   4.508
  269TIP3   OH2  770   2.807   5.953   3.752
  269TIP3    H1  771   2.721   5.912   3.750
  269TIP3    H2  772   2.803   6.015   3.825
  270TIP3   OH2  773   3.817   3.876   2.441
  270TIP3    H1  774   3.760   3.884   2.517
  270TIP3    H2  775   3.769   3.820   2.381
  271TIP3   OH2  776   2.983   2.754   4.822
  271TIP3    H1  777   3.069   2.712   4.815
  271TIP3    H2  778   2.950   2.756   4.732
  272TIP3   OH2  779   1.054   3.142   0.972
  272TIP3    H1  780   0.972   3.169   1.014
  272TIP3    H2  781   1.110   3.113   1.045
  273TIP3   OH2  782   2.529   0.864   1.155
  273TIP3    H1  783   2.468   0.895   1.222
  273TIP3    H2  784   2.497   0.901   1.073
  274TIP3   OH2  785   4.500   6.090   2.282
  274TIP3    H1  786   4.427   6.029   2.274
  274TIP3    H2  787   4.469   6.157   2.342
  275TIP3   OH2  788   5.680   5.406   3.888
  275TIP3    H1  789   5.667   5.344   3.960
  275TIP3    H2  790   5.607   5.467   3.895
  276TIP3   OH2  791   2.942   2.095   0.626
  276TIP3    H1  792   2.850   2.100   0.599
  276TIP3    H2  793   2.974   2.185   0.618
  277TIP3   OH2  794   2.370   0.626   3.427
  277TIP3    H1  795   2.338   0.561   3.489
  277TIP3    H2  796   2.364   0.582   3.342
  278TIP3   OH2  797   3.406   5.874   5.575
  278TIP3    H1  798   3.320   5.833   5.573
  278TIP3    H2  799   3.410   5.924   5.494
  279TIP3   OH2  800   6.297   2.314   3.862
  279TIP3    H1  801   6.317   2.403   3.890
  279TIP3    H2  802   6.204   2.316   3.840
  280TIP3   OH2  803   2.351   2.242   0.961
  280TIP3    H1  804   2.266   2.200   0.955
  280TIP3    H2  805   2.334   2.335   0.947
  281TIP3   OH2  806   6.664   0.678   4.122
  281TIP3    H1  807   6.665   0.774   4.133
  281TIP3    H2  808   6.742   0.660   4.069
  282TIP3   OH2  809   6.442   3.854   3.560
  282TIP3    H1  810   6.352   3.833   3.584
  282TIP3    H2  811   6.434   3.911   3.484
  283TIP3   OH2  812   3.746   0.054   4.876
  283TIP3    H1  813   3.720   0.142   4.904
  283TIP3    H2  814   3.838   0.064   4.850
  284TIP3   OH2  815   4.485   1.372   3.937
  284TIP3    H1  816   4.417   1.361   3.870
  284TIP3    H2  817   4.566   1.384   3.887
  285TIP3   OH2  818   5.144   6.490   4.148
  285TIP3    H1  819   5.221   6.445   4.184
  285TIP3    H2  820   5.074   6.424   4.152
  286TIP3   OH2  821   6.295   2.937   3.933
  286TIP3    H1  822   6.302   2.871   3.864
  286TIP3    H2  823   6.222   2.908   3.988
  287TIP3   OH2  824   3.466   4.668   1.436
  287TIP3    H1  825   3.389   4.611   1.435
  287TIP3    H2  826   3.435   4.752   1.402
  288TIP3   OH2  827   5.336   0.956   0.301
  288TIP3    H1  828   5.271   0.978   0.368
  288TIP3    H2  829   5.419   0.958   0.348
  289TIP3   OH2  830   0.185   6.074   3.318
  289TIP3    H1  831   0.148   6.144   3.265
  289TIP3    H2  832   0.273   6.062   3.284
  290TIP3   OH2  833   7.150   4.907   5.800
  290TIP3    H1  834   7.058   4.895   5.781
  290TIP3    H2  835   7.183   4.963   5.730
  291TIP3   OH2  836   6.373   2.382   2.931
  291TIP3    H1  837   6.353   2.472   2.958
  291TIP3    H2  838   6.427   2.348   3.001
  292TIP3   OH2  839   5.655   5.788   4.042
  292TIP3    H1  840   5.656   5.880   4.067
  292TIP3    H2  841   5.649   5.789   3.947
  293TIP3   OH2  842   0.238   2.492   2.881
  293TIP3    H1  843   0.215   2.476   2.790
  293TIP3    H2  844   0.171   2.553   2.912
  294TIP3   OH2  845   4.412   1.630   4.739
  294TIP3    H1  846   4.376   1.543   4.755
  294TIP3    H2  847   4.339   1.680   4.703
  295TIP3   OH2  848   4.400   5.122   2.137
  295TIP3    H1  849   4.370   5.188   2.200
  295TIP3    H2  850   4.403   5.041   2.187
  296TIP3   OH2  851   3.587   3.165   5.266
  296TIP3    H1  852   3.567   3.072   5.256
  296TIP3    H2  853   3.506   3.210   5.243
  297TIP3   OH2  854   4.098   4.963   1.299
  297TIP3    H1  855   4.082   5.055   1.278
  297TIP3    H2  856   4.025   4.938   1.357
  298TIP3   OH2  857   2.400   2.912   2.598
  298TIP3    H1  858   2.375   3.004   2.602
  298TIP3    H2  859   2.491   2.910   2.627
  299TIP3   OH2  860   5.187   0.476   5.560
  299TIP3    H1  861   5.136   0.478   5.641
  299TIP3    H2  862   5.122   0.472   5.491
  300TIP3   OH2  863   2.099   6.483   4.421
  300TIP3    H1  864   2.119   6.399   4.379
  300TIP3    H2  865   2.022   6.465   4.475
  301TIP3   OH2  866   1.493   1.753   3.708
  301TIP3    H1  867   1.406   1.782   3.736
  301TIP3    H2  868   1.490   1.757   3.613
  302TIP3   OH2  869   3.718   3.389   4.240
  302TIP3    H1  870   3.740   3.441   4.317
  302TIP3    H2  871   3.681   3.452   4.178
  303TIP3   OH2  872   5.380   1.324   2.830
  303TIP3    H1  873   5.402   1.384   2.759
  303TIP3    H2  874   5.292   1.351   2.858
  304TIP3   OH2  875   2.327   3.373   3.551
  304TIP3    H1  876   2.298   3.282   3.549
  304TIP3    H2  877   2.420   3.368   3.570
  305TIP3   OH2  878   3.655   3.587   5.230
  305TIP3    H1  879   3.722   3.615   5.293
  305TIP3    H2  880   3.686   3.502   5.198
  306TIP3   OH2  881   2.823   0.011   1.695
  306TIP3    H1  882   2.729  -0.007   1.699
  306TIP3    H2  883   2.839   0.070   1.768
  307TIP3   OH2  884   0.129   0.830   0.647
  307TIP3    H1  885   0.039   0.800   0.636
  307TIP3    H2  886   0.180   0.750   0.660
  308TIP3   OH2  887   6.211   0.870   1.981
  308TIP3    H1  888   6.190   0.825   2.063
  308TIP3    H2  889   6.196   0.804   1.913
  309TIP3   OH2  890   6.605   1.942   5.611
  309TIP3    H1  891   6.603   1.945   5.707
  309TIP3    H2  892   6.688   1.899   5.591
  310TIP3   OH2  893   0.868   3.708   1.101
  310TIP3    H1  894   0.869   3.614   1.082
  310TIP3    H2  895   0.809   3.718   1.175
  311TIP3   OH2  896   4.817   2.835   1.840
  311TIP3    H1  897   4.769   2.863   1.918
  311TIP3    H2  898   4.805   2.906   1.777
  312TIP3   OH2  899   6.938   1.848   1.198
  312TIP3    H1  900   7.002   1.904   1.243
  312TIP3    H2  901   6.954   1.863   1.105
  313TIP3   OH2  902   0.918   0.394   3.629
  313TIP3    H1  903   0.868   0.316   3.602
  313TIP3    H2  904   1.006   0.361   3.646
  314TIP3   OH2  905   3.009   1.664   3.283
  314TIP3    H1  906   3.095   1.635   3.312
  314TIP3    H2  907   2.963   1.583   3.259
  315TIP3   OH2  908   6.047   2.494   2.341
  315TIP3    H1  909   6.084   2.464   2.258
  315TIP3    H2  910   5.980   2.558   2.316
  316TIP3   OH2  911   5.013   3.694   2.473
  316TIP3    H1  912   5.049   3.627   2.415
  316TIP3    H2  913   5.009   3.773   2.418
  317TIP3   OH2  914   1.516   0.234   3.273
  317TIP3    H1  915   1.482   0.310   3.225
  317TIP3    H2  916   1.590   0.203   3.221
  318TIP3   OH2  917   4.195   4.766   0.594
  318TIP3    H1  918   4.141   4.836   0.557
  318TIP3    H2  919   4.258   4.745   0.525
  319TIP3   OH2  920   1.946   3.884   3.142
  319TIP3    H1  921   1.929   3.805   3.193
  319TIP3    H2  922   1.879   3.883   3.073
  320TIP3   OH2  923   1.139   6.669   3.750
  320TIP3    H1  924   1.219   6.712   3.718
  320TIP3    H2  925   1.068   6.712   3.702
  321TIP3   OH2  926   3.575   2.328   3.227
  321TIP3    H1  927   3.663   2.351   3.257
  321TIP3    H2  928   3.572   2.232   3.231
  322TIP3   OH2  929   3.725   2.956   4.623
  322TIP3    H1  930   3.684   3.003   4.695
  322TIP3    H2  931   3.719   2.864   4.647
  323TIP3   OH2  932   3.164   5.990   3.754
  323TIP3    H1  933   3.141   6.082   3.739
  323TIP3    H2  934   3.189   5.987   3.847
  324TIP3   OH2  935   4.900   1.163   3.861
  324TIP3    H1  936   4.847   1.242   3.852
  324TIP3    H2  937   4.836   1.094   3.883
  325TIP3   OH2  938   1.535   1.510   1.336
  325TIP3    H1  939   1.503   1.422   1.314
  325TIP3    H2  940   1.605   1.495   1.399
  326TIP3   OH2  941   2.143   0.417   4.296
  326TIP3    H1  942   2.169   0.489   4.354
  326TIP3    H2  943   2.217   0.357   4.299
  327TIP3   OH2  944   6.722   0.089   2.352
  327TIP3    H1  945   6.722   0.013   2.409
  327TIP3    H2  946   6.810   0.126   2.360
  328TIP3   OH2  947   2.225   6.536   5.548
  328TIP3    H1  948   2.259   6.572   5.466
  328TIP3    H2  949   2.136   6.571   5.555
  329TIP3   OH2  950   0.853   6.779   0.002
  329TIP3    H1  951   0.817   6.828   0.077
  329TIP3    H2  952   0.902   6.707   0.042
  330TIP3   OH2  953   5.568   5.955   0.492
  330TIP3    H1  954   5.526   5.913   0.417
  330TIP3    H2  955   5.604   6.037   0.456
  331TIP3   OH2  956   1.265   3.918   2.402
  331TIP3    H1  957   1.349   3.896   2.443
  331TIP3    H2  958   1.206   3.847   2.428
  332TIP3   OH2  959   2.304   1.471   3.248
  332TIP3    H1  960   2.377   1.411   3.260
  332TIP3    H2  961   2.315   1.536   3.318
  333TIP3   OH2  962   4.935   5.542   5.526
  333TIP3    H1  963   4.852   5.523   5.482
  333TIP3    H2  964   4.915   5.538   5.619
  334TIP3   OH2  965   5.956   3.746   1.997
  334TIP3    H1  966   5.908   3.817   1.954
  334TIP3    H2  967   5.986   3.783   2.079
  335TIP3   OH2  968   0.959   5.585   3.682
  335TIP3    H1  969   0.992   5.669   3.714
  335TIP3    H2  970   0.935   5.602   3.591
  336TIP3   OH2  971   0.340   1.852   3.096
  336TIP3    H1  972   0.395   1.888   3.166
  336TIP3    H2  973   0.353   1.911   3.022
  337TIP3   OH2  974   2.142   0.453   3.237
  337TIP3    H1  975   2.108   0.382   3.182
  337TIP3    H2  976   2.067   0.481   3.288
  338TIP3   OH2  977   5.612   3.216   5.552
  338TIP3    H1  978   5.696   3.170   5.557
  338TIP3    H2  979   5.550   3.154   5.590
  339TIP3   OH2  980   0.630   1.102   4.285
  339TIP3    H1  981   0.584   1.025   4.318
  339TIP3    H2  982   0.712   1.104   4.333
  340TIP3   OH2  983   2.812   4.648   4.768
  340TIP3    H1  984   2.893   4.611   4.802
  340TIP3    H2  985   2.786   4.713   4.833
  341TIP3   OH2  986   2.170   4.566   2.919
  341TIP3    H1  987   2.240   4.631   2.917
  341TIP3    H2  988   2.179   4.519   2.836
  342TIP3   OH2  989   5.538   2.060   4.821
  342TIP3    H1  990   5.531   2.139   4.768
  342TIP3    H2  991   5.487   2.080   4.900
  343TIP3   OH2  992   5.320   0.834   1.186
  343TIP3    H1  993   5.242   0.869   1.230
  343TIP3    H2  994   5.326   0.744   1.218
  344TIP3   OH2  995   0.025   4.186   2.973
  344TIP3    H1  996   0.000   4.110   3.026
  344TIP3    H2  997   0.057   4.148   2.891
  345TIP3   OH2  998   5.371   2.976   2.856
  345TIP3    H1  999   5.296   2.942   2.806
  345TIP3    H2 1000   5.369   2.928   2.938
  346TIP3   OH2 1001   2.693   5.012   2.090
  346TIP3    H1 1002   2.770   5.068   2.102
  346TIP3    H2 1003   2.694   4.953   2.165
  347TIP3   OH2 1004   5.868   5.161   3.398
  347TIP3    H1 1005   5.929   5.118   3.338
  347TIP3    H2 1006   5.923   5.203   3.463
  348TIP3   OH2 1007   1.016   2.374   0.059
  348TIP3    H1 1008   1.083   2.306   0.049
  348TIP3    H2 1009   1.059   2.441   0.113
  349TIP3   OH2 1010   4.811   1.863   2.896
  349TIP3    H1 1011   4.816   1.778   2.940
  349TIP3    H2 1012   4.846   1.847   2.808
  350TIP3   OH2 1013   5.543   3.134   2.208
  350TIP3    H1 1014   5.560   3.092   2.123
  350TIP3    H2 1015   5.527   3.061   2.268
  351TIP3   OH2 1016   5.450   4.326   1.726
  351TIP3    H1 1017   5.402   4.277   1.661
  351TIP3    H2 1018   5.390   4.396   1.754
  352TIP3   OH2 1019   3.888   1.418   1.948
  352TIP3    H1 1020   3.933   1.493   1.986
  352TIP3    H2 1021   3.794   1.438   1.959
  353TIP3   OH2 1022   4.934   5.069   4.685
  353TIP3    H1 1023   4.982   5.124   4.746
  353TIP3    H2 1024   4.855   5.044   4.732
  354TIP3   OH2 1025   1.620   4.980   5.192
  354TIP3    H1 1026   1.690   4.930   5.233
  354TIP3    H2 1027   1.573   4.917   5.138
  355TIP3   OH2 1028   4.184   1.897   3.584
  355TIP3    H1 1029   4.097   1.924   3.555
  355TIP3    H2 1030   4.168   1.830   3.650
  356TIP3   OH2 1031   3.531   1.140   3.808
  356TIP3    H1 1032   3.461   1.195   3.773
  356TIP3    H2 1033   3.561   1.187   3.886
  357TIP3   OH2 1034   4.421   1.306   5.026
  357TIP3    H1 1035   4.392   1.374   5.087
  357TIP3    H2 1036   4.444   1.232   5.082
  358TIP3   OH2 1037   2.294   1.988   1.766
  358TIP3    H1 1038   2.327   1.900   1.782
  358TIP3    H2 1039   2.372   2.038   1.740
  359TIP3   OH2 1040   3.213   5.798   2.782
  359TIP3    H1 1041   3.185   5.746   2.858
  359TIP3    H2 1042   3.141   5.789   2.719
  360TIP3   OH2 1043   1.192   4.793   3.164
  360TIP3    H1 1044   1.235   4.865   3.209
  360TIP3    H2 1045   1.220   4.715   3.212
  361TIP3   OH2 1046   0.982   4.841   2.734
  361TIP3    H1 1047   1.031   4.809   2.658
  361TIP3    H2 1048   1.049   4.856   2.801
  362TIP3   OH2 1049   1.159   3.363   3.074
  362TIP3    H1 1050   1.229   3.359   3.008
  362TIP3    H2 1051   1.182   3.294   3.136
  363TIP3   OH2 1052   6.612   3.318   3.731
  363TIP3    H1 1053   6.704   3.323   3.707
  363TIP3    H2 1054   6.572   3.394   3.689
  364TIP3   OH2 1055   6.137   5.439   0.015
  364TIP3    H1 1056   6.065   5.498  -0.006
  364TIP3    H2 1057   6.192   5.488   0.075
  365TIP3   OH2 1058   5.890   1.021   2.735
  365TIP3    H1 1059   5.984   1.030   2.721
  365TIP3    H2 1060   5.874   0.927   2.733
  366TIP3   OH2 1061   5.079   3.927   2.654
  366TIP3    H1 1062   5.093   3.998   2.591
  366TIP3    H2 1063   5.094   3.847   2.604
  367TIP3   OH2 1064   5.953   4.688   1.544
  367TIP3    H1 1065   6.038   4.729   1.563
  367TIP3    H2 1066   5.901   4.758   1.505
  368TIP3   OH2 1067   2.098   2.266   0.615
  368TIP3    H1 1068   2.095   2.261   0.711
  368TIP3    H2 1069   2.169   2.206   0.591
  369TIP3   OH2 1070   3.721   0.583   4.980
  369TIP3    H1 1071   3.733   0.545   5.067
  369TIP3    H2 1072   3.633   0.622   4.982
  370TIP3   OH2 1073   0.541   5.593   2.183
  370TIP3    H1 1074   0.486   5.637   2.118
  370TIP3    H2 1075   0.478   5.550   2.242
  371TIP3   OH2 1076   0.383   5.415   2.337
  371TIP3    H1 1077   0.452   5.351   2.355
  371TIP3    H2 1078   0.319   5.401   2.406
  372TIP3   OH2 1079   6.617   6.071   1.046
  372TIP3    H1 1080   6.663   6.003   1.095
  372TIP3    H2 1081   6.613   6.145   1.106
  373TIP3   OH2 1082   6.007   0.168   3.224
  373TIP3    H1 1083   6.032   0.260   3.220
  373TIP3    H2 1084   5.931   0.161   3.166
  374TIP3   OH2 1085   1.627   1.227   0.576
  374TIP3    H1 1086   1.712   1.190   0.553
  374TIP3    H2 1087   1.641   1.267   0.662
  375TIP3   OH2 1088   2.086   5.410   4.159
  375TIP3    H1 1089   2.143   5.372   4.227
  375TIP3    H2 1090   2.056   5.334   4.108
  376TIP3   OH2 1091   4.191   5.424   3.795
  376TIP3    H1 1092   4.264   5.438   3.855
  376TIP3    H2 1093   4.192   5.501   3.738
  377TIP3   OH2 1094   2.198   0.049   4.785
  377TIP3    H1 1095   2.250   0.118   4.827
  377TIP3    H2 1096   2.262  -0.001   4.734
  378TIP3   OH2 1097   0.778   0.166   5.225
  378TIP3    H1 1098   0.690   0.150   5.259
  378TIP3    H2 1099   0.836   0.145   5.298
  379TIP3   OH2 1100   5.595   3.550   0.231
  379TIP3    H1 1101   5.524   3.572   0.171
  379TIP3    H2 1102   5.561   3.476   0.282
  380TIP3   OH2 1103   3.733   4.194   3.770
  380TIP3    H1 1104   3.669   4.139   3.814
  380TIP3    H2 1105   3.698   4.283   3.777
  381TIP3   OH2 1106   0.246   3.456   0.236
  381TIP3    H1 1107   0.180   3.409   0.287
  381TIP3    H2 1108   0.215   3.450   0.145
  382TIP3   OH2 1109   6.216   6.493   4.649
  382TIP3    H1 1110   6.284   6.487   4.716
  382TIP3    H2 1111   6.135   6.474   4.695
  383TIP3   OH2 1112   6.454   3.365   4.975
  383TIP3    H1 1113   6.483   3.456   4.978
  383TIP3    H2 1114   6.516   3.318   5.031
  384TIP3   OH2 1115   1.514   4.245   5.281
  384TIP3    H1 1116   1.475   4.256   5.367
  384TIP3    H2 1117   1.493   4.156   5.255
  385TIP3   OH2 1118   3.894   0.170   5.880
  385TIP3    H1 1119   3.913   0.258   5.847
  385TIP3    H2 1120   3.977   0.140   5.918
  386TIP3   OH2 1121   1.403   4.924   3.288
  386TIP3    H1 1122   1.442   4.837   3.278
  386TIP3    H2 1123   1.443   4.959   3.368
  387TIP3   OH2 1124   3.694   1.362   3.707
  387TIP3    H1 1125   3.706   1.280   3.754
  387TIP3    H2 1126   3.730   1.429   3.765
  388TIP3   OH2 1127   2.800   2.040   1.852
  388TIP3    H1 1128   2.803   2.123   1.899
  388TIP3    H2 1129   2.858   2.053   1.777
  389TIP3   OH2 1130   6.064   2.469   4.635
  389TIP3    H1 1131   6.106   2.499   4.716
  389TIP3    H2 1132   5.988   2.419   4.665
  390TIP3   OH2 1133   0.770   6.588   5.313
  390TIP3    H1 1134   0.866   6.580   5.319
  390TIP3    H2 1135   0.753   6.595   5.219
  391TIP3   OH2 1136   0.932   3.275   2.018
  391TIP3    H1 1137   0.898   3.224   2.091
  391TIP3    H2 1138   1.026   3.283   2.036
  392TIP3   OH2 1139   6.631   6.030   5.322
  392TIP3    H1 1140   6.690   5.995   5.389
  392TIP3    H2 1141   6.544   5.998   5.348
  393TIP3   OH2 1142   0.102   3.896   2.918
  393TIP3    H1 1143   0.192   3.863   2.922
  393TIP3    H2 1144   0.079   3.892   2.825
  394TIP3   OH2 1145   0.923   3.242   4.285
  394TIP3    H1 1146   0.831   3.232   4.307
  394TIP3    H2 1147   0.925   3.242   4.189
  395TIP3   OH2 1148   5.971   2.539   5.498
  395TIP3    H1 1149   6.017   2.564   5.418
  395TIP3    H2 1150   5.908   2.472   5.469
  396TIP3   OH2 1151   2.357   0.582   4.717
  396TIP3    H1 1152   2.317   0.522   4.780
  396TIP3    H2 1153   2.391   0.653   4.771
  397TIP3   OH2 1154   5.410   1.025   1.444
  397TIP3    H1 1155   5.349   0.971   1.393
  397TIP3    H2 1156   5.496   1.004   1.408
  398TIP3   OH2 1157   4.157   4.342   5.017
  398TIP3    H1 1158   4.063   4.342   4.998
  398TIP3    H2 1159   4.178   4.250   5.031
  399TIP3   OH2 1160   3.817   6.137   3.566
  399TIP3    H1 1161   3.893   6.098   3.609
  399TIP3    H2 1162   3.751   6.068   3.566
  400TIP3   OH2 1163   2.435   2.781   5.264
  400TIP3    H1 1164   2.443   2.739   5.178
  400TIP3    H2 1165   2.355   2.832   5.258
  401TIP3   OH2 1166   5.189   3.936   4.437
  401TIP3    H1 1167   5.281   3.932   4.412
  401TIP3    H2 1168   5.167   4.029   4.431
  402TIP3   OH2 1169   2.157   5.920   3.789
  402TIP3    H1 1170   2.108   5.925   3.871
  402TIP3    H2 1171   2.097   5.951   3.722
  403TIP3   OH2 1172   5.446   4.254   5.185
  403TIP3    H1 1173   5.506   4.234   5.257
  403TIP3    H2 1174   5.477   4.199   5.113
  404TIP3   OH2 1175   6.267   4.517   3.520
  404TIP3    H1 1176   6.303   4.600   3.552
  404TIP3    H2 1177   6.324   4.491   3.448
  405TIP3   OH2 1178   1.564   1.602   0.295
  405TIP3    H1 1179   1.476   1.581   0.326
  405TIP3    H2 1180   1.618   1.601   0.374
  406TIP3   OH2 1181   0.635   2.913   3.719
  406TIP3    H1 1182   0.554   2.863   3.724
  406TIP3    H2 1183   0.700   2.857   3.761
  407TIP3   OH2 1184   6.450   3.831   2.228
  407TIP3    H1 1185   6.513   3.894   2.195
  407TIP3    H2 1186   6.498   3.748   2.229
  408TIP3   OH2 1187   3.677   4.566   0.893
  408TIP3    H1 1188   3.679   4.520   0.810
  408TIP3    H2 1189   3.758   4.540   0.937
  409TIP3   OH2 1190   4.401   4.400   5.540
  409TIP3    H1 1191   4.319   4.428   5.581
  409TIP3    H2 1192   4.458   4.477   5.547
  410TIP3   OH2 1193   3.579   5.099   1.663
  410TIP3    H1 1194   3.655   5.123   1.716
  410TIP3    H2 1195   3.598   5.010   1.632
  411TIP3   OH2 1196   2.201   5.559   0.186
  411TIP3    H1 1197   2.206   5.623   0.257
  411TIP3    H2 1198   2.240   5.480   0.223
  412TIP3   OH2 1199   4.883   0.422   4.166
  412TIP3    H1 1200   4.896   0.370   4.087
  412TIP3    H2 1201   4.953   0.486   4.165
  413TIP3   OH2 1202   1.974   6.105   0.191
  413TIP3    H1 1203   1.897   6.049   0.176
  413TIP3    H2 1204   1.989   6.147   0.107
  414TIP3   OH2 1205   6.035   4.283   0.561
  414TIP3    H1 1206   6.096   4.334   0.613
  414TIP3    H2 1207   5.952   4.288   0.609
  415TIP3   OH2 1208   0.921   3.594   3.153
  415TIP3    H1 1209   0.981   3.669   3.151
  415TIP3    H2 1210   0.878   3.600   3.238
  416TIP3   OH2 1211   3.915   3.957   0.301
  416TIP3    H1 1212   3.995   3.981   0.256
  416TIP3    H2 1213   3.916   4.008   0.382
  417TIP3   OH2 1214   5.961   2.113   3.748
  417TIP3    H1 1215   5.907   2.185   3.717
  417TIP3    H2 1216   5.903   2.037   3.748
  418TIP3   OH2 1217   0.273   4.940   0.715
  418TIP3    H1 1218   0.256   4.986   0.632
  418TIP3    H2 1219   0.293   4.850   0.689
  419TIP3   OH2 1220   5.704   4.707   3.946
  419TIP3    H1 1221   5.767   4.662   3.890
  419TIP3    H2 1222   5.624   4.710   3.895
  420TIP3   OH2 1223   4.748   2.251   3.298
  420TIP3    H1 1224   4.666   2.202   3.312
  420TIP3    H2 1225   4.766   2.241   3.205
  421TIP3   OH2 1226   4.293   1.195   0.273
  421TIP3    H1 1227   4.375   1.244   0.273
  421TIP3    H2 1228   4.308   1.124   0.210
  422TIP3   OH2 1229   0.408   1.034   2.452
  422TIP3    H1 1230   0.434   1.120   2.420
  422TIP3    H2 1231   0.318   1.046   2.482
  423TIP3   OH2 1232   5.035   2.233   0.920
  423TIP3    H1 1233   5.064   2.324   0.910
  423TIP3    H2 1234   5.082   2.201   0.997
  424TIP3   OH2 1235   2.044   4.668   3.990
  424TIP3    H1 1236   2.040   4.725   4.067
  424TIP3    H2 1237   1.981   4.599   4.008
  425TIP3   OH2 1238   6.371   3.503   4.146
  425TIP3    H1 1239   6.284   3.520   4.109
  425TIP3    H2 1240   6.391   3.414   4.118
  426TIP3   OH2 1241   3.469   4.598   5.774
  426TIP3    H1 1242   3.411   4.522   5.775
  426TIP3    H2 1243   3.547   4.567   5.728
  427TIP3   OH2 1244   2.816   0.524   2.437
  427TIP3    H1 1245   2.850   0.532   2.526
  427TIP3    H2 1246   2.743   0.462   2.444
  428TIP3   OH2 1247   3.741   6.081   5.781
  428TIP3    H1 1248   3.759   5.987   5.769
  428TIP3    H2 1249   3.802   6.125   5.722
  429TIP3   OH2 1250   1.310   1.847   5.767
  429TIP3    H1 1251   1.241   1.868   5.705
  429TIP3    H2 1252   1.272   1.866   5.853
  430TIP3   OH2 1253   0.204   4.855   4.630
  430TIP3    H1 1254   0.269   4.887   4.694
  430TIP3    H2 1255   0.159   4.934   4.601
  431TIP3   OH2 1256   6.887   6.479   3.776
  431TIP3    H1 1257   6.845   6.442   3.698
  431TIP3    H2 1258   6.968   6.519   3.743
  432TIP3   OH2 1259   6.833   0.323   5.567
  432TIP3    H1 1260   6.826   0.232   5.540
  432TIP3    H2 1261   6.923   0.347   5.545
  433TIP3   OH2 1262   6.354   2.761   3.680
  433TIP3    H1 1263   6.283   2.820   3.654
  433TIP3    H2 1264   6.423   2.776   3.615
  434TIP3   OH2 1265   1.838   0.631   2.762
  434TIP3    H1 1266   1.871   0.544   2.741
  434TIP3    H2 1267   1.880   0.689   2.698
  435TIP3   OH2 1268   0.119   3.967   3.774
  435TIP3    H1 1269   0.185   3.944   3.709
  435TIP3    H2 1270   0.122   4.063   3.778
  436TIP3   OH2 1271   2.530   0.363   5.143
  436TIP3    H1 1272   2.485   0.391   5.223
  436TIP3    H2 1273   2.552   0.445   5.098
  437TIP3   OH2 1274   4.249   1.005   5.076
  437TIP3    H1 1275   4.280   0.941   5.140
  437TIP3    H2 1276   4.157   1.016   5.096
  438TIP3   OH2 1277   4.326   1.502   1.647
  438TIP3    H1 1278   4.291   1.421   1.611
  438TIP3    H2 1279   4.354   1.478   1.735
  439TIP3   OH2 1280   3.238   6.515   1.073
  439TIP3    H1 1281   3.205   6.602   1.096
  439TIP3    H2 1282   3.268   6.478   1.155
  440TIP3   OH2 1283   1.114   1.863   0.604
  440TIP3    H1 1284   1.173   1.792   0.631
  440TIP3    H2 1285   1.137   1.935   0.663
  441TIP3   OH2 1286   1.774   6.791   4.363
  441TIP3    H1 1287   1.839   6.769   4.430
  441TIP3    H2 1288   1.693   6.749   4.393
  442TIP3   OH2 1289   7.007   1.080   3.388
  442TIP3    H1 1290   7.079   1.021   3.365
  442TIP3    H2 1291   7.051   1.156   3.428
  443TIP3   OH2 1292   4.823   0.813   4.829
  443TIP3    H1 1293   4.851   0.817   4.921
  443TIP3    H2 1294   4.828   0.903   4.798
  444TIP3   OH2 1295   1.660   2.331   4.126
  444TIP3    H1 1296   1.666   2.353   4.219
  444TIP3    H2 1297   1.617   2.245   4.124
  445TIP3   OH2 1298   2.581   2.195   3.078
  445TIP3    H1 1299   2.498   2.228   3.112
  445TIP3    H2 1300   2.621   2.149   3.152
  446TIP3   OH2 1301   5.606   3.602   2.852
  446TIP3    H1 1302   5.550   3.536   2.894
  446TIP3    H2 1303   5.553   3.682   2.854
  447TIP3   OH2 1304   7.129   6.076   4.004
  447TIP3    H1 1305   7.148   6.034   3.920
  447TIP3    H2 1306   7.151   6.010   4.070
  448TIP3   OH2 1307   0.976   5.830   3.766
  448TIP3    H1 1308   0.901   5.843   3.824
  448TIP3    H2 1309   1.024   5.913   3.770
  449TIP3   OH2 1310   1.864   5.655   3.488
  449TIP3    H1 1311   1.881   5.734   3.437
  449TIP3    H2 1312   1.951   5.617   3.502
  450TIP3   OH2 1313   0.019   0.280   3.771
  450TIP3    H1 1314   0.106   0.240   3.765
  450TIP3    H2 1315  -0.028   0.223   3.833
  451TIP3   OH2 1316   2.662   0.303   0.908
  451TIP3    H1 1317   2.712   0.232   0.868
  451TIP3    H2 1318   2.718   0.380   0.900
  452TIP3   OH2 1319   4.336   5.227   3.220
  452TIP3    H1 1320   4.251   5.211   3.261
  452TIP3    H2 1321   4.315   5.257   3.132
  453TIP3   OH2 1322   2.663   1.697   2.562
  453TIP3    H1 1323   2.578   1.683   2.520
  453TIP3    H2 1324   2.711   1.753   2.501
  454TIP3   OH2 1325   2.268   3.596   0.566
  454TIP3    H1 1326   2.222   3.653   0.504
  454TIP3    H2 1327   2.215   3.515   0.568
  455TIP3   OH2 1328   6.069   4.765   3.207
  455TIP3    H1 1329   5.995   4.728   3.160
  455TIP3    H2 1330   6.039   4.852   3.235
  456TIP3   OH2 1331   3.141   3.401   4.709
  456TIP3    H1 1332   3.228   3.433   4.682
  456TIP3    H2 1333   3.124   3.327   4.651
  457TIP3   OH2 1334   4.509   4.079   3.367
  457TIP3    H1 1335   4.497   4.107   3.276
  457TIP3    H2 1336   4.543   3.990   3.361
  458TIP3   OH2 1337   4.189   5.147   3.800
  458TIP3    H1 1338   4.183   5.239   3.772
  458TIP3    H2 1339   4.208   5.151   3.894
  459TIP3   OH2 1340   4.301   6.505   5.866
  459TIP3    H1 1341   4.281   6.429   5.811
  459TIP3    H2 1342   4.217   6.551   5.875
  460TIP3   OH2 1343   7.123   2.887   3.009
  460TIP3    H1 1344   7.189   2.952   3.033
  460TIP3    H2 1345   7.047   2.907   3.064
  461TIP3   OH2 1346   2.476   1.059   3.542
  461TIP3    H1 1347   2.414   1.131   3.528
  461TIP3    H2 1348   2.424   0.980   3.532
  462TIP3   OH2 1349   7.223   0.460   1.265
  462TIP3    H1 1350   7.220   0.392   1.332
  462TIP3    H2 1351   7.212   0.542   1.313
  463TIP3   OH2 1352   2.187   3.457   2.908
  463TIP3    H1 1353   2.187   3.551   2.888
  463TIP3    H2 1354   2.157   3.416   2.827
  464TIP3   OH2 1355   2.922   5.186   3.013
  464TIP3    H1 1356   2.953   5.241   3.084
  464TIP3    H2 1357   2.912   5.245   2.939
  465TIP3   OH2 1358   0.111   1.213   5.491
  465TIP3    H1 1359   0.105   1.272   5.416
  465TIP3    H2 1360   0.116   1.271   5.567
  466TIP3   OH2 1361   2.705   2.245   0.532
  466TIP3    H1 1362   2.724   2.292   0.613
  466TIP3    H2 1363   2.619   2.279   0.505
  467TIP3   OH2 1364   2.871   6.712   4.590
  467TIP3    H1 1365   2.782   6.693   4.622
  467TIP3    H2 1366   2.922   6.727   4.670
  468TIP3   OH2 1367   1.475   2.324   5.692
  468TIP3    H1 1368   1.383   2.342   5.675
  468TIP3    H2 1369   1.502   2.265   5.622
  469TIP3   OH2 1370   1.293   2.594   3.317
  469TIP3    H1 1371   1.356   2.626   3.253
  469TIP3    H2 1372   1.214   2.645   3.301
  470TIP3   OH2 1373   7.061   5.809   4.512
  470TIP3    H1 1374   7.066   5.789   4.419
  470TIP3    H2 1375   7.147   5.844   4.535
  471TIP3   OH2 1376   3.911   4.971   5.174
  471TIP3    H1 1377   3.964   5.050   5.182
  471TIP3    H2 1378   3.972   4.905   5.142
  472TIP3   OH2 1379   5.798   4.282   2.058
  472TIP3    H1 1380   5.778   4.189   2.049
  472TIP3    H2 1381   5.717   4.326   2.033
  473TIP3   OH2 1382   5.062   6.439   0.403
  473TIP3    H1 1383   5.074   6.347   0.380
  473TIP3    H2 1384   4.971   6.444   0.433
  474TIP3   OH2 1385   2.497  -0.004   2.620
  474TIP3    H1 1386   2.460   0.026   2.536
  474TIP3    H2 1387   2.450   0.047   2.686
  475TIP3   OH2 1388   4.600   3.289   4.088
  475TIP3    H1 1389   4.569   3.344   4.016
  475TIP3    H2 1390   4.521   3.256   4.130
  476TIP3   OH2 1391   4.928   6.488   3.609
  476TIP3    H1 1392   4.871   6.527   3.675
  476TIP3    H2 1393   5.007   6.463   3.656
  477TIP3   OH2 1394   3.497   3.886   4.689
  477TIP3    H1 1395   3.474   3.964   4.640
  477TIP3    H2 1396   3.506   3.916   4.780
  478TIP3   OH2 1397   0.309   1.079   0.565
  478TIP3    H1 1398   0.228   1.071   0.616
  478TIP3    H2 1399   0.363   1.140   0.615
  479TIP3   OH2 1400   0.313   5.160   2.092
  479TIP3    H1 1401   0.331   5.081   2.142
  479TIP3    H2 1402   0.334   5.232   2.152
  480TIP3   OH2 1403   4.450   1.031   0.092
  480TIP3    H1 1404   4.444   0.986   0.007
  480TIP3    H2 1405   4.515   1.100   0.078
  481TIP3   OH2 1406   6.780   3.302   0.439
  481TIP3    H1 1407   6.710   3.333   0.496
  481TIP3    H2 1408   6.856   3.357   0.461
  482TIP3   OH2 1409   1.597   1.127   5.106
  482TIP3    H1 1410   1.632   1.108   5.019
  482TIP3    H2 1411   1.674   1.142   5.161
  483TIP3   OH2 1412   4.148   3.483   5.497
  483TIP3    H1 1413   4.148   3.392   5.469
  483TIP3    H2 1414   4.055   3.505   5.507
  484TIP3   OH2 1415   3.444   5.849   0.505
  484TIP3    H1 1416   3.511   5.846   0.437
  484TIP3    H2 1417   3.479   5.796   0.576
  485TIP3   OH2 1418   3.595   5.896   2.184
  485TIP3    H1 1419   3.684   5.880   2.154
  485TIP3    H2 1420   3.541   5.835   2.133
  486TIP3   OH2 1421   6.213   2.816   1.645
  486TIP3    H1 1422   6.142   2.880   1.637
  486TIP3    H2 1423   6.171   2.736   1.677
  487TIP3   OH2 1424   4.830   4.817   2.400
  487TIP3    H1 1425   4.763   4.762   2.442
  487TIP3    H2 1426   4.853   4.769   2.321
  488TIP3   OH2 1427   2.622   1.523   5.351
  488TIP3    H1 1428   2.634   1.618   5.338
  488TIP3    H2 1429   2.531   1.507   5.326
  489TIP3   OH2 1430   6.884   1.474   0.053
  489TIP3    H1 1431   6.834   1.393   0.060
  489TIP3    H2 1432   6.930   1.466  -0.031
  490TIP3   OH2 1433   2.224   3.242   5.760
  490TIP3    H1 1434   2.233   3.185   5.836
  490TIP3    H2 1435   2.299   3.302   5.766
  491TIP3   OH2 1436   4.556   0.195   2.454
  491TIP3    H1 1437   4.596   0.129   2.510
  491TIP3    H2 1438   4.622   0.212   2.386
  492TIP3   OH2 1439   2.631   6.167   4.798
  492TIP3    H1 1440   2.595   6.104   4.860
  492TIP3    H2 1441   2.626   6.251   4.843
  493TIP3   OH2 1442   1.817   3.400   3.730
  493TIP3    H1 1443   1.864   3.378   3.650
  493TIP3    H2 1444   1.820   3.496   3.735
  494TIP3   OH2 1445   6.686   6.643   0.303
  494TIP3    H1 1446   6.733   6.702   0.361
  494TIP3    H2 1447   6.751   6.614   0.239
  495TIP3   OH2 1448   6.598   5.281   1.583
  495TIP3    H1 1449   6.684   5.317   1.605
  495TIP3    H2 1450   6.586   5.301   1.490
  496TIP3   OH2 1451   4.938   4.861   5.019
  496TIP3    H1 1452   4.958   4.833   4.930
  496TIP3    H2 1453   5.013   4.913   5.046
  497TIP3   OH2 1454   1.438   1.980   2.284
  497TIP3    H1 1455   1.476   2.068   2.285
  497TIP3    H2 1456   1.345   1.994   2.265
  498TIP3   OH2 1457   2.020   4.691   4.738
  498TIP3    H1 1458   2.045   4.783   4.748
  498TIP3    H2 1459   1.946   4.679   4.798
  499TIP3   OH2 1460   6.966   4.539   1.760
  499TIP3    H1 1461   7.058   4.561   1.756
  499TIP3    H2 1462   6.953   4.504   1.848
  500TIP3   OH2 1463   4.504   3.694   4.872
  500TIP3    H1 1464   4.489   3.775   4.823
  500TIP3    H2 1465   4.477   3.715   4.962
  501TIP3   OH2 1466   5.057   1.806   5.046
  501TIP3    H1 1467   4.991   1.864   5.085
  501TIP3    H2 1468   5.073   1.740   5.114
  502TIP3   OH2 1469   4.124   3.579   0.868
  502TIP3    H1 1470   4.173   3.659   0.887
  502TIP3    H2 1471   4.066   3.603   0.796
  503TIP3   OH2 1472   1.851   3.098   5.841
  503TIP3    H1 1473   1.912   3.171   5.851
  503TIP3    H2 1474   1.899   3.021   5.872
  504TIP3   OH2 1475   4.339   2.065   1.344
  504TIP3    H1 1476   4.393   2.015   1.282
  504TIP3    H2 1477   4.268   2.101   1.290
  505TIP3   OH2 1478   3.297   4.911   3.850
  505TIP3    H1 1479   3.231   4.942   3.911
  505TIP3    H2 1480   3.353   4.854   3.902
  506TIP3   OH2 1481   6.969   1.627   2.073
  506TIP3    H1 1482   7.059   1.642   2.046
  506TIP3    H2 1483   6.936   1.559   2.014
  507TIP3   OH2 1484   1.883   2.215   1.021
  507TIP3    H1 1485   1.837   2.270   0.958
  507TIP3    H2 1486   1.813   2.164   1.063
  508TIP3   OH2 1487   6.659   4.786   5.028
  508TIP3    H1 1488   6.712   4.846   5.081
  508TIP3    H2 1489   6.688   4.801   4.938
  509TIP3   OH2 1490   4.643   4.130   1.425
  509TIP3    H1 1491   4.571   4.158   1.368
  509TIP3    H2 1492   4.605   4.063   1.481
  510TIP3   OH2 1493   4.575   1.420   1.057
  510TIP3    H1 1494   4.524   1.459   1.128
  510TIP3    H2 1495   4.560   1.478   0.983
  511TIP3   OH2 1496   5.304   0.349   1.844
  511TIP3    H1 1497   5.312   0.255   1.856
  511TIP3    H2 1498   5.215   0.369   1.872
  512TIP3   OH2 1499   7.040   5.306   2.901
  512TIP3    H1 1500   7.047   5.396   2.933
  512TIP3    H2 1501   7.025   5.253   2.980
  513TIP3   OH2 1502   5.185   1.026   0.533
  513TIP3    H1 1503   5.253   1.017   0.599
  513TIP3    H2 1504   5.159   1.119   0.538
  514TIP3   OH2 1505   4.634   2.131   3.916
  514TIP3    H1 1506   4.636   2.062   3.850
  514TIP3    H2 1507   4.705   2.190   3.891
  515TIP3   OH2 1508   3.231   3.991   4.899
  515TIP3    H1 1509   3.242   3.940   4.980
  515TIP3    H2 1510   3.154   4.045   4.916
  516TIP3   OH2 1511   2.078   4.737   1.497
  516TIP3    H1 1512   2.006   4.789   1.531
  516TIP3    H2 1513   2.089   4.766   1.407
  517TIP3   OH2 1514   7.023   6.268   0.507
  517TIP3    H1 1515   6.958   6.238   0.443
  517TIP3    H2 1516   7.105   6.269   0.457
  518TIP3   OH2 1517   4.447   0.842   4.962
  518TIP3    H1 1518   4.368   0.893   4.948
  518TIP3    H2 1519   4.433   0.799   5.046
  519TIP3   OH2 1520   1.078   0.498   5.324
  519TIP3    H1 1521   1.048   0.585   5.300
  519TIP3    H2 1522   1.043   0.441   5.255
  520TIP3   OH2 1523   4.402   3.173   2.075
  520TIP3    H1 1524   4.484   3.221   2.085
  520TIP3    H2 1525   4.353   3.192   2.155
  521TIP3   OH2 1526   0.385   2.376   1.425
  521TIP3    H1 1527   0.383   2.409   1.515
  521TIP3    H2 1528   0.373   2.454   1.371
  522TIP3   OH2 1529   3.836   2.438   3.153
  522TIP3    H1 1530   3.869   2.521   3.186
  522TIP3    H2 1531   3.799   2.459   3.067
  523TIP3   OH2 1532   0.372   5.619   1.336
  523TIP3    H1 1533   0.340   5.663   1.415
  523TIP3    H2 1534   0.402   5.534   1.366
  524TIP3   OH2 1535   6.420   5.769   3.464
  524TIP3    H1 1536   6.452   5.727   3.384
  524TIP3    H2 1537   6.398   5.858   3.438
  525TIP3   OH2 1538   3.747   1.752   2.236
  525TIP3    H1 1539   3.836   1.717   2.245
  525TIP3    H2 1540   3.757   1.846   2.252
  526TIP3   OH2 1541   0.462   4.813   4.815
  526TIP3    H1 1542   0.535   4.817   4.877
  526TIP3    H2 1543   0.402   4.882   4.846
  527TIP3   OH2 1544   2.165   3.036   5.525
  527TIP3    H1 1545   2.173   3.106   5.590
  527TIP3    H2 1546   2.247   3.041   5.475
  528TIP3   OH2 1547   1.444   3.353   2.110
  528TIP3    H1 1548   1.514   3.296   2.077
  528TIP3    H2 1549   1.417   3.405   2.034
  529TIP3   OH2 1550   6.660   0.485   1.397
  529TIP3    H1 1551   6.569   0.511   1.407
  529TIP3    H2 1552   6.656   0.407   1.341
  530TIP3   OH2 1553   3.829   1.570   5.037
  530TIP3    H1 1554   3.754   1.529   5.080
  530TIP3    H2 1555   3.857   1.506   4.971
  531TIP3   OH2 1556   5.556   1.122   1.649
  531TIP3    H1 1557   5.493   1.099   1.580
  531TIP3    H2 1558   5.613   1.186   1.607
  532TIP3   OH2 1559   5.333   1.631   3.981
  532TIP3    H1 1560   5.330   1.535   3.977
  532TIP3    H2 1561   5.394   1.650   4.052
  533TIP3   OH2 1562   5.465   2.777   3.589
  533TIP3    H1 1563   5.557   2.788   3.565
  533TIP3    H2 1564   5.420   2.849   3.544
  534TIP3   OH2 1565   1.054   2.733   4.857
  534TIP3    H1 1566   0.997   2.679   4.912
  534TIP3    H2 1567   1.130   2.677   4.838
  535TIP3   OH2 1568   3.438   4.764   4.024
  535TIP3    H1 1569   3.409   4.758   4.115
  535TIP3    H2 1570   3.481   4.680   4.007
  536TIP3   OH2 1571   5.574   4.420   1.389
  536TIP3    H1 1572   5.655   4.435   1.340
  536TIP3    H2 1573   5.539   4.338   1.353
  537TIP3   OH2 1574   0.623   3.240   5.676
  537TIP3    H1 1575   0.715   3.265   5.663
  537TIP3    H2 1576   0.596   3.206   5.590
  538TIP3   OH2 1577   0.131   2.506   4.642
  538TIP3    H1 1578   0.199   2.464   4.695
  538TIP3    H2 1579   0.177   2.579   4.599
  539TIP3   OH2 1580   5.583   0.763   1.097
  539TIP3    H1 1581   5.551   0.726   1.015
  539TIP3    H2 1582   5.504   0.791   1.143
  540TIP3   OH2 1583   2.512   0.570   2.163
  540TIP3    H1 1584   2.548   0.593   2.077
  540TIP3    H2 1585   2.577   0.603   2.226
  541TIP3   OH2 1586   5.729   2.251   5.061
  541TIP3    H1 1587   5.757   2.198   4.987
  541TIP3    H2 1588   5.727   2.190   5.135
  542TIP3   OH2 1589   4.162   0.179   1.423
  542TIP3    H1 1590   4.074   0.153   1.450
  542TIP3    H2 1591   4.204   0.208   1.504
  543TIP3   OH2 1592   5.087   3.798   0.192
  543TIP3    H1 1593   5.029   3.725   0.175
  543TIP3    H2 1594   5.172   3.770   0.157
  544TIP3   OH2 1595   3.752   6.235   2.633
  544TIP3    H1 1596   3.666   6.219   2.594
  544TIP3    H2 1597   3.814   6.206   2.566
  545TIP3   OH2 1598   6.821   2.917   4.222
  545TIP3    H1 1599   6.726   2.915   4.206
  545TIP3    H2 1600   6.840   2.831   4.259
  546TIP3   OH2 1601   6.868   6.177   4.896
  546TIP3    H1 1602   6.863   6.176   4.991
  546TIP3    H2 1603   6.951   6.132   4.876
  547TIP3   OH2 1604   4.750   6.623   3.373
  547TIP3    H1 1605   4.817   6.554   3.377
  547TIP3    H2 1606   4.747   6.658   3.462
  548TIP3   OH2 1607   3.847   2.356   5.119
  548TIP3    H1 1608   3.865   2.413   5.193
  548TIP3    H2 1609   3.783   2.404   5.066
  549TIP3   OH2 1610   1.479   5.858   5.805
  549TIP3    H1 1611   1.503   5.800   5.878
  549TIP3    H2 1612   1.451   5.939   5.847
  550TIP3   OH2 1613   5.064   5.006   3.158
  550TIP3    H1 1614   5.056   4.949   3.235
  550TIP3    H2 1615   5.145   5.055   3.173
  551TIP3   OH2 1616   4.173   1.726   1.561
  551TIP3    H1 1617   4.230   1.657   1.595
  551TIP3    H2 1618   4.142   1.692   1.478
  552TIP3   OH2 1619   1.577   5.995   1.398
  552TIP3    H1 1620   1.509   6.034   1.453
  552TIP3    H2 1621   1.659   6.025   1.436
  553TIP3   OH2 1622   6.402   1.660   3.484
  553TIP3    H1 1623   6.441   1.596   3.544
  553TIP3    H2 1624   6.427   1.745   3.519
  554TIP3   OH2 1625   4.514   1.187   0.922
  554TIP3    H1 1626   4.506   1.257   0.987
  554TIP3    H2 1627   4.548   1.113   0.971
  555TIP3   OH2 1628   1.293   1.309   5.809
  555TIP3    H1 1629   1.239   1.267   5.743
  555TIP3    H2 1630   1.240   1.382   5.842
  556TIP3   OH2 1631   5.722   3.362   3.373
  556TIP3    H1 1632   5.689   3.349   3.462
  556TIP3    H2 1633   5.666   3.307   3.318
  557TIP3   OH2 1634   0.883   6.256   4.256
  557TIP3    H1 1635   0.829   6.334   4.245
  557TIP3    H2 1636   0.958   6.287   4.307
  558TIP3   OH2 1637   4.888   1.983   5.174
  558TIP3    H1 1638   4.870   1.950   5.262
  558TIP3    H2 1639   4.887   2.078   5.182
  559TIP3   OH2 1640   2.496   2.648   5.495
  559TIP3    H1 1641   2.561   2.586   5.462
  559TIP3    H2 1642   2.467   2.696   5.418
  560TIP3   OH2 1643   0.724   3.967   0.262
  560TIP3    H1 1644   0.644   3.915   0.263
  560TIP3    H2 1645   0.720   4.019   0.342
  561TIP3   OH2 1646   1.592   2.994   3.087
  561TIP3    H1 1647   1.508   2.965   3.051
  561TIP3    H2 1648   1.575   3.083   3.118
  562TIP3   OH2 1649   1.094   5.554   2.065
  562TIP3    H1 1650   1.014   5.600   2.041
  562TIP3    H2 1651   1.155   5.623   2.091
  563TIP3   OH2 1652   1.211   3.185   2.838
  563TIP3    H1 1653   1.247   3.272   2.820
  563TIP3    H2 1654   1.246   3.130   2.767
  564TIP3   OH2 1655   6.060   2.635   3.764
  564TIP3    H1 1656   6.038   2.614   3.673
  564TIP3    H2 1657   6.130   2.573   3.786
  565TIP3   OH2 1658   0.103   3.617   0.752
  565TIP3    H1 1659   0.108   3.665   0.835
  565TIP3    H2 1660   0.165   3.545   0.763
  566TIP3   OH2 1661   1.129   2.263   3.104
  566TIP3    H1 1662   1.168   2.224   3.026
  566TIP3    H2 1663   1.038   2.282   3.079
  567TIP3   OH2 1664   7.160   6.712   5.379
  567TIP3    H1 1665   7.115   6.780   5.330
  567TIP3    H2 1666   7.248   6.710   5.343
  568TIP3   OH2 1667   5.616   1.609   1.198
  568TIP3    H1 1668   5.570   1.585   1.118
  568TIP3    H2 1669   5.662   1.690   1.176
  569TIP3   OH2 1670   1.519   1.057   1.633
  569TIP3    H1 1671   1.561   1.073   1.549
  569TIP3    H2 1672   1.551   1.128   1.690
  570TIP3   OH2 1673   4.320   5.318   1.958
  570TIP3    H1 1674   4.346   5.230   1.986
  570TIP3    H2 1675   4.398   5.371   1.971
  571TIP3   OH2 1676   2.544   0.605   4.172
  571TIP3    H1 1677   2.458   0.639   4.149
  571TIP3    H2 1678   2.561   0.536   4.108
  572TIP3   OH2 1679   0.323   5.438   0.839
  572TIP3    H1 1680   0.257   5.500   0.808
  572TIP3    H2 1681   0.305   5.429   0.933
  573TIP3   OH2 1682   3.771   4.348   2.762
  573TIP3    H1 1683   3.788   4.330   2.855
  573TIP3    H2 1684   3.841   4.303   2.715
  574TIP3   OH2 1685   4.035   1.738   2.796
  574TIP3    H1 1686   4.101   1.767   2.734
  574TIP3    H2 1687   3.974   1.686   2.744
  575TIP3   OH2 1688   1.073   6.324   3.200
  575TIP3    H1 1689   1.045   6.252   3.256
  575TIP3    H2 1690   1.158   6.350   3.235
  576TIP3   OH2 1691   1.098   1.067   2.676
  576TIP3    H1 1692   1.142   0.988   2.644
  576TIP3    H2 1693   1.086   1.053   2.770
  577TIP3   OH2 1694   0.220   3.185   3.717
  577TIP3    H1 1695   0.280   3.241   3.767
  577TIP3    H2 1696   0.155   3.245   3.681
  578TIP3   OH2 1697   4.657   3.449   2.691
  578TIP3    H1 1698   4.745   3.477   2.667
  578TIP3    H2 1699   4.653   3.357   2.665
  579TIP3   OH2 1700   1.688   0.741   4.736
  579TIP3    H1 1701   1.754   0.750   4.804
  579TIP3    H2 1702   1.718   0.800   4.666
  580TIP3   OH2 1703   1.690   6.265   0.467
  580TIP3    H1 1704   1.783   6.283   0.477
  580TIP3    H2 1705   1.670   6.199   0.534
  581TIP3   OH2 1706   1.999   1.671   2.219
  581TIP3    H1 1707   1.932   1.726   2.260
  581TIP3    H2 1708   1.953   1.590   2.196
  582TIP3   OH2 1709   5.006   2.814   3.481
  582TIP3    H1 1710   4.986   2.780   3.568
  582TIP3    H2 1711   4.955   2.894   3.474
  583TIP3   OH2 1712   1.507   6.657   2.605
  583TIP3    H1 1713   1.508   6.574   2.653
  583TIP3    H2 1714   1.492   6.632   2.514
  584TIP3   OH2 1715   6.836   1.099   3.813
  584TIP3    H1 1716   6.870   1.013   3.839
  584TIP3    H2 1717   6.750   1.080   3.776
  585TIP3   OH2 1718   0.432   0.552   1.472
  585TIP3    H1 1719   0.366   0.526   1.537
  585TIP3    H2 1720   0.481   0.622   1.515
  586TIP3   OH2 1721   2.479   1.362   0.831
  586TIP3    H1 1722   2.551   1.348   0.770
  586TIP3    H2 1723   2.520   1.355   0.918
  587TIP3   OH2 1724   2.554   6.345   1.613
  587TIP3    H1 1725   2.627   6.297   1.575
  587TIP3    H2 1726   2.476   6.304   1.575
  588TIP3   OH2 1727   0.896   1.537   3.400
  588TIP3    H1 1728   0.879   1.575   3.314
  588TIP3    H2 1729   0.892   1.611   3.460
  589TIP3   OH2 1730   1.913   3.279   2.983
  589TIP3    H1 1731   1.928   3.295   3.076
  589TIP3    H2 1732   1.837   3.334   2.962
  590TIP3   OH2 1733   6.185   5.690   4.406
  590TIP3    H1 1734   6.247   5.664   4.339
  590TIP3    H2 1735   6.099   5.685   4.363
  591TIP3   OH2 1736   5.691   3.225   2.540
  591TIP3    H1 1737   5.650   3.141   2.562
  591TIP3    H2 1738   5.737   3.209   2.458
  592TIP3   OH2 1739   5.027   0.066   4.318
  592TIP3    H1 1740   5.111   0.112   4.309
  592TIP3    H2 1741   4.963   0.136   4.331
  593TIP3   OH2 1742   0.056   1.103   0.760
  593TIP3    H1 1743  -0.024   1.098   0.707
  593TIP3    H2 1744   0.101   1.020   0.742
  594TIP3   OH2 1745   3.425   6.771   0.183
  594TIP3    H1 1746   3.420   6.859   0.146
  594TIP3    H2 1747   3.464   6.782   0.269
  595TIP3   OH2 1748   2.134   1.297   5.000
  595TIP3    H1 1749   2.132   1.246   5.081
  595TIP3    H2 1750   2.228   1.313   4.985
  596TIP3   OH2 1751   5.549   5.292   5.068
  596TIP3    H1 1752   5.521   5.341   4.991
  596TIP3    H2 1753   5.515   5.204   5.054
  597TIP3   OH2 1754   3.034   1.135   2.327
  597TIP3    H1 1755   2.981   1.205   2.366
  597TIP3    H2 1756   3.107   1.181   2.285
  598TIP3   OH2 1757   0.260   3.296   3.297
  598TIP3    H1 1758   0.188   3.238   3.321
  598TIP3    H2 1759   0.331   3.272   3.356
  599TIP3   OH2 1760   1.571   2.761   1.124
  599TIP3    H1 1761   1.498   2.822   1.115
  599TIP3    H2 1762   1.605   2.777   1.212
  600TIP3   OH2 1763   4.612   2.679   2.877
  600TIP3    H1 1764   4.632   2.659   2.785
  600TIP3    H2 1765   4.520   2.653   2.888
  601TIP3   OH2 1766   1.916   0.328   1.102
  601TIP3    H1 1767   1.962   0.412   1.094
  601TIP3    H2 1768   1.829   0.352   1.133
  602TIP3   OH2 1769   6.824   0.632   0.945
  602TIP3    H1 1770   6.822   0.639   1.040
  602TIP3    H2 1771   6.788   0.545   0.927
  603TIP3   OH2 1772   3.906   1.792   3.750
  603TIP3    H1 1773   3.813   1.772   3.760
  603TIP3    H2 1774   3.913   1.885   3.775
  604TIP3   OH2 1775   6.548   3.924   2.729
  604TIP3    H1 1776   6.468   3.936   2.780
  604TIP3    H2 1777   6.529   3.964   2.645
  605TIP3   OH2 1778   0.145   5.350   1.991
  605TIP3    H1 1779   0.205   5.276   1.993
  605TIP3    H2 1780   0.069   5.321   2.041
  606TIP3   OH2 1781   4.907   1.939   1.614
  606TIP3    H1 1782   4.920   2.012   1.675
  606TIP3    H2 1783   4.847   1.880   1.660
  607TIP3   OH2 1784   3.340   0.851   0.054
  607TIP3    H1 1785   3.280   0.913   0.013
  607TIP3    H2 1786   3.400   0.827  -0.017
  608TIP3   OH2 1787   1.248   1.969   1.913
  608TIP3    H1 1788   1.298   1.940   1.990
  608TIP3    H2 1789   1.291   1.926   1.839
  609TIP3   OH2 1790   6.982   4.461   4.269
  609TIP3    H1 1791   7.014   4.405   4.197
  609TIP3    H2 1792   6.900   4.421   4.295
  610TIP3   OH2 1793   5.996   5.979   2.619
  610TIP3    H1 1794   5.928   5.921   2.653
  610TIP3    H2 1795   6.059   5.920   2.577
  611TIP3   OH2 1796   4.963   2.761   3.756
  611TIP3    H1 1797   4.868   2.761   3.769
  611TIP3    H2 1798   4.994   2.839   3.802
  612TIP3   OH2 1799   2.943   4.088   0.776
  612TIP3    H1 1800   2.848   4.098   0.771
  612TIP3    H2 1801   2.977   4.160   0.723
  613TIP3   OH2 1802   3.494   1.052   0.426
  613TIP3    H1 1803   3.399   1.061   0.412
  613TIP3    H2 1804   3.507   0.959   0.445
  614TIP3   OH2 1805   0.217   2.799   4.932
  614TIP3    H1 1806   0.177   2.777   5.016
  614TIP3    H2 1807   0.145   2.792   4.869
  615TIP3   OH2 1808   3.274   4.406   5.775
  615TIP3    H1 1809   3.244   4.360   5.853
  615TIP3    H2 1810   3.212   4.381   5.706
  616TIP3   OH2 1811   6.345   6.183   4.199
  616TIP3    H1 1812   6.391   6.192   4.282
  616TIP3    H2 1813   6.364   6.264   4.152
  617TIP3   OH2 1814   3.567   0.650   3.242
  617TIP3    H1 1815   3.587   0.677   3.153
  617TIP3    H2 1816   3.479   0.685   3.258
  618TIP3   OH2 1817   1.343   3.702   0.949
  618TIP3    H1 1818   1.290   3.631   0.988
  618TIP3    H2 1819   1.309   3.782   0.990
  619TIP3   OH2 1820   5.151   5.079   1.663
  619TIP3    H1 1821   5.237   5.038   1.659
  619TIP3    H2 1822   5.153   5.147   1.595
  620TIP3   OH2 1823   0.173   0.699   5.529
  620TIP3    H1 1824   0.179   0.691   5.624
  620TIP3    H2 1825   0.213   0.784   5.509
  621TIP3   OH2 1826   5.820   2.339   3.718
  621TIP3    H1 1827   5.874   2.357   3.795
  621TIP3    H2 1828   5.760   2.413   3.714
  622TIP3   OH2 1829   2.923   1.961   4.091
  622TIP3    H1 1830   2.914   1.874   4.053
  622TIP3    H2 1831   2.927   2.021   4.016
  623TIP3   OH2 1832   4.390   4.177   0.486
  623TIP3    H1 1833   4.473   4.134   0.466
  623TIP3    H2 1834   4.384   4.249   0.423
  624TIP3   OH2 1835   0.652   3.679   2.676
  624TIP3    H1 1836   0.690   3.766   2.681
  624TIP3    H2 1837   0.568   3.691   2.632
  625TIP3   OH2 1838   6.046   2.114   4.949
  625TIP3    H1 1839   5.958   2.103   4.912
  625TIP3    H2 1840   6.040   2.075   5.036
  626TIP3   OH2 1841   0.590   1.882   4.299
  626TIP3    H1 1842   0.521   1.908   4.359
  626TIP3    H2 1843   0.641   1.962   4.285
  627TIP3   OH2 1844   0.788   2.533   2.792
  627TIP3    H1 1845   0.705   2.501   2.828
  627TIP3    H2 1846   0.765   2.616   2.749
  628TIP3   OH2 1847   4.850   4.289   1.592
  628TIP3    H1 1848   4.819   4.216   1.538
  628TIP3    H2 1849   4.770   4.330   1.626
  629TIP3   OH2 1850   6.677   1.148   3.067
  629TIP3    H1 1851   6.668   1.085   3.138
  629TIP3    H2 1852   6.735   1.216   3.102
  630TIP3   OH2 1853   4.543   3.670   1.006
  630TIP3    H1 1854   4.522   3.595   1.060
  630TIP3    H2 1855   4.459   3.709   0.983
  631TIP3   OH2 1856   1.025   1.226   2.278
  631TIP3    H1 1857   1.013   1.244   2.185
  631TIP3    H2 1858   0.936   1.212   2.311
  632TIP3   OH2 1859   4.196   2.495   1.896
  632TIP3    H1 1860   4.149   2.554   1.837
  632TIP3    H2 1861   4.254   2.444   1.839
  633TIP3   OH2 1862   4.698   5.114   2.856
  633TIP3    H1 1863   4.698   5.022   2.832
  633TIP3    H2 1864   4.606   5.138   2.862
  634TIP3   OH2 1865   0.584   4.613   2.998
  634TIP3    H1 1866   0.540   4.550   2.941
  634TIP3    H2 1867   0.639   4.664   2.939
  635TIP3   OH2 1868   1.181   2.223   1.046
  635TIP3    H1 1869   1.123   2.295   1.023
  635TIP3    H2 1870   1.173   2.215   1.141
  636TIP3   OH2 1871   5.523   2.652   5.911
  636TIP3    H1 1872   5.448   2.698   5.950
  636TIP3    H2 1873   5.483   2.585   5.855
  637TIP3   OH2 1874   4.038   4.145   0.737
  637TIP3    H1 1875   4.021   4.107   0.824
  637TIP3    H2 1876   3.958   4.129   0.688
  638TIP3   OH2 1877   0.741   3.878   4.167
  638TIP3    H1 1878   0.706   3.814   4.106
  638TIP3    H2 1879   0.683   3.954   4.158
  639TIP3   OH2 1880   1.969   4.480   5.700
  639TIP3    H1 1881   1.900   4.428   5.659
  639TIP3    H2 1882   1.962   4.459   5.793
  640TIP3   OH2 1883   2.050   3.504   1.093
  640TIP3    H1 1884   2.033   3.552   1.174
  640TIP3    H2 1885   1.970   3.514   1.042
  641TIP3   OH2 1886   5.151   2.523   3.801
  641TIP3    H1 1887   5.073   2.576   3.815
  641TIP3    H2 1888   5.203   2.572   3.738
  642TIP3   OH2 1889   2.362   5.785   2.059
  642TIP3    H1 1890   2.321   5.846   1.998
  642TIP3    H2 1891   2.290   5.730   2.089
  643TIP3   OH2 1892   3.011   3.045   3.794
  643TIP3    H1 1893   2.958   2.973   3.828
  643TIP3    H2 1894   3.064   3.005   3.725
  644TIP3   OH2 1895   4.832   2.269   0.383
  644TIP3    H1 1896   4.867   2.279   0.471
  644TIP3    H2 1897   4.907   2.241   0.330
  645TIP3   OH2 1898   0.879   2.055   3.022
  645TIP3    H1 1899   0.859   2.148   3.016
  645TIP3    H2 1900   0.953   2.050   3.082
  646TIP3   OH2 1901   1.458   2.810   0.517
  646TIP3    H1 1902   1.407   2.891   0.509
  646TIP3    H2 1903   1.478   2.786   0.427
  647TIP3   OH2 1904   1.233   4.942   0.005
  647TIP3    H1 1905   1.202   4.884   0.075
  647TIP3    H2 1906   1.275   5.015   0.051
  648TIP3   OH2 1907   0.517   3.536   0.176
  648TIP3    H1 1908   0.436   3.486   0.166
  648TIP3    H2 1909   0.570   3.511   0.100
  649TIP3   OH2 1910   1.560   6.210   0.221
  649TIP3    H1 1911   1.477   6.245   0.256
  649TIP3    H2 1912   1.617   6.205   0.298
  650TIP3   OH2 1913   0.304   3.594   0.983
  650TIP3    H1 1914   0.381   3.630   0.939
  650TIP3    H2 1915   0.338   3.523   1.038
  651TIP3   OH2 1916   3.173   2.059   4.570
  651TIP3    H1 1917   3.186   1.985   4.629
  651TIP3    H2 1918   3.108   2.114   4.615
  652TIP3   OH2 1919   2.911   1.828   0.260
  652TIP3    H1 1920   2.832   1.872   0.292
  652TIP3    H2 1921   2.937   1.770   0.332
  653TIP3   OH2 1922   3.678   3.377   0.850
  653TIP3    H1 1923   3.671   3.472   0.861
  653TIP3    H2 1924   3.662   3.342   0.937
  654TIP3   OH2 1925   3.858   2.994   4.037
  654TIP3    H1 1926   3.860   2.920   4.097
  654TIP3    H2 1927   3.881   3.070   4.091
  655TIP3   OH2 1928   4.984   1.550   1.599
  655TIP3    H1 1929   5.058   1.490   1.611
  655TIP3    H2 1930   4.978   1.598   1.681
  656TIP3   OH2 1931   0.956   4.226   2.867
  656TIP3    H1 1932   0.996   4.185   2.943
  656TIP3    H2 1933   0.863   4.230   2.888
  657TIP3   OH2 1934   2.448   1.229   0.473
  657TIP3    H1 1935   2.476   1.298   0.414
  657TIP3    H2 1936   2.479   1.148   0.432
  658TIP3   OH2 1937   5.987   0.528   3.030
  658TIP3    H1 1938   5.981   0.528   3.125
  658TIP3    H2 1939   5.924   0.463   3.002
  659TIP3   OH2 1940   2.306   2.300   4.148
  659TIP3    H1 1941   2.223   2.346   4.156
  659TIP3    H2 1942   2.344   2.334   4.066
  660TIP3   OH2 1943   2.167   1.321   0.505
  660TIP3    H1 1944   2.250   1.286   0.474
  660TIP3    H2 1945   2.188   1.363   0.589
  661TIP3   OH2 1946   2.117   5.466   3.466
  661TIP3    H1 1947   2.144   5.512   3.387
  661TIP3    H2 1948   2.179   5.393   3.474
  662TIP3   OH2 1949   1.758   5.652   0.826
  662TIP3    H1 1950   1.713   5.612   0.900
  662TIP3    H2 1951   1.691   5.656   0.757
  663TIP3   OH2 1952   0.633   3.965   3.835
  663TIP3    H1 1953   0.591   4.022   3.770
  663TIP3    H2 1954   0.560   3.917   3.874
  664TIP3   OH2 1955   1.472   2.152   5.498
  664TIP3    H1 1956   1.506   2.071   5.536
  664TIP3    H2 1957   1.477   2.138   5.403
  665TIP3   OH2 1958   4.642   5.277   4.792
  665TIP3    H1 1959   4.658   5.183   4.784
  665TIP3    H2 1960   4.552   5.288   4.762
  666TIP3   OH2 1961   6.472   1.087   3.969
  666TIP3    H1 1962   6.508   1.013   3.919
  666TIP3    H2 1963   6.534   1.099   4.041
  667TIP3   OH2 1964   4.005   5.073   0.644
  667TIP3    H1 1965   4.063   5.078   0.720
  667TIP3    H2 1966   4.059   5.034   0.575
  668TIP3   OH2 1967   4.658   4.726   4.723
  668TIP3    H1 1968   4.721   4.661   4.691
  668TIP3    H2 1969   4.656   4.713   4.818
  669TIP3   OH2 1970   7.099   2.579   1.932
  669TIP3    H1 1971   7.032   2.597   1.866
  669TIP3    H2 1972   7.177   2.625   1.901
  670TIP3   OH2 1973   2.511   2.721   1.817
  670TIP3    H1 1974   2.513   2.720   1.722
  670TIP3    H2 1975   2.420   2.697   1.839
  671TIP3   OH2 1976   4.496   3.852   5.585
  671TIP3    H1 1977   4.444   3.924   5.622
  671TIP3    H2 1978   4.464   3.774   5.631
  672TIP3   OH2 1979   1.985   2.777   3.302
  672TIP3    H1 1980   1.906   2.819   3.336
  672TIP3    H2 1981   2.021   2.842   3.241
  673TIP3   OH2 1982   0.103   5.356   5.674
  673TIP3    H1 1983   0.104   5.335   5.767
  673TIP3    H2 1984   0.011   5.375   5.654
  674TIP3   OH2 1985   5.030   5.677   5.275
  674TIP3    H1 1986   5.029   5.659   5.369
  674TIP3    H2 1987   5.108   5.731   5.262
  675TIP3   OH2 1988   0.763   2.079   0.979
  675TIP3    H1 1989   0.790   2.124   0.899
  675TIP3    H2 1990   0.834   2.017   0.997
  676TIP3   OH2 1991   5.527   6.017   5.336
  676TIP3    H1 1992   5.550   6.060   5.419
  676TIP3    H2 1993   5.494   6.088   5.281
  677TIP3   OH2 1994   5.745   0.886   0.359
  677TIP3    H1 1995   5.682   0.824   0.323
  677TIP3    H2 1996   5.692   0.960   0.389
  678TIP3   OH2 1997   3.624   4.682   2.123
  678TIP3    H1 1998   3.643   4.737   2.199
  678TIP3    H2 1999   3.658   4.732   2.048
  679TIP3   OH2 2000   0.349   1.486   2.260
  679TIP3    H1 2001   0.396   1.523   2.185
  679TIP3    H2 2002   0.348   1.556   2.325
  680TIP3   OH2 2003   0.798   4.674   4.729
  680TIP3    H1 2004   0.779   4.759   4.690
  680TIP3    H2 2005   0.836   4.623   4.658
  681TIP3   OH2 2006   2.256   1.962   5.835
  681TIP3    H1 2007   2.335   1.973   5.782
  681TIP3    H2 2008   2.243   1.868   5.840
  682TIP3   OH2 2009   7.095   6.243   4.555
  682TIP3    H1 2010   7.115   6.326   4.511
  682TIP3    H2 2011   7.179   6.215   4.592
  683TIP3   OH2 2012   1.548   1.742   3.148
  683TIP3    H1 2013   1.552   1.699   3.062
  683TIP3    H2 2014   1.580   1.831   3.132
  684TIP3   OH2 2015   3.011   1.067   4.927
  684TIP3    H1 2016   2.968   1.099   4.848
  684TIP3    H2 2017   3.039   1.146   4.973
  685TIP3   OH2 2018   5.920   0.131   2.210
  685TIP3    H1 2019   5.968   0.160   2.132
  685TIP3    H2 2020   5.911   0.036   2.198
  686TIP3   OH2 2021   3.553   1.837   1.417
  686TIP3    H1 2022   3.564   1.929   1.443
  686TIP3    H2 2023   3.642   1.806   1.402
  687TIP3   OH2 2024   1.236   6.644   4.419
  687TIP3    H1 2025   1.251   6.563   4.468
  687TIP3    H2 2026   1.241   6.713   4.485
  688TIP3   OH2 2027   5.662   3.953   0.457
  688TIP3    H1 2028   5.749   3.915   0.463
  688TIP3    H2 2029   5.642   3.983   0.546
  689TIP3   OH2 2030   5.163   6.145   3.686
  689TIP3    H1 2031   5.147   6.066   3.736
  689TIP3    H2 2032   5.258   6.147   3.674
  690TIP3   OH2 2033   5.259   6.451   1.852
  690TIP3    H1 2034   5.317   6.470   1.778
  690TIP3    H2 2035   5.176   6.491   1.829
  691TIP3   OH2 2036   2.835   0.212   1.858
  691TIP3    H1 2037   2.825   0.215   1.954
  691TIP3    H2 2038   2.775   0.279   1.826
  692TIP3   OH2 2039   2.420   2.884   2.215
  692TIP3    H1 2040   2.481   2.891   2.142
  692TIP3    H2 2041   2.441   2.799   2.255
  693TIP3   OH2 2042   0.193   5.322   1.542
  693TIP3    H1 2043   0.207   5.386   1.611
  693TIP3    H2 2044   0.237   5.243   1.574
  694TIP3   OH2 2045   0.644   4.074   4.616
  694TIP3    H1 2046   0.617   4.166   4.612
  694TIP3    H2 2047   0.719   4.068   4.557
  695TIP3   OH2 2048   5.471   1.977   0.110
  695TIP3    H1 2049   5.473   1.956   0.203
  695TIP3    H2 2050   5.492   2.071   0.106
  696TIP3   OH2 2051   0.640   1.319   0.475
  696TIP3    H1 2052   0.598   1.283   0.397
  696TIP3    H2 2053   0.598   1.404   0.488
  697TIP3   OH2 2054   2.486   1.460   3.962
  697TIP3    H1 2055   2.471   1.493   4.050
  697TIP3    H2 2056   2.505   1.367   3.974
  698TIP3   OH2 2057   5.127   6.595   1.651
  698TIP3    H1 2058   5.033   6.595   1.634
  698TIP3    H2 2059   5.166   6.563   1.570
  699TIP3   OH2 2060   4.090   3.137   0.538
  699TIP3    H1 2061   4.142   3.152   0.617
  699TIP3    H2 2062   4.000   3.159   0.564
  700TIP3   OH2 2063   1.168   2.153   5.396
  700TIP3    H1 2064   1.123   2.236   5.411
  700TIP3    H2 2065   1.256   2.166   5.431
  701TIP3   OH2 2066   5.868   0.010   4.429
  701TIP3    H1 2067   5.911   0.095   4.422
  701TIP3    H2 2068   5.801   0.012   4.361
  702TIP3   OH2 2069   2.644   2.900   2.727
  702TIP3    H1 2070   2.726   2.910   2.775
  702TIP3    H2 2071   2.590   2.845   2.784
  703TIP3   OH2 2072   1.694   2.824   5.775
  703TIP3    H1 2073   1.750   2.894   5.743
  703TIP3    H2 2074   1.751   2.747   5.777
  704TIP3   OH2 2075   5.256   2.294   0.699
  704TIP3    H1 2076   5.177   2.241   0.687
  704TIP3    H2 2077   5.284   2.275   0.788
  705TIP3   OH2 2078   1.188   5.862   5.735
  705TIP3    H1 2079   1.284   5.857   5.725
  705TIP3    H2 2080   1.154   5.796   5.675
  706TIP3   OH2 2081   3.731   2.321   4.193
  706TIP3    H1 2082   3.704   2.276   4.273
  706TIP3    H2 2083   3.695   2.268   4.122
  707TIP3   OH2 2084   4.727   4.995   1.807
  707TIP3    H1 2085   4.788   5.052   1.761
  707TIP3    H2 2086   4.736   5.019   1.899
  708TIP3   OH2 2087   0.996   2.220   5.051
  708TIP3    H1 2088   1.065   2.274   5.089
  708TIP3    H2 2089   1.014   2.221   4.957
  709TIP3   OH2 2090   3.852   0.989   3.082
  709TIP3    H1 2091   3.933   0.945   3.060
  709TIP3    H2 2092   3.853   1.070   3.031
  710TIP3   OH2 2093   6.874   5.444   2.224
  710TIP3    H1 2094   6.781   5.459   2.204
  710TIP3    H2 2095   6.875   5.418   2.316
  711TIP3   OH2 2096   6.467   4.036   1.024
  711TIP3    H1 2097   6.387   3.989   0.998
  711TIP3    H2 2098   6.529   3.966   1.044
  712TIP3   OH2 2099   2.618   3.981   3.192
  712TIP3    H1 2100   2.700   3.986   3.242
  712TIP3    H2 2101   2.607   3.887   3.176
  713TIP3   OH2 2102   2.041   3.552   4.451
  713TIP3    H1 2103   2.048   3.566   4.546
  713TIP3    H2 2104   2.023   3.458   4.442
  714TIP3   OH2 2105   1.782   3.183   4.828
  714TIP3    H1 2106   1.720   3.149   4.893
  714TIP3    H2 2107   1.862   3.132   4.842
  715TIP3   OH2 2108   5.262   2.597   0.382
  715TIP3    H1 2109   5.269   2.691   0.400
  715TIP3    H2 2110   5.286   2.555   0.464
  716TIP3   OH2 2111   0.439   3.951   5.555
  716TIP3    H1 2112   0.346   3.969   5.568
  716TIP3    H2 2113   0.466   4.013   5.487
  717TIP3   OH2 2114   1.034   4.806   5.065
  717TIP3    H1 2115   0.967   4.738   5.052
  717TIP3    H2 2116   1.106   4.781   5.007
  718TIP3   OH2 2117   1.522   4.947   5.788
  718TIP3    H1 2118   1.575   5.007   5.736
  718TIP3    H2 2119   1.432   4.975   5.772
  719TIP3   OH2 2120   1.636   4.472   4.507
  719TIP3    H1 2121   1.603   4.443   4.592
  719TIP3    H2 2122   1.703   4.537   4.528
  720TIP3   OH2 2123   4.722   2.864   2.670
  720TIP3    H1 2124   4.631   2.892   2.672
  720TIP3    H2 2125   4.769   2.937   2.629
  721TIP3   OH2 2126   6.554   3.741   4.060
  721TIP3    H1 2127   6.476   3.792   4.036
  721TIP3    H2 2128   6.539   3.655   4.019
  722TIP3   OH2 2129   2.516   5.556   4.830
  722TIP3    H1 2130   2.518   5.466   4.796
  722TIP3    H2 2131   2.434   5.592   4.797
  723TIP3   OH2 2132   1.894   3.706   0.678
  723TIP3    H1 2133   1.915   3.618   0.709
  723TIP3    H2 2134   1.847   3.692   0.596
  724TIP3   OH2 2135   6.200   1.228   3.795
  724TIP3    H1 2136   6.124   1.199   3.845
  724TIP3    H2 2137   6.229   1.150   3.747
  725TIP3   OH2 2138   1.051   1.935   4.629
  725TIP3    H1 2139   1.101   1.853   4.633
  725TIP3    H2 2140   1.093   1.986   4.560
  726TIP3   OH2 2141   6.405   5.498   1.263
  726TIP3    H1 2142   6.428   5.555   1.189
  726TIP3    H2 2143   6.485   5.450   1.282
  727TIP3   OH2 2144   7.224   1.855   4.887
  727TIP3    H1 2145   7.217   1.872   4.793
  727TIP3    H2 2146   7.230   1.941   4.927
  728TIP3   OH2 2147   6.003   4.571   3.397
  728TIP3    H1 2148   6.079   4.519   3.422
  728TIP3    H2 2149   6.039   4.644   3.347
  729TIP3   OH2 2150   0.956   2.036   0.477
  729TIP3    H1 2151   0.891   1.991   0.422
  729TIP3    H2 2152   0.996   1.966   0.528
  730TIP3   OH2 2153   1.304   5.628   3.689
  730TIP3    H1 2154   1.298   5.718   3.721
  730TIP3    H2 2155   1.392   5.599   3.713
  731TIP3   OH2 2156   3.523   3.936   3.651
  731TIP3    H1 2157   3.510   3.957   3.744
  731TIP3    H2 2158   3.483   4.009   3.605
  732TIP3   OH2 2159   4.566   5.373   0.449
  732TIP3    H1 2160   4.592   5.422   0.371
  732TIP3    H2 2161   4.582   5.434   0.522
  733TIP3   OH2 2162   2.669   3.318   1.437
  733TIP3    H1 2163   2.599   3.261   1.470
  733TIP3    H2 2164   2.654   3.324   1.343
  734TIP3   OH2 2165   0.830   2.772   0.268
  734TIP3    H1 2166   0.864   2.813   0.189
  734TIP3    H2 2167   0.736   2.788   0.264
  735TIP3   OH2 2168   5.626   6.496   4.218
  735TIP3    H1 2169   5.579   6.484   4.135
  735TIP3    H2 2170   5.718   6.506   4.192
  736TIP3   OH2 2171   6.986   5.783   0.587
  736TIP3    H1 2172   6.983   5.868   0.630
  736TIP3    H2 2173   7.006   5.802   0.496
  737TIP3   OH2 2174   4.037   5.163   4.512
  737TIP3    H1 2175   4.024   5.206   4.428
  737TIP3    H2 2176   3.997   5.222   4.576
  738TIP3   OH2 2177   0.976   5.282   3.219
  738TIP3    H1 2178   0.950   5.370   3.191
  738TIP3    H2 2179   0.964   5.228   3.141
  739TIP3   OH2 2180   2.442   5.018   2.719
  739TIP3    H1 2181   2.471   5.017   2.810
  739TIP3    H2 2182   2.483   5.096   2.681
  740TIP3   OH2 2183   5.532   2.874   2.343
  740TIP3    H1 2184   5.605   2.826   2.381
  740TIP3    H2 2185   5.522   2.837   2.255
  741TIP3   OH2 2186   4.326   0.996   4.119
  741TIP3    H1 2187   4.390   0.930   4.149
  741TIP3    H2 2188   4.350   1.075   4.167
  742TIP3   OH2 2189  -0.008   6.278   0.727
  742TIP3    H1 2190   0.018   6.366   0.701
  742TIP3    H2 2191  -0.019   6.230   0.645
  743TIP3   OH2 2192   6.591   2.185   2.060
  743TIP3    H1 2193   6.502   2.164   2.089
  743TIP3    H2 2194   6.589   2.278   2.040
  744TIP3   OH2 2195   0.146   0.197   0.328
  744TIP3    H1 2196   0.221   0.205   0.386
  744TIP3    H2 2197   0.134   0.103   0.317
  745TIP3   OH2 2198   6.067   6.751   2.971
  745TIP3    H1 2199   5.992   6.786   2.923
  745TIP3    H2 2200   6.118   6.828   2.996
  746TIP3   OH2 2201   7.073   3.320   2.028
  746TIP3    H1 2202   7.080   3.365   2.112
  746TIP3    H2 2203   7.155   3.272   2.019
  747TIP3   OH2 2204   2.977   0.793   1.009
  747TIP3    H1 2205   2.941   0.850   0.941
  747TIP3    H2 2206   2.989   0.850   1.085
  748TIP3   OH2 2207   5.222   6.052   4.089
  748TIP3    H1 2208   5.261   6.070   4.175
  748TIP3    H2 2209   5.296   6.060   4.028
  749TIP3   OH2 2210   5.489   2.472   3.871
  749TIP3    H1 2211   5.547   2.491   3.798
  749TIP3    H2 2212   5.536   2.501   3.949
  750TIP3   OH2 2213   0.386   6.578   2.468
  750TIP3    H1 2214   0.431   6.634   2.531
  750TIP3    H2 2215   0.319   6.534   2.519
  751TIP3   OH2 2216   7.066   0.232   0.493
  751TIP3    H1 2217   7.160   0.222   0.480
  751TIP3    H2 2218   7.034   0.142   0.507
  752TIP3   OH2 2219   1.268   2.220   2.872
  752TIP3    H1 2220   1.219   2.189   2.797
  752TIP3    H2 2221   1.356   2.237   2.839
  753TIP3   OH2 2222   0.610   4.558   5.094
  753TIP3    H1 2223   0.536   4.579   5.151
  753TIP3    H2 2224   0.577   4.491   5.034
  754TIP3   OH2 2225   2.166   0.992   2.072
  754TIP3    H1 2226   2.084   0.950   2.047
  754TIP3    H2 2227   2.210   0.928   2.128
  755TIP3   OH2 2228   2.017   1.397   3.523
  755TIP3    H1 2229   2.038   1.489   3.541
  755TIP3    H2 2230   1.924   1.397   3.503
  756TIP3   OH2 2231   5.444   1.673   4.292
  756TIP3    H1 2232   5.512   1.647   4.354
  756TIP3    H2 2233   5.386   1.730   4.342
  757TIP3   OH2 2234   4.635   5.528   1.486
  757TIP3    H1 2235   4.706   5.568   1.537
  757TIP3    H2 2236   4.628   5.582   1.407
  758TIP3   OH2 2237   2.874   3.031   0.088
  758TIP3    H1 2238   2.968   3.028   0.105
  758TIP3    H2 2239   2.867   3.067   0.000
  759TIP3   OH2 2240   5.847   2.227   2.164
  759TIP3    H1 2241   5.758   2.224   2.129
  759TIP3    H2 2242   5.890   2.151   2.125
  760TIP3   OH2 2243   4.743   6.441   4.799
  760TIP3    H1 2244   4.743   6.521   4.747
  760TIP3    H2 2245   4.794   6.379   4.748
  761TIP3   OH2 2246   2.445   0.448   5.683
  761TIP3    H1 2247   2.444   0.370   5.738
  761TIP3    H2 2248   2.437   0.415   5.594
  762TIP3   OH2 2249   4.449   5.767   1.113
  762TIP3    H1 2250   4.394   5.844   1.129
  762TIP3    H2 2251   4.530   5.803   1.076
  763TIP3   OH2 2252   5.360   5.865   0.075
  763TIP3    H1 2253   5.368   5.876   0.169
  763TIP3    H2 2254   5.422   5.795   0.054
  764TIP3   OH2 2255   5.583   2.987   1.209
  764TIP3    H1 2256   5.646   3.033   1.154
  764TIP3    H2 2257   5.516   3.052   1.230
  765TIP3   OH2 2258   7.200   4.621   4.318
  765TIP3    H1 2259   7.184   4.707   4.279
  765TIP3    H2 2260   7.119   4.572   4.303
  766TIP3   OH2 2261   2.835   3.182   4.314
  766TIP3    H1 2262   2.804   3.243   4.381
  766TIP3    H2 2263   2.758   3.167   4.258
  767TIP3   OH2 2264   1.464   6.337   4.979
  767TIP3    H1 2265   1.560   6.333   4.973
  767TIP3    H2 2266   1.434   6.276   4.911
  768TIP3   OH2 2267   6.739   5.304   4.081
  768TIP3    H1 2268   6.691   5.313   3.999
  768TIP3    H2 2269   6.700   5.227   4.123
  769TIP3   OH2 2270   7.020   3.104   0.374
  769TIP3    H1 2271   6.960   3.174   0.401
  769TIP3    H2 2272   6.969   3.024   0.382
  770TIP3   OH2 2273   1.606   2.479   4.868
  770TIP3    H1 2274   1.582   2.572   4.859
  770TIP3    H2 2275   1.529   2.432   4.837
  771TIP3   OH2 2276   2.433   1.149   4.428
  771TIP3    H1 2277   2.517   1.134   4.386
  771TIP3    H2 2278   2.439   1.238   4.463
  772TIP3   OH2 2279   6.856   3.309   2.984
  772TIP3    H1 2280   6.817   3.394   2.968
  772TIP3    H2 2281   6.803   3.248   2.934
  773TIP3   OH2 2282   5.343   3.579   5.651
  773TIP3    H1 2283   5.389   3.653   5.691
  773TIP3    H2 2284   5.251   3.592   5.674
  774TIP3   OH2 2285   5.448   2.447   1.445
  774TIP3    H1 2286   5.407   2.530   1.469
  774TIP3    H2 2287   5.539   2.469   1.429
  775TIP3   OH2 2288   6.725   4.779   5.365
  775TIP3    H1 2289   6.766   4.761   5.281
  775TIP3    H2 2290   6.781   4.736   5.429
  776TIP3   OH2 2291   3.782   0.976   1.750
  776TIP3    H1 2292   3.810   1.067   1.736
  776TIP3    H2 2293   3.800   0.932   1.667
  777TIP3   OH2 2294   4.385   3.443   1.902
  777TIP3    H1 2295   4.338   3.510   1.852
  777TIP3    H2 2296   4.375   3.470   1.993
  778TIP3   OH2 2297   0.855   2.503   3.651
  778TIP3    H1 2298   0.777   2.521   3.703
  778TIP3    H2 2299   0.927   2.540   3.703
  779TIP3   OH2 2300   1.324   0.487   3.410
  779TIP3    H1 2301   1.348   0.452   3.495
  779TIP3    H2 2302   1.397   0.544   3.386
  780TIP3   OH2 2303   2.400   1.546   4.260
  780TIP3    H1 2304   2.353   1.470   4.224
  780TIP3    H2 2305   2.334   1.591   4.312
  781TIP3   OH2 2306   1.190   2.052   2.368
  781TIP3    H1 2307   1.164   1.960   2.368
  781TIP3    H2 2308   1.193   2.077   2.460
  782TIP3   OH2 2309   2.206   2.229   3.101
  782TIP3    H1 2310   2.111   2.213   3.103
  782TIP3    H2 2311   2.219   2.302   3.162
  783TIP3   OH2 2312   5.382   3.940   4.069
  783TIP3    H1 2313   5.325   4.009   4.102
  783TIP3    H2 2314   5.343   3.859   4.103
  784TIP3   OH2 2315   6.963   0.914   2.021
  784TIP3    H1 2316   7.021   0.841   2.040
  784TIP3    H2 2317   6.902   0.880   1.955
  785TIP3   OH2 2318   3.002   1.863   4.706
  785TIP3    H1 2319   2.993   1.905   4.792
  785TIP3    H2 2320   3.088   1.821   4.708
  786TIP3   OH2 2321   2.144   5.209   3.880
  786TIP3    H1 2322   2.129   5.268   3.807
  786TIP3    H2 2323   2.059   5.166   3.894
  787TIP3   OH2 2324   6.679   5.460   3.309
  787TIP3    H1 2325   6.749   5.440   3.372
  787TIP3    H2 2326   6.698   5.405   3.233
  788TIP3   OH2 2327   3.582   0.410   4.258
  788TIP3    H1 2328   3.571   0.366   4.342
  788TIP3    H2 2329   3.508   0.470   4.252
  789TIP3   OH2 2330   4.708   3.289   3.606
  789TIP3    H1 2331   4.697   3.363   3.546
  789TIP3    H2 2332   4.620   3.253   3.615
  790TIP3   OH2 2333   1.497   0.556   5.768
  790TIP3    H1 2334   1.447   0.545   5.849
  790TIP3    H2 2335   1.500   0.651   5.754
  791TIP3   OH2 2336   6.875   6.664   3.981
  791TIP3    H1 2337   6.870   6.586   3.925
  791TIP3    H2 2338   6.788   6.703   3.975
  792TIP3   OH2 2339   1.826   1.638   4.176
  792TIP3    H1 2340   1.773   1.717   4.165
  792TIP3    H2 2341   1.840   1.632   4.270
  793TIP3   OH2 2342   2.723   0.947   5.325
  793TIP3    H1 2343   2.779   0.938   5.247
  793TIP3    H2 2344   2.634   0.932   5.292
  794TIP3   OH2 2345   4.267   3.629   4.740
  794TIP3    H1 2346   4.337   3.639   4.804
  794TIP3    H2 2347   4.295   3.683   4.666
  795TIP3   OH2 2348   5.741   5.826   4.943
  795TIP3    H1 2349   5.815   5.830   5.004
  795TIP3    H2 2350   5.739   5.735   4.914
  796TIP3   OH2 2351   0.191   1.786   4.056
  796TIP3    H1 2352   0.113   1.756   4.102
  796TIP3    H2 2353   0.186   1.882   4.063
  797TIP3   OH2 2354   3.115   0.384   3.607
  797TIP3    H1 2355   3.036   0.359   3.655
  797TIP3    H2 2356   3.187   0.362   3.666
  798TIP3   OH2 2357   1.258   3.836   1.545
  798TIP3    H1 2358   1.194   3.839   1.474
  798TIP3    H2 2359   1.207   3.848   1.624
  799TIP3   OH2 2360   2.767   1.137   3.265
  799TIP3    H1 2361   2.767   1.058   3.319
  799TIP3    H2 2362   2.795   1.206   3.324
  800TIP3   OH2 2363   6.005   0.181   1.343
  800TIP3    H1 2364   6.016   0.240   1.269
  800TIP3    H2 2365   5.911   0.176   1.356
  801TIP3   OH2 2366   5.674   3.597   5.038
  801TIP3    H1 2367   5.589   3.634   5.015
  801TIP3    H2 2368   5.730   3.673   5.055
  802TIP3   OH2 2369   5.883   4.652   4.357
  802TIP3    H1 2370   5.931   4.579   4.318
  802TIP3    H2 2371   5.791   4.629   4.346
  803TIP3   OH2 2372   2.019   4.809   4.250
  803TIP3    H1 2373   1.964   4.885   4.268
  803TIP3    H2 2374   2.075   4.801   4.327
  804TIP3   OH2 2375   6.435   5.227   2.920
  804TIP3    H1 2376   6.525   5.243   2.892
  804TIP3    H2 2377   6.419   5.135   2.897
  805TIP3   OH2 2378   6.208   4.503   0.984
  805TIP3    H1 2379   6.129   4.558   0.982
  805TIP3    H2 2380   6.215   4.476   1.076
  806TIP3   OH2 2381   0.205   5.638   4.520
  806TIP3    H1 2382   0.294   5.621   4.489
  806TIP3    H2 2383   0.167   5.551   4.531
  807TIP3   OH2 2384   0.134   0.609   1.633
  807TIP3    H1 2385   0.195   0.620   1.707
  807TIP3    H2 2386   0.162   0.675   1.570
  808TIP3   OH2 2387   6.677   3.554   2.978
  808TIP3    H1 2388   6.621   3.537   2.902
  808TIP3    H2 2389   6.629   3.619   3.028
  809TIP3   OH2 2390   3.447   2.844   4.824
  809TIP3    H1 2391   3.522   2.904   4.826
  809TIP3    H2 2392   3.409   2.852   4.911
  810TIP3   OH2 2393   6.393   4.732   3.667
  810TIP3    H1 2394   6.459   4.792   3.631
  810TIP3    H2 2395   6.419   4.721   3.758
  811TIP3   OH2 2396   0.395   1.771   5.721
  811TIP3    H1 2397   0.450   1.846   5.743
  811TIP3    H2 2398   0.351   1.748   5.803
  812TIP3   OH2 2399   0.924   3.069   1.529
  812TIP3    H1 2400   0.941   3.013   1.453
  812TIP3    H2 2401   1.010   3.092   1.562
  813TIP3   OH2 2402   2.842   2.961   5.868
  813TIP3    H1 2403   2.813   3.023   5.934
  813TIP3    H2 2404   2.818   2.875   5.903
  814TIP3   OH2 2405   3.091   4.045   1.073
  814TIP3    H1 2406   3.124   4.009   1.156
  814TIP3    H2 2407   3.170   4.059   1.020
  815TIP3   OH2 2408   1.848   0.316   5.890
  815TIP3    H1 2409   1.915   0.254   5.862
  815TIP3    H2 2410   1.805   0.274   5.965
  816TIP3   OH2 2411   6.342   0.454   5.668
  816TIP3    H1 2412   6.415   0.403   5.634
  816TIP3    H2 2413   6.266   0.423   5.619
  817TIP3   OH2 2414   6.494   4.075   0.276
  817TIP3    H1 2415   6.409   4.029   0.275
  817TIP3    H2 2416   6.557   4.008   0.303
  818TIP3   OH2 2417   6.806   2.707   4.763
  818TIP3    H1 2418   6.722   2.728   4.722
  818TIP3    H2 2419   6.783   2.686   4.854
  819TIP3   OH2 2420   5.277   5.725   4.317
  819TIP3    H1 2421   5.253   5.797   4.375
  819TIP3    H2 2422   5.373   5.726   4.315
  820TIP3   OH2 2423   3.061   6.155   2.744
  820TIP3    H1 2424   3.022   6.239   2.769
  820TIP3    H2 2425   3.138   6.147   2.800
  821TIP3   OH2 2426   5.490   3.057   3.808
  821TIP3    H1 2427   5.399   3.042   3.834
  821TIP3    H2 2428   5.490   3.144   3.770
  822TIP3   OH2 2429   3.678   1.320   2.713
  822TIP3    H1 2430   3.677   1.224   2.704
  822TIP3    H2 2431   3.610   1.338   2.778
  823TIP3   OH2 2432   1.848   4.139   4.720
  823TIP3    H1 2433   1.928   4.191   4.715
  823TIP3    H2 2434   1.780   4.200   4.749
  824TIP3   OH2 2435   4.445   6.122   5.892
  824TIP3    H1 2436   4.479   6.094   5.807
  824TIP3    H2 2437   4.421   6.041   5.937
  825TIP3   OH2 2438   5.074   3.689   3.395
  825TIP3    H1 2439   5.127   3.762   3.427
  825TIP3    H2 2440   5.006   3.678   3.461
  826TIP3   OH2 2441   0.992   2.752   0.675
  826TIP3    H1 2442   1.040   2.732   0.755
  826TIP3    H2 2443   1.058   2.750   0.606
  827TIP3   OH2 2444   0.320   6.090   3.681
  827TIP3    H1 2445   0.310   6.122   3.771
  827TIP3    H2 2446   0.309   6.168   3.627
  828TIP3   OH2 2447   5.251   5.480   2.070
  828TIP3    H1 2448   5.195   5.557   2.071
  828TIP3    H2 2449   5.191   5.406   2.061
  829TIP3   OH2 2450   4.610   1.841   4.120
  829TIP3    H1 2451   4.531   1.830   4.066
  829TIP3    H2 2452   4.647   1.925   4.091
  830TIP3   OH2 2453   6.685   0.626   2.088
  830TIP3    H1 2454   6.715   0.637   2.179
  830TIP3    H2 2455   6.668   0.715   2.058
  831TIP3   OH2 2456   1.394   1.730   1.387
  831TIP3    H1 2457   1.424   1.641   1.371
  831TIP3    H2 2458   1.301   1.721   1.407
  832TIP3   OH2 2459   5.657   4.583   5.555
  832TIP3    H1 2460   5.586   4.573   5.491
  832TIP3    H2 2461   5.693   4.669   5.537
  833TIP3   OH2 2462   0.132   3.910   0.508
  833TIP3    H1 2463   0.186   3.838   0.541
  833TIP3    H2 2464   0.081   3.939   0.584
  834TIP3   OH2 2465   3.927   1.584   5.638
  834TIP3    H1 2466   3.961   1.532   5.712
  834TIP3    H2 2467   3.981   1.557   5.564
  835TIP3   OH2 2468   0.262   1.854   5.473
  835TIP3    H1 2469   0.307   1.845   5.557
  835TIP3    H2 2470   0.327   1.897   5.417
  836TIP3   OH2 2471   6.374   1.051   3.522
  836TIP3    H1 2472   6.321   1.118   3.480
  836TIP3    H2 2473   6.311   0.984   3.549
  837TIP3   OH2 2474   3.089   1.898   0.066
  837TIP3    H1 2475   3.163   1.938   0.114
  837TIP3    H2 2476   3.029   1.870   0.135
  838TIP3   OH2 2477   0.459   2.691   0.310
  838TIP3    H1 2478   0.372   2.727   0.293
  838TIP3    H2 2479   0.454   2.657   0.400
  839TIP3   OH2 2480   0.444   1.291   1.502
  839TIP3    H1 2481   0.528   1.299   1.457
  839TIP3    H2 2482   0.397   1.371   1.480
  840TIP3   OH2 2483   2.400   3.690   4.778
  840TIP3    H1 2484   2.400   3.609   4.727
  840TIP3    H2 2485   2.356   3.754   4.722
  841TIP3   OH2 2486   0.241   3.242   2.458
  841TIP3    H1 2487   0.153   3.223   2.425
  841TIP3    H2 2488   0.258   3.332   2.431
  842TIP3   OH2 2489   4.944   1.172   5.379
  842TIP3    H1 2490   4.896   1.091   5.366
  842TIP3    H2 2491   5.004   1.177   5.305
  843TIP3   OH2 2492   1.999   1.462   4.461
  843TIP3    H1 2493   2.079   1.509   4.437
  843TIP3    H2 2494   1.949   1.524   4.514
  844TIP3   OH2 2495   6.029   3.325   2.445
  844TIP3    H1 2496   5.976   3.255   2.407
  844TIP3    H2 2497   6.036   3.390   2.375
  845TIP3   OH2 2498   5.986   1.225   1.635
  845TIP3    H1 2499   6.022   1.179   1.712
  845TIP3    H2 2500   6.058   1.280   1.604
  846TIP3   OH2 2501   2.061   6.080   2.104
  846TIP3    H1 2502   2.029   6.164   2.070
  846TIP3    H2 2503   2.149   6.100   2.137
  847TIP3   OH2 2504   1.469   4.330   5.531
  847TIP3    H1 2505   1.424   4.309   5.613
  847TIP3    H2 2506   1.426   4.410   5.500
  848TIP3   OH2 2507   0.534   3.135   5.452
  848TIP3    H1 2508   0.457   3.088   5.421
  848TIP3    H2 2509   0.586   3.150   5.373
  849TIP3   OH2 2510   3.393   0.902   3.938
  849TIP3    H1 2511   3.429   0.908   4.026
  849TIP3    H2 2512   3.445   0.964   3.887
  850TIP3   OH2 2513   6.907   2.655   1.770
  850TIP3    H1 2514   6.873   2.742   1.789
  850TIP3    H2 2515   6.829   2.599   1.766
  851TIP3   OH2 2516   2.514   6.627   5.560
  851TIP3    H1 2517   2.480   6.688   5.625
  851TIP3    H2 2518   2.452   6.631   5.487
  852TIP3   OH2 2519   2.395   0.829   5.844
  852TIP3    H1 2520   2.478   0.784   5.855
  852TIP3    H2 2521   2.390   0.850   5.750
  853TIP3   OH2 2522   3.463   3.765   5.343
  853TIP3    H1 2523   3.401   3.745   5.272
  853TIP3    H2 2524   3.539   3.803   5.299
  854TIP3   OH2 2525   5.889   2.018   5.581
  854TIP3    H1 2526   5.921   2.018   5.671
  854TIP3    H2 2527   5.862   2.109   5.566
  855TIP3   OH2 2528   7.132   1.238   1.689
  855TIP3    H1 2529   7.132   1.333   1.694
  855TIP3    H2 2530   7.123   1.209   1.780
  856TIP3   OH2 2531   5.957   5.283   0.803
  856TIP3    H1 2532   5.862   5.296   0.797
  856TIP3    H2 2533   5.986   5.349   0.867
  857TIP3   OH2 2534   4.626   1.746   0.020
  857TIP3    H1 2535   4.662   1.658   0.028
  857TIP3    H2 2536   4.573   1.758   0.099
  858TIP3   OH2 2537   4.232   1.331   4.512
  858TIP3    H1 2538   4.255   1.349   4.603
  858TIP3    H2 2539   4.278   1.398   4.461
  859TIP3   OH2 2540   2.368   5.124   3.070
  859TIP3    H1 2541   2.460   5.130   3.046
  859TIP3    H2 2542   2.369   5.099   3.162
  860TIP3   OH2 2543   3.562   1.280   4.044
  860TIP3    H1 2544   3.634   1.338   4.071
  860TIP3    H2 2545   3.513   1.265   4.125
  861TIP3   OH2 2546   2.460   3.850   4.057
  861TIP3    H1 2547   2.491   3.931   4.016
  861TIP3    H2 2548   2.493   3.780   4.000
  862TIP3   OH2 2549   2.505   1.174   3.995
  862TIP3    H1 2550   2.536   1.150   4.083
  862TIP3    H2 2551   2.570   1.137   3.936
  863TIP3   OH2 2552   2.166   6.278   5.176
  863TIP3    H1 2553   2.257   6.264   5.204
  863TIP3    H2 2554   2.114   6.244   5.249
  864TIP3   OH2 2555   2.466   6.569   1.137
  864TIP3    H1 2556   2.450   6.545   1.228
  864TIP3    H2 2557   2.412   6.509   1.086
  865TIP3   OH2 2558   4.118   4.140   1.021
  865TIP3    H1 2559   4.094   4.218   1.071
  865TIP3    H2 2560   4.213   4.138   1.023
  866TIP3   OH2 2561   0.049   6.052   0.530
  866TIP3    H1 2562   0.127   6.071   0.478
  866TIP3    H2 2563  -0.014   6.019   0.466
  867TIP3   OH2 2564   3.882   2.213   3.313
  867TIP3    H1 2565   3.899   2.278   3.245
  867TIP3    H2 2566   3.787   2.200   3.310
  868TIP3   OH2 2567   1.146   3.037   4.227
  868TIP3    H1 2568   1.112   3.127   4.229
  868TIP3    H2 2569   1.207   3.036   4.154
  869TIP3   OH2 2570   2.963   2.108   2.108
  869TIP3    H1 2571   3.053   2.129   2.132
  869TIP3    H2 2572   2.970   2.033   2.048
  870TIP3   OH2 2573   4.567   1.398   2.300
  870TIP3    H1 2574   4.605   1.419   2.385
  870TIP3    H2 2575   4.476   1.376   2.318
  871TIP3   OH2 2576   4.613   0.334   0.769
  871TIP3    H1 2577   4.607   0.430   0.776
  871TIP3    H2 2578   4.707   0.316   0.767
  872TIP3   OH2 2579   3.843   6.149   2.188
  872TIP3    H1 2580   3.809   6.235   2.164
  872TIP3    H2 2581   3.808   6.090   2.121
  873TIP3   OH2 2582   3.689   5.914   5.368
  873TIP3    H1 2583   3.773   5.959   5.365
  873TIP3    H2 2584   3.700   5.848   5.438
  874TIP3   OH2 2585   5.552   5.030   4.958
  874TIP3    H1 2586   5.494   4.976   4.905
  874TIP3    H2 2587   5.640   4.999   4.938
  875TIP3   OH2 2588   1.658   4.090   3.608
  875TIP3    H1 2589   1.630   4.013   3.658
  875TIP3    H2 2590   1.713   4.054   3.539
  876TIP3   OH2 2591   5.314   0.525   3.704
  876TIP3    H1 2592   5.306   0.476   3.622
  876TIP3    H2 2593   5.302   0.616   3.679
  877TIP3   OH2 2594   0.698   4.498   0.077
  877TIP3    H1 2595   0.742   4.451   0.148
  877TIP3    H2 2596   0.716   4.446  -0.001
  878TIP3   OH2 2597   7.109   5.279   1.472
  878TIP3    H1 2598   7.161   5.326   1.407
  878TIP3    H2 2599   7.056   5.218   1.421
  879TIP3   OH2 2600   0.297   0.772   4.497
  879TIP3    H1 2601   0.300   0.677   4.514
  879TIP3    H2 2602   0.364   0.786   4.430
  880TIP3   OH2 2603   5.188   0.380   1.549
  880TIP3    H1 2604   5.217   0.293   1.522
  880TIP3    H2 2605   5.269   0.427   1.571
  881TIP3   OH2 2606   1.345   1.770   5.424
  881TIP3    H1 2607   1.291   1.830   5.474
  881TIP3    H2 2608   1.345   1.689   5.476
  882TIP3   OH2 2609   2.590   6.691   0.712
  882TIP3    H1 2610   2.555   6.624   0.654
  882TIP3    H2 2611   2.626   6.641   0.786
  883TIP3   OH2 2612   1.574   6.639   4.512
  883TIP3    H1 2613   1.496   6.685   4.543
  883TIP3    H2 2614   1.583   6.564   4.570
  884TIP3   OH2 2615   4.002   2.066   3.045
  884TIP3    H1 2616   3.939   2.013   2.998
  884TIP3    H2 2617   3.956   2.095   3.124
  885TIP3   OH2 2618   4.495   6.792   0.270
  885TIP3    H1 2619   4.524   6.874   0.229
  885TIP3    H2 2620   4.413   6.771   0.227
  886TIP3   OH2 2621   0.864   2.328   2.959
  886TIP3    H1 2622   0.904   2.354   2.876
  886TIP3    H2 2623   0.829   2.409   2.995
  887TIP3   OH2 2624   5.290   3.281   3.181
  887TIP3    H1 2625   5.245   3.351   3.228
  887TIP3    H2 2626   5.246   3.278   3.096
  888TIP3   OH2 2627   5.777   3.174   4.340
  888TIP3    H1 2628   5.800   3.082   4.332
  888TIP3    H2 2629   5.691   3.174   4.383
  889TIP3   OH2 2630   0.049   5.339   1.251
  889TIP3    H1 2631   0.046   5.427   1.214
  889TIP3    H2 2632   0.073   5.282   1.178
  890TIP3   OH2 2633   1.337   5.897   3.812
  890TIP3    H1 2634   1.323   5.987   3.843
  890TIP3    H2 2635   1.372   5.907   3.724
  891TIP3   OH2 2636   3.806   4.923   0.214
  891TIP3    H1 2637   3.889   4.934   0.167
  891TIP3    H2 2638   3.739   4.935   0.147
  892TIP3   OH2 2639   6.589   4.906   3.573
  892TIP3    H1 2640   6.683   4.899   3.556
  892TIP3    H2 2641   6.583   4.968   3.646
  893TIP3   OH2 2642   1.363   3.080   4.454
  893TIP3    H1 2643   1.425   3.009   4.441
  893TIP3    H2 2644   1.283   3.050   4.411
  894TIP3   OH2 2645   6.149   3.394   1.337
  894TIP3    H1 2646   6.243   3.399   1.354
  894TIP3    H2 2647   6.109   3.425   1.418
  895TIP3   OH2 2648   2.793   5.590   4.830
  895TIP3    H1 2649   2.799   5.534   4.753
  895TIP3    H2 2650   2.699   5.593   4.850
  896TIP3   OH2 2651   4.238   4.426   1.493
  896TIP3    H1 2652   4.328   4.410   1.522
  896TIP3    H2 2653   4.184   4.400   1.567
  897TIP3   OH2 2654   2.351   4.300   3.807
  897TIP3    H1 2655   2.433   4.311   3.758
  897TIP3    H2 2656   2.282   4.314   3.742
  898TIP3   OH2 2657   3.230   1.535   4.434
  898TIP3    H1 2658   3.150   1.587   4.418
  898TIP3    H2 2659   3.301   1.598   4.425
  899TIP3   OH2 2660   6.624   3.182   1.667
  899TIP3    H1 2661   6.605   3.134   1.587
  899TIP3    H2 2662   6.720   3.192   1.667
  900TIP3   OH2 2663   7.176   6.425   4.337
  900TIP3    H1 2664   7.211   6.339   4.314
  900TIP3    H2 2665   7.142   6.460   4.255
  901TIP3   OH2 2666   6.238   3.200   5.093
  901TIP3    H1 2667   6.148   3.205   5.060
  901TIP3    H2 2668   6.288   3.254   5.033
  902TIP3   OH2 2669   6.746   4.011   0.595
  902TIP3    H1 2670   6.825   3.963   0.618
  902TIP3    H2 2671   6.674   3.956   0.626
  903TIP3   OH2 2672   5.129   3.385   0.794
  903TIP3    H1 2673   5.210   3.422   0.758
  903TIP3    H2 2674   5.074   3.370   0.717
  904TIP3   OH2 2675   4.661   2.136   5.869
  904TIP3    H1 2676   4.633   2.118   5.779
  904TIP3    H2 2677   4.700   2.223   5.864
  905TIP3   OH2 2678   2.512   2.610   2.639
  905TIP3    H1 2679   2.448   2.547   2.674
  905TIP3    H2 2680   2.597   2.574   2.665
  906TIP3   OH2 2681   1.379   0.492   2.534
  906TIP3    H1 2682   1.329   0.426   2.487
  906TIP3    H2 2683   1.463   0.450   2.553
  907TIP3   OH2 2684   4.619   1.158   0.605
  907TIP3    H1 2685   4.578   1.214   0.671
  907TIP3    H2 2686   4.545   1.120   0.557
  908TIP3   OH2 2687   5.731   3.619   3.243
  908TIP3    H1 2688   5.680   3.673   3.304
  908TIP3    H2 2689   5.679   3.539   3.232
  909TIP3   OH2 2690   5.155   3.253   3.810
  909TIP3    H1 2691   5.125   3.298   3.889
  909TIP3    H2 2692   5.090   3.275   3.743
  910TIP3   OH2 2693   0.985   5.560   3.118
  910TIP3    H1 2694   1.071   5.564   3.160
  910TIP3    H2 2695   0.999   5.596   3.030
  911TIP3   OH2 2696   5.758   5.754   4.499
  911TIP3    H1 2697   5.804   5.715   4.573
  911TIP3    H2 2698   5.827   5.784   4.440
  912TIP3   OH2 2699   3.479   0.730   2.359
  912TIP3    H1 2700   3.392   0.692   2.373
  912TIP3    H2 2701   3.466   0.797   2.293
  913TIP3   OH2 2702   6.102   4.659   5.594
  913TIP3    H1 2703   6.079   4.602   5.668
  913TIP3    H2 2704   6.066   4.615   5.517
  914TIP3   OH2 2705   4.232   4.753   2.269
  914TIP3    H1 2706   4.195   4.707   2.344
  914TIP3    H2 2707   4.315   4.789   2.301
  915TIP3   OH2 2708   0.876   1.118   5.612
  915TIP3    H1 2709   0.845   1.046   5.667
  915TIP3    H2 2710   0.801   1.142   5.559
  916TIP3   OH2 2711   3.435   5.767   1.385
  916TIP3    H1 2712   3.395   5.825   1.450
  916TIP3    H2 2713   3.411   5.806   1.300
  917TIP3   OH2 2714   4.104   4.922   2.055
  917TIP3    H1 2715   4.171   4.856   2.073
  917TIP3    H2 2716   4.111   4.938   1.961
  918TIP3   OH2 2717   6.288   2.270   4.882
  918TIP3    H1 2718   6.202   2.233   4.904
  918TIP3    H2 2719   6.344   2.246   4.956
  919TIP3   OH2 2720   4.077   5.205   2.467
  919TIP3    H1 2721   4.055   5.143   2.398
  919TIP3    H2 2722   3.994   5.246   2.490
  920TIP3   OH2 2723   1.046   1.963   4.201
  920TIP3    H1 2724   1.096   2.012   4.135
  920TIP3    H2 2725   1.107   1.949   4.273
  921TIP3   OH2 2726   5.094   4.613   2.131
  921TIP3    H1 2727   5.153   4.683   2.106
  921TIP3    H2 2728   5.144   4.560   2.194
  922TIP3   OH2 2729   3.801   4.563   2.555
  922TIP3    H1 2730   3.787   4.483   2.606
  922TIP3    H2 2731   3.764   4.543   2.469
  923TIP3   OH2 2732   3.112   3.318   0.579
  923TIP3    H1 2733   3.059   3.336   0.502
  923TIP3    H2 2734   3.192   3.369   0.566
  924TIP3   OH2 2735   2.927   4.045   1.965
  924TIP3    H1 2736   2.866   4.040   2.039
  924TIP3    H2 2737   2.919   3.960   1.922
  925TIP3   OH2 2738   1.221   3.436   5.071
  925TIP3    H1 2739   1.196   3.367   5.010
  925TIP3    H2 2740   1.147   3.443   5.131
  926TIP3   OH2 2741   3.168   0.280   2.120
  926TIP3    H1 2742   3.102   0.217   2.150
  926TIP3    H2 2743   3.188   0.253   2.031
  927TIP3   OH2 2744   3.846   6.198   3.301
  927TIP3    H1 2745   3.777   6.260   3.275
  927TIP3    H2 2746   3.836   6.190   3.396
  928TIP3   OH2 2747   6.839   3.107   1.144
  928TIP3    H1 2748   6.833   3.169   1.071
  928TIP3    H2 2749   6.749   3.077   1.157
  929TIP3   OH2 2750   2.955   1.895   0.819
  929TIP3    H1 2751   3.028   1.856   0.771
  929TIP3    H2 2752   2.934   1.975   0.770
  930TIP3   OH2 2753   2.344   1.249   5.672
  930TIP3    H1 2754   2.429   1.234   5.630
  930TIP3    H2 2755   2.284   1.267   5.599
  931TIP3   OH2 2756   0.019   3.140   4.725
  931TIP3    H1 2757  -0.009   3.205   4.660
  931TIP3    H2 2758   0.109   3.164   4.745
  932TIP3   OH2 2759   6.419   4.708   5.085
  932TIP3    H1 2760   6.408   4.622   5.044
  932TIP3    H2 2761   6.512   4.729   5.073
  933TIP3   OH2 2762   1.541   0.221   4.838
  933TIP3    H1 2763   1.507   0.277   4.908
  933TIP3    H2 2764   1.532   0.274   4.759
  934TIP3   OH2 2765   3.785   6.354   5.353
  934TIP3    H1 2766   3.810   6.333   5.263
  934TIP3    H2 2767   3.867   6.378   5.396
  935TIP3   OH2 2768   4.915   4.979   2.156
  935TIP3    H1 2769   4.942   5.010   2.242
  935TIP3    H2 2770   4.937   5.051   2.096
  936TIP3   OH2 2771   4.601   3.272   2.917
  936TIP3    H1 2772   4.632   3.183   2.903
  936TIP3    H2 2773   4.668   3.327   2.875
  937TIP3   OH2 2774   3.096   2.314   3.633
  937TIP3    H1 2775   3.100   2.218   3.631
  937TIP3    H2 2776   3.025   2.336   3.573
  938TIP3   OH2 2777   0.787   1.116   1.000
  938TIP3    H1 2778   0.790   1.048   0.932
  938TIP3    H2 2779   0.845   1.185   0.967
  939TIP3   OH2 2780   2.151   2.803   5.221
  939TIP3    H1 2781   2.081   2.866   5.205
  939TIP3    H2 2782   2.153   2.749   5.142
  940TIP3   OH2 2783   5.713   1.263   3.919
  940TIP3    H1 2784   5.696   1.304   3.835
  940TIP3    H2 2785   5.786   1.204   3.902
  941TIP3   OH2 2786   0.940   5.483   4.771
  941TIP3    H1 2787   0.956   5.499   4.864
  941TIP3    H2 2788   0.930   5.570   4.733
  942TIP3   OH2 2789   0.160   5.458   0.133
  942TIP3    H1 2790   0.078   5.445   0.181
  942TIP3    H2 2791   0.221   5.396   0.174
  943TIP3   OH2 2792   0.247   1.745   3.789
  943TIP3    H1 2793   0.227   1.752   3.883
  943TIP3    H2 2794   0.224   1.655   3.767
  944TIP3   OH2 2795   0.113   0.988   5.083
  944TIP3    H1 2796   0.163   0.951   5.156
  944TIP3    H2 2797   0.179   1.033   5.030
  945TIP3   OH2 2798   4.267   4.538   2.006
  945TIP3    H1 2799   4.172   4.534   1.996
  945TIP3    H2 2800   4.298   4.573   1.923
  946TIP3   OH2 2801   4.073   4.994   2.677
  946TIP3    H1 2802   4.149   4.964   2.727
  946TIP3    H2 2803   4.111   5.046   2.605
  947TIP3   OH2 2804   1.473   3.012   3.577
  947TIP3    H1 2805   1.536   2.971   3.638
  947TIP3    H2 2806   1.468   2.951   3.504
  948TIP3   OH2 2807   1.804   4.009   2.554
  948TIP3    H1 2808   1.876   3.953   2.584
  948TIP3    H2 2809   1.847   4.078   2.504
  949TIP3   OH2 2810   0.355   5.825   3.075
  949TIP3    H1 2811   0.382   5.886   3.144
  949TIP3    H2 2812   0.376   5.871   2.993
  950TIP3   OH2 2813   3.415   0.293   2.462
  950TIP3    H1 2814   3.325   0.317   2.485
  950TIP3    H2 2815   3.428   0.333   2.376
  951TIP3   OH2 2816   2.323   3.906   1.361
  951TIP3    H1 2817   2.414   3.885   1.339
  951TIP3    H2 2818   2.280   3.821   1.371
  952TIP3   OH2 2819   0.606   4.708   2.335
  952TIP3    H1 2820   0.647   4.779   2.288
  952TIP3    H2 2821   0.677   4.668   2.386
  953TIP3   OH2 2822   5.748   6.353   5.826
  953TIP3    H1 2823   5.800   6.366   5.905
  953TIP3    H2 2824   5.812   6.349   5.755
  954TIP3   OH2 2825   5.847   6.099   5.257
  954TIP3    H1 2826   5.882   6.063   5.338
  954TIP3    H2 2827   5.822   6.189   5.280
  955TIP3   OH2 2828   3.170   1.316   0.591
  955TIP3    H1 2829   3.254   1.291   0.552
  955TIP3    H2 2830   3.189   1.331   0.683
  956TIP3   OH2 2831   0.360   1.702   2.496
  956TIP3    H1 2832   0.322   1.686   2.583
  956TIP3    H2 2833   0.439   1.752   2.513
  957TIP3   OH2 2834   3.624   1.067   3.548
  957TIP3    H1 2835   3.698   1.010   3.569
  957TIP3    H2 2836   3.580   1.081   3.633
  958TIP3   OH2 2837   4.466   1.139   5.714
  958TIP3    H1 2838   4.419   1.164   5.794
  958TIP3    H2 2839   4.412   1.172   5.643
  959TIP3   OH2 2840   6.615   1.294   0.537
  959TIP3    H1 2841   6.699   1.252   0.517
  959TIP3    H2 2842   6.569   1.297   0.453
  960TIP3   OH2 2843   0.053   2.112   3.466
  960TIP3    H1 2844   0.100   2.082   3.544
  960TIP3    H2 2845   0.058   2.038   3.405
  961TIP3   OH2 2846   3.961   5.601   3.506
  961TIP3    H1 2847   4.047   5.626   3.542
  961TIP3    H2 2848   3.901   5.611   3.579
  962TIP3   OH2 2849   0.147   1.958   3.667
  962TIP3    H1 2850   0.075   1.938   3.727
  962TIP3    H2 2851   0.196   1.876   3.660
  963TIP3   OH2 2852   3.422   0.058   0.745
  963TIP3    H1 2853   3.375   0.130   0.703
  963TIP3    H2 2854   3.444  -0.002   0.674
  964TIP3   OH2 2855   1.107   4.981   1.299
  964TIP3    H1 2856   1.189   5.008   1.258
  964TIP3    H2 2857   1.133   4.911   1.359
  965TIP3   OH2 2858   4.494   1.833   0.244
  965TIP3    H1 2859   4.436   1.906   0.226
  965TIP3    H2 2860   4.491   1.823   0.340
  966TIP3   OH2 2861   3.247   0.680   0.797
  966TIP3    H1 2862   3.183   0.618   0.831
  966TIP3    H2 2863   3.199   0.731   0.732
  967TIP3   OH2 2864   5.735   0.192   4.039
  967TIP3    H1 2865   5.648   0.223   4.012
  967TIP3    H2 2866   5.760   0.251   4.110
  968TIP3   OH2 2867   5.409   1.790   0.633
  968TIP3    H1 2868   5.457   1.807   0.714
  968TIP3    H2 2869   5.395   1.695   0.633
  969TIP3   OH2 2870   1.991   4.397   1.335
  969TIP3    H1 2871   2.007   4.489   1.314
  969TIP3    H2 2872   2.010   4.390   1.428
  970TIP3   OH2 2873   0.860   1.167   4.449
  970TIP3    H1 2874   0.939   1.135   4.494
  970TIP3    H2 2875   0.854   1.259   4.476
  971TIP3   OH2 2876   1.630   0.998   4.078
  971TIP3    H1 2877   1.628   1.033   4.166
  971TIP3    H2 2878   1.561   1.045   4.031
  972TIP3   OH2 2879   1.768   3.831   3.714
  972TIP3    H1 2880   1.805   3.806   3.799
  972TIP3    H2 2881   1.828   3.794   3.650
  973TIP3   OH2 2882   6.945   6.691   4.501
  973TIP3    H1 2883   6.868   6.724   4.548
  973TIP3    H2 2884   6.910   6.621   4.446
  974TIP3   OH2 2885   2.675   2.010   4.708
  974TIP3    H1 2886   2.700   2.101   4.727
  974TIP3    H2 2887   2.604   1.992   4.768
  975TIP3   OH2 2888   0.623   3.411   2.646
  975TIP3    H1 2889   0.639   3.493   2.693
  975TIP3    H2 2890   0.578   3.437   2.566
  976TIP3   OH2 2891   2.203   2.369   0.030
  976TIP3    H1 2892   2.241   2.353  -0.057
  976TIP3    H2 2893   2.266   2.425   0.074
  977TIP3   OH2 2894   2.693   6.635   2.047
  977TIP3    H1 2895   2.775   6.682   2.064
  977TIP3    H2 2896   2.664   6.668   1.962
  978TIP3   OH2 2897   3.737   6.419   2.175
  978TIP3    H1 2898   3.832   6.419   2.187
  978TIP3    H2 2899   3.702   6.432   2.263
  979TIP3   OH2 2900   2.965   3.215   1.304
  979TIP3    H1 2901   2.938   3.123   1.313
  979TIP3    H2 2902   3.043   3.211   1.248
  980TIP3   OH2 2903   6.988   0.508   5.208
  980TIP3    H1 2904   7.052   0.531   5.275
  980TIP3    H2 2905   6.955   0.423   5.235
  981TIP3   OH2 2906   1.759   5.233   4.288
  981TIP3    H1 2907   1.696   5.302   4.268
  981TIP3    H2 2908   1.711   5.152   4.277
  982TIP3   OH2 2909   6.175   1.997   3.372
  982TIP3    H1 2910   6.113   2.043   3.316
  982TIP3    H2 2911   6.243   2.062   3.391
  983TIP3   OH2 2912   2.793   4.533   3.048
  983TIP3    H1 2913   2.788   4.448   3.091
  983TIP3    H2 2914   2.719   4.533   2.986
  984TIP3   OH2 2915   5.582   1.073   4.540
  984TIP3    H1 2916   5.530   1.061   4.620
  984TIP3    H2 2917   5.575   1.166   4.521
  985TIP3   OH2 2918   3.436   6.254   4.903
  985TIP3    H1 2919   3.432   6.222   4.814
  985TIP3    H2 2920   3.357   6.220   4.945
  986TIP3   OH2 2921   0.235   1.995   5.923
  986TIP3    H1 2922   0.167   2.061   5.913
  986TIP3    H2 2923   0.300   2.017   5.856
  987TIP3   OH2 2924   1.178   2.842   5.548
  987TIP3    H1 2925   1.098   2.789   5.546
  987TIP3    H2 2926   1.218   2.830   5.462
  988TIP3   OH2 2927   0.421   3.780   3.906
  988TIP3    H1 2928   0.349   3.747   3.852
  988TIP3    H2 2929   0.402   3.747   3.994
  989TIP3   OH2 2930   3.073   0.663   5.441
  989TIP3    H1 2931   2.990   0.618   5.459
  989TIP3    H2 2932   3.099   0.631   5.355
  990TIP3   OH2 2933   3.793   4.075   4.759
  990TIP3    H1 2934   3.765   4.097   4.670
  990TIP3    H2 2935   3.718   4.029   4.797
  991TIP3   OH2 2936   3.297   4.823   2.814
  991TIP3    H1 2937   3.306   4.886   2.743
  991TIP3    H2 2938   3.221   4.854   2.864
  992TIP3   OH2 2939   2.879   3.081   2.130
  992TIP3    H1 2940   2.829   3.003   2.154
  992TIP3    H2 2941   2.825   3.154   2.159
  993TIP3   OH2 2942   3.927   6.675   3.295
  993TIP3    H1 2943   3.906   6.757   3.252
  993TIP3    H2 2944   3.900   6.607   3.233
  994TIP3   OH2 2945   1.319   4.326   2.301
  994TIP3    H1 2946   1.288   4.387   2.233
  994TIP3    H2 2947   1.300   4.239   2.267
  995TIP3   OH2 2948   5.782   4.197   5.041
  995TIP3    H1 2949   5.738   4.120   5.077
  995TIP3    H2 2950   5.809   4.170   4.953
  996TIP3   OH2 2951   0.104   5.035   2.561
  996TIP3    H1 2952   0.067   5.041   2.649
  996TIP3    H2 2953   0.118   5.126   2.534
  997TIP3   OH2 2954   5.444   1.032   4.780
  997TIP3    H1 2955   5.444   0.944   4.816
  997TIP3    H2 2956   5.356   1.066   4.797
  998TIP3   OH2 2957   0.884   5.219   1.264
  998TIP3    H1 2958   0.797   5.186   1.283
  998TIP3    H2 2959   0.940   5.141   1.264
  999TIP3   OH2 2960   2.650   5.841   0.905
  999TIP3    H1 2961   2.669   5.771   0.967
  999TIP3    H2 2962   2.597   5.904   0.955
 1000TIP3   OH2 2963   4.629   5.159   5.337
 1000TIP3    H1 2964   4.625   5.106   5.416
 1000TIP3    H2 2965   4.699   5.118   5.285
 1001TIP3   OH2 2966   6.630   3.247   5.794
 1001TIP3    H1 2967   6.603   3.171   5.741
 1001TIP3    H2 2968   6.691   3.294   5.738
 1002TIP3   OH2 2969   0.622   3.074   5.046
 1002TIP3    H1 2970   0.680   3.030   5.109
 1002TIP3    H2 2971   0.636   3.025   4.965
 1003TIP3   OH2 2972   7.062   6.754   0.157
 1003TIP3    H1 2973   7.051   6.836   0.204
 1003TIP3    H2 2974   7.085   6.780   0.068
 1004TIP3   OH2 2975   4.182   3.088   1.364
 1004TIP3    H1 2976   4.151   3.126   1.282
 1004TIP3    H2 2977   4.130   3.134   1.431
 1005TIP3   OH2 2978   3.631   2.683   3.762
 1005TIP3    H1 2979   3.699   2.739   3.725
 1005TIP3    H2 2980   3.551   2.710   3.717
 1006TIP3   OH2 2981   6.157   2.573   4.870
 1006TIP3    H1 2982   6.211   2.631   4.924
 1006TIP3    H2 2983   6.139   2.497   4.926
 1007TIP3   OH2 2984   2.759   0.775   4.533
 1007TIP3    H1 2985   2.701   0.832   4.584
 1007TIP3    H2 2986   2.838   0.766   4.587
 1008TIP3   OH2 2987   2.217   3.478   0.846
 1008TIP3    H1 2988   2.189   3.546   0.908
 1008TIP3    H2 2989   2.135   3.446   0.808
 1009TIP3   OH2 2990   0.517   3.872   1.148
 1009TIP3    H1 2991   0.607   3.902   1.162
 1009TIP3    H2 2992   0.481   3.862   1.236
 1010TIP3   OH2 2993   5.567   6.790   1.980
 1010TIP3    H1 2994   5.486   6.819   1.938
 1010TIP3    H2 2995   5.538   6.743   2.058
 1011TIP3   OH2 2996   2.935   0.338   3.259
 1011TIP3    H1 2997   2.982   0.256   3.274
 1011TIP3    H2 2998   2.854   0.312   3.216
 1012TIP3   OH2 2999   7.022   0.177   3.981
 1012TIP3    H1 3000   6.973   0.256   4.006
 1012TIP3    H2 3001   6.987   0.154   3.895
 1013TIP3   OH2 3002   6.674   0.667   2.611
 1013TIP3    H1 3003   6.628   0.737   2.564
 1013TIP3    H2 3004   6.612   0.637   2.677
 1014TIP3   OH2 3005   2.301   6.298   0.481
 1014TIP3    H1 3006   2.293   6.385   0.520
 1014TIP3    H2 3007   2.212   6.264   0.480
 1015TIP3   OH2 3008   6.887   4.562   0.237
 1015TIP3    H1 3009   6.836   4.505   0.180
 1015TIP3    H2 3010   6.944   4.502   0.286
 1016TIP3   OH2 3011   1.516   4.700   3.023
 1016TIP3    H1 3012   1.496   4.753   2.945
 1016TIP3    H2 3013   1.444   4.637   3.027
 1017TIP3   OH2 3014   5.188   0.210   4.614
 1017TIP3    H1 3015   5.243   0.216   4.536
 1017TIP3    H2 3016   5.246   0.178   4.683
 1018TIP3   OH2 3017   3.765   2.225   0.664
 1018TIP3    H1 3018   3.765   2.291   0.595
 1018TIP3    H2 3019   3.709   2.262   0.733
 1019TIP3   OH2 3020   0.716   6.118   0.958
 1019TIP3    H1 3021   0.704   6.028   0.988
 1019TIP3    H2 3022   0.635   6.139   0.910
 1020TIP3   OH2 3023   4.402   5.837   1.881
 1020TIP3    H1 3024   4.482   5.882   1.854
 1020TIP3    H2 3025   4.366   5.800   1.801
 1021TIP3   OH2 3026   3.152   5.765   2.455
 1021TIP3    H1 3027   3.188   5.825   2.390
 1021TIP3    H2 3028   3.081   5.814   2.497
 1022TIP3   OH2 3029   5.215   1.359   3.705
 1022TIP3    H1 3030   5.309   1.345   3.705
 1022TIP3    H2 3031   5.182   1.298   3.639
 1023TIP3   OH2 3032   0.648   3.772   2.999
 1023TIP3    H1 3033   0.594   3.701   2.962
 1023TIP3    H2 3034   0.640   3.761   3.093
 1024TIP3   OH2 3035   2.716   1.290   0.719
 1024TIP3    H1 3036   2.721   1.380   0.688
 1024TIP3    H2 3037   2.782   1.283   0.787
 1025TIP3   OH2 3038   3.701   2.861   2.483
 1025TIP3    H1 3039   3.715   2.848   2.390
 1025TIP3    H2 3040   3.673   2.952   2.492
 1026TIP3   OH2 3041   6.837   2.418  -0.009
 1026TIP3    H1 3042   6.849   2.323  -0.006
 1026TIP3    H2 3043   6.795   2.439   0.075
 1027TIP3   OH2 3044   4.675   3.735   2.483
 1027TIP3    H1 3045   4.734   3.665   2.456
 1027TIP3    H2 3046   4.728   3.790   2.541
 1028TIP3   OH2 3047   2.490   3.307   0.410
 1028TIP3    H1 3048   2.448   3.329   0.326
 1028TIP3    H2 3049   2.501   3.212   0.408
 1029TIP3   OH2 3050   3.419   3.504   4.681
 1029TIP3    H1 3051   3.414   3.432   4.618
 1029TIP3    H2 3052   3.508   3.537   4.673
 1030TIP3   OH2 3053   2.654   5.205   2.645
 1030TIP3    H1 3054   2.737   5.160   2.658
 1030TIP3    H2 3055   2.671   5.295   2.673
 1031TIP3   OH2 3056   6.526   6.572   2.354
 1031TIP3    H1 3057   6.488   6.621   2.427
 1031TIP3    H2 3058   6.460   6.506   2.333
 1032TIP3   OH2 3059   1.190   4.566   5.572
 1032TIP3    H1 3060   1.182   4.475   5.601
 1032TIP3    H2 3061   1.107   4.583   5.527
 1033TIP3   OH2 3062   5.638   4.922   2.176
 1033TIP3    H1 3063   5.635   4.845   2.233
 1033TIP3    H2 3064   5.591   4.895   2.097
 1034TIP3   OH2 3065   6.882   6.542   0.084
 1034TIP3    H1 3066   6.824   6.545   0.008
 1034TIP3    H2 3067   6.941   6.616   0.073
 1035TIP3   OH2 3068   4.480   4.195   2.683
 1035TIP3    H1 3069   4.476   4.138   2.606
 1035TIP3    H2 3070   4.398   4.245   2.679
 1036TIP3   OH2 3071   0.621   4.687   1.372
 1036TIP3    H1 3072   0.532   4.670   1.343
 1036TIP3    H2 3073   0.653   4.602   1.403
 1037TIP3   OH2 3074   4.318   2.451   0.324
 1037TIP3    H1 3075   4.406   2.429   0.292
 1037TIP3    H2 3076   4.297   2.534   0.280
 1038TIP3   OH2 3077   2.042   1.163   5.594
 1038TIP3    H1 3078   2.088   1.238   5.632
 1038TIP3    H2 3079   1.953   1.170   5.627
 1039TIP3   OH2 3080   1.253   2.959   1.424
 1039TIP3    H1 3081   1.264   2.866   1.442
 1039TIP3    H2 3082   1.340   2.987   1.393
 1040TIP3   OH2 3083   2.363   3.298   3.104
 1040TIP3    H1 3084   2.290   3.338   3.056
 1040TIP3    H2 3085   2.375   3.212   3.062
 1041TIP3   OH2 3086   5.186   6.117   0.082
 1041TIP3    H1 3087   5.134   6.073   0.014
 1041TIP3    H2 3088   5.272   6.076   0.077
 1042TIP3   OH2 3089   5.291   4.658   2.479
 1042TIP3    H1 3090   5.278   4.584   2.420
 1042TIP3    H2 3091   5.204   4.696   2.489
 1043TIP3   OH2 3092   3.568   4.136   0.464
 1043TIP3    H1 3093   3.579   4.219   0.417
 1043TIP3    H2 3094   3.475   4.115   0.453
 1044TIP3   OH2 3095   6.788   0.613   0.159
 1044TIP3    H1 3096   6.749   0.555   0.093
 1044TIP3    H2 3097   6.824   0.686   0.109
 1045TIP3   OH2 3098   0.926   4.508   5.580
 1045TIP3    H1 3099   0.831   4.501   5.582
 1045TIP3    H2 3100   0.957   4.446   5.646
 1046TIP3   OH2 3101   3.029   5.352   3.236
 1046TIP3    H1 3102   3.117   5.350   3.274
 1046TIP3    H2 3103   2.985   5.425   3.278
 1047TIP3   OH2 3104   2.864   0.484   5.168
 1047TIP3    H1 3105   2.854   0.390   5.152
 1047TIP3    H2 3106   2.842   0.495   5.261
 1048TIP3   OH2 3107   6.370   4.140   1.648
 1048TIP3    H1 3108   6.411   4.120   1.563
 1048TIP3    H2 3109   6.329   4.226   1.635
 1049TIP3   OH2 3110   3.891   4.284   4.918
 1049TIP3    H1 3111   3.866   4.196   4.888
 1049TIP3    H2 3112   3.912   4.331   4.838
 1050TIP3   OH2 3113   2.166   4.165   3.975
 1050TIP3    H1 3114   2.213   4.225   3.917
 1050TIP3    H2 3115   2.107   4.117   3.917
 1051TIP3   OH2 3116   5.364  -0.032   3.588
 1051TIP3    H1 3117   5.317  -0.033   3.671
 1051TIP3    H2 3118   5.325   0.040   3.539
 1052TIP3   OH2 3119   4.913   4.916   3.481
 1052TIP3    H1 3120   4.943   5.006   3.490
 1052TIP3    H2 3121   4.959   4.869   3.552
 1053TIP3   OH2 3122   4.569   6.110   0.078
 1053TIP3    H1 3123   4.659   6.122   0.106
 1053TIP3    H2 3124   4.558   6.015   0.074
 1054TIP3   OH2 3125   3.015   1.690   4.351
 1054TIP3    H1 3126   3.069   1.763   4.320
 1054TIP3    H2 3127   2.938   1.691   4.294
 1055TIP3   OH2 3128   6.409   0.093   0.446
 1055TIP3    H1 3129   6.317   0.087   0.419
 1055TIP3    H2 3130   6.452   0.137   0.372
 1056TIP3   OH2 3131   2.954   6.156   4.953
 1056TIP3    H1 3132   2.912   6.185   4.871
 1056TIP3    H2 3133   2.898   6.085   4.984
 1057TIP3   OH2 3134   3.966   6.574   3.823
 1057TIP3    H1 3135   3.981   6.575   3.917
 1057TIP3    H2 3136   3.872   6.562   3.814
 1058TIP3   OH2 3137   4.480   3.907   2.761
 1058TIP3    H1 3138   4.573   3.886   2.759
 1058TIP3    H2 3139   4.472   3.988   2.710
 1059TIP3   OH2 3140   5.489   2.261   0.096
 1059TIP3    H1 3141   5.537   2.311   0.030
 1059TIP3    H2 3142   5.526   2.292   0.179
 1060TIP3   OH2 3143   5.470   4.466   3.850
 1060TIP3    H1 3144   5.504   4.535   3.793
 1060TIP3    H2 3145   5.410   4.416   3.795
 1061TIP3   OH2 3146   5.983   0.616   5.138
 1061TIP3    H1 3147   6.037   0.628   5.060
 1061TIP3    H2 3148   6.002   0.527   5.168
 1062TIP3   OH2 3149   2.933   5.601   1.517
 1062TIP3    H1 3150   2.969   5.590   1.605
 1062TIP3    H2 3151   3.006   5.577   1.458
 1063TIP3   OH2 3152   4.969   2.746   4.531
 1063TIP3    H1 3153   4.986   2.693   4.453
 1063TIP3    H2 3154   4.995   2.835   4.506
 1064TIP3   OH2 3155   1.179   2.720   0.911
 1064TIP3    H1 3156   1.248   2.783   0.933
 1064TIP3    H2 3157   1.214   2.669   0.838
 1065TIP3   OH2 3158   1.952   4.951   2.271
 1065TIP3    H1 3159   2.007   4.887   2.315
 1065TIP3    H2 3160   1.950   4.922   2.179
 1066TIP3   OH2 3161   0.490   4.953   2.753
 1066TIP3    H1 3162   0.479   4.907   2.837
 1066TIP3    H2 3163   0.578   4.929   2.725
 1067TIP3   OH2 3164   0.275   6.727   3.055
 1067TIP3    H1 3165   0.205   6.777   3.096
 1067TIP3    H2 3166   0.336   6.792   3.021
 1068TIP3   OH2 3167   0.954   1.586   5.124
 1068TIP3    H1 3168   1.000   1.664   5.156
 1068TIP3    H2 3169   0.896   1.619   5.056
 1069TIP3   OH2 3170   0.365   0.259   0.103
 1069TIP3    H1 3171   0.445   0.255   0.154
 1069TIP3    H2 3172   0.391   0.300   0.020
 1070TIP3   OH2 3173   5.955   3.395   0.146
 1070TIP3    H1 3174   5.886   3.462   0.147
 1070TIP3    H2 3175   5.912   3.315   0.177
 1071TIP3   OH2 3176   0.640   6.144   3.633
 1071TIP3    H1 3177   0.657   6.235   3.610
 1071TIP3    H2 3178   0.552   6.127   3.600
 1072TIP3   OH2 3179   4.924   4.527   2.528
 1072TIP3    H1 3180   4.948   4.614   2.559
 1072TIP3    H2 3181   4.828   4.530   2.520
 1073TIP3   OH2 3182   5.745   5.110   5.163
 1073TIP3    H1 3183   5.727   5.188   5.111
 1073TIP3    H2 3184   5.779   5.046   5.100
 1074TIP3   OH2 3185   4.711   0.062   3.961
 1074TIP3    H1 3186   4.733   0.001   3.890
 1074TIP3    H2 3187   4.625   0.034   3.991
 1075TIP3   OH2 3188   0.380   1.239   5.909
 1075TIP3    H1 3189   0.405   1.287   5.988
 1075TIP3    H2 3190   0.412   1.293   5.836
 1076TIP3   OH2 3191   5.904   1.397   1.129
 1076TIP3    H1 3192   5.893   1.321   1.070
 1076TIP3    H2 3193   5.936   1.466   1.072
 1077TIP3   OH2 3194   3.131   0.417   2.362
 1077TIP3    H1 3195   3.135   0.373   2.277
 1077TIP3    H2 3196   3.127   0.510   2.340
 1078TIP3   OH2 3197   4.809   6.685   4.615
 1078TIP3    H1 3198   4.812   6.764   4.561
 1078TIP3    H2 3199   4.897   6.649   4.611
 1079TIP3   OH2 3200   1.264   5.672   3.185
 1079TIP3    H1 3201   1.236   5.671   3.277
 1079TIP3    H2 3202   1.332   5.739   3.181
 1080TIP3   OH2 3203   6.354   2.708   2.012
 1080TIP3    H1 3204   6.386   2.799   2.012
 1080TIP3    H2 3205   6.290   2.705   1.941
 1081TIP3   OH2 3206   0.763   4.461   3.157
 1081TIP3    H1 3207   0.684   4.511   3.142
 1081TIP3    H2 3208   0.827   4.496   3.095
 1082TIP3   OH2 3209   2.465   2.361   0.419
 1082TIP3    H1 3210   2.384   2.377   0.468
 1082TIP3    H2 3211   2.443   2.289   0.361
 1083TIP3   OH2 3212   5.749   3.111   1.859
 1083TIP3    H1 3213   5.788   3.044   1.803
 1083TIP3    H2 3214   5.685   3.063   1.911
 1084TIP3   OH2 3215   6.703   4.514   2.347
 1084TIP3    H1 3216   6.702   4.610   2.347
 1084TIP3    H2 3217   6.774   4.491   2.407
 1085TIP3   OH2 3218   6.500   3.581   3.627
 1085TIP3    H1 3219   6.415   3.547   3.600
 1085TIP3    H2 3220   6.502   3.671   3.594
 1086TIP3   OH2 3221   2.995   1.316   3.056
 1086TIP3    H1 3222   3.079   1.272   3.070
 1086TIP3    H2 3223   2.976   1.360   3.139
 1087TIP3   OH2 3224   6.733   4.880   1.575
 1087TIP3    H1 3225   6.644   4.913   1.563
 1087TIP3    H2 3226   6.721   4.790   1.605
 1088TIP3   OH2 3227   6.892   5.605   5.077
 1088TIP3    H1 3228   6.842   5.686   5.071
 1088TIP3    H2 3229   6.892   5.582   5.170
 1089TIP3   OH2 3230   6.745   2.381   4.941
 1089TIP3    H1 3231   6.741   2.476   4.931
 1089TIP3    H2 3232   6.729   2.347   4.853
 1090TIP3   OH2 3233   5.873   1.632   3.174
 1090TIP3    H1 3234   5.783   1.603   3.181
 1090TIP3    H2 3235   5.925   1.562   3.213
 1091TIP3   OH2 3236   6.721   5.374   5.082
 1091TIP3    H1 3237   6.697   5.466   5.098
 1091TIP3    H2 3238   6.701   5.359   4.990
 1092TIP3   OH2 3239   4.374   4.071   2.219
 1092TIP3    H1 3240   4.355   4.138   2.286
 1092TIP3    H2 3241   4.297   4.015   2.220
 1093TIP3   OH2 3242   2.255   3.878   4.645
 1093TIP3    H1 3243   2.165   3.854   4.627
 1093TIP3    H2 3244   2.260   3.972   4.624
 1094TIP3   OH2 3245   4.708   4.155   4.420
 1094TIP3    H1 3246   4.764   4.091   4.377
 1094TIP3    H2 3247   4.669   4.107   4.493
 1095TIP3   OH2 3248   5.833   6.112   2.425
 1095TIP3    H1 3249   5.881   6.081   2.502
 1095TIP3    H2 3250   5.756   6.055   2.420
 1096TIP3   OH2 3251   1.324   5.089   1.825
 1096TIP3    H1 3252   1.345   5.120   1.737
 1096TIP3    H2 3253   1.408   5.088   1.871
 1097TIP3   OH2 3254   3.185   2.206   1.819
 1097TIP3    H1 3255   3.103   2.167   1.789
 1097TIP3    H2 3256   3.189   2.186   1.913
 1098TIP3   OH2 3257   5.672   2.171   4.547
 1098TIP3    H1 3258   5.640   2.261   4.543
 1098TIP3    H2 3259   5.613   2.122   4.490
 1099TIP3   OH2 3260   3.837   1.758   5.314
 1099TIP3    H1 3261   3.850   1.814   5.391
 1099TIP3    H2 3262   3.912   1.778   5.258
 1100TIP3   OH2 3263   5.861   5.440   0.041
 1100TIP3    H1 3264   5.869   5.349   0.068
 1100TIP3    H2 3265   5.800   5.439  -0.033
 1101TIP3   OH2 3266   4.445   1.519   2.987
 1101TIP3    H1 3267   4.489   1.471   3.058
 1101TIP3    H2 3268   4.410   1.597   3.030
 1102TIP3   OH2 3269   3.206   0.465   3.366
 1102TIP3    H1 3270   3.289   0.419   3.368
 1102TIP3    H2 3271   3.151   0.419   3.429
 1103TIP3   OH2 3272   5.467   4.745   4.927
 1103TIP3    H1 3273   5.418   4.670   4.961
 1103TIP3    H2 3274   5.474   4.728   4.833
 1104TIP3   OH2 3275   0.628   5.507   2.957
 1104TIP3    H1 3276   0.638   5.537   3.047
 1104TIP3    H2 3277   0.630   5.412   2.963
 1105TIP3   OH2 3278   4.167   0.194   5.728
 1105TIP3    H1 3279   4.184   0.106   5.761
 1105TIP3    H2 3280   4.095   0.183   5.666
 1106TIP3   OH2 3281   4.442   3.564   3.435
 1106TIP3    H1 3282   4.470   3.550   3.345
 1106TIP3    H2 3283   4.380   3.636   3.430
 1107TIP3   OH2 3284   3.654   2.634   5.106
 1107TIP3    H1 3285   3.567   2.612   5.074
 1107TIP3    H2 3286   3.701   2.664   5.029
 1108TIP3   OH2 3287   2.017   4.594   5.435
 1108TIP3    H1 3288   1.930   4.614   5.400
 1108TIP3    H2 3289   2.001   4.556   5.521
 1109TIP3   OH2 3290   0.785   5.588   2.722
 1109TIP3    H1 3291   0.716   5.580   2.788
 1109TIP3    H2 3292   0.739   5.610   2.641
 1110TIP3   OH2 3293   4.570   4.856   4.314
 1110TIP3    H1 3294   4.576   4.899   4.229
 1110TIP3    H2 3295   4.476   4.852   4.332
 1111TIP3   OH2 3296   2.171   1.156   5.223
 1111TIP3    H1 3297   2.225   1.224   5.263
 1111TIP3    H2 3298   2.126   1.115   5.297
 1112TIP3   OH2 3299   3.414   0.274   1.377
 1112TIP3    H1 3300   3.391   0.360   1.410
 1112TIP3    H2 3301   3.503   0.284   1.343
 1113TIP3   OH2 3302   4.865   2.767   2.264
 1113TIP3    H1 3303   4.792   2.745   2.322
 1113TIP3    H2 3304   4.898   2.683   2.234
 1114TIP3   OH2 3305   5.936   1.895   2.760
 1114TIP3    H1 3306   5.841   1.892   2.745
 1114TIP3    H2 3307   5.962   1.804   2.771
 1115TIP3   OH2 3308   1.989   3.809   4.663
 1115TIP3    H1 3309   1.949   3.848   4.740
 1115TIP3    H2 3310   1.917   3.767   4.616
 1116TIP3   OH2 3311   2.433   3.128   2.359
 1116TIP3    H1 3312   2.425   3.035   2.340
 1116TIP3    H2 3313   2.469   3.166   2.279
 1117TIP3   OH2 3314   0.566   1.795   4.788
 1117TIP3    H1 3315   0.481   1.820   4.753
 1117TIP3    H2 3316   0.629   1.826   4.723
 1118TIP3   OH2 3317   1.520   2.703   1.830
 1118TIP3    H1 3318   1.612   2.680   1.813
 1118TIP3    H2 3319   1.521   2.746   1.915
 1119TIP3   OH2 3320   1.067   2.802   3.247
 1119TIP3    H1 3321   1.002   2.801   3.317
 1119TIP3    H2 3322   1.089   2.895   3.237
 1120TIP3   OH2 3323   6.367   2.134   4.104
 1120TIP3    H1 3324   6.395   2.141   4.012
 1120TIP3    H2 3325   6.277   2.167   4.103
 1121TIP3   OH2 3326   1.784   0.621   1.818
 1121TIP3    H1 3327   1.779   0.525   1.822
 1121TIP3    H2 3328   1.878   0.640   1.824
 1122TIP3   OH2 3329   5.958   5.913   5.108
 1122TIP3    H1 3330   5.909   5.972   5.164
 1122TIP3    H2 3331   6.049   5.924   5.135
 1123TIP3   OH2 3332   2.344   0.096   2.385
 1123TIP3    H1 3333   2.282   0.050   2.328
 1123TIP3    H2 3334   2.366   0.176   2.337
 1124TIP3   OH2 3335   3.912   2.860   4.308
 1124TIP3    H1 3336   3.886   2.948   4.333
 1124TIP3    H2 3337   3.953   2.824   4.387
 1125TIP3   OH2 3338   1.811   1.676   5.394
 1125TIP3    H1 3339   1.834   1.601   5.339
 1125TIP3    H2 3340   1.744   1.722   5.344
 1126TIP3   OH2 3341   2.065   0.677   4.728
 1126TIP3    H1 3342   2.087   0.586   4.749
 1126TIP3    H2 3343   2.021   0.710   4.806
 1127TIP3   OH2 3344   1.103   4.074   5.550
 1127TIP3    H1 3345   1.046   3.997   5.556
 1127TIP3    H2 3346   1.068   4.124   5.476
 1128TIP3   OH2 3347   1.525   0.089   0.051
 1128TIP3    H1 3348   1.589   0.019   0.038
 1128TIP3    H2 3349   1.472   0.088  -0.029
 1129TIP3   OH2 3350   4.685   1.480   2.542
 1129TIP3    H1 3351   4.708   1.573   2.550
 1129TIP3    H2 3352   4.629   1.463   2.617
 1130TIP3   OH2 3353   5.207   6.709   4.853
 1130TIP3    H1 3354   5.149   6.679   4.923
 1130TIP3    H2 3355   5.293   6.713   4.894
 1131TIP3   OH2 3356   4.242   2.832   1.042
 1131TIP3    H1 3357   4.213   2.913   1.001
 1131TIP3    H2 3358   4.171   2.810   1.103
 1132TIP3   OH2 3359   3.196   2.159   4.226
 1132TIP3    H1 3360   3.235   2.219   4.289
 1132TIP3    H2 3361   3.198   2.206   4.143
 1133TIP3   OH2 3362   5.511   0.588   5.869
 1133TIP3    H1 3363   5.522   0.590   5.964
 1133TIP3    H2 3364   5.597   0.563   5.835
 1134TIP3   OH2 3365   3.908   6.609   0.492
 1134TIP3    H1 3366   3.942   6.659   0.417
 1134TIP3    H2 3367   3.893   6.521   0.458
 1135TIP3   OH2 3368   4.626   3.017   2.344
 1135TIP3    H1 3369   4.677   3.069   2.283
 1135TIP3    H2 3370   4.667   2.931   2.343
 1136TIP3   OH2 3371   1.198   5.077   5.143
 1136TIP3    H1 3372   1.151   4.994   5.133
 1136TIP3    H2 3373   1.214   5.085   5.237
 1137TIP3   OH2 3374   2.234   5.593   3.219
 1137TIP3    H1 3375   2.308   5.537   3.196
 1137TIP3    H2 3376   2.253   5.677   3.177
 1138TIP3   OH2 3377   0.057   2.882   2.687
 1138TIP3    H1 3378  -0.024   2.932   2.683
 1138TIP3    H2 3379   0.102   2.915   2.766
 1139TIP3   OH2 3380   2.777   2.668   4.970
 1139TIP3    H1 3381   2.717   2.735   4.939
 1139TIP3    H2 3382   2.856   2.680   4.918
 1140TIP3   OH2 3383   0.448   0.357   0.421
 1140TIP3    H1 3384   0.410   0.303   0.490
 1140TIP3    H2 3385   0.496   0.295   0.366
 1141TIP3   OH2 3386   0.804   6.245   5.664
 1141TIP3    H1 3387   0.891   6.274   5.637
 1141TIP3    H2 3388   0.745   6.283   5.598
 1142TIP3   OH2 3389   5.400   2.810   0.483
 1142TIP3    H1 3390   5.456   2.839   0.411
 1142TIP3    H2 3391   5.343   2.885   0.501
 1143TIP3   OH2 3392   2.761   3.740   0.766
 1143TIP3    H1 3393   2.721   3.661   0.731
 1143TIP3    H2 3394   2.730   3.745   0.856
 1144TIP3   OH2 3395   0.274   1.603   1.727
 1144TIP3    H1 3396   0.210   1.567   1.788
 1144TIP3    H2 3397   0.323   1.668   1.779
 1145TIP3   OH2 3398   0.871   3.603   4.678
 1145TIP3    H1 3399   0.921   3.663   4.733
 1145TIP3    H2 3400   0.936   3.538   4.649
 1146TIP3   OH2 3401   0.847   3.412   5.756
 1146TIP3    H1 3402   0.893   3.329   5.748
 1146TIP3    H2 3403   0.894   3.459   5.825
 1147TIP3   OH2 3404   1.853   6.279   5.751
 1147TIP3    H1 3405   1.766   6.252   5.779
 1147TIP3    H2 3406   1.880   6.343   5.816
 1148TIP3   OH2 3407   2.365   2.816   4.861
 1148TIP3    H1 3408   2.422   2.775   4.797
 1148TIP3    H2 3409   2.401   2.791   4.946
 1149TIP3   OH2 3410   2.654   5.172   3.490
 1149TIP3    H1 3411   2.604   5.161   3.409
 1149TIP3    H2 3412   2.602   5.128   3.557
 1150TIP3   OH2 3413   1.974   3.984   5.231
 1150TIP3    H1 3414   1.994   3.895   5.202
 1150TIP3    H2 3415   1.989   4.038   5.153
 1151TIP3   OH2 3416   2.603   2.238   0.058
 1151TIP3    H1 3417   2.584   2.223  -0.034
 1151TIP3    H2 3418   2.559   2.167   0.104
 1152TIP3   OH2 3419   6.769   3.010   3.437
 1152TIP3    H1 3420   6.798   3.097   3.410
 1152TIP3    H2 3421   6.729   2.973   3.358
 1153TIP3   OH2 3422  -0.002   1.345   2.531
 1153TIP3    H1 3423  -0.069   1.288   2.568
 1153TIP3    H2 3424   0.053   1.370   2.606
 1154TIP3   OH2 3425   3.991   6.124   1.130
 1154TIP3    H1 3426   4.014   6.169   1.211
 1154TIP3    H2 3427   4.051   6.160   1.064
 1155TIP3   OH2 3428   3.556   3.673   1.197
 1155TIP3    H1 3429   3.617   3.735   1.157
 1155TIP3    H2 3430   3.610   3.598   1.221
 1156TIP3   OH2 3431   6.522   1.617   0.436
 1156TIP3    H1 3432   6.504   1.533   0.394
 1156TIP3    H2 3433   6.446   1.671   0.415
 1157TIP3   OH2 3434   1.550   0.709   3.809
 1157TIP3    H1 3435   1.501   0.780   3.766
 1157TIP3    H2 3436   1.497   0.686   3.885
 1158TIP3   OH2 3437   3.837   5.123   3.824
 1158TIP3    H1 3438   3.855   5.154   3.735
 1158TIP3    H2 3439   3.830   5.203   3.876
 1159TIP3   OH2 3440   0.326   6.522   1.634
 1159TIP3    H1 3441   0.366   6.569   1.561
 1159TIP3    H2 3442   0.282   6.590   1.686
 1160TIP3   OH2 3443   1.509   1.574   5.089
 1160TIP3    H1 3444   1.502   1.549   4.997
 1160TIP3    H2 3445   1.437   1.527   5.132
 1161TIP3   OH2 3446   4.217   1.976   0.848
 1161TIP3    H1 3447   4.218   1.912   0.777
 1161TIP3    H2 3448   4.163   2.048   0.816
 1162TIP3   OH2 3449   3.521   4.639   0.166
 1162TIP3    H1 3450   3.470   4.715   0.195
 1162TIP3    H2 3451   3.597   4.637   0.224
 1163TIP3   OH2 3452   3.600   6.386   1.561
 1163TIP3    H1 3453   3.573   6.417   1.647
 1163TIP3    H2 3454   3.694   6.407   1.556
 1164TIP3   OH2 3455   6.139   5.115   4.973
 1164TIP3    H1 3456   6.221   5.091   5.017
 1164TIP3    H2 3457   6.097   5.031   4.954
 1165TIP3   OH2 3458   6.619   0.024   5.660
 1165TIP3    H1 3459   6.545   0.081   5.638
 1165TIP3    H2 3460   6.641   0.048   5.750
 1166TIP3   OH2 3461   2.852   5.356   0.257
 1166TIP3    H1 3462   2.835   5.443   0.292
 1166TIP3    H2 3463   2.809   5.356   0.171
 1167TIP3   OH2 3464   1.355   2.915   0.981
 1167TIP3    H1 3465   1.306   2.980   1.032
 1167TIP3    H2 3466   1.421   2.966   0.935
 1168TIP3   OH2 3467   0.821   2.883   3.505
 1168TIP3    H1 3468   0.907   2.913   3.534
 1168TIP3    H2 3469   0.763   2.902   3.578
 1169TIP3   OH2 3470   4.943   3.556   0.068
 1169TIP3    H1 3471   4.900   3.502   0.135
 1169TIP3    H2 3472   4.989   3.493   0.013
 1170TIP3   OH2 3473   1.974   0.824   0.894
 1170TIP3    H1 3474   1.905   0.818   0.960
 1170TIP3    H2 3475   1.963   0.910   0.855
 1171TIP3   OH2 3476   6.122   0.670   2.164
 1171TIP3    H1 3477   6.032   0.663   2.131
 1171TIP3    H2 3478   6.157   0.582   2.157
 1172TIP3   OH2 3479   4.035   4.032   3.154
 1172TIP3    H1 3480   4.084   3.962   3.112
 1172TIP3    H2 3481   4.078   4.113   3.126
 1173TIP3   OH2 3482   1.279   6.488   0.197
 1173TIP3    H1 3483   1.371   6.490   0.225
 1173TIP3    H2 3484   1.272   6.556   0.130
 1174TIP3   OH2 3485   3.006   0.525   1.953
 1174TIP3    H1 3486   3.034   0.434   1.962
 1174TIP3    H2 3487   2.942   0.538   2.023
 1175TIP3   OH2 3488   7.191   4.727   4.584
 1175TIP3    H1 3489   7.277   4.757   4.613
 1175TIP3    H2 3490   7.208   4.684   4.500
 1176TIP3   OH2 3491   0.146   0.723   0.355
 1176TIP3    H1 3492   0.216   0.662   0.333
 1176TIP3    H2 3493   0.074   0.667   0.385
 1177TIP3   OH2 3494   1.286   1.883   4.860
 1177TIP3    H1 3495   1.299   1.963   4.911
 1177TIP3    H2 3496   1.267   1.815   4.925
 1178TIP3   OH2 3497   4.037   3.777   2.732
 1178TIP3    H1 3498   3.983   3.760   2.654
 1178TIP3    H2 3499   4.027   3.870   2.749
 1179TIP3   OH2 3500   5.775   3.735   2.355
 1179TIP3    H1 3501   5.810   3.817   2.390
 1179TIP3    H2 3502   5.722   3.699   2.425
 1180TIP3   OH2 3503   2.833   5.378   4.625
 1180TIP3    H1 3504   2.917   5.357   4.667
 1180TIP3    H2 3505   2.857   5.423   4.544
 1181TIP3   OH2 3506   2.010   3.348   5.649
 1181TIP3    H1 3507   2.032   3.359   5.556
 1181TIP3    H2 3508   2.092   3.320   5.689
 1182TIP3   OH2 3509   2.435   3.496   1.371
 1182TIP3    H1 3510   2.392   3.499   1.286
 1182TIP3    H2 3511   2.399   3.418   1.413
 1183TIP3   OH2 3512   4.824   6.141   4.159
 1183TIP3    H1 3513   4.835   6.095   4.243
 1183TIP3    H2 3514   4.752   6.202   4.174
 1184TIP3   OH2 3515   6.251   0.715   1.762
 1184TIP3    H1 3516   6.232   0.740   1.671
 1184TIP3    H2 3517   6.232   0.622   1.766
 1185TIP3   OH2 3518   5.361   4.602   0.546
 1185TIP3    H1 3519   5.314   4.541   0.602
 1185TIP3    H2 3520   5.372   4.555   0.463
 1186TIP3   OH2 3521   3.565   1.825   4.555
 1186TIP3    H1 3522   3.608   1.756   4.606
 1186TIP3    H2 3523   3.571   1.902   4.611
 1187TIP3   OH2 3524   4.417   4.869   1.562
 1187TIP3    H1 3525   4.477   4.920   1.508
 1187TIP3    H2 3526   4.397   4.926   1.636
 1188TIP3   OH2 3527   5.407   3.087   0.946
 1188TIP3    H1 3528   5.339   3.028   0.977
 1188TIP3    H2 3529   5.477   3.030   0.915
 1189TIP3   OH2 3530   3.464   2.677   0.994
 1189TIP3    H1 3531   3.409   2.717   0.927
 1189TIP3    H2 3532   3.421   2.594   1.015
 1190TIP3   OH2 3533   2.293   1.897   0.397
 1190TIP3    H1 3534   2.259   1.810   0.417
 1190TIP3    H2 3535   2.248   1.956   0.458
 1191TIP3   OH2 3536   3.307   3.860   2.466
 1191TIP3    H1 3537   3.255   3.928   2.507
 1191TIP3    H2 3538   3.385   3.852   2.521
 1192TIP3   OH2 3539   6.197   5.258   2.075
 1192TIP3    H1 3540   6.267   5.246   2.011
 1192TIP3    H2 3541   6.118   5.228   2.029
 1193TIP3   OH2 3542   6.149   1.175   0.500
 1193TIP3    H1 3543   6.236   1.154   0.534
 1193TIP3    H2 3544   6.152   1.268   0.479
 1194TIP3   OH2 3545   4.567   2.046   1.504
 1194TIP3    H1 3546   4.489   2.052   1.448
 1194TIP3    H2 3547   4.547   2.102   1.579
 1195TIP3   OH2 3548   5.987   1.091   3.899
 1195TIP3    H1 3549   5.997   1.082   3.994
 1195TIP3    H2 3550   5.984   1.002   3.866
 1196TIP3   OH2 3551   4.781   2.589   4.012
 1196TIP3    H1 3552   4.767   2.654   3.943
 1196TIP3    H2 3553   4.694   2.572   4.047
 1197TIP3   OH2 3554   6.105   4.869   5.348
 1197TIP3    H1 3555   6.163   4.815   5.402
 1197TIP3    H2 3556   6.146   4.869   5.262
 1198TIP3   OH2 3557   6.069   6.342   3.213
 1198TIP3    H1 3558   6.123   6.346   3.292
 1198TIP3    H2 3559   6.036   6.253   3.211
 1199TIP3   OH2 3560  -0.017   6.033   2.220
 1199TIP3    H1 3561  -0.043   5.965   2.158
 1199TIP3    H2 3562   0.045   6.088   2.172
 1200TIP3   OH2 3563   7.177   6.694   4.383
 1200TIP3    H1 3564   7.169   6.604   4.351
 1200TIP3    H2 3565   7.097   6.709   4.433
 1201TIP3   OH2 3566   5.016   1.270   2.091
 1201TIP3    H1 3567   4.944   1.314   2.137
 1201TIP3    H2 3568   5.092   1.324   2.108
 1202TIP3   OH2 3569   6.689   2.478   1.715
 1202TIP3    H1 3570   6.683   2.386   1.688
 1202TIP3    H2 3571   6.697   2.475   1.810
 1203TIP3   OH2 3572   5.433   5.055   1.693
 1203TIP3    H1 3573   5.436   5.140   1.737
 1203TIP3    H2 3574   5.513   5.010   1.721
 1204TIP3   OH2 3575   4.178   3.129   2.579
 1204TIP3    H1 3576   4.090   3.167   2.575
 1204TIP3    H2 3577   4.207   3.144   2.669
 1205TIP3   OH2 3578   0.938   2.714   5.452
 1205TIP3    H1 3579   0.857   2.764   5.465
 1205TIP3    H2 3580   0.971   2.744   5.367
 1206TIP3   OH2 3581   5.484   0.439   4.898
 1206TIP3    H1 3582   5.579   0.432   4.902
 1206TIP3    H2 3583   5.466   0.482   4.814
 1207TIP3   OH2 3584   4.261   3.146   5.783
 1207TIP3    H1 3585   4.311   3.221   5.749
 1207TIP3    H2 3586   4.262   3.083   5.711
 1208TIP3   OH2 3587   3.465   1.624   3.590
 1208TIP3    H1 3588   3.445   1.682   3.517
 1208TIP3    H2 3589   3.507   1.548   3.549
 1209TIP3   OH2 3590   6.814   5.385   0.582
 1209TIP3    H1 3591   6.787   5.440   0.508
 1209TIP3    H2 3592   6.822   5.445   0.656
 1210TIP3   OH2 3593   4.956   6.048   0.800
 1210TIP3    H1 3594   5.028   6.010   0.751
 1210TIP3    H2 3595   4.918   5.974   0.848
 1211TIP3   OH2 3596   3.571   2.065   3.252
 1211TIP3    H1 3597   3.523   2.025   3.324
 1211TIP3    H2 3598   3.632   1.997   3.223
 1212TIP3   OH2 3599   0.686   0.866   3.004
 1212TIP3    H1 3600   0.746   0.934   3.036
 1212TIP3    H2 3601   0.618   0.915   2.958
 1213TIP3   OH2 3602   7.002   4.597   5.823
 1213TIP3    H1 3603   7.060   4.665   5.857
 1213TIP3    H2 3604   6.927   4.645   5.788
 1214TIP3   OH2 3605   1.608   5.849   3.595
 1214TIP3    H1 3606   1.641   5.804   3.672
 1214TIP3    H2 3607   1.608   5.782   3.526
 1215TIP3   OH2 3608   5.840   3.643   0.972
 1215TIP3    H1 3609   5.919   3.633   1.024
 1215TIP3    H2 3610   5.779   3.579   1.008
 1216TIP3   OH2 3611   0.054   0.211   5.238
 1216TIP3    H1 3612   0.104   0.130   5.244
 1216TIP3    H2 3613   0.110   0.272   5.190
 1217TIP3   OH2 3614   0.198   1.542   0.709
 1217TIP3    H1 3615   0.180   1.584   0.794
 1217TIP3    H2 3616   0.290   1.564   0.691
 1218TIP3   OH2 3617   4.312   3.798   3.737
 1218TIP3    H1 3618   4.223   3.765   3.742
 1218TIP3    H2 3619   4.324   3.823   3.646
 1219TIP3   OH2 3620   3.976   1.159   5.132
 1219TIP3    H1 3621   3.958   1.068   5.112
 1219TIP3    H2 3622   3.954   1.207   5.052
 1220TIP3   OH2 3623   6.025   0.554   1.120
 1220TIP3    H1 3624   6.024   0.477   1.062
 1220TIP3    H2 3625   5.986   0.523   1.202
 1221TIP3   OH2 3626   5.433   1.437   3.436
 1221TIP3    H1 3627   5.390   1.488   3.504
 1221TIP3    H2 3628   5.406   1.346   3.453
 1222TIP3   OH2 3629   1.699   0.257   3.483
 1222TIP3    H1 3630   1.624   0.247   3.424
 1222TIP3    H2 3631   1.711   0.170   3.521
 1223TIP3   OH2 3632   6.149   1.468   4.202
 1223TIP3    H1 3633   6.109   1.522   4.134
 1223TIP3    H2 3634   6.193   1.398   4.154
 1224TIP3   OH2 3635   4.638   0.906   3.147
 1224TIP3    H1 3636   4.615   0.816   3.171
 1224TIP3    H2 3637   4.558   0.956   3.166
 1225TIP3   OH2 3638   5.623   6.340   3.276
 1225TIP3    H1 3639   5.646   6.330   3.184
 1225TIP3    H2 3640   5.594   6.253   3.303
 1226TIP3   OH2 3641   5.306   5.806   5.561
 1226TIP3    H1 3642   5.380   5.760   5.521
 1226TIP3    H2 3643   5.307   5.777   5.653
 1227TIP3   OH2 3644   1.634   1.255   5.448
 1227TIP3    H1 3645   1.565   1.206   5.492
 1227TIP3    H2 3646   1.625   1.344   5.480
 1228TIP3   OH2 3647   4.865   4.486   0.460
 1228TIP3    H1 3648   4.934   4.506   0.396
 1228TIP3    H2 3649   4.869   4.391   0.471
 1229TIP3   OH2 3650   1.804   2.062   4.208
 1229TIP3    H1 3651   1.851   2.145   4.199
 1229TIP3    H2 3652   1.870   1.999   4.235
 1230TIP3   OH2 3653   4.829   1.842   5.428
 1230TIP3    H1 3654   4.836   1.747   5.418
 1230TIP3    H2 3655   4.736   1.858   5.443
 1231TIP3   OH2 3656   2.971   3.399   0.808
 1231TIP3    H1 3657   3.027   3.379   0.733
 1231TIP3    H2 3658   3.032   3.428   0.876
 1232TIP3   OH2 3659   6.234   2.511   5.152
 1232TIP3    H1 3660   6.296   2.458   5.202
 1232TIP3    H2 3661   6.224   2.591   5.203
 1233TIP3   OH2 3662   0.500   5.473   0.187
 1233TIP3    H1 3663   0.446   5.396   0.167
 1233TIP3    H2 3664   0.438   5.542   0.209
 1234TIP3   OH2 3665   6.193   5.518   5.354
 1234TIP3    H1 3666   6.167   5.580   5.286
 1234TIP3    H2 3667   6.209   5.436   5.307
 1235TIP3   OH2 3668   1.215   0.565   3.056
 1235TIP3    H1 3669   1.199   0.531   2.968
 1235TIP3    H2 3670   1.286   0.511   3.090
 1236TIP3   OH2 3671   3.062   0.828   0.663
 1236TIP3    H1 3672   3.038   0.920   0.651
 1236TIP3    H2 3673   2.999   0.780   0.610
 1237TIP3   OH2 3674   1.469   3.699   5.030
 1237TIP3    H1 3675   1.386   3.743   5.012
 1237TIP3    H2 3676   1.447   3.632   5.095
 1238TIP3   OH2 3677   2.806   0.527   5.444
 1238TIP3    H1 3678   2.786   0.452   5.501
 1238TIP3    H2 3679   2.737   0.591   5.464
 1239TIP3   OH2 3680   2.788   1.552   5.726
 1239TIP3    H1 3681   2.773   1.466   5.765
 1239TIP3    H2 3682   2.861   1.539   5.666
 1240TIP3   OH2 3683   3.155   4.737   4.673
 1240TIP3    H1 3684   3.140   4.825   4.637
 1240TIP3    H2 3685   3.094   4.731   4.746
 1241TIP3   OH2 3686   2.177   0.794   3.162
 1241TIP3    H1 3687   2.117   0.850   3.114
 1241TIP3    H2 3688   2.122   0.746   3.223
 1242TIP3   OH2 3689   6.544   4.662   0.226
 1242TIP3    H1 3690   6.569   4.601   0.156
 1242TIP3    H2 3691   6.497   4.608   0.289
 1243TIP3   OH2 3692   4.784   2.406   1.637
 1243TIP3    H1 3693   4.763   2.361   1.555
 1243TIP3    H2 3694   4.775   2.499   1.617
 1244TIP3   OH2 3695   6.775   0.590   0.686
 1244TIP3    H1 3696   6.859   0.559   0.654
 1244TIP3    H2 3697   6.791   0.616   0.777
 1245TIP3   OH2 3698   5.540   2.553   2.920
 1245TIP3    H1 3699   5.534   2.482   2.984
 1245TIP3    H2 3700   5.469   2.535   2.858
 1246TIP3   OH2 3701   2.904   1.405   4.595
 1246TIP3    H1 3702   2.874   1.496   4.605
 1246TIP3    H2 3703   2.837   1.353   4.639
 1247TIP3   OH2 3704   2.590   4.482   4.648
 1247TIP3    H1 3705   2.674   4.521   4.675
 1247TIP3    H2 3706   2.542   4.471   4.730
 1248TIP3   OH2 3707   7.193   2.885   2.377
 1248TIP3    H1 3708   7.139   2.823   2.427
 1248TIP3    H2 3709   7.169   2.971   2.413
 1249TIP3   OH2 3710   0.366   5.227   5.394
 1249TIP3    H1 3711   0.423   5.164   5.438
 1249TIP3    H2 3712   0.369   5.305   5.449
 1250TIP3   OH2 3713   5.356   0.916   4.492
 1250TIP3    H1 3714   5.307   0.999   4.491
 1250TIP3    H2 3715   5.448   0.943   4.494
 1251TIP3   OH2 3716   6.815   6.524   5.850
 1251TIP3    H1 3717   6.826   6.598   5.910
 1251TIP3    H2 3718   6.845   6.556   5.765
 1252TIP3   OH2 3719   4.576   4.754   3.980
 1252TIP3    H1 3720   4.658   4.705   3.971
 1252TIP3    H2 3721   4.604   4.846   3.984
 1253TIP3   OH2 3722   2.983   0.861   2.342
 1253TIP3    H1 3723   2.972   0.956   2.348
 1253TIP3    H2 3724   2.947   0.827   2.424
 1254TIP3   OH2 3725   2.228   5.253   2.863
 1254TIP3    H1 3726   2.168   5.305   2.918
 1254TIP3    H2 3727   2.274   5.197   2.924
 1255TIP3   OH2 3728   5.513   4.299   3.137
 1255TIP3    H1 3729   5.573   4.300   3.063
 1255TIP3    H2 3730   5.461   4.379   3.127
 1256TIP3   OH2 3731   1.080   5.717   2.834
 1256TIP3    H1 3732   0.993   5.750   2.814
 1256TIP3    H2 3733   1.107   5.669   2.756
 1257TIP3   OH2 3734   6.749   2.282   0.760
 1257TIP3    H1 3735   6.839   2.303   0.785
 1257TIP3    H2 3736   6.753   2.190   0.733
 1258TIP3   OH2 3737   5.789   4.605   5.289
 1258TIP3    H1 3738   5.719   4.556   5.246
 1258TIP3    H2 3739   5.848   4.538   5.323
 1259TIP3   OH2 3740   5.039   0.677   4.152
 1259TIP3    H1 3741   5.133   0.681   4.134
 1259TIP3    H2 3742   4.999   0.727   4.081
 1260TIP3   OH2 3743   3.546   3.168   3.382
 1260TIP3    H1 3744   3.568   3.217   3.462
 1260TIP3    H2 3745   3.490   3.228   3.333
 1261TIP3   OH2 3746   1.855   5.246   0.882
 1261TIP3    H1 3747   1.863   5.195   0.801
 1261TIP3    H2 3748   1.879   5.335   0.857
 1262TIP3   OH2 3749   1.932   1.733   2.929
 1262TIP3    H1 3750   2.012   1.784   2.944
 1262TIP3    H2 3751   1.939   1.660   2.990
 1263TIP3   OH2 3752   0.401   1.458   5.617
 1263TIP3    H1 3753   0.319   1.476   5.663
 1263TIP3    H2 3754   0.396   1.511   5.537
 1264TIP3   OH2 3755   5.481   4.663   4.650
 1264TIP3    H1 3756   5.452   4.626   4.567
 1264TIP3    H2 3757   5.577   4.661   4.646
 1265TIP3   OH2 3758   1.965   1.582   0.696
 1265TIP3    H1 3759   2.038   1.521   0.698
 1265TIP3    H2 3760   1.999   1.663   0.734
 1266TIP3   OH2 3761   3.927   3.236   2.584
 1266TIP3    H1 3762   3.851   3.267   2.535
 1266TIP3    H2 3763   3.934   3.295   2.659
 1267TIP3   OH2 3764   3.246   1.221   3.353
 1267TIP3    H1 3765   3.278   1.131   3.356
 1267TIP3    H2 3766   3.199   1.233   3.436
 1268TIP3   OH2 3767   0.300   6.236   5.684
 1268TIP3    H1 3768   0.351   6.221   5.605
 1268TIP3    H2 3769   0.224   6.178   5.675
 1269TIP3   OH2 3770   4.880   1.362   3.473
 1269TIP3    H1 3771   4.846   1.434   3.421
 1269TIP3    H2 3772   4.967   1.345   3.438
 1270TIP3   OH2 3773   1.492   4.866   2.817
 1270TIP3    H1 3774   1.517   4.954   2.791
 1270TIP3    H2 3775   1.566   4.811   2.789
 1271TIP3   OH2 3776   6.176   5.880   1.955
 1271TIP3    H1 3777   6.098   5.842   1.997
 1271TIP3    H2 3778   6.213   5.808   1.903
 1272TIP3   OH2 3779   4.813   0.747   0.262
 1272TIP3    H1 3780   4.732   0.791   0.237
 1272TIP3    H2 3781   4.851   0.804   0.328
 1273TIP3   OH2 3782   3.533   6.283   5.421
 1273TIP3    H1 3783   3.616   6.299   5.376
 1273TIP3    H2 3784   3.554   6.216   5.487
 1274TIP3   OH2 3785   1.222   4.311   5.644
 1274TIP3    H1 3786   1.179   4.227   5.630
 1274TIP3    H2 3787   1.217   4.326   5.738
 1275TIP3   OH2 3788   4.985   3.977   3.940
 1275TIP3    H1 3789   5.063   3.935   3.904
 1275TIP3    H2 3790   4.933   4.001   3.863
 1276TIP3   OH2 3791   3.183   4.948   2.246
 1276TIP3    H1 3792   3.253   4.953   2.181
 1276TIP3    H2 3793   3.135   5.030   2.236
 1277TIP3   OH2 3794   3.294   6.768   3.310
 1277TIP3    H1 3795   3.366   6.712   3.337
 1277TIP3    H2 3796   3.296   6.841   3.372
 1278TIP3   OH2 3797   5.441   6.255   2.705
 1278TIP3    H1 3798   5.518   6.280   2.757
 1278TIP3    H2 3799   5.454   6.299   2.621
 1279TIP3   OH2 3800   5.474   2.450   3.507
 1279TIP3    H1 3801   5.484   2.543   3.530
 1279TIP3    H2 3802   5.384   2.428   3.532
 1280TIP3   OH2 3803   4.426   5.042   4.896
 1280TIP3    H1 3804   4.389   4.959   4.866
 1280TIP3    H2 3805   4.432   5.032   4.991
 1281TIP3   OH2 3806   3.620   5.285   3.354
 1281TIP3    H1 3807   3.631   5.358   3.293
 1281TIP3    H2 3808   3.622   5.326   3.440
 1282TIP3   OH2 3809   6.610   3.210   3.996
 1282TIP3    H1 3810   6.601   3.247   3.908
 1282TIP3    H2 3811   6.661   3.275   4.044
 1283TIP3   OH2 3812   3.074   1.328   3.850
 1283TIP3    H1 3813   3.092   1.365   3.937
 1283TIP3    H2 3814   3.070   1.234   3.865
 1284TIP3   OH2 3815   3.342   3.295   2.949
 1284TIP3    H1 3816   3.437   3.305   2.938
 1284TIP3    H2 3817   3.306   3.377   2.916
 1285TIP3   OH2 3818   0.402   2.087   2.396
 1285TIP3    H1 3819   0.419   2.089   2.302
 1285TIP3    H2 3820   0.469   2.029   2.432
 1286TIP3   OH2 3821   4.715   1.045   5.759
 1286TIP3    H1 3822   4.755   1.116   5.811
 1286TIP3    H2 3823   4.627   1.077   5.739
 1287TIP3   OH2 3824   6.936   6.236   5.895
 1287TIP3    H1 3825   6.890   6.313   5.928
 1287TIP3    H2 3826   7.024   6.266   5.876
 1288TIP3   OH2 3827   0.580   1.871   3.620
 1288TIP3    H1 3828   0.601   1.808   3.552
 1288TIP3    H2 3829   0.514   1.929   3.581
 1289TIP3   OH2 3830   5.185   6.103   1.674
 1289TIP3    H1 3831   5.218   6.112   1.584
 1289TIP3    H2 3832   5.143   6.017   1.676
 1290TIP3   OH2 3833   0.076   2.725   1.818
 1290TIP3    H1 3834   0.142   2.760   1.758
 1290TIP3    H2 3835   0.095   2.767   1.902
 1291TIP3   OH2 3836   2.512   4.195   3.324
 1291TIP3    H1 3837   2.429   4.192   3.371
 1291TIP3    H2 3838   2.517   4.109   3.281
 1292TIP3   OH2 3839   0.421   3.701   2.304
 1292TIP3    H1 3840   0.412   3.743   2.219
 1292TIP3    H2 3841   0.515   3.691   2.316
 1293TIP3   OH2 3842   4.665   2.473   3.636
 1293TIP3    H1 3843   4.583   2.436   3.604
 1293TIP3    H2 3844   4.700   2.524   3.563
 1294TIP3   OH2 3845   3.204   1.041   0.425
 1294TIP3    H1 3846   3.143   1.078   0.361
 1294TIP3    H2 3847   3.157   1.049   0.509
 1295TIP3   OH2 3848   3.436   5.443   2.407
 1295TIP3    H1 3849   3.510   5.426   2.348
 1295TIP3    H2 3850   3.363   5.464   2.348
 1296TIP3   OH2 3851   4.047   4.112   3.850
 1296TIP3    H1 3852   3.986   4.069   3.791
 1296TIP3    H2 3853   3.999   4.188   3.883
 1297TIP3   OH2 3854   4.892   1.617   4.446
 1297TIP3    H1 3855   4.980   1.653   4.434
 1297TIP3    H2 3856   4.878   1.619   4.541
 1298TIP3   OH2 3857   3.906   3.146   3.089
 1298TIP3    H1 3858   3.921   3.235   3.057
 1298TIP3    H2 3859   3.898   3.094   3.009
 1299TIP3   OH2 3860   5.176   6.429   4.523
 1299TIP3    H1 3861   5.113   6.392   4.460
 1299TIP3    H2 3862   5.134   6.509   4.554
 1300TIP3   OH2 3863   3.212   2.948   3.634
 1300TIP3    H1 3864   3.281   2.977   3.694
 1300TIP3    H2 3865   3.246   2.967   3.547
 1301TIP3   OH2 3866   6.140   0.645   4.382
 1301TIP3    H1 3867   6.176   0.712   4.441
 1301TIP3    H2 3868   6.065   0.610   4.429
 1302TIP3   OH2 3869   6.349   5.546   4.770
 1302TIP3    H1 3870   6.296   5.468   4.755
 1302TIP3    H2 3871   6.410   5.521   4.839
 1303TIP3   OH2 3872   5.723   2.307   3.453
 1303TIP3    H1 3873   5.639   2.354   3.452
 1303TIP3    H2 3874   5.760   2.327   3.539
 1304TIP3   OH2 3875   3.815   0.300   2.991
 1304TIP3    H1 3876   3.878   0.371   3.003
 1304TIP3    H2 3877   3.815   0.285   2.896
 1305TIP3   OH2 3878   5.464   0.099   5.828
 1305TIP3    H1 3879   5.526   0.067   5.763
 1305TIP3    H2 3880   5.448   0.190   5.804
 1306TIP3   OH2 3881   2.975   4.398   3.513
 1306TIP3    H1 3882   2.924   4.317   3.514
 1306TIP3    H2 3883   2.915   4.464   3.477
 1307TIP3   OH2 3884   4.363   2.551   5.460
 1307TIP3    H1 3885   4.298   2.542   5.391
 1307TIP3    H2 3886   4.406   2.466   5.464
 1308TIP3   OH2 3887   0.696   2.398   1.938
 1308TIP3    H1 3888   0.791   2.395   1.930
 1308TIP3    H2 3889   0.679   2.378   2.030
 1309TIP3   OH2 3890   6.340   3.714   0.387
 1309TIP3    H1 3891   6.332   3.771   0.311
 1309TIP3    H2 3892   6.283   3.639   0.367
 1310TIP3   OH2 3893   4.651   4.115   2.902
 1310TIP3    H1 3894   4.605   4.145   2.825
 1310TIP3    H2 3895   4.743   4.137   2.885
 1311TIP3   OH2 3896   0.728   1.155   3.065
 1311TIP3    H1 3897   0.777   1.228   3.102
 1311TIP3    H2 3898   0.697   1.106   3.140
 1312TIP3   OH2 3899   1.143   4.651   0.097
 1312TIP3    H1 3900   1.237   4.635   0.090
 1312TIP3    H2 3901   1.108   4.629   0.011
 1313TIP3   OH2 3902   6.735   2.115   1.085
 1313TIP3    H1 3903   6.729   2.055   1.011
 1313TIP3    H2 3904   6.682   2.074   1.153
 1314TIP3   OH2 3905   5.690   0.682   3.158
 1314TIP3    H1 3906   5.768   0.631   3.177
 1314TIP3    H2 3907   5.717   0.745   3.091
 1315TIP3   OH2 3908   1.983   0.095   5.775
 1315TIP3    H1 3909   2.004   0.031   5.842
 1315TIP3    H2 3910   2.024   0.061   5.695
 1316TIP3   OH2 3911   0.301   5.290   3.736
 1316TIP3    H1 3912   0.351   5.371   3.745
 1316TIP3    H2 3913   0.364   5.221   3.758
 1317TIP3   OH2 3914   6.751   0.853   1.819
 1317TIP3    H1 3915   6.705   0.773   1.794
 1317TIP3    H2 3916   6.682   0.916   1.840
 1318TIP3   OH2 3917   6.901   0.681   2.781
 1318TIP3    H1 3918   6.831   0.674   2.716
 1318TIP3    H2 3919   6.878   0.757   2.834
 1319TIP3   OH2 3920   6.771   5.563   0.394
 1319TIP3    H1 3921   6.816   5.582   0.311
 1319TIP3    H2 3922   6.727   5.645   0.417
 1320TIP3   OH2 3923   3.705   6.123   4.760
 1320TIP3    H1 3924   3.654   6.063   4.707
 1320TIP3    H2 3925   3.735   6.190   4.699
 1321TIP3   OH2 3926   5.764   5.440   3.380
 1321TIP3    H1 3927   5.759   5.530   3.413
 1321TIP3    H2 3928   5.675   5.406   3.388
 1322TIP3   OH2 3929   5.803   5.506   1.906
 1322TIP3    H1 3930   5.810   5.599   1.887
 1322TIP3    H2 3931   5.869   5.489   1.973
 1323TIP3   OH2 3932   1.331   5.786   1.437
 1323TIP3    H1 3933   1.352   5.766   1.346
 1323TIP3    H2 3934   1.296   5.704   1.472
 1324TIP3   OH2 3935   0.677   4.024   4.881
 1324TIP3    H1 3936   0.724   4.033   4.798
 1324TIP3    H2 3937   0.623   3.946   4.869
 1325TIP3   OH2 3938   1.751   3.902   2.914
 1325TIP3    H1 3939   1.767   3.814   2.883
 1325TIP3    H2 3940   1.719   3.950   2.838
 1326TIP3   OH2 3941   1.909   4.304   5.291
 1326TIP3    H1 3942   1.975   4.309   5.360
 1326TIP3    H2 3943   1.936   4.229   5.238
 1327TIP3   OH2 3944   7.087   0.174   3.342
 1327TIP3    H1 3945   7.174   0.212   3.336
 1327TIP3    H2 3946   7.094   0.091   3.294
 1328TIP3   OH2 3947   2.538   3.187   0.853
 1328TIP3    H1 3948   2.498   3.215   0.935
 1328TIP3    H2 3949   2.532   3.263   0.796
 1329TIP3   OH2 3950   6.399   0.664   2.755
 1329TIP3    H1 3951   6.432   0.696   2.840
 1329TIP3    H2 3952   6.329   0.603   2.778
 1330TIP3   OH2 3953   3.959   0.244   5.039
 1330TIP3    H1 3954   4.004   0.265   4.957
 1330TIP3    H2 3955   3.871   0.278   5.028
 1331TIP3   OH2 3956   1.246   3.067   1.172
 1331TIP3    H1 3957   1.226   3.012   1.247
 1331TIP3    H2 3958   1.305   3.134   1.206
 1332TIP3   OH2 3959   4.215   5.299   5.044
 1332TIP3    H1 3960   4.187   5.386   5.016
 1332TIP3    H2 3961   4.302   5.312   5.081
 1333TIP3   OH2 3962   1.075   4.870   4.142
 1333TIP3    H1 3963   1.131   4.947   4.145
 1333TIP3    H2 3964   0.991   4.900   4.178
 1334TIP3   OH2 3965   0.786   1.367   4.199
 1334TIP3    H1 3966   0.790   1.280   4.238
 1334TIP3    H2 3967   0.693   1.391   4.202
 1335TIP3   OH2 3968   4.108   1.775   5.224
 1335TIP3    H1 3969   4.174   1.845   5.226
 1335TIP3    H2 3970   4.141   1.709   5.285
 1336TIP3   OH2 3971   6.267   5.865   3.751
 1336TIP3    H1 3972   6.281   5.882   3.844
 1336TIP3    H2 3973   6.321   5.789   3.731
 1337TIP3   OH2 3974   2.550   4.064   2.023
 1337TIP3    H1 3975   2.577   4.112   2.101
 1337TIP3    H2 3976   2.535   4.132   1.957
 1338TIP3   OH2 3977   0.808   0.560   4.164
 1338TIP3    H1 3978   0.828   0.516   4.082
 1338TIP3    H2 3979   0.762   0.494   4.216
 1339TIP3   OH2 3980   3.773   1.114   0.473
 1339TIP3    H1 3981   3.851   1.169   0.482
 1339TIP3    H2 3982   3.708   1.156   0.529
 1340TIP3   OH2 3983   0.667   5.713   3.910
 1340TIP3    H1 3984   0.722   5.717   3.988
 1340TIP3    H2 3985   0.657   5.804   3.882
 1341TIP3   OH2 3986   1.329   1.832   0.810
 1341TIP3    H1 3987   1.415   1.809   0.776
 1341TIP3    H2 3988   1.348   1.883   0.889
 1342TIP3   OH2 3989   4.791   3.177   2.056
 1342TIP3    H1 3990   4.854   3.240   2.021
 1342TIP3    H2 3991   4.844   3.113   2.103
 1343TIP3   OH2 3992   0.911   6.069   5.084
 1343TIP3    H1 3993   0.975   5.998   5.087
 1343TIP3    H2 3994   0.958   6.145   5.118
 1344TIP3   OH2 3995   0.155   2.819   1.152
 1344TIP3    H1 3996   0.091   2.857   1.212
 1344TIP3    H2 3997   0.231   2.801   1.207
 1345TIP3   OH2 3998   6.024   2.696   0.551
 1345TIP3    H1 3999   6.105   2.711   0.599
 1345TIP3    H2 4000   6.043   2.723   0.461
 1346TIP3   OH2 4001   3.722   5.010   5.808
 1346TIP3    H1 4002   3.732   4.918   5.782
 1346TIP3    H2 4003   3.643   5.038   5.762
 1347TIP3   OH2 4004   2.898   5.598   5.481
 1347TIP3    H1 4005   2.894   5.689   5.449
 1347TIP3    H2 4006   2.980   5.564   5.445
 1348TIP3   OH2 4007   6.367   6.769   1.306
 1348TIP3    H1 4008   6.349   6.855   1.267
 1348TIP3    H2 4009   6.381   6.788   1.399
 1349TIP3   OH2 4010   5.189   5.246   1.419
 1349TIP3    H1 4011   5.271   5.291   1.439
 1349TIP3    H2 4012   5.125   5.316   1.407
 1350TIP3   OH2 4013   6.578   2.182   3.888
 1350TIP3    H1 4014   6.653   2.162   3.832
 1350TIP3    H2 4015   6.593   2.272   3.918
 1351TIP3   OH2 4016   5.002   0.104   2.246
 1351TIP3    H1 4017   5.087   0.147   2.247
 1351TIP3    H2 4018   4.999   0.057   2.163
 1352TIP3   OH2 4019   4.865   3.150   1.355
 1352TIP3    H1 4020   4.800   3.150   1.284
 1352TIP3    H2 4021   4.855   3.236   1.396
 1353TIP3   OH2 4022   3.901   5.250   3.598
 1353TIP3    H1 4023   3.822   5.304   3.603
 1353TIP3    H2 4024   3.933   5.264   3.510
 1354TIP3   OH2 4025   1.870   1.353   4.978
 1354TIP3    H1 4026   1.966   1.343   4.979
 1354TIP3    H2 4027   1.838   1.268   4.949
 1355TIP3   OH2 4028   4.411   6.426   5.244
 1355TIP3    H1 4029   4.465   6.355   5.209
 1355TIP3    H2 4030   4.464   6.505   5.231
 1356TIP3   OH2 4031   6.608   6.805   5.161
 1356TIP3    H1 4032   6.643   6.717   5.151
 1356TIP3    H2 4033   6.626   6.847   5.077
 1357TIP3   OH2 4034   2.641   2.003   3.269
 1357TIP3    H1 4035   2.628   1.970   3.358
 1357TIP3    H2 4036   2.733   1.988   3.251
 1358TIP3   OH2 4037   4.608   0.684   0.042
 1358TIP3    H1 4038   4.634   0.598   0.009
 1358TIP3    H2 4039   4.676   0.743   0.010
 1359TIP3   OH2 4040   4.816   5.192   0.961
 1359TIP3    H1 4041   4.856   5.276   0.983
 1359TIP3    H2 4042   4.729   5.196   1.000
 1360TIP3   OH2 4043   1.728   3.239   1.379
 1360TIP3    H1 4044   1.727   3.334   1.385
 1360TIP3    H2 4045   1.761   3.210   1.465
 1361TIP3   OH2 4046   1.219   3.660   2.204
 1361TIP3    H1 4047   1.128   3.630   2.202
 1361TIP3    H2 4048   1.214   3.755   2.188
 1362TIP3   OH2 4049   5.794   1.516   2.672
 1362TIP3    H1 4050   5.827   1.558   2.751
 1362TIP3    H2 4051   5.829   1.569   2.600
 1363TIP3   OH2 4052   0.484   4.431   3.575
 1363TIP3    H1 4053   0.515   4.440   3.486
 1363TIP3    H2 4054   0.527   4.501   3.623
 1364TIP3   OH2 4055   6.796   1.239   1.494
 1364TIP3    H1 4056   6.728   1.260   1.558
 1364TIP3    H2 4057   6.789   1.144   1.482
 1365TIP3   OH2 4058   4.144   5.551   4.966
 1365TIP3    H1 4059   4.122   5.549   4.873
 1365TIP3    H2 4060   4.064   5.582   5.009
 1366TIP3   OH2 4061   1.251   0.149   3.347
 1366TIP3    H1 4062   1.233   0.127   3.439
 1366TIP3    H2 4063   1.345   0.170   3.346
 1367TIP3   OH2 4064   2.697   5.883   1.476
 1367TIP3    H1 4065   2.786   5.900   1.508
 1367TIP3    H2 4066   2.641   5.907   1.550
 1368TIP3   OH2 4067   0.444   3.029   2.072
 1368TIP3    H1 4068   0.469   3.110   2.027
 1368TIP3    H2 4069   0.528   2.990   2.099
 1369TIP3   OH2 4070   3.179   1.405   1.975
 1369TIP3    H1 4071   3.085   1.417   1.967
 1369TIP3    H2 4072   3.205   1.465   2.045
 1370TIP3   OH2 4073   3.543   5.112   5.467
 1370TIP3    H1 4074   3.634   5.138   5.452
 1370TIP3    H2 4075   3.521   5.058   5.391
 1371TIP3   OH2 4076   2.644   5.239   4.147
 1371TIP3    H1 4077   2.653   5.334   4.135
 1371TIP3    H2 4078   2.659   5.225   4.240
 1372TIP3   OH2 4079   0.310   1.006   3.280
 1372TIP3    H1 4080   0.346   0.918   3.270
 1372TIP3    H2 4081   0.226   1.003   3.236
 1373TIP3   OH2 4082   2.086   1.056   1.149
 1373TIP3    H1 4083   2.043   0.972   1.135
 1373TIP3    H2 4084   2.166   1.034   1.197
 1374TIP3   OH2 4085   3.520   6.202   3.206
 1374TIP3    H1 4086   3.553   6.117   3.177
 1374TIP3    H2 4087   3.590   6.264   3.183
 1375TIP3   OH2 4088   4.732   6.609   3.842
 1375TIP3    H1 4089   4.661   6.624   3.780
 1375TIP3    H2 4090   4.707   6.528   3.888
 1376TIP3   OH2 4091   7.232   2.374   3.049
 1376TIP3    H1 4092   7.209   2.435   2.979
 1376TIP3    H2 4093   7.270   2.429   3.117
 1377TIP3   OH2 4094   3.717   1.585   4.040
 1377TIP3    H1 4095   3.795   1.534   4.018
 1377TIP3    H2 4096   3.685   1.619   3.956
 1378TIP3   OH2 4097   0.191   6.321   1.726
 1378TIP3    H1 4098   0.245   6.395   1.699
 1378TIP3    H2 4099   0.107   6.360   1.751
 1379TIP3   OH2 4100   0.868   4.583   4.987
 1379TIP3    H1 4101   0.795   4.550   5.040
 1379TIP3    H2 4102   0.826   4.614   4.906
 1380TIP3   OH2 4103   4.182   1.336   3.954
 1380TIP3    H1 4104   4.153   1.305   4.040
 1380TIP3    H2 4105   4.215   1.424   3.971
 1381TIP3   OH2 4106   1.856   6.589   2.877
 1381TIP3    H1 4107   1.858   6.672   2.828
 1381TIP3    H2 4108   1.820   6.526   2.815
 1382TIP3   OH2 4109   5.643   3.840   1.141
 1382TIP3    H1 4110   5.728   3.797   1.134
 1382TIP3    H2 4111   5.658   3.915   1.199
 1383TIP3   OH2 4112   6.966   3.856   0.617
 1383TIP3    H1 4113   7.041   3.903   0.653
 1383TIP3    H2 4114   6.959   3.777   0.670
 1384TIP3   OH2 4115   0.178   0.401   1.881
 1384TIP3    H1 4116   0.097   0.406   1.932
 1384TIP3    H2 4117   0.212   0.490   1.881
 1385TIP3   OH2 4118   1.623   6.827   4.783
 1385TIP3    H1 4119   1.642   6.753   4.841
 1385TIP3    H2 4120   1.684   6.816   4.710
 1386TIP3   OH2 4121   1.789   3.149   3.415
 1386TIP3    H1 4122   1.710   3.203   3.403
 1386TIP3    H2 4123   1.770   3.068   3.368
 1387TIP3   OH2 4124   7.098   6.597   3.405
 1387TIP3    H1 4125   7.044   6.538   3.352
 1387TIP3    H2 4126   7.187   6.583   3.373
 1388TIP3   OH2 4127   6.116   6.464   5.120
 1388TIP3    H1 4128   6.207   6.434   5.112
 1388TIP3    H2 4129   6.068   6.409   5.058
 1389TIP3   OH2 4130   0.351   0.453   4.383
 1389TIP3    H1 4131   0.401   0.374   4.362
 1389TIP3    H2 4132   0.350   0.455   4.479
 1390TIP3   OH2 4133   3.432   1.509   1.078
 1390TIP3    H1 4134   3.500   1.566   1.041
 1390TIP3    H2 4135   3.416   1.545   1.166
 1391TIP3   OH2 4136   6.424   5.334   0.519
 1391TIP3    H1 4137   6.340   5.380   0.516
 1391TIP3    H2 4138   6.402   5.243   0.497
 1392TIP3   OH2 4139   0.938   0.053   4.729
 1392TIP3    H1 4140   0.915  -0.038   4.710
 1392TIP3    H2 4141   0.902   0.103   4.656
 1393TIP3   OH2 4142   6.458   2.846   1.723
 1393TIP3    H1 4143   6.374   2.848   1.677
 1393TIP3    H2 4144   6.437   2.871   1.813
 1394TIP3   OH2 4145   5.835   0.275   5.646
 1394TIP3    H1 4146   5.910   0.218   5.632
 1394TIP3    H2 4147   5.849   0.314   5.732
 1395TIP3   OH2 4148   3.455   6.773   1.042
 1395TIP3    H1 4149   3.370   6.795   1.079
 1395TIP3    H2 4150   3.448   6.681   1.017
 1396TIP3   OH2 4151   1.147   1.760   1.527
 1396TIP3    H1 4152   1.099   1.799   1.600
 1396TIP3    H2 4153   1.085   1.761   1.454
 1397TIP3   OH2 4154   3.843   0.633   0.435
 1397TIP3    H1 4155   3.791   0.591   0.367
 1397TIP3    H2 4156   3.932   0.603   0.419
 1398TIP3   OH2 4157   4.859   0.593   1.068
 1398TIP3    H1 4158   4.847   0.559   1.156
 1398TIP3    H2 4159   4.953   0.590   1.053
 1399TIP3   OH2 4160   7.097   6.502   4.720
 1399TIP3    H1 4161   7.042   6.564   4.672
 1399TIP3    H2 4162   7.046   6.482   4.799
 1400TIP3   OH2 4163   5.980   5.732   2.892
 1400TIP3    H1 4164   5.930   5.707   2.969
 1400TIP3    H2 4165   6.054   5.782   2.926
 1401TIP3   OH2 4166   4.692   5.830   4.720
 1401TIP3    H1 4167   4.700   5.827   4.816
 1401TIP3    H2 4168   4.606   5.792   4.702
 1402TIP3   OH2 4169   3.318   1.993   0.161
 1402TIP3    H1 4170   3.325   2.052   0.236
 1402TIP3    H2 4171   3.403   1.950   0.155
 1403TIP3   OH2 4172   6.996   1.929   4.650
 1403TIP3    H1 4173   6.938   1.942   4.575
 1403TIP3    H2 4174   7.007   2.016   4.687
 1404TIP3   OH2 4175   2.453   4.143   4.836
 1404TIP3    H1 4176   2.518   4.164   4.769
 1404TIP3    H2 4177   2.370   4.139   4.790
 1405TIP3   OH2 4178   0.377   4.455   4.348
 1405TIP3    H1 4179   0.352   4.543   4.320
 1405TIP3    H2 4180   0.316   4.398   4.302
 1406TIP3   OH2 4181   4.912   6.446   5.452
 1406TIP3    H1 4182   4.898   6.414   5.363
 1406TIP3    H2 4183   4.957   6.373   5.496
 1407TIP3   OH2 4184   5.864   6.411   5.270
 1407TIP3    H1 4185   5.942   6.426   5.218
 1407TIP3    H2 4186   5.792   6.440   5.214
 1408TIP3   OH2 4187   3.473   4.503   4.183
 1408TIP3    H1 4188   3.429   4.561   4.245
 1408TIP3    H2 4189   3.563   4.535   4.180
 1409TIP3   OH2 4190   7.025   6.184   1.326
 1409TIP3    H1 4191   6.944   6.219   1.362
 1409TIP3    H2 4192   7.087   6.185   1.399
 1410TIP3   OH2 4193   5.547   0.746   0.253
 1410TIP3    H1 4194   5.451   0.751   0.256
 1410TIP3    H2 4195   5.565   0.653   0.243
 1411TIP3   OH2 4196   6.214   1.401   2.656
 1411TIP3    H1 4197   6.198   1.406   2.750
 1411TIP3    H2 4198   6.208   1.491   2.625
 1412TIP3   OH2 4199   2.616   2.995   5.256
 1412TIP3    H1 4200   2.677   2.971   5.325
 1412TIP3    H2 4201   2.551   2.925   5.255
 1413TIP3   OH2 4202   0.108   3.065   0.917
 1413TIP3    H1 4203   0.148   2.999   0.974
 1413TIP3    H2 4204   0.016   3.040   0.913
 1414TIP3   OH2 4205   0.141   0.835   1.156
 1414TIP3    H1 4206   0.073   0.875   1.103
 1414TIP3    H2 4207   0.174   0.762   1.102
 1415TIP3   OH2 4208   5.786   0.932   5.269
 1415TIP3    H1 4209   5.719   0.943   5.202
 1415TIP3    H2 4210   5.781   0.839   5.294
 1416TIP3   OH2 4211   4.867   0.002   0.337
 1416TIP3    H1 4212   4.800   0.014   0.270
 1416TIP3    H2 4213   4.858   0.078   0.395
 1417TIP3   OH2 4214   4.687   6.561   0.140
 1417TIP3    H1 4215   4.737   6.604   0.209
 1417TIP3    H2 4216   4.731   6.476   0.128
 1418TIP3   OH2 4217   3.136   2.307   0.250
 1418TIP3    H1 4218   3.063   2.266   0.205
 1418TIP3    H2 4219   3.097   2.382   0.295
 1419TIP3   OH2 4220   0.040   0.269   3.127
 1419TIP3    H1 4221   0.007   0.180   3.116
 1419TIP3    H2 4222  -0.024   0.324   3.083
 1420TIP3   OH2 4223   0.668   6.064   2.853
 1420TIP3    H1 4224   0.749   6.034   2.812
 1420TIP3    H2 4225   0.694   6.086   2.943
 1421TIP3   OH2 4226   2.551   4.343   0.829
 1421TIP3    H1 4227   2.555   4.433   0.796
 1421TIP3    H2 4228   2.481   4.345   0.895
 1422TIP3   OH2 4229   1.039   1.742   0.365
 1422TIP3    H1 4230   1.100   1.684   0.319
 1422TIP3    H2 4231   1.083   1.764   0.446
 1423TIP3   OH2 4232   2.140   0.186   1.250
 1423TIP3    H1 4233   2.067   0.230   1.207
 1423TIP3    H2 4234   2.133   0.095   1.221
 1424TIP3   OH2 4235   4.244   6.194   1.905
 1424TIP3    H1 4236   4.200   6.146   1.974
 1424TIP3    H2 4237   4.325   6.226   1.945
 1425TIP3   OH2 4238   6.223   5.758   5.847
 1425TIP3    H1 4239   6.136   5.749   5.886
 1425TIP3    H2 4240   6.237   5.677   5.798
 1426TIP3   OH2 4241   3.993   6.333   4.588
 1426TIP3    H1 4242   3.898   6.322   4.583
 1426TIP3    H2 4243   4.015   6.310   4.678
 1427TIP3   OH2 4244   0.913   3.131   4.993
 1427TIP3    H1 4245   0.832   3.180   5.006
 1427TIP3    H2 4246   0.884   3.044   4.965
 1428TIP3   OH2 4247   2.247   0.470   0.090
 1428TIP3    H1 4248   2.269   0.542   0.032
 1428TIP3    H2 4249   2.186   0.508   0.154
 1429TIP3   OH2 4250   0.037   2.802   0.134
 1429TIP3    H1 4251  -0.040   2.758   0.168
 1429TIP3    H2 4252   0.051   2.764   0.047
 1430TIP3   OH2 4253   0.310   0.773   3.669
 1430TIP3    H1 4254   0.284   0.860   3.639
 1430TIP3    H2 4255   0.404   0.780   3.686
 1431TIP3   OH2 4256   4.015   1.037   3.311
 1431TIP3    H1 4257   3.994   0.956   3.357
 1431TIP3    H2 4258   3.943   1.050   3.250
 1432TIP3   OH2 4259   1.698   4.673   3.356
 1432TIP3    H1 4260   1.765   4.728   3.316
 1432TIP3    H2 4261   1.624   4.677   3.296
 1433TIP3   OH2 4262   0.376   4.308   1.859
 1433TIP3    H1 4263   0.294   4.264   1.882
 1433TIP3    H2 4264   0.364   4.336   1.768
 1434TIP3   OH2 4265   2.401   1.408   0.229
 1434TIP3    H1 4266   2.341   1.472   0.190
 1434TIP3    H2 4267   2.352   1.326   0.227
 1435TIP3   OH2 4268   0.712   5.293   5.339
 1435TIP3    H1 4269   0.638   5.347   5.312
 1435TIP3    H2 4270   0.746   5.335   5.418
 1436TIP3   OH2 4271   1.789   5.738   1.457
 1436TIP3    H1 4272   1.831   5.728   1.543
 1436TIP3    H2 4273   1.763   5.830   1.454
 1437TIP3   OH2 4274   1.843   0.041   1.435
 1437TIP3    H1 4275   1.859   0.135   1.436
 1437TIP3    H2 4276   1.749   0.032   1.452
 1438TIP3   OH2 4277   3.861   5.275   0.617
 1438TIP3    H1 4278   3.877   5.181   0.628
 1438TIP3    H2 4279   3.934   5.318   0.661
 1439TIP3   OH2 4280   3.451   1.801   4.970
 1439TIP3    H1 4281   3.546   1.797   4.981
 1439TIP3    H2 4282   3.416   1.774   5.054
 1440TIP3   OH2 4283   4.978   6.257   3.027
 1440TIP3    H1 4284   4.997   6.237   3.119
 1440TIP3    H2 4285   5.064   6.271   2.988
 1441TIP3   OH2 4286   4.194   5.682   3.653
 1441TIP3    H1 4287   4.253   5.722   3.717
 1441TIP3    H2 4288   4.250   5.624   3.602
 1442TIP3   OH2 4289   1.103   0.743   1.257
 1442TIP3    H1 4290   1.144   0.788   1.183
 1442TIP3    H2 4291   1.170   0.744   1.326
 1443TIP3   OH2 4292   6.264   3.784   2.602
 1443TIP3    H1 4293   6.278   3.801   2.695
 1443TIP3    H2 4294   6.311   3.855   2.557
 1444TIP3   OH2 4295   2.644   6.179   5.388
 1444TIP3    H1 4296   2.733   6.159   5.362
 1444TIP3    H2 4297   2.626   6.266   5.351
 1445TIP3   OH2 4298   5.536   0.613   2.456
 1445TIP3    H1 4299   5.617   0.573   2.423
 1445TIP3    H2 4300   5.541   0.704   2.427
 1446TIP3   OH2 4301   5.922   2.657   4.312
 1446TIP3    H1 4302   6.017   2.652   4.322
 1446TIP3    H2 4303   5.904   2.613   4.229
 1447TIP3   OH2 4304   3.163   6.316   3.098
 1447TIP3    H1 4305   3.178   6.411   3.094
 1447TIP3    H2 4306   3.074   6.307   3.132
 1448TIP3   OH2 4307   2.911   0.397   4.183
 1448TIP3    H1 4308   2.916   0.448   4.263
 1448TIP3    H2 4309   2.924   0.460   4.113
 1449TIP3   OH2 4310   4.088   4.765   4.671
 1449TIP3    H1 4311   4.153   4.737   4.735
 1449TIP3    H2 4312   4.118   4.851   4.642
 1450TIP3   OH2 4313   6.321   4.694   3.255
 1450TIP3    H1 4314   6.330   4.625   3.189
 1450TIP3    H2 4315   6.238   4.736   3.234
 1451TIP3   OH2 4316   3.227   2.611   4.807
 1451TIP3    H1 4317   3.252   2.519   4.802
 1451TIP3    H2 4318   3.307   2.656   4.834
 1452TIP3   OH2 4319   5.089   1.862   1.957
 1452TIP3    H1 4320   5.033   1.935   1.930
 1452TIP3    H2 4321   5.117   1.885   2.046
 1453TIP3   OH2 4322   2.789   5.334   3.679
 1453TIP3    H1 4323   2.706   5.329   3.726
 1453TIP3    H2 4324   2.779   5.274   3.605
 1454TIP3   OH2 4325   7.117   5.521   3.040
 1454TIP3    H1 4326   7.048   5.539   3.105
 1454TIP3    H2 4327   7.191   5.575   3.067
 1455TIP3   OH2 4328   4.659   6.492   5.515
 1455TIP3    H1 4329   4.641   6.495   5.421
 1455TIP3    H2 4330   4.754   6.483   5.520
 1456TIP3   OH2 4331   0.645   4.834   5.012
 1456TIP3    H1 4332   0.662   4.875   5.097
 1456TIP3    H2 4333   0.638   4.741   5.031
 1457TIP3   OH2 4334   5.056   1.335   0.629
 1457TIP3    H1 4335   4.999   1.259   0.626
 1457TIP3    H2 4336   5.059   1.359   0.722
 1458TIP3   OH2 4337   0.407   0.155   0.624
 1458TIP3    H1 4338   0.409   0.088   0.555
 1458TIP3    H2 4339   0.402   0.105   0.706
 1459TIP3   OH2 4340   3.218   2.301   3.989
 1459TIP3    H1 4341   3.276   2.325   3.916
 1459TIP3    H2 4342   3.164   2.379   4.003
 1460TIP3   OH2 4343   4.532   0.821   4.181
 1460TIP3    H1 4344   4.592   0.876   4.233
 1460TIP3    H2 4345   4.571   0.734   4.185
 1461TIP3   OH2 4346   2.231   3.758   3.843
 1461TIP3    H1 4347   2.316   3.717   3.857
 1461TIP3    H2 4348   2.185   3.698   3.785
 1462TIP3   OH2 4349   2.298   5.742   4.444
 1462TIP3    H1 4350   2.267   5.811   4.502
 1462TIP3    H2 4351   2.362   5.785   4.387
 1463TIP3   OH2 4352   1.710   4.090   4.146
 1463TIP3    H1 4353   1.804   4.080   4.161
 1463TIP3    H2 4354   1.674   4.112   4.232
 1464TIP3   OH2 4355   2.133   2.963   3.881
 1464TIP3    H1 4356   2.107   3.004   3.964
 1464TIP3    H2 4357   2.114   2.870   3.893
 1465TIP3   OH2 4358   5.468   3.967   4.368
 1465TIP3    H1 4359   5.526   3.923   4.307
 1465TIP3    H2 4360   5.456   4.054   4.330
 1466TIP3   OH2 4361   4.391   0.624   3.689
 1466TIP3    H1 4362   4.485   0.629   3.669
 1466TIP3    H2 4363   4.387   0.572   3.770
 1467TIP3   OH2 4364   3.242   0.770   2.842
 1467TIP3    H1 4365   3.219   0.776   2.749
 1467TIP3    H2 4366   3.240   0.677   2.861
 1468TIP3   OH2 4367   6.271   0.826   5.115
 1468TIP3    H1 4368   6.348   0.770   5.103
 1468TIP3    H2 4369   6.198   0.765   5.125
 1469TIP3   OH2 4370   0.588   0.985   5.304
 1469TIP3    H1 4371   0.506   0.991   5.255
 1469TIP3    H2 4372   0.656   1.002   5.239
 1470TIP3   OH2 4373   3.404   4.582   2.890
 1470TIP3    H1 4374   3.357   4.559   2.970
 1470TIP3    H2 4375   3.365   4.664   2.862
 1471TIP3   OH2 4376   5.314   5.395   1.658
 1471TIP3    H1 4377   5.271   5.477   1.684
 1471TIP3    H2 4378   5.321   5.345   1.739
 1472TIP3   OH2 4379   5.624   0.157   0.595
 1472TIP3    H1 4380   5.607   0.071   0.557
 1472TIP3    H2 4381   5.605   0.147   0.688
 1473TIP3   OH2 4382   4.827   1.771   0.819
 1473TIP3    H1 4383   4.822   1.806   0.908
 1473TIP3    H2 4384   4.843   1.849   0.764
 1474TIP3   OH2 4385   6.224   0.196   2.951
 1474TIP3    H1 4386   6.266   0.165   3.032
 1474TIP3    H2 4387   6.181   0.118   2.916
 1475TIP3   OH2 4388   3.364   0.117   1.922
 1475TIP3    H1 4389   3.390   0.040   1.871
 1475TIP3    H2 4390   3.284   0.148   1.880
 1476TIP3   OH2 4391   6.373   6.043   3.959
 1476TIP3    H1 4392   6.465   6.031   3.981
 1476TIP3    H2 4393   6.334   6.085   4.036
 1477TIP3   OH2 4394   0.848   3.961   5.408
 1477TIP3    H1 4395   0.882   3.873   5.424
 1477TIP3    H2 4396   0.811   3.957   5.320
 1478TIP3   OH2 4397   6.992   3.736   0.047
 1478TIP3    H1 4398   7.007   3.783  -0.036
 1478TIP3    H2 4399   6.897   3.733   0.056
 1479TIP3   OH2 4400   6.921   1.656   4.698
 1479TIP3    H1 4401   6.963   1.738   4.724
 1479TIP3    H2 4402   6.874   1.677   4.617
 1480TIP3   OH2 4403   1.864   1.936   3.286
 1480TIP3    H1 4404   1.901   1.855   3.252
 1480TIP3    H2 4405   1.838   1.914   3.375
 1481TIP3   OH2 4406   2.982   4.305   4.780
 1481TIP3    H1 4407   2.900   4.351   4.798
 1481TIP3    H2 4408   2.966   4.256   4.700
 1482TIP3   OH2 4409   2.475   0.815   1.779
 1482TIP3    H1 4410   2.495   0.727   1.811
 1482TIP3    H2 4411   2.531   0.873   1.829
 1483TIP3   OH2 4412   6.650   0.016   0.162
 1483TIP3    H1 4413   6.682   0.054   0.080
 1483TIP3    H2 4414   6.591   0.083   0.197
 1484TIP3   OH2 4415   5.465   4.200   1.292
 1484TIP3    H1 4416   5.385   4.159   1.259
 1484TIP3    H2 4417   5.515   4.129   1.331
 1485TIP3   OH2 4418   3.625   1.312   1.026
 1485TIP3    H1 4419   3.559   1.356   1.080
 1485TIP3    H2 4420   3.618   1.356   0.941
 1486TIP3   OH2 4421   0.040   2.342   1.951
 1486TIP3    H1 4422  -0.018   2.418   1.945
 1486TIP3    H2 4423   0.020   2.304   2.036
 1487TIP3   OH2 4424   5.420   1.737   2.243
 1487TIP3    H1 4425   5.449   1.650   2.216
 1487TIP3    H2 4426   5.500   1.787   2.257
 1488TIP3   OH2 4427   6.522   1.590   2.745
 1488TIP3    H1 4428   6.503   1.636   2.827
 1488TIP3    H2 4429   6.526   1.659   2.679
 1489TIP3   OH2 4430   7.063   1.253   2.249
 1489TIP3    H1 4431   7.028   1.292   2.169
 1489TIP3    H2 4432   7.140   1.306   2.270
 1490TIP3   OH2 4433   4.599   0.615   2.764
 1490TIP3    H1 4434   4.604   0.709   2.782
 1490TIP3    H2 4435   4.535   0.607   2.694
 1491TIP3   OH2 4436   1.439   3.218   2.412
 1491TIP3    H1 4437   1.476   3.160   2.346
 1491TIP3    H2 4438   1.432   3.303   2.368
 1492TIP3   OH2 4439   2.155   4.841   5.679
 1492TIP3    H1 4440   2.230   4.885   5.640
 1492TIP3    H2 4441   2.162   4.750   5.650
 1493TIP3   OH2 4442   0.507   0.599   5.259
 1493TIP3    H1 4443   0.488   0.518   5.306
 1493TIP3    H2 4444   0.596   0.623   5.288
 1494TIP3   OH2 4445   2.996   1.635   3.004
 1494TIP3    H1 4446   2.913   1.660   2.963
 1494TIP3    H2 4447   2.971   1.603   3.091
 1495TIP3   OH2 4448   3.266   5.047   4.115
 1495TIP3    H1 4449   3.350   5.036   4.161
 1495TIP3    H2 4450   3.200   5.039   4.184
 1496TIP3   OH2 4451   3.291   5.388   2.931
 1496TIP3    H1 4452   3.291   5.371   2.837
 1496TIP3    H2 4453   3.308   5.302   2.971
 1497TIP3   OH2 4454   5.009   3.082   0.594
 1497TIP3    H1 4455   5.104   3.080   0.586
 1497TIP3    H2 4456   4.989   3.172   0.619
 1498TIP3   OH2 4457   5.590   2.209   3.101
 1498TIP3    H1 4458   5.579   2.295   3.141
 1498TIP3    H2 4459   5.543   2.149   3.159
 1499TIP3   OH2 4460   6.972   1.348   2.923
 1499TIP3    H1 4461   6.936   1.358   3.011
 1499TIP3    H2 4462   6.898   1.318   2.870
 1500TIP3   OH2 4463   0.548   0.007   5.297
 1500TIP3    H1 4464   0.495   0.074   5.341
 1500TIP3    H2 4465   0.521  -0.075   5.338
 1501TIP3   OH2 4466   0.193   4.533   1.442
 1501TIP3    H1 4467   0.110   4.558   1.482
 1501TIP3    H2 4468   0.174   4.453   1.393
 1502TIP3   OH2 4469   6.348   3.222   1.511
 1502TIP3    H1 4470   6.309   3.202   1.597
 1502TIP3    H2 4471   6.368   3.136   1.474
 1503TIP3   OH2 4472   5.980   5.230   3.907
 1503TIP3    H1 4473   6.018   5.273   3.983
 1503TIP3    H2 4474   5.958   5.302   3.847
 1504TIP3   OH2 4475   2.052   2.919   2.712
 1504TIP3    H1 4476   2.084   2.829   2.724
 1504TIP3    H2 4477   2.106   2.971   2.772
 1505TIP3   OH2 4478   4.750   0.226   2.271
 1505TIP3    H1 4479   4.788   0.311   2.294
 1505TIP3    H2 4480   4.825   0.170   2.253
 1506TIP3   OH2 4481   4.734   1.375   3.722
 1506TIP3    H1 4482   4.777   1.349   3.641
 1506TIP3    H2 4483   4.767   1.464   3.740
 1507TIP3   OH2 4484   2.484   5.840   4.706
 1507TIP3    H1 4485   2.559   5.781   4.711
 1507TIP3    H2 4486   2.411   5.789   4.742
 1508TIP3   OH2 4487   3.064   3.790   3.917
 1508TIP3    H1 4488   2.972   3.809   3.933
 1508TIP3    H2 4489   3.067   3.755   3.828
 1509TIP3   OH2 4490   3.878   4.338   4.003
 1509TIP3    H1 4491   3.920   4.322   4.087
 1509TIP3    H2 4492   3.785   4.324   4.021
 1510TIP3   OH2 4493   5.591   5.628   0.479
 1510TIP3    H1 4494   5.645   5.550   0.465
 1510TIP3    H2 4495   5.507   5.593   0.511
 1511TIP3   OH2 4496   3.647   5.598   1.086
 1511TIP3    H1 4497   3.743   5.590   1.085
 1511TIP3    H2 4498   3.625   5.634   1.001
 1512TIP3   OH2 4499   1.959   6.251   0.427
 1512TIP3    H1 4500   1.959   6.210   0.340
 1512TIP3    H2 4501   1.950   6.177   0.488
 1513TIP3   OH2 4502   0.612   5.522   5.218
 1513TIP3    H1 4503   0.673   5.595   5.230
 1513TIP3    H2 4504   0.530   5.552   5.258
 1514TIP3   OH2 4505   4.202   2.653   3.540
 1514TIP3    H1 4506   4.175   2.741   3.514
 1514TIP3    H2 4507   4.161   2.639   3.625
 1515TIP3   OH2 4508   4.788   3.198   5.674
 1515TIP3    H1 4509   4.734   3.119   5.673
 1515TIP3    H2 4510   4.878   3.165   5.669
 1516TIP3   OH2 4511   0.565   1.601   0.440
 1516TIP3    H1 4512   0.624   1.673   0.418
 1516TIP3    H2 4513   0.522   1.579   0.357
 1517TIP3   OH2 4514   0.404   6.160   5.434
 1517TIP3    H1 4515   0.374   6.088   5.379
 1517TIP3    H2 4516   0.363   6.238   5.396
 1518TIP3   OH2 4517   3.226   4.391   4.319
 1518TIP3    H1 4518   3.175   4.320   4.281
 1518TIP3    H2 4519   3.190   4.470   4.280
 1519TIP3   OH2 4520   3.168   5.265   2.390
 1519TIP3    H1 4521   3.076   5.236   2.385
 1519TIP3    H2 4522   3.168   5.349   2.344
 1520TIP3   OH2 4523   3.917   5.256   4.755
 1520TIP3    H1 4524   3.861   5.182   4.735
 1520TIP3    H2 4525   3.868   5.306   4.820
 1521TIP3   OH2 4526   6.937   4.895   1.034
 1521TIP3    H1 4527   6.869   4.929   0.976
 1521TIP3    H2 4528   6.889   4.850   1.103
 1522TIP3   OH2 4529   7.008   6.514   2.482
 1522TIP3    H1 4530   7.020   6.587   2.422
 1522TIP3    H2 4531   7.031   6.549   2.568
 1523TIP3   OH2 4532   4.649   1.085   4.306
 1523TIP3    H1 4533   4.599   1.150   4.256
 1523TIP3    H2 4534   4.602   1.077   4.389
 1524TIP3   OH2 4535   4.430   4.653   3.365
 1524TIP3    H1 4536   4.427   4.671   3.459
 1524TIP3    H2 4537   4.505   4.702   3.333
 1525TIP3   OH2 4538   5.888   1.366   0.288
 1525TIP3    H1 4539   5.905   1.274   0.265
 1525TIP3    H2 4540   5.946   1.382   0.362
 1526TIP3   OH2 4541   4.225   1.147   2.589
 1526TIP3    H1 4542   4.253   1.161   2.498
 1526TIP3    H2 4543   4.214   1.235   2.624
 1527TIP3   OH2 4544   5.213   3.656   2.930
 1527TIP3    H1 4545   5.119   3.646   2.944
 1527TIP3    H2 4546   5.224   3.747   2.902
 1528TIP3   OH2 4547   1.518   1.796   2.493
 1528TIP3    H1 4548   1.486   1.827   2.408
 1528TIP3    H2 4549   1.560   1.873   2.531
 1529TIP3   OH2 4550   5.290   5.288   4.472
 1529TIP3    H1 4551   5.273   5.327   4.558
 1529TIP3    H2 4552   5.228   5.215   4.467
 1530TIP3   OH2 4553   6.831   2.195   5.868
 1530TIP3    H1 4554   6.873   2.188   5.782
 1530TIP3    H2 4555   6.897   2.163   5.929
 1531TIP3   OH2 4556   5.702   2.756   2.548
 1531TIP3    H1 4557   5.782   2.719   2.511
 1531TIP3    H2 4558   5.720   2.763   2.642
 1532TIP3   OH2 4559   0.805   5.753   1.844
 1532TIP3    H1 4560   0.795   5.702   1.924
 1532TIP3    H2 4561   0.847   5.693   1.782
 1533TIP3   OH2 4562   7.064   4.805   3.727
 1533TIP3    H1 4563   7.062   4.792   3.822
 1533TIP3    H2 4564   7.067   4.900   3.716
 1534TIP3   OH2 4565   4.046   5.689   3.953
 1534TIP3    H1 4566   4.118   5.738   3.914
 1534TIP3    H2 4567   4.080   5.660   4.038
 1535TIP3   OH2 4568   2.000   5.882   5.407
 1535TIP3    H1 4569   1.932   5.942   5.376
 1535TIP3    H2 4570   1.989   5.880   5.502
 1536TIP3   OH2 4571   6.598   3.688   0.523
 1536TIP3    H1 4572   6.508   3.664   0.503
 1536TIP3    H2 4573   6.609   3.776   0.488
 1537TIP3   OH2 4574   1.877   0.978   2.851
 1537TIP3    H1 4575   1.863   1.016   2.765
 1537TIP3    H2 4576   1.791   0.984   2.894
 1538TIP3   OH2 4577   7.003   0.612   2.523
 1538TIP3    H1 4578   6.932   0.575   2.575
 1538TIP3    H2 4579   6.974   0.701   2.502
 1539TIP3   OH2 4580   2.119   6.679   4.716
 1539TIP3    H1 4581   2.170   6.645   4.642
 1539TIP3    H2 4582   2.129   6.613   4.785
 1540TIP3   OH2 4583   4.225   1.812   2.605
 1540TIP3    H1 4584   4.264   1.873   2.668
 1540TIP3    H2 4585   4.300   1.762   2.571
 1541TIP3   OH2 4586   0.723   2.441   1.664
 1541TIP3    H1 4587   0.692   2.373   1.604
 1541TIP3    H2 4588   0.693   2.412   1.750
 1542TIP3   OH2 4589   2.286   2.075   0.609
 1542TIP3    H1 4590   2.304   2.068   0.703
 1542TIP3    H2 4591   2.336   2.004   0.569
 1543TIP3   OH2 4592   0.774   1.163   1.590
 1543TIP3    H1 4593   0.706   1.225   1.562
 1543TIP3    H2 4594   0.810   1.129   1.509
 1544TIP3   OH2 4595   3.039   6.229   3.734
 1544TIP3    H1 4596   3.024   6.274   3.651
 1544TIP3    H2 4597   2.960   6.245   3.785
 1545TIP3   OH2 4598   1.295   3.439   2.835
 1545TIP3    H1 4599   1.350   3.499   2.885
 1545TIP3    H2 4600   1.286   3.480   2.749
 1546TIP3   OH2 4601   1.652   6.829   3.241
 1546TIP3    H1 4602   1.737   6.798   3.272
 1546TIP3    H2 4603   1.625   6.763   3.177
 1547TIP3   OH2 4604   5.285   3.023   2.334
 1547TIP3    H1 4605   5.360   2.973   2.365
 1547TIP3    H2 4606   5.218   2.957   2.316
 1548TIP3   OH2 4607   5.122   3.301   5.789
 1548TIP3    H1 4608   5.114   3.217   5.745
 1548TIP3    H2 4609   5.216   3.317   5.794
 1549TIP3   OH2 4610   1.479   4.900   4.616
 1549TIP3    H1 4611   1.430   4.978   4.639
 1549TIP3    H2 4612   1.435   4.829   4.664
 1550TIP3   OH2 4613   5.125   5.898   3.821
 1550TIP3    H1 4614   5.049   5.840   3.825
 1550TIP3    H2 4615   5.186   5.863   3.885
 1551TIP3   OH2 4616   0.567   2.108   0.755
 1551TIP3    H1 4617   0.523   2.191   0.775
 1551TIP3    H2 4618   0.635   2.131   0.692
 1552TIP3   OH2 4619   7.176   0.021   4.139
 1552TIP3    H1 4620   7.155   0.103   4.184
 1552TIP3    H2 4621   7.126   0.025   4.057
 1553TIP3   OH2 4622   3.585   4.962   0.027
 1553TIP3    H1 4623   3.561   5.048   0.063
 1553TIP3    H2 4624   3.514   4.941  -0.033
 1554TIP3   OH2 4625   0.062   6.337   0.384
 1554TIP3    H1 4626   0.129   6.286   0.430
 1554TIP3    H2 4627   0.111   6.387   0.318
 1555TIP3   OH2 4628   4.405   6.257   2.487
 1555TIP3    H1 4629   4.437   6.245   2.576
 1555TIP3    H2 4630   4.309   6.251   2.494
 1556TIP3   OH2 4631   6.493   4.901   1.962
 1556TIP3    H1 4632   6.502   4.972   2.025
 1556TIP3    H2 4633   6.405   4.912   1.926
 1557TIP3   OH2 4634   5.593   5.964   5.849
 1557TIP3    H1 4635   5.572   5.882   5.893
 1557TIP3    H2 4636   5.558   6.032   5.907
 1558TIP3   OH2 4637   4.061   2.831   2.142
 1558TIP3    H1 4638   4.028   2.840   2.231
 1558TIP3    H2 4639   4.157   2.834   2.152
 1559TIP3   OH2 4640   1.657   4.266   2.580
 1559TIP3    H1 4641   1.563   4.275   2.572
 1559TIP3    H2 4642   1.677   4.302   2.667
 1560TIP3   OH2 4643   0.459   5.273   4.954
 1560TIP3    H1 4644   0.529   5.314   5.006
 1560TIP3    H2 4645   0.409   5.347   4.920
 1561TIP3   OH2 4646   0.120   2.559   3.257
 1561TIP3    H1 4647   0.110   2.483   3.314
 1561TIP3    H2 4648   0.214   2.579   3.262
 1562TIP3   OH2 4649   0.149   3.763   1.711
 1562TIP3    H1 4650   0.177   3.703   1.642
 1562TIP3    H2 4651   0.230   3.795   1.749
 1563TIP3   OH2 4652   4.459   2.793   3.112
 1563TIP3    H1 4653   4.432   2.781   3.203
 1563TIP3    H2 4654   4.545   2.751   3.107
 1564TIP3   OH2 4655   5.084   6.269   2.507
 1564TIP3    H1 4656   5.095   6.317   2.425
 1564TIP3    H2 4657   5.022   6.199   2.485
 1565TIP3   OH2 4658   1.828   2.435   3.939
 1565TIP3    H1 4659   1.833   2.366   3.872
 1565TIP3    H2 4660   1.755   2.408   3.995
 1566TIP3   OH2 4661   5.991   4.431   4.281
 1566TIP3    H1 4662   6.059   4.366   4.266
 1566TIP3    H2 4663   5.911   4.380   4.296
 1567TIP3   OH2 4664   3.164   0.962   3.018
 1567TIP3    H1 4665   3.082   0.989   2.977
 1567TIP3    H2 4666   3.187   0.880   2.974
 1568TIP3   OH2 4667   3.632   1.008   5.746
 1568TIP3    H1 4668   3.596   1.085   5.790
 1568TIP3    H2 4669   3.609   0.934   5.803
 1569TIP3   OH2 4670   2.357   0.220   2.872
 1569TIP3    H1 4671   2.283   0.213   2.933
 1569TIP3    H2 4672   2.323   0.272   2.800
 1570TIP3   OH2 4673   0.714   0.177   2.336
 1570TIP3    H1 4674   0.622   0.164   2.312
 1570TIP3    H2 4675   0.757   0.202   2.254
 1571TIP3   OH2 4676   2.121   5.581   1.332
 1571TIP3    H1 4677   2.084   5.515   1.274
 1571TIP3    H2 4678   2.086   5.559   1.418
 1572TIP3   OH2 4679   2.630   2.982   3.948
 1572TIP3    H1 4680   2.722   2.957   3.952
 1572TIP3    H2 4681   2.602   2.983   4.040
 1573TIP3   OH2 4682   3.851   1.259   5.571
 1573TIP3    H1 4683   3.881   1.324   5.507
 1573TIP3    H2 4684   3.919   1.192   5.570
 1574TIP3   OH2 4685   3.281   5.679   4.351
 1574TIP3    H1 4686   3.225   5.721   4.286
 1574TIP3    H2 4687   3.357   5.650   4.302
 1575TIP3   OH2 4688   6.055   0.354   5.105
 1575TIP3    H1 4689   6.006   0.275   5.080
 1575TIP3    H2 4690   6.133   0.352   5.050
 1576TIP3   OH2 4691   5.619   4.095   5.370
 1576TIP3    H1 4692   5.578   4.040   5.437
 1576TIP3    H2 4693   5.697   4.047   5.344
 1577TIP3   OH2 4694   3.895   6.022   4.957
 1577TIP3    H1 4695   3.839   6.055   4.886
 1577TIP3    H2 4696   3.834   5.986   5.021
 1578TIP3   OH2 4697   3.485   1.289   0.592
 1578TIP3    H1 4698   3.504   1.346   0.517
 1578TIP3    H2 4699   3.488   1.201   0.556
 1579TIP3   OH2 4700   4.394   3.506   2.194
 1579TIP3    H1 4701   4.434   3.593   2.200
 1579TIP3    H2 4702   4.468   3.446   2.191
 1580TIP3   OH2 4703   0.079   1.415   5.292
 1580TIP3    H1 4704  -0.007   1.436   5.329
 1580TIP3    H2 4705   0.067   1.421   5.198
 1581TIP3   OH2 4706   3.143   3.913   0.375
 1581TIP3    H1 4707   3.095   3.993   0.356
 1581TIP3    H2 4708   3.201   3.936   0.448
 1582TIP3   OH2 4709   5.836   2.694   2.255
 1582TIP3    H1 4710   5.906   2.718   2.195
 1582TIP3    H2 4711   5.767   2.659   2.199
 1583TIP3   OH2 4712   4.971   6.316   4.719
 1583TIP3    H1 4713   5.050   6.368   4.734
 1583TIP3    H2 4714   4.988   6.234   4.765
 1584TIP3   OH2 4715   4.346   6.695   2.081
 1584TIP3    H1 4716   4.297   6.740   2.012
 1584TIP3    H2 4717   4.342   6.755   2.156
 1585TIP3   OH2 4718   1.730   1.996   5.627
 1585TIP3    H1 4719   1.779   2.023   5.550
 1585TIP3    H2 4720   1.764   2.050   5.698
 1586TIP3   OH2 4721   0.435   2.905   4.669
 1586TIP3    H1 4722   0.511   2.894   4.611
 1586TIP3    H2 4723   0.468   2.882   4.756
 1587TIP3   OH2 4724   1.934   3.106   3.643
 1587TIP3    H1 4725   1.992   3.058   3.584
 1587TIP3    H2 4726   1.873   3.151   3.585
 1588TIP3   OH2 4727   6.352   1.121   2.031
 1588TIP3    H1 4728   6.310   1.038   2.010
 1588TIP3    H2 4729   6.292   1.164   2.093
 1589TIP3   OH2 4730   2.855   4.297   3.148
 1589TIP3    H1 4731   2.814   4.279   3.233
 1589TIP3    H2 4732   2.948   4.308   3.168
 1590TIP3   OH2 4733   3.907   6.813   1.800
 1590TIP3    H1 4734   3.971   6.747   1.775
 1590TIP3    H2 4735   3.959   6.884   1.838
 1591TIP3   OH2 4736   1.030   5.723   1.639
 1591TIP3    H1 4737   1.000   5.813   1.629
 1591TIP3    H2 4738   1.081   5.724   1.721
 1592TIP3   OH2 4739   0.574   1.886   2.501
 1592TIP3    H1 4740   0.628   1.818   2.462
 1592TIP3    H2 4741   0.620   1.911   2.581
 1593TIP3   OH2 4742   3.445   1.252   4.305
 1593TIP3    H1 4743   3.482   1.313   4.369
 1593TIP3    H2 4744   3.350   1.264   4.313
 1594TIP3   OH2 4745   3.909   1.614   3.534
 1594TIP3    H1 4746   3.900   1.701   3.574
 1594TIP3    H2 4747   3.837   1.609   3.472
 1595TIP3   OH2 4748   4.686   5.645   0.132
 1595TIP3    H1 4749   4.749   5.619   0.199
 1595TIP3    H2 4750   4.667   5.564   0.085
 1596TIP3   OH2 4751   3.252   3.015   5.775
 1596TIP3    H1 4752   3.200   3.081   5.729
 1596TIP3    H2 4753   3.226   2.932   5.737
 1597TIP3   OH2 4754   5.270   0.406   0.436
 1597TIP3    H1 4755   5.335   0.358   0.385
 1597TIP3    H2 4756   5.251   0.484   0.383
 1598TIP3   OH2 4757   4.182   2.601   5.229
 1598TIP3    H1 4758   4.147   2.684   5.196
 1598TIP3    H2 4759   4.106   2.557   5.266
 1599TIP3   OH2 4760   2.289   6.027   0.646
 1599TIP3    H1 4761   2.329   5.940   0.635
 1599TIP3    H2 4762   2.234   6.038   0.568
 1600TIP3   OH2 4763   0.142   4.372   0.411
 1600TIP3    H1 4764   0.171   4.372   0.502
 1600TIP3    H2 4765   0.197   4.306   0.368
 1601TIP3   OH2 4766   0.057   0.864   0.046
 1601TIP3    H1 4767   0.033   0.952   0.073
 1601TIP3    H2 4768   0.051   0.865  -0.049
 1602TIP3   OH2 4769   5.651   2.861   2.903
 1602TIP3    H1 4770   5.696   2.894   2.981
 1602TIP3    H2 4771   5.574   2.916   2.895
 1603TIP3   OH2 4772   0.794   5.730   4.161
 1603TIP3    H1 4773   0.825   5.819   4.181
 1603TIP3    H2 4774   0.707   5.726   4.201
 1604TIP3   OH2 4775   6.812   1.833   1.520
 1604TIP3    H1 4776   6.809   1.756   1.577
 1604TIP3    H2 4777   6.886   1.884   1.553
 1605TIP3   OH2 4778   4.908   5.528   4.211
 1605TIP3    H1 4779   4.898   5.514   4.117
 1605TIP3    H2 4780   5.003   5.531   4.225
 1606TIP3   OH2 4781   1.634   3.826   4.720
 1606TIP3    H1 4782   1.660   3.857   4.807
 1606TIP3    H2 4783   1.548   3.865   4.706
 1607TIP3   OH2 4784   2.845   6.201   3.443
 1607TIP3    H1 4785   2.754   6.186   3.418
 1607TIP3    H2 4786   2.856   6.296   3.437
 1608TIP3   OH2 4787   3.608   1.241   5.474
 1608TIP3    H1 4788   3.687   1.208   5.517
 1608TIP3    H2 4789   3.623   1.335   5.464
 1609TIP3   OH2 4790   5.275   4.132   2.250
 1609TIP3    H1 4791   5.240   4.198   2.189
 1609TIP3    H2 4792   5.203   4.117   2.312
 1610TIP3   OH2 4793   4.259   3.962   2.927
 1610TIP3    H1 4794   4.250   4.057   2.923
 1610TIP3    H2 4795   4.346   3.944   2.891
 1611TIP3   OH2 4796   1.468   0.979   5.343
 1611TIP3    H1 4797   1.407   0.921   5.298
 1611TIP3    H2 4798   1.510   1.028   5.273
 1612TIP3   OH2 4799   5.900   0.621   2.031
 1612TIP3    H1 4800   5.838   0.690   2.006
 1612TIP3    H2 4801   5.846   0.544   2.046
 1613TIP3   OH2 4802   0.514   4.632   2.624
 1613TIP3    H1 4803   0.583   4.653   2.687
 1613TIP3    H2 4804   0.453   4.577   2.673
 1614TIP3   OH2 4805   6.686   0.050   2.829
 1614TIP3    H1 4806   6.691   0.122   2.891
 1614TIP3    H2 4807   6.625   0.080   2.761
 1615TIP3   OH2 4808   3.998   3.738   2.005
 1615TIP3    H1 4809   3.920   3.708   1.958
 1615TIP3    H2 4810   4.032   3.660   2.048
 1616TIP3   OH2 4811   4.555   2.264   1.154
 1616TIP3    H1 4812   4.634   2.266   1.100
 1616TIP3    H2 4813   4.528   2.173   1.154
 1617TIP3   OH2 4814   5.360   5.701   1.179
 1617TIP3    H1 4815   5.346   5.638   1.249
 1617TIP3    H2 4816   5.454   5.694   1.160
 1618TIP3   OH2 4817   1.389   2.687   3.822
 1618TIP3    H1 4818   1.397   2.643   3.738
 1618TIP3    H2 4819   1.445   2.637   3.881
 1619TIP3   OH2 4820   1.446   3.558   4.757
 1619TIP3    H1 4821   1.385   3.603   4.816
 1619TIP3    H2 4822   1.399   3.481   4.728
 1620TIP3   OH2 4823   3.242   5.402   0.745
 1620TIP3    H1 4824   3.310   5.366   0.802
 1620TIP3    H2 4825   3.204   5.325   0.702
 1621TIP3   OH2 4826   2.635   4.252   0.361
 1621TIP3    H1 4827   2.591   4.327   0.322
 1621TIP3    H2 4828   2.706   4.231   0.301
 1622TIP3   OH2 4829   6.075   3.544   5.099
 1622TIP3    H1 4830   6.095   3.635   5.074
 1622TIP3    H2 4831   6.042   3.504   5.018
 1623TIP3   OH2 4832   4.680   2.952   5.659
 1623TIP3    H1 4833   4.591   2.923   5.639
 1623TIP3    H2 4834   4.681   2.964   5.754
 1624TIP3   OH2 4835   4.641   4.058   0.533
 1624TIP3    H1 4836   4.720   4.023   0.492
 1624TIP3    H2 4837   4.663   4.063   0.626
 1625TIP3   OH2 4838   7.095   0.541   4.237
 1625TIP3    H1 4839   7.078   0.597   4.161
 1625TIP3    H2 4840   7.148   0.595   4.296
 1626TIP3   OH2 4841   5.108   6.539   0.136
 1626TIP3    H1 4842   5.101   6.503   0.224
 1626TIP3    H2 4843   5.146   6.626   0.149
 1627TIP3   OH2 4844   2.726   0.795   1.340
 1627TIP3    H1 4845   2.695   0.816   1.429
 1627TIP3    H2 4846   2.660   0.834   1.282
 1628TIP3   OH2 4847   1.065   0.174   2.877
 1628TIP3    H1 4848   1.000   0.112   2.844
 1628TIP3    H2 4849   1.076   0.238   2.807
 1629TIP3   OH2 4850   3.498   5.790   3.731
 1629TIP3    H1 4851   3.462   5.868   3.691
 1629TIP3    H2 4852   3.520   5.817   3.820
 1630TIP3   OH2 4853   6.862   5.602   4.808
 1630TIP3    H1 4854   6.869   5.599   4.903
 1630TIP3    H2 4855   6.868   5.695   4.786
 1631TIP3   OH2 4856   0.999   4.083   1.100
 1631TIP3    H1 4857   0.951   4.144   1.044
 1631TIP3    H2 4858   1.079   4.130   1.125
 1632TIP3   OH2 4859   6.224   0.554   5.320
 1632TIP3    H1 4860   6.315   0.537   5.346
 1632TIP3    H2 4861   6.172   0.500   5.381
 1633TIP3   OH2 4862   2.614   3.105   5.723
 1633TIP3    H1 4863   2.603   3.195   5.753
 1633TIP3    H2 4864   2.683   3.069   5.779
 1634TIP3   OH2 4865   1.173   3.133   5.486
 1634TIP3    H1 4866   1.163   3.106   5.395
 1634TIP3    H2 4867   1.182   3.051   5.534
 1635TIP3   OH2 4868   2.299   2.884   3.243
 1635TIP3    H1 4869   2.267   2.817   3.302
 1635TIP3    H2 4870   2.374   2.923   3.288
 1636TIP3   OH2 4871   1.285   2.573   4.783
 1636TIP3    H1 4872   1.334   2.603   4.707
 1636TIP3    H2 4873   1.311   2.482   4.795
 1637TIP3   OH2 4874   0.191   0.976   0.274
 1637TIP3    H1 4875   0.171   0.884   0.292
 1637TIP3    H2 4876   0.221   1.010   0.359
 1638TIP3   OH2 4877   6.183   3.038   0.167
 1638TIP3    H1 4878   6.095   3.070   0.184
 1638TIP3    H2 4879   6.192   2.961   0.223
 1639TIP3   OH2 4880   5.018   2.903   1.566
 1639TIP3    H1 4881   5.058   2.958   1.633
 1639TIP3    H2 4882   4.927   2.933   1.562
 1640TIP3   OH2 4883   1.164   1.591   0.804
 1640TIP3    H1 4884   1.225   1.662   0.782
 1640TIP3    H2 4885   1.141   1.606   0.895
 1641TIP3   OH2 4886   4.247   4.922   3.207
 1641TIP3    H1 4887   4.199   4.848   3.243
 1641TIP3    H2 4888   4.213   4.998   3.253
 1642TIP3   OH2 4889   2.550   3.058   1.274
 1642TIP3    H1 4890   2.637   3.093   1.255
 1642TIP3    H2 4891   2.495   3.090   1.202
 1643TIP3   OH2 4892   1.664   3.013   4.219
 1643TIP3    H1 4893   1.705   2.950   4.160
 1643TIP3    H2 4894   1.594   2.963   4.262
 1644TIP3   OH2 4895   1.528   1.380   4.416
 1644TIP3    H1 4896   1.579   1.330   4.480
 1644TIP3    H2 4897   1.541   1.472   4.441
 1645TIP3   OH2 4898   6.812   4.931   4.820
 1645TIP3    H1 4899   6.872   5.003   4.803
 1645TIP3    H2 4900   6.860   4.852   4.792
 1646TIP3   OH2 4901   1.220   3.762   3.705
 1646TIP3    H1 4902   1.173   3.825   3.651
 1646TIP3    H2 4903   1.156   3.693   3.723
 1647TIP3   OH2 4904   2.198   1.541   1.495
 1647TIP3    H1 4905   2.182   1.604   1.565
 1647TIP3    H2 4906   2.283   1.567   1.459
 1648TIP3   OH2 4907   2.984   4.465   1.741
 1648TIP3    H1 4908   3.021   4.444   1.827
 1648TIP3    H2 4909   3.004   4.389   1.687
 1649TIP3   OH2 4910   3.171   0.154   3.814
 1649TIP3    H1 4911   3.144   0.093   3.745
 1649TIP3    H2 4912   3.090   0.182   3.855
 1650TIP3   OH2 4913   4.924   5.770   1.842
 1650TIP3    H1 4914   4.998   5.821   1.874
 1650TIP3    H2 4915   4.898   5.814   1.761
 1651TIP3   OH2 4916   6.510   1.552   4.915
 1651TIP3    H1 4917   6.434   1.575   4.967
 1651TIP3    H2 4918   6.483   1.475   4.865
 1652TIP3   OH2 4919   1.695   6.254   2.955
 1652TIP3    H1 4920   1.601   6.241   2.958
 1652TIP3    H2 4921   1.711   6.335   3.003
 1653TIP3   OH2 4922   0.563   1.670   5.071
 1653TIP3    H1 4923   0.655   1.688   5.053
 1653TIP3    H2 4924   0.516   1.746   5.037
 1654TIP3   OH2 4925   1.977   0.284   0.355
 1654TIP3    H1 4926   2.005   0.346   0.423
 1654TIP3    H2 4927   1.881   0.288   0.357
 1655TIP3   OH2 4928   4.432   0.068   1.742
 1655TIP3    H1 4929   4.379   0.139   1.706
 1655TIP3    H2 4930   4.389   0.045   1.824
 1656TIP3   OH2 4931   4.978   5.497   0.544
 1656TIP3    H1 4932   4.988   5.473   0.636
 1656TIP3    H2 4933   5.003   5.418   0.496
 1657TIP3   OH2 4934   7.262   5.019   2.829
 1657TIP3    H1 4935   7.266   4.987   2.919
 1657TIP3    H2 4936   7.170   5.040   2.815
 1658TIP3   OH2 4937   6.173   4.968   2.975
 1658TIP3    H1 4938   6.260   4.949   2.940
 1658TIP3    H2 4939   6.113   4.924   2.915
 1659TIP3   OH2 4940   1.774   5.352  -0.002
 1659TIP3    H1 4941   1.788   5.336   0.092
 1659TIP3    H2 4942   1.690   5.397  -0.006
 1660TIP3   OH2 4943   4.368   4.405   4.830
 1660TIP3    H1 4944   4.292   4.376   4.880
 1660TIP3    H2 4945   4.332   4.431   4.745
 1661TIP3   OH2 4946   2.777   4.886   2.334
 1661TIP3    H1 4947   2.736   4.884   2.421
 1661TIP3    H2 4948   2.803   4.795   2.318
 1662TIP3   OH2 4949   0.397   5.334   1.356
 1662TIP3    H1 4950   0.467   5.285   1.398
 1662TIP3    H2 4951   0.317   5.305   1.400
 1663TIP3   OH2 4952   1.868   5.651   4.035
 1663TIP3    H1 4953   1.926   5.583   4.069
 1663TIP3    H2 4954   1.780   5.620   4.054
 1664TIP3   OH2 4955   0.174   6.686   1.788
 1664TIP3    H1 4956   0.175   6.697   1.883
 1664TIP3    H2 4957   0.095   6.731   1.759
 1665TIP3   OH2 4958   2.459   6.351   4.063
 1665TIP3    H1 4959   2.552   6.354   4.086
 1665TIP3    H2 4960   2.417   6.412   4.124
 1666TIP3   OH2 4961   1.083   3.973   0.725
 1666TIP3    H1 4962   1.014   4.037   0.713
 1666TIP3    H2 4963   1.086   3.924   0.642
 1667TIP3   OH2 4964   6.644   1.253   0.086
 1667TIP3    H1 4965   6.589   1.255   0.008
 1667TIP3    H2 4966   6.691   1.170   0.081
 1668TIP3   OH2 4967   3.708   5.689   2.790
 1668TIP3    H1 4968   3.668   5.634   2.722
 1668TIP3    H2 4969   3.796   5.707   2.758
 1669TIP3   OH2 4970   1.795   4.522   2.264
 1669TIP3    H1 4971   1.789   4.578   2.341
 1669TIP3    H2 4972   1.719   4.464   2.271
 1670TIP3   OH2 4973   3.383   6.482   2.197
 1670TIP3    H1 4974   3.450   6.550   2.187
 1670TIP3    H2 4975   3.359   6.485   2.289
 1671TIP3   OH2 4976   6.400   0.118   2.231
 1671TIP3    H1 4977   6.416   0.040   2.283
 1671TIP3    H2 4978   6.446   0.188   2.277
 1672TIP3   OH2 4979   2.481   1.107   2.952
 1672TIP3    H1 4980   2.574   1.127   2.942
 1672TIP3    H2 4981   2.478   1.039   3.019
 1673TIP3   OH2 4982   6.280   0.125   3.202
 1673TIP3    H1 4983   6.188   0.143   3.216
 1673TIP3    H2 4984   6.325   0.165   3.277
 1674TIP3   OH2 4985   5.993   1.024   4.157
 1674TIP3    H1 4986   6.067   0.967   4.175
 1674TIP3    H2 4987   5.925   0.996   4.218
 1675TIP3   OH2 4988   3.342   0.700   2.099
 1675TIP3    H1 4989   3.306   0.723   2.013
 1675TIP3    H2 4990   3.437   0.704   2.086
 1676TIP3   OH2 4991   0.175   4.384   5.010
 1676TIP3    H1 4992   0.132   4.342   4.935
 1676TIP3    H2 4993   0.103   4.421   5.061
 1677TIP3   OH2 4994   1.119   3.414   5.560
 1677TIP3    H1 4995   1.040   3.392   5.511
 1677TIP3    H2 4996   1.174   3.336   5.555
 1678TIP3   OH2 4997   4.033   2.403   2.583
 1678TIP3    H1 4998   3.969   2.429   2.517
 1678TIP3    H2 4999   4.040   2.308   2.574
 1679TIP3   OH2 5000   4.092   4.614   4.069
 1679TIP3    H1 5001   4.179   4.611   4.028
 1679TIP3    H2 5002   4.048   4.688   4.028
 1680TIP3   OH2 5003   4.209   1.228   1.411
 1680TIP3    H1 5004   4.231   1.210   1.502
 1680TIP3    H2 5005   4.286   1.275   1.377
 1681TIP3   OH2 5006   2.803   0.299   1.538
 1681TIP3    H1 5007   2.760   0.217   1.514
 1681TIP3    H2 5008   2.754   0.366   1.491
 1682TIP3   OH2 5009   2.125   2.183   1.826
 1682TIP3    H1 5010   2.167   2.257   1.870
 1682TIP3    H2 5011   2.196   2.121   1.809
 1683TIP3   OH2 5012   1.192   6.346   2.690
 1683TIP3    H1 5013   1.284   6.354   2.714
 1683TIP3    H2 5014   1.163   6.437   2.678
 1684TIP3   OH2 5015   0.594   5.224   2.994
 1684TIP3    H1 5016   0.557   5.170   3.065
 1684TIP3    H2 5017   0.587   5.168   2.916
 1685TIP3   OH2 5018   6.964   3.156   4.226
 1685TIP3    H1 5019   6.936   3.069   4.255
 1685TIP3    H2 5020   6.912   3.172   4.147
 1686TIP3   OH2 5021   3.079   0.094   3.249
 1686TIP3    H1 5022   3.055   0.024   3.188
 1686TIP3    H2 5023   3.157   0.134   3.210
 1687TIP3   OH2 5024   2.779   4.056   1.361
 1687TIP3    H1 5025   2.863   4.014   1.381
 1687TIP3    H2 5026   2.803   4.138   1.317
 1688TIP3   OH2 5027   1.859   2.767   1.086
 1688TIP3    H1 5028   1.930   2.703   1.078
 1688TIP3    H2 5029   1.779   2.716   1.071
 1689TIP3   OH2 5030   2.380   3.201   1.088
 1689TIP3    H1 5031   2.335   3.121   1.060
 1689TIP3    H2 5032   2.317   3.244   1.146
 1690TIP3   OH2 5033   5.761   4.154   1.190
 1690TIP3    H1 5034   5.682   4.207   1.187
 1690TIP3    H2 5035   5.812   4.183   1.114
 1691TIP3   OH2 5036   2.232   3.942   1.954
 1691TIP3    H1 5037   2.313   3.950   1.904
 1691TIP3    H2 5038   2.235   4.014   2.017
 1692TIP3   OH2 5039   4.997   5.813   3.307
 1692TIP3    H1 5040   5.007   5.854   3.221
 1692TIP3    H2 5041   5.072   5.844   3.358
 1693TIP3   OH2 5042   2.119   6.710   4.270
 1693TIP3    H1 5043   2.104   6.720   4.175
 1693TIP3    H2 5044   2.083   6.625   4.291
 1694TIP3   OH2 5045   3.898   0.237   2.738
 1694TIP3    H1 5046   3.981   0.284   2.727
 1694TIP3    H2 5047   3.885   0.193   2.653
 1695TIP3   OH2 5048   6.664   5.654   5.656
 1695TIP3    H1 5049   6.626   5.689   5.736
 1695TIP3    H2 5050   6.714   5.577   5.685
 1696TIP3   OH2 5051   0.098   4.407   4.505
 1696TIP3    H1 5052   0.071   4.487   4.460
 1696TIP3    H2 5053   0.150   4.438   4.580
 1697TIP3   OH2 5054   4.504   1.112   1.710
 1697TIP3    H1 5055   4.540   1.197   1.736
 1697TIP3    H2 5056   4.533   1.052   1.780
 1698TIP3   OH2 5057   6.318   6.163   2.331
 1698TIP3    H1 5058   6.280   6.251   2.325
 1698TIP3    H2 5059   6.243   6.104   2.317
 1699TIP3   OH2 5060   0.477   6.092   0.160
 1699TIP3    H1 5061   0.394   6.115   0.203
 1699TIP3    H2 5062   0.495   6.003   0.189
 1700TIP3   OH2 5063   2.805   3.225   3.674
 1700TIP3    H1 5064   2.837   3.315   3.677
 1700TIP3    H2 5065   2.876   3.172   3.709
 1701TIP3   OH2 5066   0.468   6.552   1.077
 1701TIP3    H1 5067   0.469   6.460   1.103
 1701TIP3    H2 5068   0.549   6.588   1.114
 1702TIP3   OH2 5069   5.339   1.946   3.930
 1702TIP3    H1 5070   5.346   2.034   3.895
 1702TIP3    H2 5071   5.422   1.930   3.975
 1703TIP3   OH2 5072   1.155   4.103   2.710
 1703TIP3    H1 5073   1.099   4.151   2.771
 1703TIP3    H2 5074   1.112   4.114   2.625
 1704TIP3   OH2 5075   4.517   5.625   5.313
 1704TIP3    H1 5076   4.531   5.719   5.326
 1704TIP3    H2 5077   4.425   5.611   5.336
 1705TIP3   OH2 5078   3.092   2.374   2.287
 1705TIP3    H1 5079   3.028   2.395   2.220
 1705TIP3    H2 5080   3.145   2.453   2.296
 1706TIP3   OH2 5081   3.920   2.298   2.111
 1706TIP3    H1 5082   3.843   2.248   2.136
 1706TIP3    H2 5083   3.993   2.237   2.120
 1707TIP3   OH2 5084   3.391   5.495   0.495
 1707TIP3    H1 5085   3.398   5.480   0.589
 1707TIP3    H2 5086   3.301   5.524   0.482
 1708TIP3   OH2 5087   3.792   4.212   5.898
 1708TIP3    H1 5088   3.706   4.218   5.857
 1708TIP3    H2 5089   3.822   4.123   5.878
 1709TIP3   OH2 5090   7.165   4.795   0.323
 1709TIP3    H1 5091   7.206   4.859   0.265
 1709TIP3    H2 5092   7.102   4.749   0.268
 1710TIP3   OH2 5093   3.605   4.395   4.899
 1710TIP3    H1 5094   3.686   4.348   4.916
 1710TIP3    H2 5095   3.615   4.428   4.809
 1711TIP3   OH2 5096   1.404   4.579   0.059
 1711TIP3    H1 5097   1.407   4.487   0.030
 1711TIP3    H2 5098   1.389   4.629  -0.021
 1712TIP3   OH2 5099   1.826   4.827   1.322
 1712TIP3    H1 5100   1.867   4.746   1.290
 1712TIP3    H2 5101   1.797   4.872   1.242
 1713TIP3   OH2 5102   3.369   1.037   1.972
 1713TIP3    H1 5103   3.383   1.093   1.895
 1713TIP3    H2 5104   3.314   0.966   1.940
 1714TIP3   OH2 5105   4.417   5.078   5.582
 1714TIP3    H1 5106   4.488   5.106   5.640
 1714TIP3    H2 5107   4.373   5.007   5.631
 1715TIP3   OH2 5108   0.521   1.351   2.869
 1715TIP3    H1 5109   0.447   1.291   2.855
 1715TIP3    H2 5110   0.483   1.426   2.914
 1716TIP3   OH2 5111   0.046   0.400   4.856
 1716TIP3    H1 5112   0.008   0.320   4.893
 1716TIP3    H2 5113   0.056   0.458   4.932
 1717TIP3   OH2 5114   4.798   0.218   5.437
 1717TIP3    H1 5115   4.793   0.242   5.530
 1717TIP3    H2 5116   4.814   0.124   5.438
 1718TIP3   OH2 5117   5.563   0.698   3.396
 1718TIP3    H1 5118   5.571   0.687   3.301
 1718TIP3    H2 5119   5.603   0.783   3.413
 1719TIP3   OH2 5120   1.321   0.178   1.469
 1719TIP3    H1 5121   1.306   0.270   1.450
 1719TIP3    H2 5122   1.234   0.140   1.474
 1720TIP3   OH2 5123   3.128   3.436   4.043
 1720TIP3    H1 5124   3.159   3.495   3.975
 1720TIP3    H2 5125   3.140   3.348   4.005
 1721TIP3   OH2 5126   2.781   0.838   2.868
 1721TIP3    H1 5127   2.747   0.748   2.869
 1721TIP3    H2 5128   2.717   0.887   2.816
 1722TIP3   OH2 5129   3.680   4.047   2.612
 1722TIP3    H1 5130   3.664   4.135   2.578
 1722TIP3    H2 5131   3.711   4.061   2.701
 1723TIP3   OH2 5132   1.983   1.699   2.626
 1723TIP3    H1 5133   2.023   1.714   2.712
 1723TIP3    H2 5134   1.900   1.655   2.647
 1724TIP3   OH2 5135   3.250   2.727   3.277
 1724TIP3    H1 5136   3.320   2.677   3.235
 1724TIP3    H2 5137   3.296   2.789   3.334
 1725TIP3   OH2 5138   6.021   5.429   1.403
 1725TIP3    H1 5139   6.007   5.471   1.318
 1725TIP3    H2 5140   5.997   5.495   1.467
 1726TIP3   OH2 5141   3.024   5.966   5.700
 1726TIP3    H1 5142   2.995   6.047   5.659
 1726TIP3    H2 5143   2.974   5.961   5.781
 1727TIP3   OH2 5144   4.851   2.863   4.149
 1727TIP3    H1 5145   4.756   2.877   4.155
 1727TIP3    H2 5146   4.883   2.879   4.238
 1728TIP3   OH2 5147   1.530   6.452   3.466
 1728TIP3    H1 5148   1.504   6.502   3.542
 1728TIP3    H2 5149   1.512   6.361   3.489
 1729TIP3   OH2 5150   4.127   5.371   4.312
 1729TIP3    H1 5151   4.203   5.427   4.295
 1729TIP3    H2 5152   4.069   5.426   4.365
 1730TIP3   OH2 5153   1.109   0.870   2.033
 1730TIP3    H1 5154   1.181   0.806   2.032
 1730TIP3    H2 5155   1.143   0.945   1.985
 1731TIP3   OH2 5156   1.960   2.443   2.505
 1731TIP3    H1 5157   1.991   2.353   2.494
 1731TIP3    H2 5158   2.021   2.482   2.568
 1732TIP3   OH2 5159   5.107   2.962   0.136
 1732TIP3    H1 5160   5.164   2.899   0.092
 1732TIP3    H2 5161   5.049   2.908   0.190
 1733TIP3   OH2 5162   6.213   6.014   5.178
 1733TIP3    H1 5163   6.240   6.038   5.089
 1733TIP3    H2 5164   6.201   6.098   5.223
 1734TIP3   OH2 5165   5.683   4.446   5.067
 1734TIP3    H1 5166   5.730   4.363   5.072
 1734TIP3    H2 5167   5.590   4.421   5.073
 1735TIP3   OH2 5168   1.454   0.411   2.151
 1735TIP3    H1 5169   1.515   0.379   2.084
 1735TIP3    H2 5170   1.497   0.488   2.187
 1736TIP3   OH2 5171   1.010   1.157   0.260
 1736TIP3    H1 5172   1.087   1.101   0.269
 1736TIP3    H2 5173   0.936   1.097   0.269
 1737TIP3   OH2 5174   4.189   1.490   5.773
 1737TIP3    H1 5175   4.247   1.556   5.811
 1737TIP3    H2 5176   4.125   1.472   5.841
 1738TIP3   OH2 5177   6.297   4.396   1.591
 1738TIP3    H1 5178   6.217   4.397   1.540
 1738TIP3    H2 5179   6.323   4.488   1.597
 1739TIP3   OH2 5180   7.074   4.844   4.942
 1739TIP3    H1 5181   7.040   4.793   4.868
 1739TIP3    H2 5182   7.159   4.805   4.961
 1740TIP3   OH2 5183   2.443   3.813   5.214
 1740TIP3    H1 5184   2.432   3.884   5.150
 1740TIP3    H2 5185   2.392   3.740   5.177
 1741TIP3   OH2 5186   2.385   3.746   0.796
 1741TIP3    H1 5187   2.318   3.759   0.863
 1741TIP3    H2 5188   2.338   3.710   0.721
 1742TIP3   OH2 5189   5.952   2.237   2.401
 1742TIP3    H1 5190   5.983   2.327   2.408
 1742TIP3    H2 5191   5.916   2.230   2.312
 1743TIP3   OH2 5192   4.924   3.836   3.204
 1743TIP3    H1 5193   4.879   3.909   3.247
 1743TIP3    H2 5194   4.976   3.796   3.273
 1744TIP3   OH2 5195   3.600   4.174   1.658
 1744TIP3    H1 5196   3.673   4.176   1.719
 1744TIP3    H2 5197   3.569   4.083   1.660
 1745TIP3   OH2 5198   2.296   5.187   4.781
 1745TIP3    H1 5199   2.238   5.180   4.706
 1745TIP3    H2 5200   2.373   5.234   4.748
 1746TIP3   OH2 5201   2.596   2.576   0.937
 1746TIP3    H1 5202   2.567   2.668   0.943
 1746TIP3    H2 5203   2.564   2.547   0.851
 1747TIP3   OH2 5204   2.178   5.770   1.516
 1747TIP3    H1 5205   2.183   5.705   1.446
 1747TIP3    H2 5206   2.097   5.750   1.562
 1748TIP3   OH2 5207   5.800   3.124   1.078
 1748TIP3    H1 5208   5.878   3.158   1.121
 1748TIP3    H2 5209   5.810   3.149   0.986
 1749TIP3   OH2 5210   1.301   0.005   3.625
 1749TIP3    H1 5211   1.364  -0.056   3.585
 1749TIP3    H2 5212   1.354   0.077   3.657
 1750TIP3   OH2 5213   3.932   1.056   5.393
 1750TIP3    H1 5214   3.838   1.048   5.410
 1750TIP3    H2 5215   3.937   1.087   5.303
 1751TIP3   OH2 5216   1.114   5.753   0.034
 1751TIP3    H1 5217   1.196   5.780  -0.009
 1751TIP3    H2 5218   1.047   5.806  -0.008
 1752TIP3   OH2 5219   7.072   2.176   4.797
 1752TIP3    H1 5220   7.054   2.270   4.795
 1752TIP3    H2 5221   7.162   2.168   4.768
 1753TIP3   OH2 5222   2.754   5.487   3.134
 1753TIP3    H1 5223   2.799   5.459   3.055
 1753TIP3    H2 5224   2.824   5.526   3.188
 1754TIP3   OH2 5225   3.562   5.820   4.861
 1754TIP3    H1 5226   3.625   5.809   4.791
 1754TIP3    H2 5227   3.482   5.778   4.828
 1755TIP3   OH2 5228   0.148   4.541   0.706
 1755TIP3    H1 5229   0.152   4.592   0.625
 1755TIP3    H2 5230   0.125   4.604   0.773
 1756TIP3   OH2 5231   2.016   3.027   4.860
 1756TIP3    H1 5232   2.033   3.038   4.767
 1756TIP3    H2 5233   2.100   3.001   4.898
 1757TIP3   OH2 5234   2.822   2.610   2.374
 1757TIP3    H1 5235   2.848   2.530   2.420
 1757TIP3    H2 5236   2.894   2.628   2.313
 1758TIP3   OH2 5237   3.759   5.469   2.344
 1758TIP3    H1 5238   3.731   5.397   2.401
 1758TIP3    H2 5239   3.731   5.443   2.257
 1759TIP3   OH2 5240   3.548   3.459   3.619
 1759TIP3    H1 5241   3.563   3.509   3.539
 1759TIP3    H2 5242   3.454   3.445   3.622
 1760TIP3   OH2 5243   4.926   1.686   2.360
 1760TIP3    H1 5244   5.017   1.676   2.389
 1760TIP3    H2 5245   4.876   1.702   2.441
 1761TIP3   OH2 5246   0.376   2.314   0.746
 1761TIP3    H1 5247   0.314   2.297   0.674
 1761TIP3    H2 5248   0.421   2.394   0.720
 1762TIP3   OH2 5249   6.124   2.346   0.451
 1762TIP3    H1 5250   6.194   2.389   0.500
 1762TIP3    H2 5251   6.093   2.413   0.391
 1763TIP3   OH2 5252   5.639   5.348   5.310
 1763TIP3    H1 5253   5.688   5.429   5.302
 1763TIP3    H2 5254   5.598   5.335   5.224
 1764TIP3   OH2 5255   6.794   2.354   2.978
 1764TIP3    H1 5256   6.730   2.301   2.930
 1764TIP3    H2 5257   6.805   2.432   2.924
 1765TIP3   OH2 5258   1.721   6.756   1.155
 1765TIP3    H1 5259   1.749   6.749   1.064
 1765TIP3    H2 5260   1.788   6.707   1.204
 1766TIP3   OH2 5261   3.886   0.117   3.409
 1766TIP3    H1 5262   3.953   0.110   3.341
 1766TIP3    H2 5263   3.868   0.211   3.416
 1767TIP3   OH2 5264   3.632   1.270   1.690
 1767TIP3    H1 5265   3.675   1.256   1.606
 1767TIP3    H2 5266   3.640   1.364   1.706
 1768TIP3   OH2 5267   1.971   5.788   0.927
 1768TIP3    H1 5268   1.949   5.816   1.016
 1768TIP3    H2 5269   1.899   5.730   0.901
 1769TIP3   OH2 5270   3.120   3.496   1.017
 1769TIP3    H1 5271   3.059   3.569   1.030
 1769TIP3    H2 5272   3.206   3.532   1.040
 1770TIP3   OH2 5273   5.393   1.973   3.557
 1770TIP3    H1 5274   5.337   1.917   3.612
 1770TIP3    H2 5275   5.470   1.919   3.540
 1771TIP3   OH2 5276   6.114   5.220   2.329
 1771TIP3    H1 5277   6.060   5.148   2.297
 1771TIP3    H2 5278   6.185   5.227   2.265
 1772TIP3   OH2 5279   1.043   6.474   0.361
 1772TIP3    H1 5280   1.139   6.472   0.355
 1772TIP3    H2 5281   1.018   6.383   0.377
 1773TIP3   OH2 5282   3.112   3.045   0.219
 1773TIP3    H1 5283   3.093   3.036   0.312
 1773TIP3    H2 5284   3.204   3.072   0.216
 1774TIP3   OH2 5285   1.395   0.056   5.572
 1774TIP3    H1 5286   1.463   0.002   5.533
 1774TIP3    H2 5287   1.342   0.085   5.498
 1775TIP3   OH2 5288   6.292   3.938   2.850
 1775TIP3    H1 5289   6.242   3.858   2.867
 1775TIP3    H2 5290   6.237   4.009   2.884
 1776TIP3   OH2 5291   1.626   2.379   4.409
 1776TIP3    H1 5292   1.580   2.457   4.438
 1776TIP3    H2 5293   1.568   2.306   4.431
 1777TIP3   OH2 5294   6.233   6.281   2.837
 1777TIP3    H1 5295   6.325   6.291   2.813
 1777TIP3    H2 5296   6.214   6.358   2.891
 1778TIP3   OH2 5297   4.904   0.947   3.228
 1778TIP3    H1 5298   4.938   0.890   3.159
 1778TIP3    H2 5299   4.811   0.959   3.206
 1779TIP3   OH2 5300   2.513   4.433   2.297
 1779TIP3    H1 5301   2.418   4.429   2.288
 1779TIP3    H2 5302   2.541   4.341   2.297
 1780TIP3   OH2 5303   3.503   5.147   4.889
 1780TIP3    H1 5304   3.552   5.153   4.972
 1780TIP3    H2 5305   3.436   5.081   4.906
 1781TIP3   OH2 5306   3.794   4.928   5.422
 1781TIP3    H1 5307   3.834   4.934   5.336
 1781TIP3    H2 5308   3.803   5.015   5.460
 1782TIP3   OH2 5309   7.111   5.853   2.041
 1782TIP3    H1 5310   7.158   5.774   2.067
 1782TIP3    H2 5311   7.094   5.842   1.947
 1783TIP3   OH2 5312   1.281   5.465   2.467
 1783TIP3    H1 5313   1.309   5.453   2.376
 1783TIP3    H2 5314   1.245   5.380   2.493
 1784TIP3   OH2 5315   5.058   6.565   2.540
 1784TIP3    H1 5316   5.029   6.477   2.565
 1784TIP3    H2 5317   5.087   6.605   2.622
 1785TIP3   OH2 5318   4.715   0.108   1.759
 1785TIP3    H1 5319   4.623   0.091   1.741
 1785TIP3    H2 5320   4.749   0.025   1.792
 1786TIP3   OH2 5321   3.553   5.241   2.822
 1786TIP3    H1 5322   3.561   5.319   2.878
 1786TIP3    H2 5323   3.525   5.171   2.881
 1787TIP3   OH2 5324   4.793   5.150   0.187
 1787TIP3    H1 5325   4.877   5.195   0.176
 1787TIP3    H2 5326   4.761   5.138   0.098
 1788TIP3   OH2 5327   7.090   3.458   3.330
 1788TIP3    H1 5328   7.104   3.396   3.258
 1788TIP3    H2 5329   7.038   3.528   3.292
 1789TIP3   OH2 5330   0.208   5.958   4.746
 1789TIP3    H1 5331   0.294   5.960   4.787
 1789TIP3    H2 5332   0.162   5.887   4.791
 1790TIP3   OH2 5333   3.301   3.900   3.258
 1790TIP3    H1 5334   3.249   3.877   3.335
 1790TIP3    H2 5335   3.243   3.881   3.184
 1791TIP3   OH2 5336   3.616   4.861   2.713
 1791TIP3    H1 5337   3.553   4.827   2.650
 1791TIP3    H2 5338   3.677   4.788   2.727
 1792TIP3   OH2 5339   0.544   0.566   4.832
 1792TIP3    H1 5340   0.626   0.517   4.836
 1792TIP3    H2 5341   0.562   0.649   4.877
 1793TIP3   OH2 5342   4.852   0.597   2.663
 1793TIP3    H1 5343   4.873   0.687   2.687
 1793TIP3    H2 5344   4.758   0.590   2.678
 1794TIP3   OH2 5345   3.742   4.659   0.311
 1794TIP3    H1 5346   3.745   4.673   0.406
 1794TIP3    H2 5347   3.769   4.743   0.273
 1795TIP3   OH2 5348   1.026   3.800   4.177
 1795TIP3    H1 5349   0.993   3.802   4.087
 1795TIP3    H2 5350   0.949   3.818   4.231
 1796TIP3   OH2 5351   6.254   5.183   0.959
 1796TIP3    H1 5352   6.219   5.260   1.002
 1796TIP3    H2 5353   6.297   5.134   1.028
 1797TIP3   OH2 5354   1.650   5.204   0.276
 1797TIP3    H1 5355   1.633   5.297   0.290
 1797TIP3    H2 5356   1.565   5.161   0.289
 1798TIP3   OH2 5357   5.045   4.073   0.022
 1798TIP3    H1 5358   5.082   4.008   0.082
 1798TIP3    H2 5359   5.082   4.049  -0.063
 1799TIP3   OH2 5360   6.339   5.721   0.467
 1799TIP3    H1 5361   6.329   5.627   0.456
 1799TIP3    H2 5362   6.267   5.759   0.416
 1800TIP3   OH2 5363   3.113   3.829   1.277
 1800TIP3    H1 5364   3.200   3.803   1.306
 1800TIP3    H2 5365   3.075   3.750   1.240
 1801TIP3   OH2 5366   3.685   4.136   5.594
 1801TIP3    H1 5367   3.626   4.198   5.636
 1801TIP3    H2 5368   3.645   4.118   5.509
 1802TIP3   OH2 5369   1.420   3.755   3.270
 1802TIP3    H1 5370   1.358   3.684   3.256
 1802TIP3    H2 5371   1.405   3.814   3.196
 1803TIP3   OH2 5372   1.031   2.432   0.929
 1803TIP3    H1 5373   0.942   2.425   0.897
 1803TIP3    H2 5374   1.040   2.522   0.958
 1804TIP3   OH2 5375   5.850   3.001   3.753
 1804TIP3    H1 5376   5.940   2.989   3.782
 1804TIP3    H2 5377   5.819   3.079   3.799
 1805TIP3   OH2 5378   2.460   1.835   1.073
 1805TIP3    H1 5379   2.457   1.911   1.131
 1805TIP3    H2 5380   2.553   1.812   1.070
 1806TIP3   OH2 5381   7.024   5.225   0.529
 1806TIP3    H1 5382   6.944   5.277   0.535
 1806TIP3    H2 5383   6.997   5.142   0.490
 1807TIP3   OH2 5384   3.587   2.949   3.936
 1807TIP3    H1 5385   3.632   3.025   3.973
 1807TIP3    H2 5386   3.657   2.897   3.896
 1808TIP3   OH2 5387   1.905   4.000   5.501
 1808TIP3    H1 5388   1.924   3.972   5.411
 1808TIP3    H2 5389   1.812   3.980   5.513
 1809TIP3   OH2 5390   1.458   1.737   2.777
 1809TIP3    H1 5391   1.486   1.821   2.812
 1809TIP3    H2 5392   1.505   1.729   2.694
 1810TIP3   OH2 5393   4.889   5.547   2.174
 1810TIP3    H1 5394   4.883   5.454   2.198
 1810TIP3    H2 5395   4.864   5.550   2.082
 1811TIP3   OH2 5396   0.150   2.811   0.591
 1811TIP3    H1 5397   0.133   2.905   0.582
 1811TIP3    H2 5398   0.228   2.807   0.648
 1812TIP3   OH2 5399   3.281   4.353   5.147
 1812TIP3    H1 5400   3.211   4.389   5.202
 1812TIP3    H2 5401   3.257   4.378   5.058
 1813TIP3   OH2 5402   2.203   0.109   0.873
 1813TIP3    H1 5403   2.265   0.095   0.801
 1813TIP3    H2 5404   2.205   0.028   0.923
 1814TIP3   OH2 5405   5.330   0.804   5.269
 1814TIP3    H1 5406   5.363   0.715   5.253
 1814TIP3    H2 5407   5.284   0.798   5.353
 1815TIP3   OH2 5408   4.465   2.682   3.421
 1815TIP3    H1 5409   4.495   2.591   3.431
 1815TIP3    H2 5410   4.380   2.684   3.464
 1816TIP3   OH2 5411   6.851   2.194   2.630
 1816TIP3    H1 5412   6.932   2.211   2.679
 1816TIP3    H2 5413   6.786   2.173   2.698
 1817TIP3   OH2 5414   6.792   5.804   3.369
 1817TIP3    H1 5415   6.791   5.794   3.274
 1817TIP3    H2 5416   6.704   5.777   3.397
 1818TIP3   OH2 5417   0.108   5.789   0.176
 1818TIP3    H1 5418   0.122   5.883   0.182
 1818TIP3    H2 5419   0.100   5.772   0.082
 1819TIP3   OH2 5420   5.330   2.750   3.835
 1819TIP3    H1 5421   5.294   2.837   3.850
 1819TIP3    H2 5422   5.368   2.755   3.748
 1820TIP3   OH2 5423   7.045   2.698   5.341
 1820TIP3    H1 5424   7.007   2.758   5.277
 1820TIP3    H2 5425   7.137   2.725   5.347
 1821TIP3   OH2 5426   0.789   5.770   0.709
 1821TIP3    H1 5427   0.732   5.846   0.697
 1821TIP3    H2 5428   0.871   5.794   0.667
 1822TIP3   OH2 5429   5.163   4.784   0.352
 1822TIP3    H1 5430   5.106   4.723   0.305
 1822TIP3    H2 5431   5.219   4.728   0.404
 1823TIP3   OH2 5432   4.260   4.382   4.359
 1823TIP3    H1 5433   4.300   4.390   4.272
 1823TIP3    H2 5434   4.288   4.295   4.389
 1824TIP3   OH2 5435   4.513   3.643   4.415
 1824TIP3    H1 5436   4.528   3.572   4.477
 1824TIP3    H2 5437   4.597   3.657   4.372
 1825TIP3   OH2 5438   1.160   0.637   1.717
 1825TIP3    H1 5439   1.164   0.731   1.699
 1825TIP3    H2 5440   1.081   0.626   1.769
 1826TIP3   OH2 5441   2.433   2.448   3.966
 1826TIP3    H1 5442   2.435   2.543   3.952
 1826TIP3    H2 5443   2.525   2.425   3.982
 1827TIP3   OH2 5444   6.531   5.238   3.528
 1827TIP3    H1 5445   6.592   5.199   3.591
 1827TIP3    H2 5446   6.497   5.316   3.573
 1828TIP3   OH2 5447   2.852   2.208   2.752
 1828TIP3    H1 5448   2.851   2.253   2.668
 1828TIP3    H2 5449   2.763   2.217   2.786
 1829TIP3   OH2 5450   3.876   3.494   0.136
 1829TIP3    H1 5451   3.806   3.485   0.071
 1829TIP3    H2 5452   3.837   3.545   0.207
 1830TIP3   OH2 5453   0.478   0.873   4.699
 1830TIP3    H1 5454   0.445   0.859   4.788
 1830TIP3    H2 5455   0.400   0.871   4.644
 1831TIP3   OH2 5456   0.176   6.489   0.738
 1831TIP3    H1 5457   0.167   6.518   0.829
 1831TIP3    H2 5458   0.103   6.529   0.693
 1832TIP3   OH2 5459   5.710   5.098   1.787
 1832TIP3    H1 5460   5.695   5.134   1.874
 1832TIP3    H2 5461   5.734   5.174   1.733
 1833TIP3   OH2 5462   6.048   0.323   2.358
 1833TIP3    H1 5463   6.083   0.267   2.427
 1833TIP3    H2 5464   6.001   0.263   2.300
 1834TIP3   OH2 5465   0.738   4.178   3.952
 1834TIP3    H1 5466   0.698   4.115   3.891
 1834TIP3    H2 5467   0.831   4.157   3.951
 1835TIP3   OH2 5468   3.004   2.213   4.714
 1835TIP3    H1 5469   2.923   2.196   4.762
 1835TIP3    H2 5470   2.979   2.278   4.648
 1836TIP3   OH2 5471   5.338   1.908   1.843
 1836TIP3    H1 5472   5.335   1.829   1.789
 1836TIP3    H2 5473   5.253   1.912   1.885
 1837TIP3   OH2 5474   1.640   2.143   0.507
 1837TIP3    H1 5475   1.654   2.236   0.492
 1837TIP3    H2 5476   1.570   2.119   0.447
 1838TIP3   OH2 5477   1.637   0.361   3.850
 1838TIP3    H1 5478   1.582   0.430   3.888
 1838TIP3    H2 5479   1.698   0.337   3.920
 1839TIP3   OH2 5480   6.836   5.904   5.001
 1839TIP3    H1 5481   6.758   5.958   4.988
 1839TIP3    H2 5482   6.893   5.925   4.927
 1840TIP3   OH2 5483   2.461   5.928   4.316
 1840TIP3    H1 5484   2.422   5.992   4.257
 1840TIP3    H2 5485   2.495   5.980   4.389
 1841TIP3   OH2 5486   3.914   0.164   1.542
 1841TIP3    H1 5487   3.941   0.184   1.632
 1841TIP3    H2 5488   3.819   0.156   1.547
 1842TIP3   OH2 5489   0.353   4.366   5.255
 1842TIP3    H1 5490   0.298   4.384   5.179
 1842TIP3    H2 5491   0.407   4.445   5.265
 1843TIP3   OH2 5492   1.858   2.587   4.899
 1843TIP3    H1 5493   1.822   2.672   4.924
 1843TIP3    H2 5494   1.782   2.538   4.866
 1844TIP3   OH2 5495   2.052   3.679   5.189
 1844TIP3    H1 5496   2.090   3.681   5.101
 1844TIP3    H2 5497   2.102   3.612   5.235
 1845TIP3   OH2 5498   3.402   6.240   1.003
 1845TIP3    H1 5499   3.493   6.219   1.024
 1845TIP3    H2 5500   3.408   6.301   0.929
 1846TIP3   OH2 5501   6.249   2.518   0.232
 1846TIP3    H1 5502   6.281   2.437   0.192
 1846TIP3    H2 5503   6.316   2.583   0.212
 1847TIP3   OH2 5504   0.365   2.879   2.713
 1847TIP3    H1 5505   0.289   2.842   2.667
 1847TIP3    H2 5506   0.359   2.845   2.802
 1848TIP3   OH2 5507   4.206   6.612   4.343
 1848TIP3    H1 5508   4.233   6.588   4.431
 1848TIP3    H2 5509   4.142   6.545   4.318
 1849TIP3   OH2 5510   2.888   5.757   0.723
 1849TIP3    H1 5511   2.969   5.726   0.763
 1849TIP3    H2 5512   2.839   5.798   0.795
 1850TIP3   OH2 5513   1.514   2.202   2.697
 1850TIP3    H1 5514   1.464   2.247   2.630
 1850TIP3    H2 5515   1.594   2.253   2.706
 1851TIP3   OH2 5516   5.213   3.006   3.886
 1851TIP3    H1 5517   5.123   2.973   3.895
 1851TIP3    H2 5518   5.203   3.100   3.871
 1852TIP3   OH2 5519   3.236   4.467   0.169
 1852TIP3    H1 5520   3.171   4.537   0.177
 1852TIP3    H2 5521   3.315   4.502   0.210
 1853TIP3   OH2 5522   0.643   5.166   4.036
 1853TIP3    H1 5523   0.729   5.125   4.027
 1853TIP3    H2 5524   0.601   5.155   3.950
 1854TIP3   OH2 5525   4.075   0.935   0.721
 1854TIP3    H1 5526   4.003   0.912   0.662
 1854TIP3    H2 5527   4.033   0.989   0.788
 1855TIP3   OH2 5528   5.097   3.357   0.327
 1855TIP3    H1 5529   5.175   3.413   0.331
 1855TIP3    H2 5530   5.109   3.306   0.247
 1856TIP3   OH2 5531   5.828   4.890   5.355
 1856TIP3    H1 5532   5.792   4.807   5.324
 1856TIP3    H2 5533   5.920   4.887   5.331
 1857TIP3   OH2 5534   4.882   0.522   2.235
 1857TIP3    H1 5535   4.798   0.558   2.261
 1857TIP3    H2 5536   4.927   0.505   2.318
 1858TIP3   OH2 5537   2.013   4.556   2.652
 1858TIP3    H1 5538   2.078   4.491   2.625
 1858TIP3    H2 5539   1.963   4.512   2.720
 1859TIP3   OH2 5540   5.541   1.104   2.984
 1859TIP3    H1 5541   5.498   1.171   2.931
 1859TIP3    H2 5542   5.474   1.076   3.047
 1860TIP3   OH2 5543   2.363   3.127   1.719
 1860TIP3    H1 5544   2.402   3.054   1.671
 1860TIP3    H2 5545   2.327   3.087   1.798
 1861TIP3   OH2 5546   1.306   4.508   2.552
 1861TIP3    H1 5547   1.397   4.519   2.525
 1861TIP3    H2 5548   1.299   4.415   2.574
 1862TIP3   OH2 5549   0.034   6.278   3.673
 1862TIP3    H1 5550  -0.004   6.191   3.668
 1862TIP3    H2 5551  -0.005   6.317   3.751
 1863TIP3   OH2 5552   5.137   1.617   5.495
 1863TIP3    H1 5553   5.122   1.663   5.577
 1863TIP3    H2 5554   5.194   1.544   5.517
 1864TIP3   OH2 5555   1.123   4.513   4.981
 1864TIP3    H1 5556   1.184   4.570   4.934
 1864TIP3    H2 5557   1.037   4.549   4.961
 1865TIP3   OH2 5558   1.495   3.991   5.079
 1865TIP3    H1 5559   1.407   3.954   5.071
 1865TIP3    H2 5560   1.551   3.915   5.095
 1866TIP3   OH2 5561   6.434   2.959   1.971
 1866TIP3    H1 5562   6.514   3.011   1.980
 1866TIP3    H2 5563   6.363   3.023   1.975
 1867TIP3   OH2 5564   4.812   1.998   0.663
 1867TIP3    H1 5565   4.739   2.053   0.691
 1867TIP3    H2 5566   4.882   2.060   0.641
 1868TIP3   OH2 5567   2.431   3.267   2.710
 1868TIP3    H1 5568   2.515   3.300   2.680
 1868TIP3    H2 5569   2.368   3.299   2.645
 1869TIP3   OH2 5570   2.193   0.418   2.658
 1869TIP3    H1 5571   2.143   0.340   2.633
 1869TIP3    H2 5572   2.154   0.446   2.741
 1870TIP3   OH2 5573   2.729   5.155   1.057
 1870TIP3    H1 5574   2.719   5.250   1.054
 1870TIP3    H2 5575   2.822   5.139   1.040
 1871TIP3   OH2 5576   4.075   4.301   1.683
 1871TIP3    H1 5577   4.077   4.356   1.761
 1871TIP3    H2 5578   4.036   4.219   1.713
 1872TIP3   OH2 5579   4.457   5.976   2.658
 1872TIP3    H1 5580   4.479   6.063   2.691
 1872TIP3    H2 5581   4.376   5.988   2.609
 1873TIP3   OH2 5582   0.938   4.713   2.217
 1873TIP3    H1 5583   0.865   4.764   2.252
 1873TIP3    H2 5584   0.926   4.716   2.122
 1874TIP3   OH2 5585   3.105   4.892   1.464
 1874TIP3    H1 5586   3.058   4.964   1.421
 1874TIP3    H2 5587   3.195   4.923   1.471
 1875TIP3   OH2 5588   1.205   6.402   3.711
 1875TIP3    H1 5589   1.264   6.390   3.786
 1875TIP3    H2 5590   1.167   6.489   3.724
 1876TIP3   OH2 5591   3.852   0.655   1.356
 1876TIP3    H1 5592   3.842   0.574   1.406
 1876TIP3    H2 5593   3.894   0.627   1.274
 1877TIP3   OH2 5594   0.150   0.373   2.560
 1877TIP3    H1 5595   0.196   0.298   2.523
 1877TIP3    H2 5596   0.142   0.353   2.653
 1878TIP3   OH2 5597   2.211   5.982   4.565
 1878TIP3    H1 5598   2.182   5.985   4.656
 1878TIP3    H2 5599   2.291   6.035   4.563
 1879TIP3   OH2 5600   4.141   0.632   4.694
 1879TIP3    H1 5601   4.219   0.647   4.641
 1879TIP3    H2 5602   4.148   0.541   4.723
 1880TIP3   OH2 5603   2.079   2.697   3.932
 1880TIP3    H1 5604   2.091   2.620   3.876
 1880TIP3    H2 5605   2.130   2.678   4.010
 1881TIP3   OH2 5606   0.442   6.078   3.205
 1881TIP3    H1 5607   0.450   6.168   3.237
 1881TIP3    H2 5608   0.500   6.027   3.261
 1882TIP3   OH2 5609   2.151   0.478   5.728
 1882TIP3    H1 5610   2.244   0.492   5.713
 1882TIP3    H2 5611   2.136   0.507   5.818
 1883TIP3   OH2 5612   3.932   4.500   3.783
 1883TIP3    H1 5613   3.912   4.446   3.861
 1883TIP3    H2 5614   3.875   4.576   3.792
 1884TIP3   OH2 5615   5.954   3.531   0.419
 1884TIP3    H1 5616   5.908   3.463   0.468
 1884TIP3    H2 5617   6.041   3.493   0.401
 1885TIP3   OH2 5618   3.284   3.639   0.737
 1885TIP3    H1 5619   3.304   3.732   0.739
 1885TIP3    H2 5620   3.225   3.629   0.662
 1886TIP3   OH2 5621   6.719   2.643   0.352
 1886TIP3    H1 5622   6.781   2.650   0.425
 1886TIP3    H2 5623   6.729   2.553   0.320
 1887TIP3   OH2 5624   0.663   3.303   5.240
 1887TIP3    H1 5625   0.568   3.308   5.252
 1887TIP3    H2 5626   0.686   3.385   5.196
 1888TIP3   OH2 5627   4.412   0.567   4.977
 1888TIP3    H1 5628   4.439   0.632   4.912
 1888TIP3    H2 5629   4.332   0.602   5.015
 1889TIP3   OH2 5630   0.247   2.259   4.034
 1889TIP3    H1 5631   0.204   2.174   4.050
 1889TIP3    H2 5632   0.318   2.262   4.098
 1890TIP3   OH2 5633   3.440   2.263   3.533
 1890TIP3    H1 5634   3.471   2.278   3.444
 1890TIP3    H2 5635   3.346   2.282   3.530
 1891TIP3   OH2 5636   2.249   6.518   1.470
 1891TIP3    H1 5637   2.168   6.480   1.436
 1891TIP3    H2 5638   2.253   6.605   1.430
 1892TIP3   OH2 5639   2.411   1.538   2.913
 1892TIP3    H1 5640   2.345   1.597   2.875
 1892TIP3    H2 5641   2.433   1.479   2.841
 1893TIP3   OH2 5642   4.385   6.046   3.139
 1893TIP3    H1 5643   4.402   6.134   3.172
 1893TIP3    H2 5644   4.301   6.053   3.094
 1894TIP3   OH2 5645   5.246   2.685   5.594
 1894TIP3    H1 5646   5.262   2.754   5.659
 1894TIP3    H2 5647   5.332   2.667   5.556
 1895TIP3   OH2 5648   1.141   2.631   1.187
 1895TIP3    H1 5649   1.213   2.656   1.246
 1895TIP3    H2 5650   1.150   2.689   1.112
 1896TIP3   OH2 5651   6.970   4.156   0.769
 1896TIP3    H1 5652   6.901   4.151   0.702
 1896TIP3    H2 5653   7.004   4.245   0.762
 1897TIP3   OH2 5654   5.739   5.531   4.843
 1897TIP3    H1 5655   5.782   5.449   4.867
 1897TIP3    H2 5656   5.646   5.514   4.859
 1898TIP3   OH2 5657   6.156   2.070   0.855
 1898TIP3    H1 5658   6.184   2.000   0.796
 1898TIP3    H2 5659   6.106   2.130   0.799
 1899TIP3   OH2 5660   4.906   4.189   2.701
 1899TIP3    H1 5661   4.857   4.186   2.618
 1899TIP3    H2 5662   4.892   4.103   2.740
 1900TIP3   OH2 5663   1.571   0.932   3.611
 1900TIP3    H1 5664   1.492   0.959   3.658
 1900TIP3    H2 5665   1.626   1.011   3.611
 1901TIP3   OH2 5666   4.698   2.820   3.792
 1901TIP3    H1 5667   4.637   2.780   3.730
 1901TIP3    H2 5668   4.664   2.908   3.806
 1902TIP3   OH2 5669   1.479   6.371   1.318
 1902TIP3    H1 5670   1.547   6.366   1.251
 1902TIP3    H2 5671   1.503   6.305   1.383
 1903TIP3   OH2 5672   2.947   1.211   2.650
 1903TIP3    H1 5673   2.961   1.274   2.579
 1903TIP3    H2 5674   2.928   1.265   2.727
 1904TIP3   OH2 5675   4.288   5.473   5.730
 1904TIP3    H1 5676   4.304   5.397   5.785
 1904TIP3    H2 5677   4.318   5.446   5.643
 1905TIP3   OH2 5678   0.181   4.409   3.074
 1905TIP3    H1 5679   0.178   4.318   3.044
 1905TIP3    H2 5680   0.161   4.404   3.168
 1906TIP3   OH2 5681   6.308   3.716   1.365
 1906TIP3    H1 5682   6.313   3.669   1.448
 1906TIP3    H2 5683   6.268   3.800   1.387
 1907TIP3   OH2 5684   3.910   0.660   2.944
 1907TIP3    H1 5685   3.982   0.720   2.925
 1907TIP3    H2 5686   3.852   0.668   2.868
 1908TIP3   OH2 5687   3.194   2.072   1.061
 1908TIP3    H1 5688   3.240   2.010   1.118
 1908TIP3    H2 5689   3.245   2.073   0.980
 1909TIP3   OH2 5690   3.550   1.799   1.734
 1909TIP3    H1 5691   3.585   1.830   1.650
 1909TIP3    H2 5692   3.610   1.836   1.799
 1910TIP3   OH2 5693   2.844   2.976   1.331
 1910TIP3    H1 5694   2.840   2.965   1.236
 1910TIP3    H2 5695   2.882   2.895   1.363
 1911TIP3   OH2 5696   6.704   4.464   0.033
 1911TIP3    H1 5697   6.621   4.456  -0.015
 1911TIP3    H2 5698   6.726   4.375   0.057
 1912TIP3   OH2 5699   2.253   5.605   4.736
 1912TIP3    H1 5700   2.201   5.592   4.657
 1912TIP3    H2 5701   2.196   5.654   4.796
 1913TIP3   OH2 5702   5.222   2.425   0.155
 1913TIP3    H1 5703   5.300   2.374   0.133
 1913TIP3    H2 5704   5.254   2.491   0.216
 1914TIP3   OH2 5705   1.710   4.933   5.575
 1914TIP3    H1 5706   1.749   4.854   5.539
 1914TIP3    H2 5707   1.621   4.934   5.542
 1915TIP3   OH2 5708   5.290   1.244   1.291
 1915TIP3    H1 5709   5.324   1.181   1.355
 1915TIP3    H2 5710   5.314   1.330   1.327
 1916TIP3   OH2 5711   0.646   0.401   1.294
 1916TIP3    H1 5712   0.577   0.467   1.293
 1916TIP3    H2 5713   0.598   0.318   1.290
 1917TIP3   OH2 5714   3.981   5.315   1.656
 1917TIP3    H1 5715   4.067   5.344   1.688
 1917TIP3    H2 5716   3.922   5.387   1.678
 1918TIP3   OH2 5717   1.750   3.379   0.267
 1918TIP3    H1 5718   1.730   3.440   0.338
 1918TIP3    H2 5719   1.704   3.299   0.290
 1919TIP3   OH2 5720   6.946   4.748   4.702
 1919TIP3    H1 5721   7.029   4.708   4.678
 1919TIP3    H2 5722   6.884   4.714   4.638
 1920TIP3   OH2 5723   3.702   6.151   4.341
 1920TIP3    H1 5724   3.658   6.178   4.260
 1920TIP3    H2 5725   3.725   6.060   4.327
 1921TIP3   OH2 5726   1.314   2.908   5.268
 1921TIP3    H1 5727   1.395   2.866   5.298
 1921TIP3    H2 5728   1.344   2.975   5.206
 1922TIP3   OH2 5729   1.361   0.793   2.958
 1922TIP3    H1 5730   1.369   0.765   2.867
 1922TIP3    H2 5731   1.315   0.721   3.002
 1923TIP3   OH2 5732   4.944   5.158   2.726
 1923TIP3    H1 5733   5.019   5.124   2.774
 1923TIP3    H2 5734   4.868   5.131   2.777
 1924TIP3   OH2 5735   0.430   2.099   5.463
 1924TIP3    H1 5736   0.514   2.130   5.495
 1924TIP3    H2 5737   0.367   2.123   5.531
 1925TIP3   OH2 5738   3.549   3.145   4.766
 1925TIP3    H1 5739   3.533   3.141   4.671
 1925TIP3    H2 5740   3.463   3.166   4.803
 1926TIP3   OH2 5741   4.619   4.374   2.298
 1926TIP3    H1 5742   4.651   4.335   2.217
 1926TIP3    H2 5743   4.526   4.389   2.283
 1927TIP3   OH2 5744   1.693   3.108   5.180
 1927TIP3    H1 5745   1.754   3.178   5.159
 1927TIP3    H2 5746   1.684   3.110   5.275
 1928TIP3   OH2 5747   2.621   3.129   5.028
 1928TIP3    H1 5748   2.625   3.087   5.114
 1928TIP3    H2 5749   2.641   3.059   4.966
 1929TIP3   OH2 5750   5.583   5.319   2.374
 1929TIP3    H1 5751   5.590   5.226   2.395
 1929TIP3    H2 5752   5.494   5.342   2.398
 1930TIP3   OH2 5753   1.616   1.876   0.604
 1930TIP3    H1 5754   1.629   1.971   0.604
 1930TIP3    H2 5755   1.670   1.845   0.676
 1931TIP3   OH2 5756   1.648   1.211   3.587
 1931TIP3    H1 5757   1.665   1.242   3.676
 1931TIP3    H2 5758   1.702   1.266   3.531
 1932TIP3   OH2 5759   4.344   4.331   5.882
 1932TIP3    H1 5760   4.288   4.349   5.806
 1932TIP3    H2 5761   4.417   4.392   5.872
 1933TIP3   OH2 5762   4.689   5.860   2.562
 1933TIP3    H1 5763   4.765   5.918   2.555
 1933TIP3    H2 5764   4.619   5.915   2.597
 1934TIP3   OH2 5765   2.507   6.552   3.284
 1934TIP3    H1 5766   2.500   6.638   3.326
 1934TIP3    H2 5767   2.563   6.568   3.207
 1935TIP3   OH2 5768   4.409   1.860   5.170
 1935TIP3    H1 5769   4.419   1.776   5.213
 1935TIP3    H2 5770   4.390   1.922   5.241
 1936TIP3   OH2 5771   6.902   3.888   5.257
 1936TIP3    H1 5772   6.853   3.806   5.249
 1936TIP3    H2 5773   6.941   3.901   5.171
 1937TIP3   OH2 5774   4.558   3.783   3.819
 1937TIP3    H1 5775   4.571   3.871   3.854
 1937TIP3    H2 5776   4.471   3.785   3.778
 1938TIP3   OH2 5777   2.344   1.800   1.390
 1938TIP3    H1 5778   2.387   1.884   1.372
 1938TIP3    H2 5779   2.392   1.737   1.336
 1939TIP3   OH2 5780   0.578   3.240   4.178
 1939TIP3    H1 5781   0.495   3.288   4.180
 1939TIP3    H2 5782   0.571   3.178   4.252
 1940TIP3   OH2 5783   5.664   3.375   4.179
 1940TIP3    H1 5784   5.723   3.317   4.227
 1940TIP3    H2 5785   5.639   3.442   4.243
 1941TIP3   OH2 5786   5.380   6.643   2.120
 1941TIP3    H1 5787   5.329   6.619   2.043
 1941TIP3    H2 5788   5.330   6.609   2.194
 1942TIP3   OH2 5789   7.070   1.349   4.580
 1942TIP3    H1 5790   7.076   1.304   4.496
 1942TIP3    H2 5791   7.108   1.436   4.563
 1943TIP3   OH2 5792   3.190   2.367   5.193
 1943TIP3    H1 5793   3.259   2.365   5.126
 1943TIP3    H2 5794   3.213   2.442   5.248
 1944TIP3   OH2 5795   6.768   5.205   2.823
 1944TIP3    H1 5796   6.755   5.225   2.916
 1944TIP3    H2 5797   6.790   5.289   2.784
 1945TIP3   OH2 5798   2.419   3.946   5.612
 1945TIP3    H1 5799   2.489   3.977   5.554
 1945TIP3    H2 5800   2.338   3.979   5.572
 1946TIP3   OH2 5801   3.664   2.526   2.404
 1946TIP3    H1 5802   3.688   2.618   2.415
 1946TIP3    H2 5803   3.631   2.500   2.490
 1947TIP3   OH2 5804   3.712   3.464   5.772
 1947TIP3    H1 5805   3.646   3.492   5.835
 1947TIP3    H2 5806   3.693   3.372   5.755
 1948TIP3   OH2 5807   4.387   6.416   4.485
 1948TIP3    H1 5808   4.343   6.472   4.549
 1948TIP3    H2 5809   4.429   6.477   4.424
 1949TIP3   OH2 5810   7.008   0.539   2.231
 1949TIP3    H1 5811   6.950   0.601   2.277
 1949TIP3    H2 5812   6.978   0.453   2.260
 1950TIP3   OH2 5813   0.510   1.588   4.529
 1950TIP3    H1 5814   0.524   1.530   4.604
 1950TIP3    H2 5815   0.598   1.617   4.505
 1951TIP3   OH2 5816   1.116   0.560   3.903
 1951TIP3    H1 5817   1.068   0.505   3.966
 1951TIP3    H2 5818   1.134   0.501   3.829
 1952TIP3   OH2 5819   4.676   2.526   2.635
 1952TIP3    H1 5820   4.643   2.442   2.668
 1952TIP3    H2 5821   4.727   2.502   2.557
 1953TIP3   OH2 5822   3.178   5.751   4.103
 1953TIP3    H1 5823   3.206   5.748   4.011
 1953TIP3    H2 5824   3.093   5.795   4.100
 1954TIP3   OH2 5825   0.941   1.672   4.169
 1954TIP3    H1 5826   0.960   1.765   4.177
 1954TIP3    H2 5827   1.003   1.640   4.104
 1955TIP3   OH2 5828   2.581   4.153   2.289
 1955TIP3    H1 5829   2.659   4.101   2.271
 1955TIP3    H2 5830   2.540   4.110   2.364
 1956TIP3   OH2 5831   6.219   3.990   1.370
 1956TIP3    H1 5832   6.167   4.010   1.291
 1956TIP3    H2 5833   6.303   4.034   1.355
 1957TIP3   OH2 5834   2.478   6.243   5.109
 1957TIP3    H1 5835   2.498   6.320   5.161
 1957TIP3    H2 5836   2.529   6.172   5.149
 1958TIP3   OH2 5837   0.509   6.509   0.564
 1958TIP3    H1 5838   0.557   6.578   0.518
 1958TIP3    H2 5839   0.525   6.526   0.657
 1959TIP3   OH2 5840   3.112   0.769   3.201
 1959TIP3    H1 5841   3.172   0.764   3.275
 1959TIP3    H2 5842   3.146   0.840   3.147
 1960TIP3   OH2 5843   7.003   3.776   3.321
 1960TIP3    H1 5844   6.942   3.846   3.345
 1960TIP3    H2 5845   6.947   3.709   3.282
 1961TIP3   OH2 5846   2.791   3.355   2.065
 1961TIP3    H1 5847   2.822   3.377   2.153
 1961TIP3    H2 5848   2.870   3.337   2.014
 1962TIP3   OH2 5849   6.661   0.149   4.013
 1962TIP3    H1 5850   6.744   0.152   4.061
 1962TIP3    H2 5851   6.656   0.060   3.978
 1963TIP3   OH2 5852   5.506   2.742   1.639
 1963TIP3    H1 5853   5.447   2.754   1.564
 1963TIP3    H2 5854   5.593   2.757   1.602
 1964TIP3   OH2 5855   6.195   2.904   2.895
 1964TIP3    H1 5856   6.215   2.828   2.841
 1964TIP3    H2 5857   6.119   2.944   2.854
 1965TIP3   OH2 5858   3.314   6.456   2.460
 1965TIP3    H1 5859   3.263   6.437   2.539
 1965TIP3    H2 5860   3.342   6.547   2.472
 1966TIP3   OH2 5861   2.992   6.721   1.416
 1966TIP3    H1 5862   3.044   6.742   1.338
 1966TIP3    H2 5863   3.051   6.669   1.470
 1967TIP3   OH2 5864   1.862   6.442   0.968
 1967TIP3    H1 5865   1.916   6.395   0.904
 1967TIP3    H2 5866   1.923   6.498   1.015
 1968TIP3   OH2 5867   2.543   4.988   0.886
 1968TIP3    H1 5868   2.464   5.040   0.901
 1968TIP3    H2 5869   2.614   5.040   0.925
 1969TIP3   OH2 5870   5.951   0.718   2.750
 1969TIP3    H1 5871   5.870   0.672   2.771
 1969TIP3    H2 5872   5.992   0.665   2.681
 1970TIP3   OH2 5873   1.123   0.657   0.920
 1970TIP3    H1 5874   1.064   0.591   0.958
 1970TIP3    H2 5875   1.101   0.657   0.827
 1971TIP3   OH2 5876   5.763   1.666   3.908
 1971TIP3    H1 5877   5.750   1.583   3.864
 1971TIP3    H2 5878   5.850   1.659   3.947
 1972TIP3   OH2 5879   2.104   2.621   2.134
 1972TIP3    H1 5880   2.027   2.567   2.149
 1972TIP3    H2 5881   2.169   2.589   2.196
 1973TIP3   OH2 5882   0.144   6.735   2.060
 1973TIP3    H1 5883   0.105   6.652   2.087
 1973TIP3    H2 5884   0.226   6.739   2.107
 1974TIP3   OH2 5885   5.215   4.765   4.668
 1974TIP3    H1 5886   5.229   4.799   4.579
 1974TIP3    H2 5887   5.291   4.710   4.684
 1975TIP3   OH2 5888   3.103   4.360   1.985
 1975TIP3    H1 5889   3.186   4.400   2.013
 1975TIP3    H2 5890   3.042   4.377   2.056
 1976TIP3   OH2 5891   2.547   1.887   4.091
 1976TIP3    H1 5892   2.587   1.881   4.178
 1976TIP3    H2 5893   2.578   1.809   4.045
 1977TIP3   OH2 5894   2.674   3.638   1.470
 1977TIP3    H1 5895   2.596   3.584   1.467
 1977TIP3    H2 5896   2.692   3.651   1.563
 1978TIP3   OH2 5897   5.872   5.223   1.287
 1978TIP3    H1 5898   5.796   5.257   1.240
 1978TIP3    H2 5899   5.903   5.298   1.338
 1979TIP3   OH2 5900   2.226   6.420   3.276
 1979TIP3    H1 5901   2.295   6.486   3.282
 1979TIP3    H2 5902   2.233   6.371   3.358
 1980TIP3   OH2 5903   7.098   0.709   0.904
 1980TIP3    H1 5904   7.097   0.751   0.818
 1980TIP3    H2 5905   7.012   0.669   0.913
 1981TIP3   OH2 5906   2.911   1.979   2.925
 1981TIP3    H1 5907   2.930   1.910   2.861
 1981TIP3    H2 5908   2.877   2.052   2.872
 1982TIP3   OH2 5909   2.800   2.410   0.780
 1982TIP3    H1 5910   2.738   2.479   0.804
 1982TIP3    H2 5911   2.832   2.376   0.863
 1983TIP3   OH2 5912   3.862   1.539   0.440
 1983TIP3    H1 5913   3.946   1.575   0.470
 1983TIP3    H2 5914   3.879   1.445   0.429
 1984TIP3   OH2 5915   4.072   3.990   2.044
 1984TIP3    H1 5916   4.038   3.902   2.030
 1984TIP3    H2 5917   4.161   3.987   2.010
 1985TIP3   OH2 5918   7.143   4.615   2.495
 1985TIP3    H1 5919   7.098   4.651   2.418
 1985TIP3    H2 5920   7.178   4.691   2.541
 1986TIP3   OH2 5921   5.075   1.914   0.273
 1986TIP3    H1 5922   4.997   1.895   0.221
 1986TIP3    H2 5923   5.099   2.003   0.249
 1987TIP3   OH2 5924   6.866   2.431   4.624
 1987TIP3    H1 5925   6.782   2.386   4.631
 1987TIP3    H2 5926   6.845   2.524   4.635
 1988TIP3   OH2 5927   6.979   6.075   3.230
 1988TIP3    H1 5928   6.960   6.021   3.152
 1988TIP3    H2 5929   7.062   6.118   3.209
 1989TIP3   OH2 5930   5.474   6.138   2.103
 1989TIP3    H1 5931   5.528   6.209   2.067
 1989TIP3    H2 5932   5.532   6.062   2.103
 1990TIP3   OH2 5933   3.738   4.856   1.926
 1990TIP3    H1 5934   3.686   4.875   1.848
 1990TIP3    H2 5935   3.797   4.931   1.933
 1991TIP3   OH2 5936   3.576   0.276   5.685
 1991TIP3    H1 5937   3.648   0.279   5.749
 1991TIP3    H2 5938   3.499   0.306   5.733
 1992TIP3   OH2 5939   7.177   6.175   1.584
 1992TIP3    H1 5940   7.252   6.199   1.639
 1992TIP3    H2 5941   7.103   6.169   1.646
 1993TIP3   OH2 5942   1.602   3.760   1.027
 1993TIP3    H1 5943   1.527   3.717   0.985
 1993TIP3    H2 5944   1.668   3.692   1.033
 1994TIP3   OH2 5945   0.945   0.444   2.297
 1994TIP3    H1 5946   0.909   0.378   2.237
 1994TIP3    H2 5947   0.961   0.520   2.241
 1995TIP3   OH2 5948   6.343   6.057   4.651
 1995TIP3    H1 5949   6.347   5.964   4.629
 1995TIP3    H2 5950   6.434   6.081   4.671
 1996TIP3   OH2 5951   1.752   5.205   5.090
 1996TIP3    H1 5952   1.834   5.184   5.136
 1996TIP3    H2 5953   1.691   5.137   5.118
 1997TIP3   OH2 5954   0.833   0.229   1.481
 1997TIP3    H1 5955   0.780   0.275   1.416
 1997TIP3    H2 5956   0.773   0.167   1.522
 1998TIP3   OH2 5957   1.946   6.054   3.590
 1998TIP3    H1 5958   1.897   6.014   3.518
 1998TIP3    H2 5959   1.905   6.140   3.602
 1999TIP3   OH2 5960   5.166   2.685   1.462
 1999TIP3    H1 5961   5.112   2.762   1.483
 1999TIP3    H2 5962   5.253   2.721   1.444
 2000TIP3   OH2 5963   6.281   5.054   1.375
 2000TIP3    H1 5964   6.197   5.018   1.346
 2000TIP3    H2 5965   6.338   5.047   1.298
 2001TIP3   OH2 5966   1.817   1.856   3.553
 2001TIP3    H1 5967   1.742   1.914   3.562
 2001TIP3    H2 5968   1.808   1.794   3.625
 2002TIP3   OH2 5969   1.992   6.303   2.937
 2002TIP3    H1 5970   1.905   6.278   2.968
 2002TIP3    H2 5971   2.015   6.380   2.990
 2003TIP3   OH2 5972   4.472   0.687   4.731
 2003TIP3    H1 5973   4.509   0.716   4.648
 2003TIP3    H2 5974   4.459   0.768   4.781
 2004TIP3   OH2 5975   4.628   3.188   2.579
 2004TIP3    H1 5976   4.599   3.184   2.487
 2004TIP3    H2 5977   4.587   3.113   2.620
 2005TIP3   OH2 5978   5.401   6.597   2.634
 2005TIP3    H1 5979   5.487   6.584   2.672
 2005TIP3    H2 5980   5.376   6.511   2.602
 2006TIP3   OH2 5981   6.399   5.687   1.618
 2006TIP3    H1 5982   6.485   5.658   1.586
 2006TIP3    H2 5983   6.352   5.713   1.538
 2007TIP3   OH2 5984   0.477   3.180   3.518
 2007TIP3    H1 5985   0.390   3.165   3.553
 2007TIP3    H2 5986   0.499   3.098   3.472
 2008TIP3   OH2 5987   1.041   5.293   5.062
 2008TIP3    H1 5988   1.008   5.203   5.067
 2008TIP3    H2 5989   1.030   5.327   5.151
 2009TIP3   OH2 5990   5.786   6.511   3.487
 2009TIP3    H1 5991   5.838   6.433   3.468
 2009TIP3    H2 5992   5.711   6.505   3.428
 2010TIP3   OH2 5993   0.077   5.992   2.969
 2010TIP3    H1 5994   0.122   5.934   3.030
 2010TIP3    H2 5995   0.019   6.045   3.024
 2011TIP3   OH2 5996   3.805   5.645   3.718
 2011TIP3    H1 5997   3.859   5.655   3.796
 2011TIP3    H2 5998   3.715   5.647   3.751
 2012TIP3   OH2 5999   6.807   5.018   5.118
 2012TIP3    H1 6000   6.816   5.033   5.024
 2012TIP3    H2 6001   6.881   4.963   5.141
 2013TIP3   OH2 6002   1.249   5.415   1.839
 2013TIP3    H1 6003   1.222   5.334   1.796
 2013TIP3    H2 6004   1.172   5.441   1.891
 2014TIP3   OH2 6005   3.960   0.494   1.743
 2014TIP3    H1 6006   3.873   0.492   1.782
 2014TIP3    H2 6007   3.959   0.425   1.677
 2015TIP3   OH2 6008   1.566   0.091   1.556
 2015TIP3    H1 6009   1.584   0.157   1.624
 2015TIP3    H2 6010   1.485   0.119   1.515
 2016TIP3   OH2 6011   5.842   2.498   0.531
 2016TIP3    H1 6012   5.899   2.573   0.551
 2016TIP3    H2 6013   5.823   2.459   0.616
 2017TIP3   OH2 6014   6.496   1.040   2.733
 2017TIP3    H1 6015   6.517   1.128   2.701
 2017TIP3    H2 6016   6.505   0.984   2.656
 2018TIP3   OH2 6017   1.689   4.920   3.059
 2018TIP3    H1 6018   1.619   4.855   3.052
 2018TIP3    H2 6019   1.683   4.969   2.977
 2019TIP3   OH2 6020   6.935   0.610   4.954
 2019TIP3    H1 6021   7.009   0.666   4.933
 2019TIP3    H2 6022   6.966   0.556   5.027
 2020TIP3   OH2 6023   2.753   2.358   2.040
 2020TIP3    H1 6024   2.848   2.357   2.032
 2020TIP3    H2 6025   2.727   2.444   2.010
 2021TIP3   OH2 6026   6.794   5.631   0.730
 2021TIP3    H1 6027   6.843   5.694   0.678
 2021TIP3    H2 6028   6.820   5.649   0.821
 2022TIP3   OH2 6029   3.227   2.201   0.660
 2022TIP3    H1 6030   3.175   2.281   0.664
 2022TIP3    H2 6031   3.168   2.132   0.688
 2023TIP3   OH2 6032   1.872   6.457   0.138
 2023TIP3    H1 6033   1.953   6.509   0.138
 2023TIP3    H2 6034   1.812   6.507   0.193
 2024TIP3   OH2 6035   2.474   6.490   2.144
 2024TIP3    H1 6036   2.456   6.411   2.094
 2024TIP3    H2 6037   2.542   6.535   2.094
 2025TIP3   OH2 6038   2.259   2.561   4.642
 2025TIP3    H1 6039   2.347   2.548   4.606
 2025TIP3    H2 6040   2.206   2.584   4.565
 2026TIP3   OH2 6041   6.009   5.745   2.163
 2026TIP3    H1 6042   5.965   5.660   2.159
 2026TIP3    H2 6043   6.066   5.739   2.239
 2027TIP3   OH2 6044   2.594   2.960   1.979
 2027TIP3    H1 6045   2.538   2.901   1.929
 2027TIP3    H2 6046   2.675   2.966   1.929
 2028TIP3   OH2 6047   5.292   5.980   4.418
 2028TIP3    H1 6048   5.384   5.976   4.441
 2028TIP3    H2 6049   5.256   6.048   4.475
 2029TIP3   OH2 6050   3.195   1.295   4.940
 2029TIP3    H1 6051   3.218   1.218   4.888
 2029TIP3    H2 6052   3.188   1.366   4.876
 2030TIP3   OH2 6053   4.776   1.537   0.555
 2030TIP3    H1 6054   4.849   1.498   0.602
 2030TIP3    H2 6055   4.813   1.614   0.512
 2031TIP3   OH2 6056   0.925   2.340   2.436
 2031TIP3    H1 6057   0.914   2.426   2.478
 2031TIP3    H2 6058   1.009   2.346   2.390
 2032TIP3   OH2 6059   3.395   4.841   2.108
 2032TIP3    H1 6060   3.334   4.781   2.151
 2032TIP3    H2 6061   3.476   4.831   2.158
 2033TIP3   OH2 6062   6.969   4.279   3.304
 2033TIP3    H1 6063   6.967   4.344   3.234
 2033TIP3    H2 6064   6.928   4.322   3.379
 2034TIP3   OH2 6065   2.112   3.418   5.342
 2034TIP3    H1 6066   2.201   3.390   5.364
 2034TIP3    H2 6067   2.071   3.339   5.306
 2035TIP3   OH2 6068   2.076   3.940   1.263
 2035TIP3    H1 6069   2.057   4.015   1.207
 2035TIP3    H2 6070   2.161   3.961   1.303
 2036TIP3   OH2 6071   1.063   0.429   3.357
 2036TIP3    H1 6072   1.149   0.453   3.392
 2036TIP3    H2 6073   1.075   0.341   3.322
 2037TIP3   OH2 6074   6.602   2.312   5.859
 2037TIP3    H1 6075   6.644   2.394   5.831
 2037TIP3    H2 6076   6.675   2.257   5.888
 2038TIP3   OH2 6077   5.105   0.213   3.524
 2038TIP3    H1 6078   5.060   0.245   3.602
 2038TIP3    H2 6079   5.038   0.162   3.478
 2039TIP3   OH2 6080   2.095   3.287   0.130
 2039TIP3    H1 6081   2.176   3.269   0.082
 2039TIP3    H2 6082   2.033   3.221   0.097
 2040TIP3   OH2 6083   5.187   3.943   2.903
 2040TIP3    H1 6084   5.204   4.035   2.926
 2040TIP3    H2 6085   5.154   3.946   2.813
 2041TIP3   OH2 6086   3.317   0.133   0.380
 2041TIP3    H1 6087   3.346   0.223   0.391
 2041TIP3    H2 6088   3.396   0.085   0.357
 2042TIP3   OH2 6089   1.482   5.178   0.657
 2042TIP3    H1 6090   1.463   5.131   0.576
 2042TIP3    H2 6091   1.402   5.172   0.708
 2043TIP3   OH2 6092   1.921   4.828   3.192
 2043TIP3    H1 6093   1.852   4.844   3.128
 2043TIP3    H2 6094   1.985   4.898   3.177
 2044TIP3   OH2 6095   2.963   1.669   1.610
 2044TIP3    H1 6096   2.957   1.746   1.667
 2044TIP3    H2 6097   2.873   1.654   1.580
 2045TIP3   OH2 6098   1.099   5.284   0.356
 2045TIP3    H1 6099   1.056   5.259   0.438
 2045TIP3    H2 6100   1.109   5.379   0.361
 2046TIP3   OH2 6101   4.895   6.031   2.645
 2046TIP3    H1 6102   4.853   6.001   2.725
 2046TIP3    H2 6103   4.853   6.114   2.625
 2047TIP3   OH2 6104   1.890   4.990   3.643
 2047TIP3    H1 6105   1.830   5.033   3.582
 2047TIP3    H2 6106   1.917   4.910   3.598
 2048TIP3   OH2 6107   4.009   0.361   2.330
 2048TIP3    H1 6108   3.966   0.280   2.355
 2048TIP3    H2 6109   4.053   0.390   2.410
 2049TIP3   OH2 6110   0.367   4.117   5.002
 2049TIP3    H1 6111   0.334   4.052   5.065
 2049TIP3    H2 6112   0.340   4.084   4.917
 2050TIP3   OH2 6113   4.550   0.649   1.013
 2050TIP3    H1 6114   4.537   0.576   1.072
 2050TIP3    H2 6115   4.641   0.641   0.984
 2051TIP3   OH2 6116   1.236   1.478   2.348
 2051TIP3    H1 6117   1.256   1.401   2.401
 2051TIP3    H2 6118   1.269   1.458   2.261
 2052TIP3   OH2 6119   0.402   0.519   3.409
 2052TIP3    H1 6120   0.316   0.484   3.388
 2052TIP3    H2 6121   0.415   0.591   3.347
 2053TIP3   OH2 6122   1.828   0.170   2.560
 2053TIP3    H1 6123   1.920   0.164   2.537
 2053TIP3    H2 6124   1.781   0.163   2.477
 2054TIP3   OH2 6125   5.773   0.892   1.947
 2054TIP3    H1 6126   5.789   0.985   1.930
 2054TIP3    H2 6127   5.716   0.891   2.024
 2055TIP3   OH2 6128   6.284   1.681   1.312
 2055TIP3    H1 6129   6.318   1.682   1.401
 2055TIP3    H2 6130   6.341   1.740   1.263
 2056TIP3   OH2 6131   1.710   4.943   4.008
 2056TIP3    H1 6132   1.733   4.852   4.027
 2056TIP3    H2 6133   1.653   4.969   4.080
 2057TIP3   OH2 6134   4.763   6.032   1.392
 2057TIP3    H1 6135   4.766   6.092   1.467
 2057TIP3    H2 6136   4.684   5.980   1.406
 2058TIP3   OH2 6137   3.559   2.103   1.109
 2058TIP3    H1 6138   3.633   2.043   1.098
 2058TIP3    H2 6139   3.492   2.050   1.152
 2059TIP3   OH2 6140   2.326   2.192   3.714
 2059TIP3    H1 6141   2.416   2.200   3.682
 2059TIP3    H2 6142   2.332   2.136   3.791
 2060TIP3   OH2 6143   4.470   6.160   3.948
 2060TIP3    H1 6144   4.460   6.098   4.020
 2060TIP3    H2 6145   4.402   6.226   3.964
 2061TIP3   OH2 6146   3.637   1.576   0.203
 2061TIP3    H1 6147   3.706   1.589   0.268
 2061TIP3    H2 6148   3.664   1.629   0.128
 2062TIP3   OH2 6149   0.644   0.610   5.640
 2062TIP3    H1 6150   0.710   0.675   5.617
 2062TIP3    H2 6151   0.667   0.533   5.588
 2063TIP3   OH2 6152   0.962   3.324   4.593
 2063TIP3    H1 6153   0.869   3.316   4.572
 2063TIP3    H2 6154   0.994   3.389   4.531
 2064TIP3   OH2 6155   5.823   3.403   2.865
 2064TIP3    H1 6156   5.882   3.395   2.789
 2064TIP3    H2 6157   5.744   3.444   2.829
 2065TIP3   OH2 6158   4.936   0.208   4.748
 2065TIP3    H1 6159   4.966   0.171   4.831
 2065TIP3    H2 6160   4.849   0.170   4.735
 2066TIP3   OH2 6161   3.442   4.781   5.485
 2066TIP3    H1 6162   3.420   4.705   5.431
 2066TIP3    H2 6163   3.368   4.789   5.546
 2067TIP3   OH2 6164   0.070   0.985   3.467
 2067TIP3    H1 6165   0.075   1.066   3.517
 2067TIP3    H2 6166   0.159   0.972   3.434
 2068TIP3   OH2 6167   6.591   4.683   1.195
 2068TIP3    H1 6168   6.669   4.735   1.213
 2068TIP3    H2 6169   6.556   4.663   1.282
 2069TIP3   OH2 6170   0.268   2.196   3.768
 2069TIP3    H1 6171   0.197   2.132   3.767
 2069TIP3    H2 6172   0.275   2.223   3.860
 2070TIP3   OH2 6173   3.145   5.929   4.674
 2070TIP3    H1 6174   3.074   5.992   4.661
 2070TIP3    H2 6175   3.218   5.966   4.624
 2071TIP3   OH2 6176   6.873   2.615   0.589
 2071TIP3    H1 6177   6.967   2.603   0.606
 2071TIP3    H2 6178   6.830   2.587   0.670
 2072TIP3   OH2 6179   5.389   3.841   0.422
 2072TIP3    H1 6180   5.362   3.821   0.512
 2072TIP3    H2 6181   5.482   3.862   0.430
 2073TIP3   OH2 6182   6.365   1.759   2.428
 2073TIP3    H1 6183   6.453   1.733   2.454
 2073TIP3    H2 6184   6.378   1.809   2.348
 2074TIP3   OH2 6185   6.617   6.304   3.025
 2074TIP3    H1 6186   6.705   6.314   2.989
 2074TIP3    H2 6187   6.586   6.393   3.040
 2075TIP3   OH2 6188   1.740   4.390   2.863
 2075TIP3    H1 6189   1.734   4.335   2.941
 2075TIP3    H2 6190   1.785   4.469   2.893
 2076TIP3   OH2 6191   2.282   5.247  -0.004
 2076TIP3    H1 6192   2.187   5.235  -0.005
 2076TIP3    H2 6193   2.298   5.296   0.076
 2077TIP3   OH2 6194   5.420   2.188   2.029
 2077TIP3    H1 6195   5.387   2.191   1.939
 2077TIP3    H2 6196   5.441   2.096   2.044
 2078TIP3   OH2 6197   4.593   4.212   4.140
 2078TIP3    H1 6198   4.671   4.238   4.188
 2078TIP3    H2 6199   4.563   4.132   4.184
 2079TIP3   OH2 6200   3.597   1.448   2.461
 2079TIP3    H1 6201   3.630   1.424   2.547
 2079TIP3    H2 6202   3.531   1.381   2.441
 2080TIP3   OH2 6203   3.768   3.085   0.399
 2080TIP3    H1 6204   3.781   3.164   0.345
 2080TIP3    H2 6205   3.827   3.020   0.361
 2081TIP3   OH2 6206   6.637   3.785   5.522
 2081TIP3    H1 6207   6.678   3.870   5.504
 2081TIP3    H2 6208   6.546   3.807   5.544
 2082TIP3   OH2 6209   4.980   2.244   0.656
 2082TIP3    H1 6210   4.986   2.339   0.655
 2082TIP3    H2 6211   5.006   2.219   0.745
 2083TIP3   OH2 6212   1.912   6.441   3.763
 2083TIP3    H1 6213   1.845   6.381   3.732
 2083TIP3    H2 6214   1.964   6.391   3.826
 2084TIP3   OH2 6215   3.633   3.350   2.732
 2084TIP3    H1 6216   3.660   3.383   2.818
 2084TIP3    H2 6217   3.639   3.255   2.740
 2085TIP3   OH2 6218   3.217   2.889   0.531
 2085TIP3    H1 6219   3.148   2.951   0.507
 2085TIP3    H2 6220   3.169   2.812   0.562
 2086TIP3   OH2 6221   3.510   2.464   5.310
 2086TIP3    H1 6222   3.531   2.373   5.330
 2086TIP3    H2 6223   3.560   2.514   5.375
 2087TIP3   OH2 6224   3.265   1.301   3.044
 2087TIP3    H1 6225   3.294   1.256   3.123
 2087TIP3    H2 6226   3.299   1.249   2.972
 2088TIP3   OH2 6227   5.635   6.029   0.073
 2088TIP3    H1 6228   5.680   5.953   0.034
 2088TIP3    H2 6229   5.550   6.031   0.029
 2089TIP3   OH2 6230   2.236   1.691   5.837
 2089TIP3    H1 6231   2.282   1.679   5.755
 2089TIP3    H2 6232   2.146   1.665   5.818
 2090TIP3   OH2 6233   5.204   0.737   4.910
 2090TIP3    H1 6234   5.197   0.750   4.815
 2090TIP3    H2 6235   5.170   0.818   4.948
 2091TIP3   OH2 6236   6.023   3.630   0.753
 2091TIP3    H1 6237   6.030   3.536   0.769
 2091TIP3    H2 6238   5.961   3.661   0.819
 2092TIP3   OH2 6239   5.393   1.500   1.305
 2092TIP3    H1 6240   5.478   1.518   1.266
 2092TIP3    H2 6241   5.386   1.561   1.378
 2093TIP3   OH2 6242   7.141   5.359   2.186
 2093TIP3    H1 6243   7.048   5.381   2.185
 2093TIP3    H2 6244   7.151   5.299   2.259
 2094TIP3   OH2 6245   4.680   5.757   2.276
 2094TIP3    H1 6246   4.724   5.819   2.218
 2094TIP3    H2 6247   4.680   5.800   2.362
 2095TIP3   OH2 6248   1.776   1.503   5.210
 2095TIP3    H1 6249   1.697   1.512   5.157
 2095TIP3    H2 6250   1.845   1.480   5.148
 2096TIP3   OH2 6251   2.317   4.963   2.494
 2096TIP3    H1 6252   2.372   4.999   2.564
 2096TIP3    H2 6253   2.260   4.901   2.538
 2097TIP3   OH2 6254   3.973   5.702   2.722
 2097TIP3    H1 6255   3.994   5.648   2.645
 2097TIP3    H2 6256   4.049   5.693   2.779
 2098TIP3   OH2 6257   5.798   2.134   0.182
 2098TIP3    H1 6258   5.839   2.217   0.159
 2098TIP3    H2 6259   5.770   2.097   0.099
 2099TIP3   OH2 6260   6.269   1.758   2.043
 2099TIP3    H1 6261   6.295   1.845   2.014
 2099TIP3    H2 6262   6.352   1.711   2.053
 2100TIP3   OH2 6263   2.171   3.091   0.521
 2100TIP3    H1 6264   2.184   3.031   0.448
 2100TIP3    H2 6265   2.198   3.041   0.598
 2101TIP3   OH2 6266   4.482   3.985   1.643
 2101TIP3    H1 6267   4.521   3.917   1.698
 2101TIP3    H2 6268   4.404   3.944   1.606
 2102TIP3   OH2 6269   3.682   3.665   4.639
 2102TIP3    H1 6270   3.629   3.743   4.654
 2102TIP3    H2 6271   3.694   3.662   4.544
 2103TIP3   OH2 6272   6.652   6.147   5.700
 2103TIP3    H1 6273   6.667   6.191   5.784
 2103TIP3    H2 6274   6.557   6.147   5.691
 2104TIP3   OH2 6275   0.301   2.241   5.712
 2104TIP3    H1 6276   0.373   2.281   5.760
 2104TIP3    H2 6277   0.222   2.275   5.755
 2105TIP3   OH2 6278   4.506   4.385   3.344
 2105TIP3    H1 6279   4.480   4.471   3.377
 2105TIP3    H2 6280   4.565   4.404   3.271
 2106TIP3   OH2 6281   1.275   5.755   2.161
 2106TIP3    H1 6282   1.281   5.850   2.170
 2106TIP3    H2 6283   1.303   5.721   2.246
 2107TIP3   OH2 6284   5.022   0.095   1.660
 2107TIP3    H1 6285   5.116   0.116   1.664
 2107TIP3    H2 6286   5.009   0.063   1.571
 2108TIP3   OH2 6287   0.374   2.108   2.115
 2108TIP3    H1 6288   0.285   2.076   2.098
 2108TIP3    H2 6289   0.371   2.201   2.092
 2109TIP3   OH2 6290   6.013   2.915   1.068
 2109TIP3    H1 6291   6.006   2.859   1.145
 2109TIP3    H2 6292   6.038   3.001   1.104
 2110TIP3   OH2 6293   2.541   6.065   4.545
 2110TIP3    H1 6294   2.560   6.129   4.614
 2110TIP3    H2 6295   2.528   5.982   4.591
 2111TIP3   OH2 6296   2.896   0.716   0.026
 2111TIP3    H1 6297   2.982   0.717  -0.016
 2111TIP3    H2 6298   2.881   0.624   0.048
 2112TIP3   OH2 6299   1.086   6.745   4.229
 2112TIP3    H1 6300   1.133   6.824   4.205
 2112TIP3    H2 6301   1.136   6.708   4.302
 2113TIP3   OH2 6302   2.586   2.300   2.243
 2113TIP3    H1 6303   2.601   2.368   2.309
 2113TIP3    H2 6304   2.636   2.329   2.167
 2114TIP3   OH2 6305   3.001   0.150   2.707
 2114TIP3    H1 6306   2.915   0.140   2.666
 2114TIP3    H2 6307   3.040   0.063   2.704
 2115TIP3   OH2 6308   5.932   5.345   4.925
 2115TIP3    H1 6309   6.025   5.325   4.923
 2115TIP3    H2 6310   5.893   5.284   4.862
 2116TIP3   OH2 6311   3.006   5.125   2.099
 2116TIP3    H1 6312   3.001   5.095   2.008
 2116TIP3    H2 6313   2.972   5.215   2.096
 2117TIP3   OH2 6314   2.425   6.206   0.765
 2117TIP3    H1 6315   2.506   6.155   0.763
 2117TIP3    H2 6316   2.357   6.142   0.744
 2118TIP3   OH2 6317   0.382   6.576   3.655
 2118TIP3    H1 6318   0.371   6.540   3.743
 2118TIP3    H2 6319   0.456   6.528   3.619
 2119TIP3   OH2 6320   6.335   6.632   3.572
 2119TIP3    H1 6321   6.416   6.591   3.602
 2119TIP3    H2 6322   6.308   6.580   3.496
 2120TIP3   OH2 6323   2.240   4.966   4.531
 2120TIP3    H1 6324   2.238   4.875   4.503
 2120TIP3    H2 6325   2.286   5.012   4.461
 2121TIP3   OH2 6326   6.807   3.639   1.612
 2121TIP3    H1 6327   6.902   3.652   1.616
 2121TIP3    H2 6328   6.791   3.564   1.670
 2122TIP3   OH2 6329   4.860   4.405   2.134
 2122TIP3    H1 6330   4.866   4.483   2.190
 2122TIP3    H2 6331   4.859   4.440   2.045
 2123TIP3   OH2 6332   4.285   0.239   4.930
 2123TIP3    H1 6333   4.222   0.227   4.858
 2123TIP3    H2 6334   4.232   0.227   5.009
 2124TIP3   OH2 6335   1.540   4.727   5.040
 2124TIP3    H1 6336   1.543   4.636   5.070
 2124TIP3    H2 6337   1.459   4.734   4.990
 2125TIP3   OH2 6338   4.937   2.978   3.916
 2125TIP3    H1 6339   4.900   3.064   3.934
 2125TIP3    H2 6340   4.901   2.922   3.985
 2126TIP3   OH2 6341   5.817   5.626   3.793
 2126TIP3    H1 6342   5.782   5.537   3.798
 2126TIP3    H2 6343   5.761   5.670   3.730
 2127TIP3   OH2 6344   3.153   5.686   0.819
 2127TIP3    H1 6345   3.146   5.693   0.914
 2127TIP3    H2 6346   3.183   5.596   0.804
 2128TIP3   OH2 6347   4.828   0.224   2.856
 2128TIP3    H1 6348   4.870   0.198   2.939
 2128TIP3    H2 6349   4.738   0.244   2.881
 2129TIP3   OH2 6350   3.311   0.905   5.660
 2129TIP3    H1 6351   3.338   0.906   5.569
 2129TIP3    H2 6352   3.385   0.941   5.708
 2130TIP3   OH2 6353   0.190   1.199   4.656
 2130TIP3    H1 6354   0.255   1.201   4.585
 2130TIP3    H2 6355   0.197   1.284   4.698
 2131TIP3   OH2 6356   6.543   1.482   2.412
 2131TIP3    H1 6357   6.519   1.446   2.497
 2131TIP3    H2 6358   6.636   1.465   2.404
 2132TIP3   OH2 6359   1.124   1.065   1.177
 2132TIP3    H1 6360   1.091   1.035   1.092
 2132TIP3    H2 6361   1.178   0.993   1.209
 2133TIP3   OH2 6362   5.942   5.979   0.746
 2133TIP3    H1 6363   5.926   6.040   0.674
 2133TIP3    H2 6364   6.020   6.014   0.789
 2134TIP3   OH2 6365   6.907   0.769   5.673
 2134TIP3    H1 6366   6.856   0.706   5.623
 2134TIP3    H2 6367   6.964   0.810   5.608
 2135TIP3   OH2 6368   3.408   0.648   1.096
 2135TIP3    H1 6369   3.450   0.562   1.084
 2135TIP3    H2 6370   3.363   0.665   1.014
 2136TIP3   OH2 6371   0.973   6.666   2.126
 2136TIP3    H1 6372   0.972   6.733   2.058
 2136TIP3    H2 6373   0.911   6.697   2.192
 2137TIP3   OH2 6374   3.583   3.063   3.092
 2137TIP3    H1 6375   3.489   3.053   3.105
 2137TIP3    H2 6376   3.615   2.975   3.072
 2138TIP3   OH2 6377   5.647  -0.001   1.729
 2138TIP3    H1 6378   5.725   0.050   1.705
 2138TIP3    H2 6379   5.575   0.061   1.720
 2139TIP3   OH2 6380   4.408   5.061   0.932
 2139TIP3    H1 6381   4.465   5.114   0.986
 2139TIP3    H2 6382   4.439   5.075   0.842
 2140TIP3   OH2 6383   5.129   4.721   1.199
 2140TIP3    H1 6384   5.137   4.786   1.269
 2140TIP3    H2 6385   5.060   4.756   1.142
 2141TIP3   OH2 6386   3.927   2.966   1.949
 2141TIP3    H1 6387   3.845   2.995   1.991
 2141TIP3    H2 6388   3.978   2.928   2.021
 2142TIP3   OH2 6389   1.952   5.683   1.663
 2142TIP3    H1 6390   2.023   5.672   1.726
 2142TIP3    H2 6391   1.880   5.630   1.697
 2143TIP3   OH2 6392   4.425   4.627   4.210
 2143TIP3    H1 6393   4.448   4.690   4.142
 2143TIP3    H2 6394   4.439   4.541   4.169
 2144TIP3   OH2 6395   7.166   3.250   2.638
 2144TIP3    H1 6396   7.249   3.246   2.685
 2144TIP3    H2 6397   7.129   3.335   2.660
 2145TIP3   OH2 6398   6.079   5.810   3.565
 2145TIP3    H1 6399   6.139   5.848   3.630
 2145TIP3    H2 6400   6.124   5.821   3.482
 2146TIP3   OH2 6401   3.148   1.542   1.464
 2146TIP3    H1 6402   3.111   1.577   1.546
 2146TIP3    H2 6403   3.076   1.494   1.424
 2147TIP3   OH2 6404   3.868   2.485   0.757
 2147TIP3    H1 6405   3.865   2.476   0.852
 2147TIP3    H2 6406   3.807   2.557   0.737
 2148TIP3   OH2 6407   6.528   0.904   4.462
 2148TIP3    H1 6408   6.618   0.926   4.438
 2148TIP3    H2 6409   6.529   0.809   4.478
 2149TIP3   OH2 6410   5.469   1.553   3.703
 2149TIP3    H1 6411   5.392   1.541   3.758
 2149TIP3    H2 6412   5.542   1.524   3.758
 2150TIP3   OH2 6413   6.367   3.726   4.552
 2150TIP3    H1 6414   6.420   3.647   4.542
 2150TIP3    H2 6415   6.302   3.720   4.482
 2151TIP3   OH2 6416   4.089   4.012   2.438
 2151TIP3    H1 6417   4.152   3.948   2.405
 2151TIP3    H2 6418   4.004   3.981   2.406
 2152TIP3   OH2 6419   2.241   0.853   0.814
 2152TIP3    H1 6420   2.151   0.848   0.845
 2152TIP3    H2 6421   2.256   0.946   0.797
 2153TIP3   OH2 6422   3.517   5.037   4.264
 2153TIP3    H1 6423   3.575   5.090   4.319
 2153TIP3    H2 6424   3.563   5.029   4.181
 2154TIP3   OH2 6425   4.555   3.384   4.543
 2154TIP3    H1 6426   4.482   3.323   4.536
 2154TIP3    H2 6427   4.632   3.329   4.550
 2155TIP3   OH2 6428   4.265   4.241   3.307
 2155TIP3    H1 6429   4.231   4.229   3.219
 2155TIP3    H2 6430   4.356   4.268   3.294
 2156TIP3   OH2 6431   1.525   6.410   5.591
 2156TIP3    H1 6432   1.539   6.384   5.682
 2156TIP3    H2 6433   1.460   6.480   5.596
 2157TIP3   OH2 6434   3.931   4.231   5.627
 2157TIP3    H1 6435   3.983   4.151   5.635
 2157TIP3    H2 6436   3.841   4.202   5.639
 2158TIP3   OH2 6437   1.535   1.968   2.870
 2158TIP3    H1 6438   1.545   2.008   2.956
 2158TIP3    H2 6439   1.522   2.042   2.811
 2159TIP3   OH2 6440   1.419   6.595   2.361
 2159TIP3    H1 6441   1.501   6.601   2.312
 2159TIP3    H2 6442   1.418   6.505   2.395
 2160TIP3   OH2 6443   6.527   2.634   4.557
 2160TIP3    H1 6444   6.489   2.712   4.598
 2160TIP3    H2 6445   6.457   2.568   4.561
 2161TIP3   OH2 6446   0.970   1.478   1.478
 2161TIP3    H1 6447   0.922   1.431   1.409
 2161TIP3    H2 6448   0.986   1.564   1.441
 2162TIP3   OH2 6449   4.483   5.845   0.429
 2162TIP3    H1 6450   4.464   5.809   0.516
 2162TIP3    H2 6451   4.575   5.870   0.433
 2163TIP3   OH2 6452   5.444   3.768   0.968
 2163TIP3    H1 6453   5.378   3.709   1.005
 2163TIP3    H2 6454   5.516   3.766   1.031
 2164TIP3   OH2 6455   0.451   6.658   1.401
 2164TIP3    H1 6456   0.519   6.667   1.467
 2164TIP3    H2 6457   0.490   6.695   1.321
 2165TIP3   OH2 6458   3.757   4.548   4.182
 2165TIP3    H1 6459   3.781   4.640   4.187
 2165TIP3    H2 6460   3.839   4.501   4.197
 2166TIP3   OH2 6461   2.842   3.274   2.821
 2166TIP3    H1 6462   2.923   3.254   2.775
 2166TIP3    H2 6463   2.834   3.206   2.887
 2167TIP3   OH2 6464   3.220   1.983   5.733
 2167TIP3    H1 6465   3.271   1.902   5.732
 2167TIP3    H2 6466   3.171   1.981   5.650
 2168TIP3   OH2 6467   4.734   0.899   0.631
 2168TIP3    H1 6468   4.643   0.899   0.599
 2168TIP3    H2 6469   4.746   0.987   0.665
 2169TIP3   OH2 6470   2.162   3.585   3.619
 2169TIP3    H1 6471   2.097   3.516   3.632
 2169TIP3    H2 6472   2.241   3.539   3.590
 2170TIP3   OH2 6473   0.900   3.323   2.654
 2170TIP3    H1 6474   0.836   3.335   2.583
 2170TIP3    H2 6475   0.984   3.313   2.609
 2171TIP3   OH2 6476   0.615   2.285   5.580
 2171TIP3    H1 6477   0.579   2.273   5.668
 2171TIP3    H2 6478   0.682   2.217   5.573
 2172TIP3   OH2 6479   3.551   1.143   3.179
 2172TIP3    H1 6480   3.637   1.102   3.177
 2172TIP3    H2 6481   3.497   1.084   3.231
 2173TIP3   OH2 6482   1.900  -0.021   4.633
 2173TIP3    H1 6483   1.882   0.054   4.690
 2173TIP3    H2 6484   1.814  -0.048   4.601
 2174TIP3   OH2 6485   1.466   5.268   1.635
 2174TIP3    H1 6486   1.528   5.257   1.708
 2174TIP3    H2 6487   1.453   5.362   1.629
 2175TIP3   OH2 6488   6.967   2.514   3.920
 2175TIP3    H1 6489   7.016   2.589   3.885
 2175TIP3    H2 6490   6.988   2.514   4.013
 2176TIP3   OH2 6491   6.304   2.961   1.168
 2176TIP3    H1 6492   6.239   3.007   1.222
 2176TIP3    H2 6493   6.367   2.926   1.231
 2177TIP3   OH2 6494   1.046   2.002   3.544
 2177TIP3    H1 6495   1.126   2.045   3.574
 2177TIP3    H2 6496   0.976   2.062   3.570
 2178TIP3   OH2 6497   2.676   6.657   3.592
 2178TIP3    H1 6498   2.613   6.680   3.524
 2178TIP3    H2 6499   2.703   6.741   3.629
 2179TIP3   OH2 6500   3.298   0.063   1.226
 2179TIP3    H1 6501   3.362   0.056   1.155
 2179TIP3    H2 6502   3.332   0.132   1.283
 2180TIP3   OH2 6503   3.361  -0.014   3.571
 2180TIP3    H1 6504   3.269  -0.040   3.576
 2180TIP3    H2 6505   3.359   0.079   3.549
 2181TIP3   OH2 6506   0.125   0.660   3.855
 2181TIP3    H1 6507   0.183   0.685   3.783
 2181TIP3    H2 6508   0.065   0.597   3.816
 2182TIP3   OH2 6509   4.870   2.013   4.517
 2182TIP3    H1 6510   4.839   2.053   4.436
 2182TIP3    H2 6511   4.897   1.925   4.491
 2183TIP3   OH2 6512   3.236   0.553   4.927
 2183TIP3    H1 6513   3.297   0.626   4.917
 2183TIP3    H2 6514   3.151   0.590   4.901
 2184TIP3   OH2 6515   2.693   1.489   2.112
 2184TIP3    H1 6516   2.699   1.580   2.141
 2184TIP3    H2 6517   2.608   1.459   2.146
 2185TIP3   OH2 6518   3.720   3.956   0.108
 2185TIP3    H1 6519   3.651   3.893   0.125
 2185TIP3    H2 6520   3.774   3.956   0.187
 2186TIP3   OH2 6521   5.810   4.988   3.949
 2186TIP3    H1 6522   5.884   5.048   3.953
 2186TIP3    H2 6523   5.850   4.901   3.954
 2187TIP3   OH2 6524   2.405   0.428   3.182
 2187TIP3    H1 6525   2.433   0.471   3.101
 2187TIP3    H2 6526   2.313   0.451   3.191
 2188TIP3   OH2 6527   7.020   3.400   0.760
 2188TIP3    H1 6528   7.110   3.410   0.729
 2188TIP3    H2 6529   6.966   3.435   0.689
 2189TIP3   OH2 6530   5.801   6.782   3.433
 2189TIP3    H1 6531   5.822   6.749   3.346
 2189TIP3    H2 6532   5.796   6.704   3.488
 2190TIP3   OH2 6533   5.749   4.507   3.485
 2190TIP3    H1 6534   5.827   4.552   3.452
 2190TIP3    H2 6535   5.688   4.577   3.509
 2191TIP3   OH2 6536   5.357   0.120   4.399
 2191TIP3    H1 6537   5.382   0.097   4.309
 2191TIP3    H2 6538   5.347   0.035   4.442
 2192TIP3   OH2 6539   7.118   0.411   2.904
 2192TIP3    H1 6540   7.196   0.411   2.848
 2192TIP3    H2 6541   7.082   0.323   2.895
 2193TIP3   OH2 6542   0.011   1.858   1.788
 2193TIP3    H1 6543   0.063   1.936   1.768
 2193TIP3    H2 6544  -0.003   1.817   1.703
 2194TIP3   OH2 6545   4.786   0.285   5.698
 2194TIP3    H1 6546   4.850   0.327   5.755
 2194TIP3    H2 6547   4.706   0.337   5.708
 2195TIP3   OH2 6548   0.261   5.799   1.172
 2195TIP3    H1 6549   0.224   5.854   1.241
 2195TIP3    H2 6550   0.316   5.736   1.219
 2196TIP3   OH2 6551   2.090   3.475   3.170
 2196TIP3    H1 6552   2.076   3.394   3.219
 2196TIP3    H2 6553   2.088   3.447   3.078
 2197TIP3   OH2 6554   4.991   2.601   3.275
 2197TIP3    H1 6555   4.999   2.679   3.330
 2197TIP3    H2 6556   5.030   2.627   3.192
 2198TIP3   OH2 6557   5.210   3.708   2.047
 2198TIP3    H1 6558   5.296   3.671   2.024
 2198TIP3    H2 6559   5.231   3.790   2.091
 2199TIP3   OH2 6560   1.145   1.631   3.112
 2199TIP3    H1 6561   1.194   1.625   3.194
 2199TIP3    H2 6562   1.180   1.561   3.058
 2200TIP3   OH2 6563   0.289   3.163   4.747
 2200TIP3    H1 6564   0.300   3.075   4.712
 2200TIP3    H2 6565   0.378   3.194   4.762
 2201TIP3   OH2 6566   6.076   4.602   2.903
 2201TIP3    H1 6567   6.045   4.680   2.857
 2201TIP3    H2 6568   6.013   4.589   2.974
 2202TIP3   OH2 6569   1.562   6.405   4.697
 2202TIP3    H1 6570   1.559   6.309   4.696
 2202TIP3    H2 6571   1.587   6.427   4.787
 2203TIP3   OH2 6572   3.501   6.435   3.496
 2203TIP3    H1 6573   3.491   6.476   3.411
 2203TIP3    H2 6574   3.504   6.508   3.558
 2204TIP3   OH2 6575   3.286   2.820   2.963
 2204TIP3    H1 6576   3.305   2.807   2.870
 2204TIP3    H2 6577   3.213   2.760   2.981
 2205TIP3   OH2 6578   3.094   1.920   1.656
 2205TIP3    H1 6579   3.123   1.904   1.566
 2205TIP3    H2 6580   3.163   1.882   1.710
 2206TIP3   OH2 6581   5.162   1.882   1.530
 2206TIP3    H1 6582   5.201   1.802   1.567
 2206TIP3    H2 6583   5.074   1.884   1.567
 2207TIP3   OH2 6584   0.573   0.820   3.649
 2207TIP3    H1 6585   0.596   0.811   3.556
 2207TIP3    H2 6586   0.620   0.898   3.678
 2208TIP3   OH2 6587   5.775   6.041   0.990
 2208TIP3    H1 6588   5.829   6.032   1.069
 2208TIP3    H2 6589   5.822   5.992   0.923
 2209TIP3   OH2 6590   5.771   2.110   5.308
 2209TIP3    H1 6591   5.850   2.159   5.330
 2209TIP3    H2 6592   5.700   2.161   5.347
 2210TIP3   OH2 6593   0.300   5.893   5.667
 2210TIP3    H1 6594   0.286   5.940   5.749
 2210TIP3    H2 6595   0.250   5.942   5.602
 2211TIP3   OH2 6596   4.490   4.339   3.850
 2211TIP3    H1 6597   4.437   4.384   3.784
 2211TIP3    H2 6598   4.474   4.246   3.834
 2212TIP3   OH2 6599   6.843   2.122   5.326
 2212TIP3    H1 6600   6.760   2.165   5.308
 2212TIP3    H2 6601   6.821   2.029   5.332
 2213TIP3   OH2 6602   6.878   1.876   3.113
 2213TIP3    H1 6603   6.828   1.873   3.032
 2213TIP3    H2 6604   6.816   1.910   3.178
 2214TIP3   OH2 6605   2.073   1.891   2.066
 2214TIP3    H1 6606   2.104   1.906   2.155
 2214TIP3    H2 6607   2.058   1.796   2.062
 2215TIP3   OH2 6608   0.962   2.834   4.244
 2215TIP3    H1 6609   1.013   2.915   4.242
 2215TIP3    H2 6610   0.922   2.829   4.157
 2216TIP3   OH2 6611   5.643   1.659   4.474
 2216TIP3    H1 6612   5.660   1.566   4.485
 2216TIP3    H2 6613   5.663   1.698   4.559
 2217TIP3   OH2 6614   5.788   1.900   3.769
 2217TIP3    H1 6615   5.745   1.842   3.706
 2217TIP3    H2 6616   5.802   1.846   3.846
 2218TIP3   OH2 6617   4.369   1.768   4.239
 2218TIP3    H1 6618   4.317   1.847   4.222
 2218TIP3    H2 6619   4.460   1.798   4.234
 2219TIP3   OH2 6620   2.666   1.085   4.214
 2219TIP3    H1 6621   2.732   1.136   4.167
 2219TIP3    H2 6622   2.710   1.001   4.233
 2220TIP3   OH2 6623   5.776   1.972   0.435
 2220TIP3    H1 6624   5.779   1.990   0.341
 2220TIP3    H2 6625   5.688   1.937   0.450
 2221TIP3   OH2 6626   5.872   5.086   2.242
 2221TIP3    H1 6627   5.946   5.025   2.241
 2221TIP3    H2 6628   5.795   5.030   2.239
 2222TIP3   OH2 6629   2.996   1.279   5.138
 2222TIP3    H1 6630   3.075   1.307   5.091
 2222TIP3    H2 6631   3.029   1.245   5.221
 2223TIP3   OH2 6632   5.282   4.202   2.893
 2223TIP3    H1 6633   5.285   4.233   2.802
 2223TIP3    H2 6634   5.215   4.255   2.935
 2224TIP3   OH2 6635   3.997   3.261   1.930
 2224TIP3    H1 6636   3.995   3.169   1.955
 2224TIP3    H2 6637   4.009   3.308   2.012
 2225TIP3   OH2 6638   0.360   4.660   4.028
 2225TIP3    H1 6639   0.346   4.566   4.024
 2225TIP3    H2 6640   0.277   4.698   3.998
 2226TIP3   OH2 6641   6.606   6.038   0.563
 2226TIP3    H1 6642   6.528   6.093   0.571
 2226TIP3    H2 6643   6.661   6.064   0.636
 2227TIP3   OH2 6644   5.620   0.112   4.563
 2227TIP3    H1 6645   5.604   0.070   4.478
 2227TIP3    H2 6646   5.611   0.206   4.545
 2228TIP3   OH2 6647   5.259   6.094   3.426
 2228TIP3    H1 6648   5.299   6.177   3.399
 2228TIP3    H2 6649   5.197   6.118   3.494
 2229TIP3   OH2 6650   3.848   5.874   2.061
 2229TIP3    H1 6651   3.923   5.828   2.099
 2229TIP3    H2 6652   3.846   5.844   1.970
 2230TIP3   OH2 6653   2.271   5.582   2.679
 2230TIP3    H1 6654   2.300   5.492   2.693
 2230TIP3    H2 6655   2.202   5.575   2.613
 2231TIP3   OH2 6656   3.202   4.421   2.238
 2231TIP3    H1 6657   3.164   4.407   2.325
 2231TIP3    H2 6658   3.170   4.507   2.212
 2232TIP3   OH2 6659   6.967   6.412   3.238
 2232TIP3    H1 6660   6.944   6.404   3.145
 2232TIP3    H2 6661   6.921   6.339   3.280
 2233TIP3   OH2 6662   5.327   0.367   5.781
 2233TIP3    H1 6663   5.316   0.396   5.690
 2233TIP3    H2 6664   5.356   0.445   5.827
 2234TIP3   OH2 6665   6.065   1.721   0.557
 2234TIP3    H1 6666   6.122   1.794   0.533
 2234TIP3    H2 6667   5.981   1.762   0.578
 2235TIP3   OH2 6668   3.078   3.231   2.994
 2235TIP3    H1 6669   3.164   3.231   2.952
 2235TIP3    H2 6670   3.065   3.140   3.023
 2236TIP3   OH2 6671   6.500   1.244   3.711
 2236TIP3    H1 6672   6.433   1.217   3.774
 2236TIP3    H2 6673   6.499   1.176   3.644
 2237TIP3   OH2 6674   1.987   3.038   4.091
 2237TIP3    H1 6675   1.913   2.978   4.089
 2237TIP3    H2 6676   1.963   3.108   4.030
 2238TIP3   OH2 6677   0.906   6.001   1.540
 2238TIP3    H1 6678   0.903   5.957   1.456
 2238TIP3    H2 6679   0.814   6.013   1.564
 2239TIP3   OH2 6680   0.277   2.252   5.295
 2239TIP3    H1 6681   0.206   2.189   5.280
 2239TIP3    H2 6682   0.350   2.198   5.324
 2240TIP3   OH2 6683   5.226   3.859   3.826
 2240TIP3    H1 6684   5.253   3.794   3.890
 2240TIP3    H2 6685   5.287   3.933   3.840
 2241TIP3   OH2 6686   5.689   2.524   5.088
 2241TIP3    H1 6687   5.784   2.536   5.084
 2241TIP3    H2 6688   5.677   2.430   5.072
 2242TIP3   OH2 6689   1.292   3.715   0.165
 2242TIP3    H1 6690   1.313   3.702   0.257
 2242TIP3    H2 6691   1.374   3.697   0.119
 2243TIP3   OH2 6692   5.817   4.630   4.926
 2243TIP3    H1 6693   5.803   4.557   4.986
 2243TIP3    H2 6694   5.903   4.665   4.950
 2244TIP3   OH2 6695   3.633   3.570   3.375
 2244TIP3    H1 6696   3.585   3.627   3.316
 2244TIP3    H2 6697   3.690   3.629   3.425
 2245TIP3   OH2 6698   3.586   4.800   1.060
 2245TIP3    H1 6699   3.634   4.727   1.022
 2245TIP3    H2 6700   3.494   4.780   1.042
 2246TIP3   OH2 6701   1.987   6.763   2.129
 2246TIP3    H1 6702   1.924   6.735   2.062
 2246TIP3    H2 6703   1.992   6.858   2.120
 2247TIP3   OH2 6704   2.655   3.398   2.644
 2247TIP3    H1 6705   2.731   3.362   2.690
 2247TIP3    H2 6706   2.675   3.492   2.636
 2248TIP3   OH2 6707   2.876   0.456   0.160
 2248TIP3    H1 6708   2.907   0.530   0.213
 2248TIP3    H2 6709   2.838   0.395   0.224
 2249TIP3   OH2 6710   6.561   1.299   5.869
 2249TIP3    H1 6711   6.508   1.222   5.845
 2249TIP3    H2 6712   6.530   1.324   5.956
 2250TIP3   OH2 6713   3.527   1.413   2.953
 2250TIP3    H1 6714   3.466   1.427   3.025
 2250TIP3    H2 6715   3.599   1.364   2.992
 2251TIP3   OH2 6716   0.149   5.899   3.541
 2251TIP3    H1 6717   0.214   5.932   3.603
 2251TIP3    H2 6718   0.175   5.936   3.457
 2252TIP3   OH2 6719   5.187   1.208   5.167
 2252TIP3    H1 6720   5.248   1.193   5.239
 2252TIP3    H2 6721   5.241   1.198   5.088
 2253TIP3   OH2 6722   4.192   1.418   2.651
 2253TIP3    H1 6723   4.155   1.414   2.739
 2253TIP3    H2 6724   4.287   1.417   2.664
 2254TIP3   OH2 6725   1.603   0.907   2.899
 2254TIP3    H1 6726   1.597   0.887   2.806
 2254TIP3    H2 6727   1.535   0.854   2.940
 2255TIP3   OH2 6728   7.102   0.876   3.201
 2255TIP3    H1 6729   7.168   0.938   3.169
 2255TIP3    H2 6730   7.100   0.807   3.134
 2256TIP3   OH2 6731   3.277   4.600   3.615
 2256TIP3    H1 6732   3.283   4.505   3.631
 2256TIP3    H2 6733   3.271   4.639   3.702
 2257TIP3   OH2 6734   0.714   4.037   1.673
 2257TIP3    H1 6735   0.691   4.101   1.606
 2257TIP3    H2 6736   0.655   3.964   1.658
 2258TIP3   OH2 6737   0.117   3.593   1.920
 2258TIP3    H1 6738   0.137   3.499   1.911
 2258TIP3    H2 6739   0.118   3.627   1.831
 2259TIP3   OH2 6740   3.200   3.507   1.347
 2259TIP3    H1 6741   3.105   3.512   1.343
 2259TIP3    H2 6742   3.219   3.445   1.418
 2260TIP3   OH2 6743   4.594   2.075   5.097
 2260TIP3    H1 6744   4.544   2.004   5.137
 2260TIP3    H2 6745   4.680   2.037   5.079
 2261TIP3   OH2 6746   0.894   5.101   2.465
 2261TIP3    H1 6747   0.947   5.179   2.448
 2261TIP3    H2 6748   0.833   5.097   2.391
 2262TIP3   OH2 6749   6.855   4.288   5.733
 2262TIP3    H1 6750   6.848   4.340   5.654
 2262TIP3    H2 6751   6.918   4.219   5.711
 2263TIP3   OH2 6752   1.636   3.440   1.593
 2263TIP3    H1 6753   1.667   3.458   1.504
 2263TIP3    H2 6754   1.550   3.481   1.597
 2264TIP3   OH2 6755   1.261   3.959   0.001
 2264TIP3    H1 6756   1.252   3.915  -0.084
 2264TIP3    H2 6757   1.243   3.891   0.065
 2265TIP3   OH2 6758   5.006   2.366   3.439
 2265TIP3    H1 6759   5.042   2.429   3.377
 2265TIP3    H2 6760   4.912   2.368   3.424
 2266TIP3   OH2 6761   2.001   4.424   2.094
 2266TIP3    H1 6762   1.943   4.463   2.160
 2266TIP3    H2 6763   2.033   4.499   2.043
 2267TIP3   OH2 6764   6.883   3.586   2.084
 2267TIP3    H1 6765   6.937   3.535   2.143
 2267TIP3    H2 6766   6.906   3.555   1.996
 2268TIP3   OH2 6767   1.354   6.387   2.117
 2268TIP3    H1 6768   1.401   6.340   2.187
 2268TIP3    H2 6769   1.261   6.376   2.140
 2269TIP3   OH2 6770   2.440   1.016   5.370
 2269TIP3    H1 6771   2.390   1.085   5.326
 2269TIP3    H2 6772   2.507   1.062   5.419
 2270TIP3   OH2 6773   2.797   4.543   5.136
 2270TIP3    H1 6774   2.786   4.493   5.056
 2270TIP3    H2 6775   2.787   4.634   5.110
 2271TIP3   OH2 6776   4.400   6.012   4.431
 2271TIP3    H1 6777   4.452   6.013   4.511
 2271TIP3    H2 6778   4.342   6.088   4.438
 2272TIP3   OH2 6779   2.707   3.390   0.135
 2272TIP3    H1 6780   2.644   3.319   0.151
 2272TIP3    H2 6781   2.776   3.350   0.082
 2273TIP3   OH2 6782   5.642   5.809   0.688
 2273TIP3    H1 6783   5.622   5.895   0.651
 2273TIP3    H2 6784   5.628   5.748   0.616
 2274TIP3   OH2 6785   7.098   2.622   1.543
 2274TIP3    H1 6786   7.141   2.540   1.566
 2274TIP3    H2 6787   7.022   2.626   1.601
 2275TIP3   OH2 6788   3.157   5.466   5.525
 2275TIP3    H1 6789   3.162   5.399   5.593
 2275TIP3    H2 6790   3.215   5.433   5.456
 2276TIP3   OH2 6791   4.150   6.218   2.615
 2276TIP3    H1 6792   4.183   6.138   2.656
 2276TIP3    H2 6793   4.083   6.187   2.554
 2277TIP3   OH2 6794   1.386   2.324   0.311
 2277TIP3    H1 6795   1.433   2.290   0.235
 2277TIP3    H2 6796   1.333   2.251   0.342
 2278TIP3   OH2 6797   7.070   1.481   3.390
 2278TIP3    H1 6798   7.089   1.571   3.415
 2278TIP3    H2 6799   7.125   1.466   3.313
 2279TIP3   OH2 6800   1.415   5.693   2.528
 2279TIP3    H1 6801   1.397   5.738   2.611
 2279TIP3    H2 6802   1.343   5.632   2.518
 2280TIP3   OH2 6803   3.721   5.914   0.660
 2280TIP3    H1 6804   3.733   5.867   0.578
 2280TIP3    H2 6805   3.794   5.975   0.664
 2281TIP3   OH2 6806   2.648   1.915   1.610
 2281TIP3    H1 6807   2.580   1.972   1.573
 2281TIP3    H2 6808   2.692   1.970   1.675
 2282TIP3   OH2 6809   6.033   6.679   4.858
 2282TIP3    H1 6810   6.025   6.703   4.950
 2282TIP3    H2 6811   5.972   6.607   4.846
 2283TIP3   OH2 6812   3.526   3.027   0.147
 2283TIP3    H1 6813   3.488   3.111   0.169
 2283TIP3    H2 6814   3.620   3.045   0.138
 2284TIP3   OH2 6815   2.060   6.501   0.437
 2284TIP3    H1 6816   1.978   6.540   0.468
 2284TIP3    H2 6817   2.038   6.410   0.419
 2285TIP3   OH2 6818   0.638   4.220   5.772
 2285TIP3    H1 6819   0.611   4.246   5.684
 2285TIP3    H2 6820   0.561   4.235   5.826
 2286TIP3   OH2 6821   6.431   4.406   2.332
 2286TIP3    H1 6822   6.442   4.355   2.252
 2286TIP3    H2 6823   6.519   4.441   2.349
 2287TIP3   OH2 6824   4.847   6.458   1.652
 2287TIP3    H1 6825   4.909   6.420   1.715
 2287TIP3    H2 6826   4.763   6.420   1.675
 2288TIP3   OH2 6827   4.887   0.330   4.439
 2288TIP3    H1 6828   4.860   0.360   4.352
 2288TIP3    H2 6829   4.808   0.340   4.492
 2289TIP3   OH2 6830   6.997   5.179   1.249
 2289TIP3    H1 6831   7.039   5.243   1.191
 2289TIP3    H2 6832   6.961   5.113   1.190
 2290TIP3   OH2 6833   0.615   0.551   0.545
 2290TIP3    H1 6834   0.543   0.493   0.523
 2290TIP3    H2 6835   0.659   0.509   0.619
 2291TIP3   OH2 6836   2.236   2.295   2.621
 2291TIP3    H1 6837   2.269   2.290   2.711
 2291TIP3    H2 6838   2.228   2.389   2.604
 2292TIP3   OH2 6839   3.778   1.576   3.290
 2292TIP3    H1 6840   3.688   1.560   3.261
 2292TIP3    H2 6841   3.824   1.495   3.271
 2293TIP3   OH2 6842   1.040   3.596   1.519
 2293TIP3    H1 6843   0.983   3.673   1.527
 2293TIP3    H2 6844   1.058   3.570   1.609
 2294TIP3   OH2 6845   0.515   5.296   5.781
 2294TIP3    H1 6846   0.494   5.203   5.782
 2294TIP3    H2 6847   0.555   5.313   5.866
 2295TIP3   OH2 6848   0.339   0.531   0.249
 2295TIP3    H1 6849   0.377   0.464   0.306
 2295TIP3    H2 6850   0.278   0.482   0.193
 2296TIP3   OH2 6851   6.994   6.098   1.829
 2296TIP3    H1 6852   6.939   6.139   1.763
 2296TIP3    H2 6853   7.034   6.023   1.785
 2297TIP3   OH2 6854   0.499   0.976   0.916
 2297TIP3    H1 6855   0.523   0.898   0.865
 2297TIP3    H2 6856   0.512   1.049   0.855
 2298TIP3   OH2 6857   3.199   6.719   3.039
 2298TIP3    H1 6858   3.203   6.809   3.008
 2298TIP3    H2 6859   3.227   6.724   3.130
 2299TIP3   OH2 6860   7.056   4.848   4.003
 2299TIP3    H1 6861   6.962   4.860   4.014
 2299TIP3    H2 6862   7.095   4.924   4.048
 2300TIP3   OH2 6863   1.321   0.372   5.287
 2300TIP3    H1 6864   1.240   0.408   5.322
 2300TIP3    H2 6865   1.389   0.404   5.346
 2301TIP3   OH2 6866   1.097   2.568   3.870
 2301TIP3    H1 6867   1.161   2.613   3.925
 2301TIP3    H2 6868   1.015   2.575   3.918
 2302TIP3   OH2 6869   2.897   0.115   3.892
 2302TIP3    H1 6870   2.829   0.109   3.959
 2302TIP3    H2 6871   2.951   0.037   3.906
 2303TIP3   OH2 6872   5.410   2.982   1.763
 2303TIP3    H1 6873   5.448   2.896   1.747
 2303TIP3    H2 6874   5.462   3.042   1.710
 2304TIP3   OH2 6875   0.626   6.314   0.181
 2304TIP3    H1 6876   0.579   6.230   0.181
 2304TIP3    H2 6877   0.638   6.334   0.274
 2305TIP3   OH2 6878   3.828   5.802   4.768
 2305TIP3    H1 6879   3.867   5.760   4.845
 2305TIP3    H2 6880   3.829   5.895   4.788
 2306TIP3   OH2 6881   6.690   4.047   1.650
 2306TIP3    H1 6882   6.714   4.123   1.703
 2306TIP3    H2 6883   6.771   3.996   1.642
 2307TIP3   OH2 6884   5.559   2.667   0.687
 2307TIP3    H1 6885   5.608   2.602   0.738
 2307TIP3    H2 6886   5.625   2.709   0.632
 2308TIP3   OH2 6887   6.723   4.211   0.097
 2308TIP3    H1 6888   6.634   4.199   0.131
 2308TIP3    H2 6889   6.780   4.174   0.164
 2309TIP3   OH2 6890   5.143   5.232   2.320
 2309TIP3    H1 6891   5.147   5.291   2.396
 2309TIP3    H2 6892   5.058   5.250   2.280
 2310TIP3   OH2 6893   1.393   3.512   1.900
 2310TIP3    H1 6894   1.461   3.570   1.864
 2310TIP3    H2 6895   1.311   3.555   1.877
 2311TIP3   OH2 6896   2.751   0.978   0.885
 2311TIP3    H1 6897   2.791   1.026   0.958
 2311TIP3    H2 6898   2.657   0.991   0.897
 2312TIP3   OH2 6899   6.486   6.487   1.324
 2312TIP3    H1 6900   6.524   6.502   1.411
 2312TIP3    H2 6901   6.439   6.568   1.304
 2313TIP3   OH2 6902   0.986   1.293   1.763
 2313TIP3    H1 6903   1.057   1.329   1.711
 2313TIP3    H2 6904   0.915   1.278   1.701
 2314TIP3   OH2 6905   6.058   1.161   4.689
 2314TIP3    H1 6906   6.089   1.173   4.599
 2314TIP3    H2 6907   6.023   1.246   4.714
 2315TIP3   OH2 6908   7.222   1.199   2.942
 2315TIP3    H1 6909   7.188   1.142   2.873
 2315TIP3    H2 6910   7.146   1.250   2.971
 2316TIP3   OH2 6911   0.862   3.349   1.362
 2316TIP3    H1 6912   0.890   3.265   1.397
 2316TIP3    H2 6913   0.926   3.412   1.396
 2317TIP3   OH2 6914   5.608   5.096   5.404
 2317TIP3    H1 6915   5.612   5.192   5.399
 2317TIP3    H2 6916   5.676   5.066   5.344
 2318TIP3   OH2 6917   4.004   3.509   3.290
 2318TIP3    H1 6918   4.089   3.471   3.266
 2318TIP3    H2 6919   4.015   3.535   3.381
 2319TIP3   OH2 6920   3.638   1.671   1.031
 2319TIP3    H1 6921   3.699   1.659   1.104
 2319TIP3    H2 6922   3.693   1.698   0.957
 2320TIP3   OH2 6923   2.585   6.334   3.454
 2320TIP3    H1 6924   2.590   6.370   3.543
 2320TIP3    H2 6925   2.555   6.408   3.401
 2321TIP3   OH2 6926   2.199   3.464   1.618
 2321TIP3    H1 6927   2.177   3.442   1.709
 2321TIP3    H2 6928   2.292   3.439   1.610
 2322TIP3   OH2 6929   2.437   6.121   3.391
 2322TIP3    H1 6930   2.417   6.115   3.298
 2322TIP3    H2 6931   2.497   6.195   3.398
 2323TIP3   OH2 6932   2.740   1.860   1.029
 2323TIP3    H1 6933   2.761   1.776   0.986
 2323TIP3    H2 6934   2.799   1.923   0.987
 2324TIP3   OH2 6935   3.318   4.223   0.258
 2324TIP3    H1 6936   3.299   4.291   0.193
 2324TIP3    H2 6937   3.407   4.194   0.239
 2325TIP3   OH2 6938   4.257   3.206   2.822
 2325TIP3    H1 6939   4.262   3.301   2.817
 2325TIP3    H2 6940   4.255   3.186   2.915
 2326TIP3   OH2 6941   1.236   3.466   4.154
 2326TIP3    H1 6942   1.142   3.453   4.139
 2326TIP3    H2 6943   1.276   3.442   4.070
 2327TIP3   OH2 6944   1.282   5.060   4.806
 2327TIP3    H1 6945   1.196   5.054   4.765
 2327TIP3    H2 6946   1.300   4.972   4.838
 2328TIP3   OH2 6947   5.095   5.881   0.396
 2328TIP3    H1 6948   5.041   5.836   0.460
 2328TIP3    H2 6949   5.066   5.848   0.311
 2329TIP3   OH2 6950   6.673   1.502   5.735
 2329TIP3    H1 6951   6.599   1.561   5.722
 2329TIP3    H2 6952   6.636   1.427   5.781
 2330TIP3   OH2 6953   6.511   4.750   3.943
 2330TIP3    H1 6954   6.442   4.789   3.997
 2330TIP3    H2 6955   6.579   4.816   3.940
 2331TIP3   OH2 6956   6.550   1.435   5.300
 2331TIP3    H1 6957   6.485   1.429   5.370
 2331TIP3    H2 6958   6.530   1.518   5.255
 2332TIP3   OH2 6959   0.782   5.249   3.447
 2332TIP3    H1 6960   0.858   5.255   3.505
 2332TIP3    H2 6961   0.813   5.283   3.363
 2333TIP3   OH2 6962   1.736   6.422   2.680
 2333TIP3    H1 6963   1.653   6.386   2.711
 2333TIP3    H2 6964   1.755   6.371   2.601
 2334TIP3   OH2 6965   4.519   5.910   1.444
 2334TIP3    H1 6966   4.433   5.953   1.448
 2334TIP3    H2 6967   4.508   5.836   1.385
 2335TIP3   OH2 6968   4.270   2.345   0.584
 2335TIP3    H1 6969   4.321   2.380   0.511
 2335TIP3    H2 6970   4.205   2.412   0.603
 2336TIP3   OH2 6971   0.446   2.164   2.861
 2336TIP3    H1 6972   0.502   2.241   2.850
 2336TIP3    H2 6973   0.383   2.189   2.928
 2337TIP3   OH2 6974   2.609   0.045   1.418
 2337TIP3    H1 6975   2.686  -0.012   1.415
 2337TIP3    H2 6976   2.586   0.059   1.326
 2338TIP3   OH2 6977   3.813   1.029   1.439
 2338TIP3    H1 6978   3.721   1.005   1.431
 2338TIP3    H2 6979   3.842   1.042   1.348
 2339TIP3   OH2 6980   2.123   6.020   4.842
 2339TIP3    H1 6981   2.103   5.930   4.868
 2339TIP3    H2 6982   2.069   6.074   4.900
 2340TIP3   OH2 6983   3.431   5.203   2.245
 2340TIP3    H1 6984   3.442   5.134   2.311
 2340TIP3    H2 6985   3.369   5.264   2.285
 2341TIP3   OH2 6986   0.225   6.356   5.366
 2341TIP3    H1 6987   0.143   6.377   5.412
 2341TIP3    H2 6988   0.235   6.426   5.301
 2342TIP3   OH2 6989   3.408   4.097   2.337
 2342TIP3    H1 6990   3.457   4.136   2.409
 2342TIP3    H2 6991   3.329   4.060   2.378
 2343TIP3   OH2 6992   5.128   4.526   1.834
 2343TIP3    H1 6993   5.083   4.476   1.766
 2343TIP3    H2 6994   5.063   4.589   1.864
 2344TIP3   OH2 6995   0.647   1.538   1.653
 2344TIP3    H1 6996   0.735   1.565   1.679
 2344TIP3    H2 6997   0.597   1.620   1.653
 2345TIP3   OH2 6998   3.557   1.351   0.344
 2345TIP3    H1 6999   3.605   1.276   0.308
 2345TIP3    H2 7000   3.585   1.426   0.291
 2346TIP3   OH2 7001   0.607   3.699   5.154
 2346TIP3    H1 7002   0.651   3.621   5.121
 2346TIP3    H2 7003   0.529   3.666   5.198
 2347TIP3   OH2 7004   0.789   2.341   4.231
 2347TIP3    H1 7005   0.753   2.414   4.280
 2347TIP3    H2 7006   0.779   2.265   4.288
 2348TIP3   OH2 7007   6.378   5.531   3.601
 2348TIP3    H1 7008   6.387   5.619   3.565
 2348TIP3    H2 7009   6.464   5.513   3.640
 2349TIP3   OH2 7010   1.008   6.056   5.718
 2349TIP3    H1 7011   0.937   6.032   5.658
 2349TIP3    H2 7012   1.078   5.996   5.698
 2350TIP3   OH2 7013   4.436   3.314   5.680
 2350TIP3    H1 7014   4.526   3.347   5.681
 2350TIP3    H2 7015   4.441   3.233   5.630
 2351TIP3   OH2 7016   3.156   1.920   4.336
 2351TIP3    H1 7017   3.158   1.958   4.424
 2351TIP3    H2 7018   3.146   1.996   4.278
 2352TIP3   OH2 7019   2.492   0.050   4.223
 2352TIP3    H1 7020   2.459   0.029   4.136
 2352TIP3    H2 7021   2.455  -0.018   4.280
 2353TIP3   OH2 7022   1.891   4.459   4.090
 2353TIP3    H1 7023   1.796   4.452   4.081
 2353TIP3    H2 7024   1.926   4.390   4.034
 2354TIP3   OH2 7025   6.086   4.375   3.143
 2354TIP3    H1 7026   6.105   4.413   3.058
 2354TIP3    H2 7027   6.031   4.439   3.187
 2355TIP3   OH2 7028   2.304   1.737   3.950
 2355TIP3    H1 7029   2.212   1.720   3.973
 2355TIP3    H2 7030   2.354   1.696   4.020
 2356TIP3   OH2 7031   5.626   0.932   3.577
 2356TIP3    H1 7032   5.546   0.906   3.623
 2356TIP3    H2 7033   5.695   0.880   3.618
 2357TIP3   OH2 7034   3.645   1.989   0.738
 2357TIP3    H1 7035   3.687   2.065   0.696
 2357TIP3    H2 7036   3.659   1.918   0.676
 2358TIP3   OH2 7037   5.179   5.043   0.542
 2358TIP3    H1 7038   5.167   5.015   0.633
 2358TIP3    H2 7039   5.252   5.105   0.545
 2359TIP3   OH2 7040   3.914   1.048   3.986
 2359TIP3    H1 7041   3.913   1.095   4.069
 2359TIP3    H2 7042   3.964   0.969   4.004
 2360TIP3   OH2 7043   6.910   3.544   1.240
 2360TIP3    H1 7044   6.909   3.494   1.321
 2360TIP3    H2 7045   6.836   3.510   1.190
 2361TIP3   OH2 7046   3.309   1.715   2.638
 2361TIP3    H1 7047   3.323   1.806   2.667
 2361TIP3    H2 7048   3.281   1.669   2.717
 2362TIP3   OH2 7049   2.113   2.149   0.859
 2362TIP3    H1 7050   2.166   2.088   0.909
 2362TIP3    H2 7051   2.041   2.172   0.917
 2363TIP3   OH2 7052   7.205   3.528   2.730
 2363TIP3    H1 7053   7.241   3.583   2.661
 2363TIP3    H2 7054   7.123   3.570   2.754
 2364TIP3   OH2 7055   1.819   5.663   5.086
 2364TIP3    H1 7056   1.768   5.680   5.165
 2364TIP3    H2 7057   1.890   5.606   5.115
 2365TIP3   OH2 7058   3.993   2.517   2.299
 2365TIP3    H1 7059   3.941   2.436   2.294
 2365TIP3    H2 7060   4.083   2.489   2.283
 2366TIP3   OH2 7061   5.307   2.248   2.773
 2366TIP3    H1 7062   5.319   2.342   2.766
 2366TIP3    H2 7063   5.289   2.233   2.866
 2367TIP3   OH2 7064   5.897   6.382   0.256
 2367TIP3    H1 7065   5.917   6.463   0.209
 2367TIP3    H2 7066   5.880   6.410   0.346
 2368TIP3   OH2 7067   0.740   5.245   1.614
 2368TIP3    H1 7068   0.810   5.303   1.643
 2368TIP3    H2 7069   0.666   5.265   1.671
 2369TIP3   OH2 7070   6.716   4.118   4.879
 2369TIP3    H1 7071   6.695   4.033   4.841
 2369TIP3    H2 7072   6.647   4.133   4.944
 2370TIP3   OH2 7073   2.315   6.220   5.389
 2370TIP3    H1 7074   2.400   6.240   5.429
 2370TIP3    H2 7075   2.253   6.219   5.462
 2371TIP3   OH2 7076   3.325   3.650   2.031
 2371TIP3    H1 7077   3.371   3.685   2.107
 2371TIP3    H2 7078   3.255   3.596   2.068
 2372TIP3   OH2 7079   0.770   5.866   2.190
 2372TIP3    H1 7080   0.805   5.926   2.125
 2372TIP3    H2 7081   0.698   5.821   2.145
 2373TIP3   OH2 7082   7.142   0.163   4.911
 2373TIP3    H1 7083   7.205   0.098   4.940
 2373TIP3    H2 7084   7.077   0.114   4.861
 2374TIP3   OH2 7085   1.007   3.915   0.251
 2374TIP3    H1 7086   1.043   4.001   0.228
 2374TIP3    H2 7087   0.912   3.930   0.257
 2375TIP3   OH2 7088   1.596   3.861   0.407
 2375TIP3    H1 7089   1.573   3.895   0.494
 2375TIP3    H2 7090   1.513   3.829   0.371
 2376TIP3   OH2 7091   3.764   3.774   3.653
 2376TIP3    H1 7092   3.699   3.845   3.646
 2376TIP3    H2 7093   3.735   3.723   3.729
 2377TIP3   OH2 7094   6.181   1.025   2.728
 2377TIP3    H1 7095   6.249   0.968   2.694
 2377TIP3    H2 7096   6.220   1.066   2.806
 2378TIP3   OH2 7097   6.082   6.345   4.158
 2378TIP3    H1 7098   6.172   6.376   4.156
 2378TIP3    H2 7099   6.029   6.424   4.163
 2379TIP3   OH2 7100   2.491   5.052   1.606
 2379TIP3    H1 7101   2.460   5.038   1.696
 2379TIP3    H2 7102   2.431   5.117   1.570
 2380TIP3   OH2 7103   5.001   1.493   0.108
 2380TIP3    H1 7104   5.028   1.407   0.140
 2380TIP3    H2 7105   5.076   1.550   0.126
 2381TIP3   OH2 7106   3.592   0.190   3.120
 2381TIP3    H1 7107   3.680   0.227   3.113
 2381TIP3    H2 7108   3.596   0.109   3.069
 2382TIP3   OH2 7109   3.008   0.208   5.450
 2382TIP3    H1 7110   3.068   0.213   5.524
 2382TIP3    H2 7111   3.056   0.158   5.384
 2383TIP3   OH2 7112   6.902   0.693   3.336
 2383TIP3    H1 7113   6.971   0.693   3.270
 2383TIP3    H2 7114   6.886   0.786   3.353
 2384TIP3   OH2 7115   0.454   0.641   2.940
 2384TIP3    H1 7116   0.390   0.654   2.870
 2384TIP3    H2 7117   0.529   0.694   2.915
 2385TIP3   OH2 7118   6.311   3.796   5.674
 2385TIP3    H1 7119   6.245   3.865   5.674
 2385TIP3    H2 7120   6.275   3.728   5.617
 2386TIP3   OH2 7121   1.524   5.611   1.633
 2386TIP3    H1 7122   1.508   5.695   1.591
 2386TIP3    H2 7123   1.469   5.611   1.711
 2387TIP3   OH2 7124   0.434   4.847   0.398
 2387TIP3    H1 7125   0.509   4.859   0.339
 2387TIP3    H2 7126   0.459   4.773   0.453
 2388TIP3   OH2 7127   3.606   2.144   0.440
 2388TIP3    H1 7128   3.593   2.230   0.400
 2388TIP3    H2 7129   3.518   2.106   0.444
 2389TIP3   OH2 7130   1.096   2.286   3.913
 2389TIP3    H1 7131   1.109   2.378   3.890
 2389TIP3    H2 7132   1.000   2.276   3.918
 2390TIP3   OH2 7133   5.845   3.948   2.531
 2390TIP3    H1 7134   5.911   4.011   2.560
 2390TIP3    H2 7135   5.812   3.910   2.613
 2391TIP3   OH2 7136   1.980   5.126   5.209
 2391TIP3    H1 7137   1.989   5.208   5.257
 2391TIP3    H2 7138   2.066   5.110   5.171
 2392TIP3   OH2 7139   6.417   3.858   5.160
 2392TIP3    H1 7140   6.365   3.887   5.234
 2392TIP3    H2 7141   6.505   3.843   5.196
 2393TIP3   OH2 7142   2.290   3.093   3.648
 2393TIP3    H1 7143   2.239   3.057   3.720
 2393TIP3    H2 7144   2.372   3.121   3.688
 2394TIP3   OH2 7145   6.746   1.317   3.665
 2394TIP3    H1 7146   6.799   1.243   3.694
 2394TIP3    H2 7147   6.657   1.293   3.689
 2395TIP3   OH2 7148   3.260   1.258   5.789
 2395TIP3    H1 7149   3.261   1.350   5.766
 2395TIP3    H2 7150   3.174   1.244   5.830
 2396TIP3   OH2 7151   2.045   0.703   4.321
 2396TIP3    H1 7152   2.131   0.691   4.361
 2396TIP3    H2 7153   2.057   0.774   4.258
 2397TIP3   OH2 7154   3.334   1.559   5.422
 2397TIP3    H1 7155   3.275   1.523   5.357
 2397TIP3    H2 7156   3.317   1.509   5.501
 2398TIP3   OH2 7157   5.771   6.600   0.737
 2398TIP3    H1 7158   5.688   6.638   0.706
 2398TIP3    H2 7159   5.817   6.673   0.778
 2399TIP3   OH2 7160   1.273   4.760   2.286
 2399TIP3    H1 7161   1.242   4.684   2.235
 2399TIP3    H2 7162   1.366   4.766   2.265
 2400TIP3   OH2 7163   0.359   4.868   2.533
 2400TIP3    H1 7164   0.279   4.897   2.578
 2400TIP3    H2 7165   0.428   4.878   2.598
 2401TIP3   OH2 7166   4.418   2.094   0.583
 2401TIP3    H1 7167   4.351   2.161   0.595
 2401TIP3    H2 7168   4.493   2.125   0.634
 2402TIP3   OH2 7169   2.233   4.836   1.248
 2402TIP3    H1 7170   2.232   4.923   1.208
 2402TIP3    H2 7171   2.326   4.812   1.252
 2403TIP3   OH2 7172   3.289   4.817   3.172
 2403TIP3    H1 7173   3.246   4.876   3.233
 2403TIP3    H2 7174   3.259   4.846   3.085
 2404TIP3   OH2 7175   3.772   1.858   1.928
 2404TIP3    H1 7176   3.817   1.860   1.843
 2404TIP3    H2 7177   3.789   1.770   1.962
 2405TIP3   OH2 7178   4.749   1.571   0.246
 2405TIP3    H1 7179   4.777   1.626   0.319
 2405TIP3    H2 7180   4.826   1.518   0.225
 2406TIP3   OH2 7181   5.673   0.865   4.036
 2406TIP3    H1 7182   5.750   0.835   4.084
 2406TIP3    H2 7183   5.640   0.938   4.089
 2407TIP3   OH2 7184   4.000   2.138   2.701
 2407TIP3    H1 7185   4.080   2.128   2.648
 2407TIP3    H2 7186   4.027   2.191   2.776
 2408TIP3   OH2 7187   0.719   0.702   0.342
 2408TIP3    H1 7188   0.723   0.748   0.426
 2408TIP3    H2 7189   0.697   0.612   0.365
 2409TIP3   OH2 7190   4.919   1.428   4.912
 2409TIP3    H1 7191   4.856   1.366   4.875
 2409TIP3    H2 7192   4.901   1.427   5.006
 2410TIP3   OH2 7193   1.978   2.924   0.166
 2410TIP3    H1 7194   1.938   2.981   0.101
 2410TIP3    H2 7195   1.991   2.841   0.120
 2411TIP3   OH2 7196   2.635   5.224   5.719
 2411TIP3    H1 7197   2.652   5.274   5.639
 2411TIP3    H2 7198   2.544   5.243   5.741
 2412TIP3   OH2 7199   1.851   5.414   4.488
 2412TIP3    H1 7200   1.791   5.390   4.559
 2412TIP3    H2 7201   1.842   5.342   4.425
 2413TIP3   OH2 7202   6.619   5.080   3.787
 2413TIP3    H1 7203   6.557   5.148   3.815
 2413TIP3    H2 7204   6.668   5.059   3.866
 2414TIP3   OH2 7205   3.347   2.777   5.075
 2414TIP3    H1 7206   3.354   2.682   5.087
 2414TIP3    H2 7207   3.263   2.800   5.115
 2415TIP3   OH2 7208   5.956   1.663   2.501
 2415TIP3    H1 7209   6.039   1.654   2.546
 2415TIP3    H2 7210   5.941   1.758   2.495
 2416TIP3   OH2 7211   1.516   6.169   2.207
 2416TIP3    H1 7212   1.517   6.197   2.298
 2416TIP3    H2 7213   1.547   6.079   2.209
 2417TIP3   OH2 7214   0.867   5.281   4.212
 2417TIP3    H1 7215   0.787   5.231   4.198
 2417TIP3    H2 7216   0.921   5.262   4.135
 2418TIP3   OH2 7217   6.650   0.901   5.224
 2418TIP3    H1 7218   6.645   0.904   5.320
 2418TIP3    H2 7219   6.682   0.813   5.204
 2419TIP3   OH2 7220   3.153   0.479   3.030
 2419TIP3    H1 7221   3.232   0.479   2.976
 2419TIP3    H2 7222   3.116   0.392   3.018
 2420TIP3   OH2 7223   4.312   0.771   5.714
 2420TIP3    H1 7224   4.316   0.769   5.810
 2420TIP3    H2 7225   4.227   0.732   5.693
 2421TIP3   OH2 7226   3.058   3.151   4.547
 2421TIP3    H1 7227   3.072   3.148   4.452
 2421TIP3    H2 7228   3.115   3.082   4.582
 2422TIP3   OH2 7229   3.162   6.137   5.875
 2422TIP3    H1 7230   3.195   6.076   5.809
 2422TIP3    H2 7231   3.067   6.131   5.867
 2423TIP3   OH2 7232   4.021   0.447   1.195
 2423TIP3    H1 7233   3.956   0.437   1.125
 2423TIP3    H2 7234   4.104   0.424   1.155
 2424TIP3   OH2 7235   1.181   3.212   3.301
 2424TIP3    H1 7236   1.184   3.146   3.370
 2424TIP3    H2 7237   1.089   3.217   3.277
 2425TIP3   OH2 7238   3.030   1.965   4.976
 2425TIP3    H1 7239   3.000   1.922   5.056
 2425TIP3    H2 7240   3.018   2.058   4.994
 2426TIP3   OH2 7241   0.913   4.392   1.257
 2426TIP3    H1 7242   0.954   4.477   1.246
 2426TIP3    H2 7243   0.866   4.377   1.175
 2427TIP3   OH2 7244   3.703   6.196   0.905
 2427TIP3    H1 7245   3.677   6.243   0.826
 2427TIP3    H2 7246   3.788   6.158   0.882
 2428TIP3   OH2 7247   4.189   5.746   1.436
 2428TIP3    H1 7248   4.128   5.772   1.367
 2428TIP3    H2 7249   4.133   5.732   1.513
 2429TIP3   OH2 7250   6.605   0.614   3.321
 2429TIP3    H1 7251   6.699   0.624   3.306
 2429TIP3    H2 7252   6.596   0.524   3.354
 2430TIP3   OH2 7253   5.405   0.668   5.608
 2430TIP3    H1 7254   5.363   0.593   5.566
 2430TIP3    H2 7255   5.457   0.630   5.679
 2431TIP3   OH2 7256   3.213   6.133   5.037
 2431TIP3    H1 7257   3.132   6.136   4.986
 2431TIP3    H2 7258   3.201   6.060   5.097
 2432TIP3   OH2 7259   3.526   5.256   1.344
 2432TIP3    H1 7260   3.529   5.351   1.356
 2432TIP3    H2 7261   3.440   5.239   1.307
 2433TIP3   OH2 7262   6.830   4.399   0.870
 2433TIP3    H1 7263   6.857   4.405   0.778
 2433TIP3    H2 7264   6.775   4.321   0.874
 2434TIP3   OH2 7265   3.954   3.364   2.943
 2434TIP3    H1 7266   3.971   3.405   2.858
 2434TIP3    H2 7267   4.029   3.388   2.997
 2435TIP3   OH2 7268   2.368   0.260   3.390
 2435TIP3    H1 7269   2.403   0.315   3.319
 2435TIP3    H2 7270   2.432   0.189   3.399
 2436TIP3   OH2 7271   2.829   5.740   5.231
 2436TIP3    H1 7272   2.892   5.670   5.216
 2436TIP3    H2 7273   2.853   5.807   5.168
 2437TIP3   OH2 7274   1.901   4.041   3.410
 2437TIP3    H1 7275   1.965   4.070   3.345
 2437TIP3    H2 7276   1.895   3.946   3.398
 2438TIP3   OH2 7277   6.168   0.884   4.536
 2438TIP3    H1 7278   6.230   0.899   4.608
 2438TIP3    H2 7279   6.133   0.971   4.517
 2439TIP3   OH2 7280   0.732   4.066   1.227
 2439TIP3    H1 7281   0.826   4.073   1.213
 2439TIP3    H2 7282   0.696   4.147   1.190
 2440TIP3   OH2 7283   1.436   5.471   4.275
 2440TIP3    H1 7284   1.390   5.430   4.348
 2440TIP3    H2 7285   1.390   5.440   4.197
 2441TIP3   OH2 7286   3.040   5.584   4.450
 2441TIP3    H1 7287   2.992   5.562   4.370
 2441TIP3    H2 7288   3.127   5.609   4.418
 2442TIP3   OH2 7289   1.922   2.343   5.602
 2442TIP3    H1 7290   1.972   2.419   5.573
 2442TIP3    H2 7291   1.841   2.380   5.637
 2443TIP3   OH2 7292   3.013   6.121   4.344
 2443TIP3    H1 7293   2.926   6.085   4.331
 2443TIP3    H2 7294   3.056   6.112   4.259
 2444TIP3   OH2 7295   3.039   1.716   5.563
 2444TIP3    H1 7296   3.051   1.735   5.656
 2444TIP3    H2 7297   3.049   1.621   5.556
 2445TIP3   OH2 7298   2.017   4.134   4.984
 2445TIP3    H1 7299   2.043   4.186   4.908
 2445TIP3    H2 7300   2.064   4.051   4.972
 2446TIP3   OH2 7301   3.674   1.957   4.758
 2446TIP3    H1 7302   3.765   1.951   4.727
 2446TIP3    H2 7303   3.672   1.903   4.837
 2447TIP3   OH2 7304   1.744   0.158   0.985
 2447TIP3    H1 7305   1.832   0.177   1.017
 2447TIP3    H2 7306   1.735   0.063   0.995
 2448TIP3   OH2 7307   4.334   3.829   3.449
 2448TIP3    H1 7308   4.389   3.870   3.382
 2448TIP3    H2 7309   4.244   3.849   3.422
 2449TIP3   OH2 7310   4.558   1.208   2.870
 2449TIP3    H1 7311   4.483   1.224   2.927
 2449TIP3    H2 7312   4.586   1.119   2.893
 2450TIP3   OH2 7313   7.167   2.554   2.836
 2450TIP3    H1 7314   7.078   2.587   2.847
 2450TIP3    H2 7315   7.197   2.592   2.753
 2451TIP3   OH2 7316   4.419   4.994   1.831
 2451TIP3    H1 7317   4.415   4.920   1.892
 2451TIP3    H2 7318   4.512   5.017   1.829
 2452TIP3   OH2 7319   2.269   6.320   2.513
 2452TIP3    H1 7320   2.332   6.259   2.476
 2452TIP3    H2 7321   2.281   6.401   2.464
 2453TIP3   OH2 7322   4.817   4.859   2.750
 2453TIP3    H1 7323   4.755   4.789   2.772
 2453TIP3    H2 7324   4.903   4.819   2.761
 2454TIP3   OH2 7325   1.258   3.463   3.462
 2454TIP3    H1 7326   1.230   3.491   3.375
 2454TIP3    H2 7327   1.199   3.391   3.484
 2455TIP3   OH2 7328   4.275   6.754   5.358
 2455TIP3    H1 7329   4.204   6.690   5.351
 2455TIP3    H2 7330   4.318   6.751   5.272
 2456TIP3   OH2 7331   0.855   5.812   5.830
 2456TIP3    H1 7332   0.814   5.785   5.748
 2456TIP3    H2 7333   0.948   5.797   5.817
 2457TIP3   OH2 7334   6.510   4.007   5.914
 2457TIP3    H1 7335   6.425   3.965   5.900
 2457TIP3    H2 7336   6.504   4.090   5.866
 2458TIP3   OH2 7337   3.732   6.727   1.137
 2458TIP3    H1 7338   3.784   6.652   1.109
 2458TIP3    H2 7339   3.647   6.715   1.093
 2459TIP3   OH2 7340   6.118   6.401   5.618
 2459TIP3    H1 7341   6.208   6.410   5.651
 2459TIP3    H2 7342   6.081   6.489   5.623
 2460TIP3   OH2 7343   6.997   4.978   3.045
 2460TIP3    H1 7344   6.967   4.928   2.970
 2460TIP3    H2 7345   7.085   4.945   3.062
 2461TIP3   OH2 7346   2.051   1.816   1.206
 2461TIP3    H1 7347   2.044   1.768   1.289
 2461TIP3    H2 7348   1.977   1.783   1.154
 2462TIP3   OH2 7349   4.439   4.654   0.053
 2462TIP3    H1 7350   4.362   4.690   0.009
 2462TIP3    H2 7351   4.465   4.721   0.116
 2463TIP3   OH2 7352   5.512   3.140   0.684
 2463TIP3    H1 7353   5.499   3.143   0.779
 2463TIP3    H2 7354   5.572   3.067   0.670
 2464TIP3   OH2 7355   5.731   0.420   0.517
 2464TIP3    H1 7356   5.678   0.490   0.553
 2464TIP3    H2 7357   5.682   0.340   0.537
 2465TIP3   OH2 7358   5.487   3.390   2.493
 2465TIP3    H1 7359   5.568   3.342   2.513
 2465TIP3    H2 7360   5.493   3.469   2.547
 2466TIP3   OH2 7361   2.098   0.690   3.693
 2466TIP3    H1 7362   2.043   0.622   3.652
 2466TIP3    H2 7363   2.056   0.772   3.668
 2467TIP3   OH2 7364   5.800   5.364   4.522
 2467TIP3    H1 7365   5.879   5.410   4.549
 2467TIP3    H2 7366   5.828   5.311   4.447
 2468TIP3   OH2 7367   4.780   5.110   3.786
 2468TIP3    H1 7368   4.821   5.054   3.852
 2468TIP3    H2 7369   4.686   5.098   3.800
 2469TIP3   OH2 7370   6.574   5.115   4.204
 2469TIP3    H1 7371   6.479   5.128   4.212
 2469TIP3    H2 7372   6.583   5.042   4.143
 2470TIP3   OH2 7373   3.379   5.241   4.469
 2470TIP3    H1 7374   3.428   5.273   4.393
 2470TIP3    H2 7375   3.288   5.258   4.448
 2471TIP3   OH2 7376   3.637   2.674   0.293
 2471TIP3    H1 7377   3.557   2.718   0.323
 2471TIP3    H2 7378   3.613   2.634   0.209
 2472TIP3   OH2 7379   0.790   1.293   3.344
 2472TIP3    H1 7380   0.841   1.368   3.376
 2472TIP3    H2 7381   0.850   1.219   3.352
 2473TIP3   OH2 7382   5.874   2.823   2.761
 2473TIP3    H1 7383   5.796   2.847   2.811
 2473TIP3    H2 7384   5.932   2.899   2.771
 2474TIP3   OH2 7385   3.065   6.447   0.299
 2474TIP3    H1 7386   3.124   6.501   0.246
 2474TIP3    H2 7387   3.081   6.476   0.389
 2475TIP3   OH2 7388   2.021   5.792   0.653
 2475TIP3    H1 7389   1.987   5.789   0.742
 2475TIP3    H2 7390   1.997   5.707   0.615
 2476TIP3   OH2 7391   0.831   4.617   2.505
 2476TIP3    H1 7392   0.850   4.538   2.555
 2476TIP3    H2 7393   0.916   4.649   2.477
 2477TIP3   OH2 7394   5.401   4.779   0.794
 2477TIP3    H1 7395   5.319   4.747   0.758
 2477TIP3    H2 7396   5.377   4.819   0.878
 2478TIP3   OH2 7397   6.769   6.549   4.343
 2478TIP3    H1 7398   6.719   6.629   4.325
 2478TIP3    H2 7399   6.708   6.494   4.392
 2479TIP3   OH2 7400   6.636   2.412   4.380
 2479TIP3    H1 7401   6.551   2.371   4.364
 2479TIP3    H2 7402   6.618   2.481   4.443
 2480TIP3   OH2 7403   4.060   3.244   1.169
 2480TIP3    H1 7404   4.072   3.326   1.217
 2480TIP3    H2 7405   4.026   3.271   1.084
 2481TIP3   OH2 7406   0.681   0.438   2.961
 2481TIP3    H1 7407   0.618   0.506   2.982
 2481TIP3    H2 7408   0.706   0.455   2.870
 2482TIP3   OH2 7409   2.006   1.285  -0.025
 2482TIP3    H1 7410   2.075   1.229  -0.062
 2482TIP3    H2 7411   1.979   1.240   0.055
 2483TIP3   OH2 7412   5.580   2.035   1.577
 2483TIP3    H1 7413   5.526   2.044   1.498
 2483TIP3    H2 7414   5.532   2.083   1.645
 2484TIP3   OH2 7415   0.873   0.883   1.367
 2484TIP3    H1 7416   0.884   0.972   1.334
 2484TIP3    H2 7417   0.950   0.836   1.335
 2485TIP3   OH2 7418   3.408   2.517   5.059
 2485TIP3    H1 7419   3.394   2.464   4.980
 2485TIP3    H2 7420   3.445   2.456   5.123
 2486TIP3   OH2 7421   4.785   4.135   3.747
 2486TIP3    H1 7422   4.746   4.201   3.690
 2486TIP3    H2 7423   4.711   4.091   3.787
 2487TIP3   OH2 7424   0.553   2.558   3.097
 2487TIP3    H1 7425   0.581   2.467   3.104
 2487TIP3    H2 7426   0.633   2.609   3.103
 2488TIP3   OH2 7427   4.492   6.104   4.905
 2488TIP3    H1 7428   4.530   6.180   4.949
 2488TIP3    H2 7429   4.446   6.056   4.974
 2489TIP3   OH2 7430   3.192   2.845   2.156
 2489TIP3    H1 7431   3.211   2.894   2.076
 2489TIP3    H2 7432   3.151   2.910   2.215
 2490TIP3   OH2 7433   2.321   6.803   0.742
 2490TIP3    H1 7434   2.305   6.813   0.835
 2490TIP3    H2 7435   2.413   6.777   0.735
 2491TIP3   OH2 7436   2.499   5.040   4.004
 2491TIP3    H1 7437   2.556   5.103   4.048
 2491TIP3    H2 7438   2.433   5.018   4.070
 2492TIP3   OH2 7439   1.374   2.667   1.347
 2492TIP3    H1 7440   1.391   2.573   1.361
 2492TIP3    H2 7441   1.408   2.709   1.426
 2493TIP3   OH2 7442   3.205   5.045   5.432
 2493TIP3    H1 7443   3.220   4.977   5.498
 2493TIP3    H2 7444   3.238   5.125   5.472
 2494TIP3   OH2 7445   1.736   6.668   5.720
 2494TIP3    H1 7446   1.664   6.619   5.759
 2494TIP3    H2 7447   1.802   6.602   5.698
 2495TIP3   OH2 7448   1.583   0.527   2.895
 2495TIP3    H1 7449   1.657   0.577   2.860
 2495TIP3    H2 7450   1.509   0.552   2.840
 2496TIP3   OH2 7451   2.892   3.517   3.653
 2496TIP3    H1 7452   2.980   3.532   3.689
 2496TIP3    H2 7453   2.895   3.554   3.565
 2497TIP3   OH2 7454   5.929   0.134   4.976
 2497TIP3    H1 7455   5.843   0.129   5.019
 2497TIP3    H2 7456   5.908   0.150   4.884
 2498TIP3   OH2 7457   4.556   2.909   2.006
 2498TIP3    H1 7458   4.527   2.886   1.917
 2498TIP3    H2 7459   4.614   2.984   1.994
 2499TIP3   OH2 7460   5.635   4.663   2.281
 2499TIP3    H1 7461   5.640   4.670   2.377
 2499TIP3    H2 7462   5.713   4.613   2.257
 2500TIP3   OH2 7463   0.813   0.954   5.078
 2500TIP3    H1 7464   0.879   0.886   5.092
 2500TIP3    H2 7465   0.812   0.968   4.983
 2501TIP3   OH2 7466   2.393   0.772   5.218
 2501TIP3    H1 7467   2.302   0.771   5.188
 2501TIP3    H2 7468   2.405   0.859   5.255
 2502TIP3   OH2 7469   6.843   0.261   3.276
 2502TIP3    H1 7470   6.920   0.206   3.288
 2502TIP3    H2 7471   6.849   0.327   3.345
 2503TIP3   OH2 7472   6.764   2.282   2.385
 2503TIP3    H1 7473   6.801   2.259   2.470
 2503TIP3    H2 7474   6.762   2.199   2.337
 2504TIP3   OH2 7475   3.109   6.503   5.666
 2504TIP3    H1 7476   3.135   6.592   5.688
 2504TIP3    H2 7477   3.191   6.456   5.650
 2505TIP3   OH2 7478   0.105   0.975   3.781
 2505TIP3    H1 7479   0.069   0.994   3.694
 2505TIP3    H2 7480   0.199   0.971   3.767
 2506TIP3   OH2 7481   0.906   5.949   2.712
 2506TIP3    H1 7482   0.989   5.991   2.735
 2506TIP3    H2 7483   0.894   5.970   2.619
 2507TIP3   OH2 7484   2.162   3.959   5.774
 2507TIP3    H1 7485   2.200   3.894   5.715
 2507TIP3    H2 7486   2.225   3.965   5.846
 2508TIP3   OH2 7487   2.667   3.683   2.350
 2508TIP3    H1 7488   2.687   3.754   2.289
 2508TIP3    H2 7489   2.687   3.718   2.436
 2509TIP3   OH2 7490   0.123   1.302   2.296
 2509TIP3    H1 7491   0.074   1.326   2.374
 2509TIP3    H2 7492   0.202   1.355   2.299
 2510TIP3   OH2 7493   7.172   3.958   0.766
 2510TIP3    H1 7494   7.132   4.044   0.781
 2510TIP3    H2 7495   7.196   3.928   0.853
 2511TIP3   OH2 7496   6.673   4.953   2.755
 2511TIP3    H1 7497   6.746   4.905   2.717
 2511TIP3    H2 7498   6.712   5.033   2.791
 2512TIP3   OH2 7499   4.433   6.207   3.375
 2512TIP3    H1 7500   4.518   6.167   3.392
 2512TIP3    H2 7501   4.454   6.292   3.336
 2513TIP3   OH2 7502   4.691   3.467   5.779
 2513TIP3    H1 7503   4.747   3.425   5.714
 2513TIP3    H2 7504   4.722   3.558   5.780
 2514TIP3   OH2 7505   0.685   0.318   4.217
 2514TIP3    H1 7506   0.591   0.333   4.220
 2514TIP3    H2 7507   0.695   0.223   4.221
 2515TIP3   OH2 7508   3.098   0.405   5.800
 2515TIP3    H1 7509   3.129   0.494   5.784
 2515TIP3    H2 7510   3.171   0.349   5.775
 2516TIP3   OH2 7511   4.930   1.993   3.241
 2516TIP3    H1 7512   4.905   2.030   3.326
 2516TIP3    H2 7513   5.022   1.969   3.251
 2517TIP3   OH2 7514   5.582   5.750   2.163
 2517TIP3    H1 7515   5.561   5.657   2.173
 2517TIP3    H2 7516   5.627   5.754   2.078
 2518TIP3   OH2 7517   4.216   6.700   0.593
 2518TIP3    H1 7518   4.163   6.706   0.514
 2518TIP3    H2 7519   4.194   6.778   0.644
 2519TIP3   OH2 7520   4.418   3.335   3.580
 2519TIP3    H1 7521   4.389   3.392   3.509
 2519TIP3    H2 7522   4.377   3.371   3.658
 2520TIP3   OH2 7523   1.321   2.505   2.934
 2520TIP3    H1 7524   1.251   2.569   2.943
 2520TIP3    H2 7525   1.294   2.432   2.989
 2521TIP3   OH2 7526   6.417   1.706   5.298
 2521TIP3    H1 7527   6.431   1.738   5.387
 2521TIP3    H2 7528   6.423   1.784   5.243
 2522TIP3   OH2 7529   2.206   5.112   5.052
 2522TIP3    H1 7530   2.194   5.129   4.958
 2522TIP3    H2 7531   2.301   5.102   5.062
 2523TIP3   OH2 7532   2.960   5.866   1.925
 2523TIP3    H1 7533   3.044   5.902   1.895
 2523TIP3    H2 7534   2.965   5.773   1.904
 2524TIP3   OH2 7535   0.087   5.147   4.697
 2524TIP3    H1 7536   0.037   5.212   4.647
 2524TIP3    H2 7537   0.032   5.127   4.772
 2525TIP3   OH2 7538   4.341   1.798   2.244
 2525TIP3    H1 7539   4.270   1.736   2.257
 2525TIP3    H2 7540   4.305   1.864   2.185
 2526TIP3   OH2 7541   2.418   5.787   0.646
 2526TIP3    H1 7542   2.512   5.769   0.636
 2526TIP3    H2 7543   2.402   5.777   0.740
 2527TIP3   OH2 7544   0.035   0.754   4.285
 2527TIP3    H1 7545   0.042   0.782   4.194
 2527TIP3    H2 7546   0.115   0.704   4.300
 2528TIP3   OH2 7547   1.933   5.550   0.573
 2528TIP3    H1 7548   1.951   5.457   0.556
 2528TIP3    H2 7549   1.837   5.555   0.581
 2529TIP3   OH2 7550   2.690   5.958   5.028
 2529TIP3    H1 7551   2.633   5.906   5.084
 2529TIP3    H2 7552   2.761   5.898   5.004
 2530TIP3   OH2 7553   3.846   3.751   3.392
 2530TIP3    H1 7554   3.820   3.750   3.484
 2530TIP3    H2 7555   3.936   3.785   3.392
 2531TIP3   OH2 7556   1.182   5.113   4.138
 2531TIP3    H1 7557   1.251   5.173   4.167
 2531TIP3    H2 7558   1.121   5.168   4.089
 2532TIP3   OH2 7559   4.988   2.053   2.459
 2532TIP3    H1 7560   5.082   2.067   2.449
 2532TIP3    H2 7561   4.950   2.096   2.382
 2533TIP3   OH2 7562   2.798   2.658   0.051
 2533TIP3    H1 7563   2.889   2.673   0.078
 2533TIP3    H2 7564   2.783   2.565   0.069
 2534TIP3   OH2 7565   5.766   1.849   1.125
 2534TIP3    H1 7566   5.835   1.783   1.131
 2534TIP3    H2 7567   5.787   1.913   1.193
 2535TIP3   OH2 7568   4.530   4.089   5.308
 2535TIP3    H1 7569   4.574   4.007   5.325
 2535TIP3    H2 7570   4.446   4.082   5.354
 2536TIP3   OH2 7571   3.553   0.962   1.452
 2536TIP3    H1 7572   3.490   1.012   1.399
 2536TIP3    H2 7573   3.508   0.949   1.536
 2537TIP3   OH2 7574   6.340   4.515   3.055
 2537TIP3    H1 7575   6.395   4.444   3.022
 2537TIP3    H2 7576   6.264   4.515   2.998
 2538TIP3   OH2 7577   5.144   4.504   0.718
 2538TIP3    H1 7578   5.211   4.443   0.749
 2538TIP3    H2 7579   5.070   4.448   0.695
 2539TIP3   OH2 7580   4.033   4.609   5.397
 2539TIP3    H1 7581   4.118   4.653   5.397
 2539TIP3    H2 7582   3.988   4.642   5.474
 2540TIP3   OH2 7583   4.494   6.015   4.184
 2540TIP3    H1 7584   4.482   6.001   4.278
 2540TIP3    H2 7585   4.529   5.931   4.153
 2541TIP3   OH2 7586   6.220   1.199   3.347
 2541TIP3    H1 7587   6.302   1.200   3.297
 2541TIP3    H2 7588   6.159   1.152   3.291
 2542TIP3   OH2 7589   1.043   1.975   3.260
 2542TIP3    H1 7590   1.045   1.972   3.356
 2542TIP3    H2 7591   1.133   1.957   3.234
 2543TIP3   OH2 7592   1.332   0.879   4.521
 2543TIP3    H1 7593   1.378   0.962   4.504
 2543TIP3    H2 7594   1.245   0.892   4.481
 2544TIP3   OH2 7595   6.301   4.137   4.827
 2544TIP3    H1 7596   6.329   4.122   4.736
 2544TIP3    H2 7597   6.208   4.115   4.827
 2545TIP3   OH2 7598   1.965   5.817   1.198
 2545TIP3    H1 7599   1.998   5.736   1.238
 2545TIP3    H2 7600   1.990   5.886   1.259
 2546TIP3   OH2 7601   6.706   3.368   4.554
 2546TIP3    H1 7602   6.756   3.367   4.635
 2546TIP3    H2 7603   6.768   3.396   4.487
 2547TIP3   OH2 7604   1.590   5.396   5.443
 2547TIP3    H1 7605   1.569   5.458   5.373
 2547TIP3    H2 7606   1.612   5.451   5.518
 2548TIP3   OH2 7607   4.508   4.871   1.113
 2548TIP3    H1 7608   4.589   4.896   1.158
 2548TIP3    H2 7609   4.491   4.943   1.052
 2549TIP3   OH2 7610   4.415   2.173   0.192
 2549TIP3    H1 7611   4.379   2.242   0.137
 2549TIP3    H2 7612   4.497   2.148   0.148
 2550TIP3   OH2 7613   1.183   1.106   1.853
 2550TIP3    H1 7614   1.111   1.169   1.851
 2550TIP3    H2 7615   1.222   1.111   1.766
 2551TIP3   OH2 7616   1.098   4.943   5.406
 2551TIP3    H1 7617   1.008   4.937   5.439
 2551TIP3    H2 7618   1.148   4.882   5.460
 2552TIP3   OH2 7619   7.157   4.187   1.655
 2552TIP3    H1 7620   7.226   4.127   1.627
 2552TIP3    H2 7621   7.185   4.272   1.623
 2553TIP3   OH2 7622   5.182   4.221   1.582
 2553TIP3    H1 7623   5.241   4.150   1.557
 2553TIP3    H2 7624   5.112   4.178   1.631
 2554TIP3   OH2 7625   6.022   6.124   4.335
 2554TIP3    H1 7626   6.095   6.170   4.293
 2554TIP3    H2 7627   6.034   6.140   4.429
 2555TIP3   OH2 7628   6.769   2.766   1.369
 2555TIP3    H1 7629   6.792   2.696   1.307
 2555TIP3    H2 7630   6.709   2.725   1.430
 2556TIP3   OH2 7631   2.189   2.554   2.556
 2556TIP3    H1 7632   2.214   2.588   2.471
 2556TIP3    H2 7633   2.209   2.625   2.617
 2557TIP3   OH2 7634   4.621   1.451   5.241
 2557TIP3    H1 7635   4.712   1.447   5.213
 2557TIP3    H2 7636   4.597   1.360   5.258
 2558TIP3   OH2 7637   1.294   1.469   3.268
 2558TIP3    H1 7638   1.339   1.444   3.187
 2558TIP3    H2 7639   1.351   1.436   3.337
 2559TIP3   OH2 7640   3.291   2.591   2.267
 2559TIP3    H1 7641   3.251   2.670   2.232
 2559TIP3    H2 7642   3.364   2.622   2.320
 2560TIP3   OH2 7643   4.608   3.335   2.186
 2560TIP3    H1 7644   4.666   3.300   2.118
 2560TIP3    H2 7645   4.667   3.368   2.254
 2561TIP3   OH2 7646   5.414   3.186   5.267
 2561TIP3    H1 7647   5.479   3.251   5.241
 2561TIP3    H2 7648   5.342   3.237   5.304
 2562TIP3   OH2 7649   6.416   0.681   3.978
 2562TIP3    H1 7650   6.401   0.592   3.947
 2562TIP3    H2 7651   6.502   0.677   4.021
 2563TIP3   OH2 7652   3.731   3.182   5.816
 2563TIP3    H1 7653   3.675   3.118   5.771
 2563TIP3    H2 7654   3.807   3.191   5.758
 2564TIP3   OH2 7655   1.945   0.997   4.296
 2564TIP3    H1 7656   1.902   1.080   4.278
 2564TIP3    H2 7657   2.035   1.010   4.264
 2565TIP3   OH2 7658   3.109   1.615   4.995
 2565TIP3    H1 7659   3.182   1.587   4.941
 2565TIP3    H2 7660   3.120   1.709   5.005
 2566TIP3   OH2 7661   6.069   0.936   0.037
 2566TIP3    H1 7662   6.124   0.974   0.105
 2566TIP3    H2 7663   5.997   0.894   0.085
 2567TIP3   OH2 7664   4.527   6.058   5.629
 2567TIP3    H1 7665   4.473   6.130   5.595
 2567TIP3    H2 7666   4.617   6.085   5.610
 2568TIP3   OH2 7667   0.924   5.507   1.313
 2568TIP3    H1 7668   0.852   5.515   1.250
 2568TIP3    H2 7669   0.935   5.413   1.324
 2569TIP3   OH2 7670   1.173   0.208   0.763
 2569TIP3    H1 7671   1.261   0.198   0.727
 2569TIP3    H2 7672   1.141   0.118   0.774
 2570TIP3   OH2 7673   3.768   2.791   5.792
 2570TIP3    H1 7674   3.798   2.700   5.787
 2570TIP3    H2 7675   3.745   2.804   5.884
 2571TIP3   OH2 7676   2.595   0.627   2.849
 2571TIP3    H1 7677   2.513   0.614   2.896
 2571TIP3    H2 7678   2.569   0.635   2.757
 2572TIP3   OH2 7679   5.163   4.649   5.248
 2572TIP3    H1 7680   5.138   4.559   5.267
 2572TIP3    H2 7681   5.221   4.642   5.172
 2573TIP3   OH2 7682   4.027   5.822   2.400
 2573TIP3    H1 7683   3.932   5.813   2.408
 2573TIP3    H2 7684   4.051   5.761   2.330
 2574TIP3   OH2 7685   3.568   1.832   0.143
 2574TIP3    H1 7686   3.609   1.806   0.226
 2574TIP3    H2 7687   3.629   1.895   0.105
 2575TIP3   OH2 7688   2.360   2.136   3.385
 2575TIP3    H1 7689   2.426   2.124   3.317
 2575TIP3    H2 7690   2.403   2.111   3.466
 2576TIP3   OH2 7691   6.510   0.845   2.058
 2576TIP3    H1 7692   6.466   0.930   2.057
 2576TIP3    H2 7693   6.483   0.804   2.140
 2577TIP3   OH2 7694   6.686   3.616   0.782
 2577TIP3    H1 7695   6.600   3.599   0.820
 2577TIP3    H2 7696   6.667   3.673   0.707
 2578TIP3   OH2 7697   1.317   0.026   1.091
 2578TIP3    H1 7698   1.380   0.088   1.127
 2578TIP3    H2 7699   1.371  -0.042   1.051
 2579TIP3   OH2 7700   6.674   4.473   3.601
 2579TIP3    H1 7701   6.626   4.539   3.551
 2579TIP3    H2 7702   6.624   4.464   3.683
 2580TIP3   OH2 7703   1.386   4.444   3.109
 2580TIP3    H1 7704   1.313   4.457   3.048
 2580TIP3    H2 7705   1.411   4.353   3.098
 2581TIP3   OH2 7706   6.931   0.052   3.739
 2581TIP3    H1 7707   6.897  -0.038   3.745
 2581TIP3    H2 7708   7.005   0.045   3.679
 2582TIP3   OH2 7709   4.341   2.444   4.359
 2582TIP3    H1 7710   4.259   2.400   4.335
 2582TIP3    H2 7711   4.345   2.435   4.454
 2583TIP3   OH2 7712   5.291   1.193   3.502
 2583TIP3    H1 7713   5.238   1.156   3.432
 2583TIP3    H2 7714   5.304   1.120   3.563
 2584TIP3   OH2 7715   4.903   4.636   5.168
 2584TIP3    H1 7716   4.998   4.621   5.163
 2584TIP3    H2 7717   4.887   4.707   5.106
 2585TIP3   OH2 7718   6.053   3.311   0.816
 2585TIP3    H1 7719   6.095   3.303   0.902
 2585TIP3    H2 7720   6.120   3.282   0.754
 2586TIP3   OH2 7721   6.833   0.952   3.220
 2586TIP3    H1 7722   6.917   0.980   3.255
 2586TIP3    H2 7723   6.768   0.986   3.282
 2587TIP3   OH2 7724   0.100   4.959   2.287
 2587TIP3    H1 7725   0.008   4.983   2.280
 2587TIP3    H2 7726   0.122   4.973   2.379
 2588TIP3   OH2 7727   2.107   5.250   0.267
 2588TIP3    H1 7728   2.192   5.266   0.307
 2588TIP3    H2 7729   2.044   5.263   0.337
 2589TIP3   OH2 7730   4.881   5.504   0.282
 2589TIP3    H1 7731   4.906   5.414   0.302
 2589TIP3    H2 7732   4.901   5.552   0.362
 2590TIP3   OH2 7733   0.654   5.595  -0.002
 2590TIP3    H1 7734   0.607   5.544   0.064
 2590TIP3    H2 7735   0.640   5.548  -0.084
 2591TIP3   OH2 7736   1.013   6.298   3.998
 2591TIP3    H1 7737   0.953   6.280   4.071
 2591TIP3    H2 7738   1.041   6.388   4.011
 2592TIP3   OH2 7739   5.075   6.448   3.850
 2592TIP3    H1 7740   5.046   6.367   3.891
 2592TIP3    H2 7741   5.116   6.497   3.921
 2593TIP3   OH2 7742   3.085   3.258   2.687
 2593TIP3    H1 7743   3.126   3.237   2.603
 2593TIP3    H2 7744   3.145   3.319   2.729
 2594TIP3   OH2 7745   4.622   3.229   0.368
 2594TIP3    H1 7746   4.534   3.195   0.349
 2594TIP3    H2 7747   4.679   3.153   0.363
 2595TIP3   OH2 7748   1.172   0.767   0.612
 2595TIP3    H1 7749   1.229   0.691   0.605
 2595TIP3    H2 7750   1.229   0.842   0.595
 2596TIP3   OH2 7751   5.999   5.515   3.259
 2596TIP3    H1 7752   5.930   5.484   3.319
 2596TIP3    H2 7753   6.081   5.489   3.301
 2597TIP3   OH2 7754   6.857   5.343   3.794
 2597TIP3    H1 7755   6.884   5.252   3.802
 2597TIP3    H2 7756   6.939   5.392   3.785
 2598TIP3   OH2 7757   3.505   4.061   3.910
 2598TIP3    H1 7758   3.531   4.147   3.943
 2598TIP3    H2 7759   3.411   4.056   3.929
 2599TIP3   OH2 7760   5.370   3.526   1.358
 2599TIP3    H1 7761   5.393   3.606   1.407
 2599TIP3    H2 7762   5.413   3.456   1.406
 2600TIP3   OH2 7763   3.941   6.102   2.477
 2600TIP3    H1 7764   3.918   6.129   2.387
 2600TIP3    H2 7765   3.933   6.007   2.475
 2601TIP3   OH2 7766   1.599   0.352   5.412
 2601TIP3    H1 7767   1.574   0.274   5.363
 2601TIP3    H2 7768   1.658   0.319   5.480
 2602TIP3   OH2 7769   5.974   1.883   3.102
 2602TIP3    H1 7770   5.955   1.867   3.009
 2602TIP3    H2 7771   5.958   1.798   3.144
 2603TIP3   OH2 7772   4.893   5.725   3.836
 2603TIP3    H1 7773   4.857   5.743   3.922
 2603TIP3    H2 7774   4.882   5.630   3.825
 2604TIP3   OH2 7775   0.796   1.924   1.972
 2604TIP3    H1 7776   0.746   1.955   2.047
 2604TIP3    H2 7777   0.793   1.829   1.979
 2605TIP3   OH2 7778   1.363   0.943   3.407
 2605TIP3    H1 7779   1.452   0.923   3.433
 2605TIP3    H2 7780   1.372   1.001   3.331
 2606TIP3   OH2 7781   3.807   5.539   0.772
 2606TIP3    H1 7782   3.739   5.476   0.751
 2606TIP3    H2 7783   3.887   5.501   0.736
 2607TIP3   OH2 7784   1.503   1.773   0.105
 2607TIP3    H1 7785   1.553   1.715   0.162
 2607TIP3    H2 7786   1.487   1.722   0.025
 2608TIP3   OH2 7787   6.199   3.833   3.972
 2608TIP3    H1 7788   6.219   3.752   3.926
 2608TIP3    H2 7789   6.267   3.894   3.944
 2609TIP3   OH2 7790   1.067   3.881   2.102
 2609TIP3    H1 7791   1.018   3.801   2.084
 2609TIP3    H2 7792   1.001   3.951   2.098
 2610TIP3   OH2 7793   5.088   4.279   5.741
 2610TIP3    H1 7794   5.055   4.195   5.707
 2610TIP3    H2 7795   5.183   4.274   5.727
 2611TIP3   OH2 7796   1.125   6.095   2.786
 2611TIP3    H1 7797   1.102   6.188   2.780
 2611TIP3    H2 7798   1.162   6.074   2.701
 2612TIP3   OH2 7799   5.847   0.311   2.615
 2612TIP3    H1 7800   5.857   0.295   2.709
 2612TIP3    H2 7801   5.880   0.399   2.602
 2613TIP3   OH2 7802   5.516   3.005   2.610
 2613TIP3    H1 7803   5.481   2.977   2.694
 2613TIP3    H2 7804   5.536   2.924   2.564
 2614TIP3   OH2 7805   2.221   6.781   1.345
 2614TIP3    H1 7806   2.208   6.869   1.380
 2614TIP3    H2 7807   2.316   6.767   1.348
 2615TIP3   OH2 7808   6.404   4.682   1.655
 2615TIP3    H1 7809   6.456   4.630   1.594
 2615TIP3    H2 7810   6.407   4.771   1.618
 2616TIP3   OH2 7811   2.947   6.278   1.262
 2616TIP3    H1 7812   3.039   6.255   1.254
 2616TIP3    H2 7813   2.933   6.349   1.199
 2617TIP3   OH2 7814   2.111   0.731   5.151
 2617TIP3    H1 7815   2.020   0.724   5.179
 2617TIP3    H2 7816   2.132   0.644   5.116
 2618TIP3   OH2 7817   2.323   1.139   0.714
 2618TIP3    H1 7818   2.348   1.169   0.626
 2618TIP3    H2 7819   2.359   1.205   0.772
 2619TIP3   OH2 7820   0.784   6.508   0.655
 2619TIP3    H1 7821   0.813   6.514   0.746
 2619TIP3    H2 7822   0.779   6.599   0.625
 2620TIP3   OH2 7823   6.949   2.134   5.626
 2620TIP3    H1 7824   7.041   2.151   5.604
 2620TIP3    H2 7825   6.937   2.041   5.604
 2621TIP3   OH2 7826   4.757   6.221   0.849
 2621TIP3    H1 7827   4.782   6.312   0.861
 2621TIP3    H2 7828   4.838   6.176   0.826
 2622TIP3   OH2 7829   6.954   3.384   4.388
 2622TIP3    H1 7830   6.952   3.312   4.325
 2622TIP3    H2 7831   7.032   3.368   4.441
 2623TIP3   OH2 7832   5.798   3.797   2.753
 2623TIP3    H1 7833   5.732   3.752   2.807
 2623TIP3    H2 7834   5.869   3.733   2.744
 2624TIP3   OH2 7835   6.939   6.131   5.168
 2624TIP3    H1 7836   6.920   6.040   5.192
 2624TIP3    H2 7837   7.032   6.131   5.145
 2625TIP3   OH2 7838   6.274   2.974   4.291
 2625TIP3    H1 7839   6.304   3.060   4.261
 2625TIP3    H2 7840   6.275   2.981   4.387
 2626TIP3   OH2 7841   5.804   1.497   0.072
 2626TIP3    H1 7842   5.842   1.438   0.137
 2626TIP3    H2 7843   5.801   1.445  -0.008
 2627TIP3   OH2 7844   3.439   0.261   3.554
 2627TIP3    H1 7845   3.510   0.210   3.593
 2627TIP3    H2 7846   3.469   0.281   3.466
 2628TIP3   OH2 7847   2.835   4.215   4.502
 2628TIP3    H1 7848   2.889   4.151   4.455
 2628TIP3    H2 7849   2.819   4.284   4.438
 2629TIP3   OH2 7850   0.970   4.281   4.995
 2629TIP3    H1 7851   1.027   4.358   4.996
 2629TIP3    H2 7852   0.906   4.300   4.927
 2630TIP3   OH2 7853   3.786   0.704   1.871
 2630TIP3    H1 7854   3.822   0.765   1.807
 2630TIP3    H2 7855   3.737   0.640   1.819
 2631TIP3   OH2 7856   0.023   5.079   0.145
 2631TIP3    H1 7857  -0.016   5.049   0.063
 2631TIP3    H2 7858   0.115   5.052   0.139
 2632TIP3   OH2 7859   7.189   4.983   0.959
 2632TIP3    H1 7860   7.107   4.939   0.983
 2632TIP3    H2 7861   7.178   5.006   0.867
 2633TIP3   OH2 7862   4.888   1.586   5.729
 2633TIP3    H1 7863   4.961   1.524   5.736
 2633TIP3    H2 7864   4.810   1.530   5.722
 2634TIP3   OH2 7865   5.028   0.946   5.229
 2634TIP3    H1 7866   5.071   0.879   5.281
 2634TIP3    H2 7867   5.100   0.990   5.183
 2635TIP3   OH2 7868   5.337   0.743   3.539
 2635TIP3    H1 7869   5.399   0.704   3.478
 2635TIP3    H2 7870   5.251   0.713   3.509
 2636TIP3   OH2 7871   3.772   3.764   4.333
 2636TIP3    H1 7872   3.777   3.843   4.279
 2636TIP3    H2 7873   3.683   3.731   4.319
 2637TIP3   OH2 7874   3.774   2.618   4.310
 2637TIP3    H1 7875   3.722   2.590   4.234
 2637TIP3    H2 7876   3.775   2.713   4.305
 2638TIP3   OH2 7877   0.172   4.545   0.197
 2638TIP3    H1 7878   0.144   4.486   0.267
 2638TIP3    H2 7879   0.205   4.488   0.128
 2639TIP3   OH2 7880   5.518   2.100   2.664
 2639TIP3    H1 7881   5.558   2.161   2.602
 2639TIP3    H2 7882   5.437   2.143   2.691
 2640TIP3   OH2 7883   7.212   2.093   5.458
 2640TIP3    H1 7884   7.248   2.020   5.508
 2640TIP3    H2 7885   7.177   2.053   5.378
 2641TIP3   OH2 7886   0.115   1.011   3.091
 2641TIP3    H1 7887   0.071   1.088   3.055
 2641TIP3    H2 7888   0.162   0.973   3.017
 2642TIP3   OH2 7889   3.324   1.638   0.063
 2642TIP3    H1 7890   3.406   1.682   0.083
 2642TIP3    H2 7891   3.296   1.676  -0.020
 2643TIP3   OH2 7892   6.872   2.132   0.056
 2643TIP3    H1 7893   6.853   2.188   0.131
 2643TIP3    H2 7894   6.967   2.123   0.055
 2644TIP3   OH2 7895   4.439   2.349   3.540
 2644TIP3    H1 7896   4.380   2.382   3.472
 2644TIP3    H2 7897   4.389   2.280   3.583
 2645TIP3   OH2 7898   5.926   1.818   1.440
 2645TIP3    H1 7899   5.891   1.899   1.402
 2645TIP3    H2 7900   5.941   1.761   1.365
 2646TIP3   OH2 7901   1.705   4.225   5.815
 2646TIP3    H1 7902   1.718   4.255   5.725
 2646TIP3    H2 7903   1.655   4.144   5.807
 2647TIP3   OH2 7904   1.311   4.340   0.231
 2647TIP3    H1 7905   1.254   4.402   0.277
 2647TIP3    H2 7906   1.282   4.345   0.140
 2648TIP3   OH2 7907   2.298   2.226   2.228
 2648TIP3    H1 7908   2.393   2.233   2.224
 2648TIP3    H2 7909   2.267   2.289   2.163
 2649TIP3   OH2 7910   3.926   3.138   3.435
 2649TIP3    H1 7911   3.905   3.194   3.510
 2649TIP3    H2 7912   4.019   3.118   3.445
 2650TIP3   OH2 7913   5.007   5.312   5.329
 2650TIP3    H1 7914   5.093   5.346   5.354
 2650TIP3    H2 7915   5.021   5.267   5.246
 2651TIP3   OH2 7916   0.863   3.051   4.523
 2651TIP3    H1 7917   0.872   3.141   4.554
 2651TIP3    H2 7918   0.902   3.052   4.436
 2652TIP3   OH2 7919   6.100   2.640   1.850
 2652TIP3    H1 7920   6.086   2.580   1.777
 2652TIP3    H2 7921   6.059   2.597   1.925
 2653TIP3   OH2 7922   3.172   1.122   4.072
 2653TIP3    H1 7923   3.223   1.043   4.088
 2653TIP3    H2 7924   3.185   1.176   4.150
 2654TIP3   OH2 7925   0.930   1.515   1.068
 2654TIP3    H1 7926   0.930   1.574   1.144
 2654TIP3    H2 7927   0.845   1.471   1.073
 2655TIP3   OH2 7928   0.079   6.469   1.015
 2655TIP3    H1 7929   0.108   6.378   1.002
 2655TIP3    H2 7930   0.028   6.466   1.096
 2656TIP3   OH2 7931   5.024   2.612   5.733
 2656TIP3    H1 7932   5.099   2.587   5.680
 2656TIP3    H2 7933   5.036   2.705   5.750
 2657TIP3   OH2 7934   4.625   0.493   3.872
 2657TIP3    H1 7935   4.645   0.558   3.805
 2657TIP3    H2 7936   4.530   0.493   3.879
 2658TIP3   OH2 7937   3.107   5.265   1.468
 2658TIP3    H1 7938   3.043   5.199   1.497
 2658TIP3    H2 7939   3.133   5.310   1.549
 2659TIP3   OH2 7940   0.017   3.781   3.962
 2659TIP3    H1 7941   0.032   3.820   4.048
 2659TIP3    H2 7942   0.046   3.847   3.899
 2660TIP3   OH2 7943   4.142   6.467   4.009
 2660TIP3    H1 7944   4.095   6.431   4.084
 2660TIP3    H2 7945   4.145   6.396   3.945
 2661TIP3   OH2 7946   3.955   3.548   5.278
 2661TIP3    H1 7947   3.908   3.631   5.281
 2661TIP3    H2 7948   3.935   3.513   5.191
 2662TIP3   OH2 7949   2.027   3.970   3.862
 2662TIP3    H1 7950   2.107   3.918   3.871
 2662TIP3    H2 7951   1.961   3.921   3.910
 2663TIP3   OH2 7952   2.815   4.299   2.651
 2663TIP3    H1 7953   2.767   4.228   2.694
 2663TIP3    H2 7954   2.901   4.298   2.694
 2664TIP3   OH2 7955   1.400   3.951   1.158
 2664TIP3    H1 7956   1.406   3.972   1.064
 2664TIP3    H2 7957   1.489   3.925   1.182
 2665TIP3   OH2 7958   5.595   4.776   0.196
 2665TIP3    H1 7959   5.548   4.770   0.279
 2665TIP3    H2 7960   5.552   4.713   0.139
 2666TIP3   OH2 7961   4.251   1.954   5.379
 2666TIP3    H1 7962   4.197   1.934   5.456
 2666TIP3    H2 7963   4.248   2.050   5.372
 2667TIP3   OH2 7964   1.817   5.866   3.302
 2667TIP3    H1 7965   1.823   5.874   3.207
 2667TIP3    H2 7966   1.727   5.890   3.323
 2668TIP3   OH2 7967   1.430   1.173   4.019
 2668TIP3    H1 7968   1.417   1.235   3.948
 2668TIP3    H2 7969   1.397   1.218   4.097
 2669TIP3   OH2 7970   0.765   2.885   2.128
 2669TIP3    H1 7971   0.838   2.823   2.136
 2669TIP3    H2 7972   0.747   2.889   2.035
 2670TIP3   OH2 7973   1.839   0.882   2.066
 2670TIP3    H1 7974   1.807   0.794   2.046
 2670TIP3    H2 7975   1.853   0.923   1.980
 2671TIP3   OH2 7976   0.109   3.260   1.516
 2671TIP3    H1 7977   0.123   3.313   1.437
 2671TIP3    H2 7978   0.038   3.200   1.492
 2672TIP3   OH2 7979   0.799   0.162   3.332
 2672TIP3    H1 7980   0.832   0.229   3.272
 2672TIP3    H2 7981   0.875   0.107   3.350
 2673TIP3   OH2 7982   3.995   0.894   5.116
 2673TIP3    H1 7983   3.954   0.820   5.159
 2673TIP3    H2 7984   4.005   0.867   5.025
 2674TIP3   OH2 7985   5.619   4.120   1.837
 2674TIP3    H1 7986   5.703   4.135   1.794
 2674TIP3    H2 7987   5.554   4.160   1.780
 2675TIP3   OH2 7988   6.978   3.738   2.481
 2675TIP3    H1 7989   7.019   3.672   2.425
 2675TIP3    H2 7990   6.950   3.690   2.559
 2676TIP3   OH2 7991   6.552   5.871   2.035
 2676TIP3    H1 7992   6.646   5.874   2.017
 2676TIP3    H2 7993   6.513   5.925   1.967
 2677TIP3   OH2 7994   1.748   2.617   5.457
 2677TIP3    H1 7995   1.775   2.534   5.416
 2677TIP3    H2 7996   1.715   2.590   5.543
 2678TIP3   OH2 7997   6.265   5.420   2.439
 2678TIP3    H1 7998   6.263   5.421   2.534
 2678TIP3    H2 7999   6.200   5.355   2.414
 2679TIP3   OH2 8000   2.043   4.195   1.796
 2679TIP3    H1 8001   2.044   4.103   1.771
 2679TIP3    H2 8002   2.031   4.194   1.891
 2680TIP3   OH2 8003   1.214   5.306   2.850
 2680TIP3    H1 8004   1.178   5.217   2.857
 2680TIP3    H2 8005   1.137   5.362   2.842
 2681TIP3   OH2 8006   2.987   2.722   1.885
 2681TIP3    H1 8007   3.015   2.651   1.827
 2681TIP3    H2 8008   2.983   2.799   1.829
 2682TIP3   OH2 8009   0.126   1.680   1.278
 2682TIP3    H1 8010   0.112   1.773   1.259
 2682TIP3    H2 8011   0.164   1.645   1.197
 2683TIP3   OH2 8012   3.105   4.464   1.220
 2683TIP3    H1 8013   3.087   4.555   1.200
 2683TIP3    H2 8014   3.163   4.467   1.297
 2684TIP3   OH2 8015   6.870   1.541   3.131
 2684TIP3    H1 8016   6.918   1.615   3.095
 2684TIP3    H2 8017   6.782   1.575   3.149
 2685TIP3   OH2 8018   5.925   5.984   1.229
 2685TIP3    H1 8019   6.014   6.017   1.222
 2685TIP3    H2 8020   5.923   5.937   1.312
 2686TIP3   OH2 8021   5.556   2.901   4.442
 2686TIP3    H1 8022   5.498   2.893   4.367
 2686TIP3    H2 8023   5.615   2.826   4.436
 2687TIP3   OH2 8024   4.141   2.294   5.056
 2687TIP3    H1 8025   4.154   2.269   4.964
 2687TIP3    H2 8026   4.062   2.347   5.055
 2688TIP3   OH2 8027   5.650   5.884   1.219
 2688TIP3    H1 8028   5.741   5.915   1.212
 2688TIP3    H2 8029   5.618   5.922   1.300
 2689TIP3   OH2 8030   0.494   5.028   5.798
 2689TIP3    H1 8031   0.430   5.019   5.868
 2689TIP3    H2 8032   0.578   5.012   5.841
 2690TIP3   OH2 8033   2.472   4.745   3.091
 2690TIP3    H1 8034   2.503   4.712   3.175
 2690TIP3    H2 8035   2.524   4.825   3.076
 2691TIP3   OH2 8036   5.207   4.786   4.384
 2691TIP3    H1 8037   5.149   4.756   4.313
 2691TIP3    H2 8038   5.292   4.795   4.342
 2692TIP3   OH2 8039   7.030   0.031   1.468
 2692TIP3    H1 8040   7.015   0.023   1.562
 2692TIP3    H2 8041   7.027  -0.059   1.436
 2693TIP3   OH2 8042   4.019   0.338   5.282
 2693TIP3    H1 8043   4.022   0.289   5.200
 2693TIP3    H2 8044   4.108   0.334   5.317
 2694TIP3   OH2 8045   4.754   4.136   1.844
 2694TIP3    H1 8046   4.685   4.121   1.908
 2694TIP3    H2 8047   4.779   4.228   1.856
 2695TIP3   OH2 8048   6.487   3.642   3.166
 2695TIP3    H1 8049   6.530   3.649   3.252
 2695TIP3    H2 8050   6.399   3.677   3.181
 2696TIP3   OH2 8051   5.341   1.530   0.706
 2696TIP3    H1 8052   5.344   1.562   0.796
 2696TIP3    H2 8053   5.249   1.507   0.692
 2697TIP3   OH2 8054   5.745   1.441   3.718
 2697TIP3    H1 8055   5.728   1.380   3.647
 2697TIP3    H2 8056   5.835   1.470   3.704
 2698TIP3   OH2 8057   1.352   4.381   1.540
 2698TIP3    H1 8058   1.259   4.361   1.535
 2698TIP3    H2 8059   1.356   4.476   1.537
 2699TIP3   OH2 8060   1.320   4.010   0.868
 2699TIP3    H1 8061   1.231   3.980   0.847
 2699TIP3    H2 8062   1.344   4.068   0.795
 2700TIP3   OH2 8063   3.283   2.027   4.880
 2700TIP3    H1 8064   3.193   2.013   4.909
 2700TIP3    H2 8065   3.335   1.968   4.934
 2701TIP3   OH2 8066   6.580   3.613   4.334
 2701TIP3    H1 8067   6.640   3.637   4.263
 2701TIP3    H2 8068   6.495   3.601   4.291
 2702TIP3   OH2 8069   0.599   3.378   3.665
 2702TIP3    H1 8070   0.657   3.314   3.707
 2702TIP3    H2 8071   0.549   3.326   3.601
 2703TIP3   OH2 8072   2.897   6.358   2.824
 2703TIP3    H1 8073   2.824   6.393   2.772
 2703TIP3    H2 8074   2.855   6.307   2.893
 2704TIP3   OH2 8075   4.332   2.703   0.200
 2704TIP3    H1 8076   4.424   2.701   0.226
 2704TIP3    H2 8077   4.327   2.770   0.132
 2705TIP3   OH2 8078   2.273   1.332   4.117
 2705TIP3    H1 8079   2.232   1.261   4.167
 2705TIP3    H2 8080   2.285   1.295   4.030
 2706TIP3   OH2 8081   3.424   3.605   0.201
 2706TIP3    H1 8082   3.363   3.640   0.266
 2706TIP3    H2 8083   3.373   3.539   0.154
 2707TIP3   OH2 8084   3.971   5.353   3.344
 2707TIP3    H1 8085   3.924   5.428   3.380
 2707TIP3    H2 8086   4.053   5.390   3.311
 2708TIP3   OH2 8087   3.046   4.915   3.520
 2708TIP3    H1 8088   3.025   5.005   3.496
 2708TIP3    H2 8089   3.015   4.906   3.610
 2709TIP3   OH2 8090   6.087   6.397   1.771
 2709TIP3    H1 8091   5.996   6.413   1.796
 2709TIP3    H2 8092   6.128   6.363   1.850
 2710TIP3   OH2 8093   6.009   3.757   4.161
 2710TIP3    H1 8094   5.997   3.680   4.106
 2710TIP3    H2 8095   6.054   3.821   4.106
 2711TIP3   OH2 8096   2.885   1.021   4.685
 2711TIP3    H1 8097   2.905   0.927   4.692
 2711TIP3    H2 8098   2.935   1.051   4.609
 2712TIP3   OH2 8099   4.206   0.619   3.407
 2712TIP3    H1 8100   4.301   0.609   3.397
 2712TIP3    H2 8101   4.171   0.532   3.388
 2713TIP3   OH2 8102   0.927   2.332   0.385
 2713TIP3    H1 8103   0.953   2.264   0.323
 2713TIP3    H2 8104   0.873   2.392   0.333
 2714TIP3   OH2 8105   5.237   1.457   4.404
 2714TIP3    H1 8106   5.143   1.471   4.420
 2714TIP3    H2 8107   5.251   1.491   4.316
 2715TIP3   OH2 8108   3.713   2.356   2.688
 2715TIP3    H1 8109   3.718   2.421   2.758
 2715TIP3    H2 8110   3.746   2.275   2.727
 2716TIP3   OH2 8111   4.884   3.241   3.987
 2716TIP3    H1 8112   4.813   3.270   4.045
 2716TIP3    H2 8113   4.950   3.310   3.994
 2717TIP3   OH2 8114   1.715   5.780   4.526
 2717TIP3    H1 8115   1.795   5.764   4.577
 2717TIP3    H2 8116   1.650   5.808   4.591
 2718TIP3   OH2 8117   5.204   6.460   1.352
 2718TIP3    H1 8118   5.163   6.469   1.266
 2718TIP3    H2 8119   5.279   6.520   1.350
 2719TIP3   OH2 8120   4.800   5.708   3.014
 2719TIP3    H1 8121   4.866   5.750   3.070
 2719TIP3    H2 8122   4.851   5.651   2.956
 2720TIP3   OH2 8123   4.386   6.234   1.246
 2720TIP3    H1 8124   4.475   6.200   1.252
 2720TIP3    H2 8125   4.376   6.289   1.324
 2721TIP3   OH2 8126   4.324   5.572   2.407
 2721TIP3    H1 8127   4.367   5.619   2.479
 2721TIP3    H2 8128   4.384   5.584   2.333
 2722TIP3   OH2 8129   1.262   3.947   4.235
 2722TIP3    H1 8130   1.275   3.986   4.148
 2722TIP3    H2 8131   1.205   3.872   4.219
 2723TIP3   OH2 8132   4.052   3.940   1.600
 2723TIP3    H1 8133   4.022   3.979   1.682
 2723TIP3    H2 8134   4.112   4.005   1.563
 2724TIP3   OH2 8135   1.307   2.983   0.646
 2724TIP3    H1 8136   1.352   2.973   0.730
 2724TIP3    H2 8137   1.228   3.033   0.667
 2725TIP3   OH2 8138   7.095   0.992   4.793
 2725TIP3    H1 8139   7.106   0.914   4.847
 2725TIP3    H2 8140   7.166   0.987   4.729
 2726TIP3   OH2 8141   2.773   1.769   5.483
 2726TIP3    H1 8142   2.736   1.726   5.559
 2726TIP3    H2 8143   2.868   1.769   5.498
 2727TIP3   OH2 8144   3.402  -0.006   2.492
 2727TIP3    H1 8145   3.435   0.082   2.475
 2727TIP3    H2 8146   3.334  -0.019   2.426
 2728TIP3   OH2 8147   1.114   6.693   1.806
 2728TIP3    H1 8148   1.182   6.709   1.741
 2728TIP3    H2 8149   1.046   6.645   1.759
 2729TIP3   OH2 8150   0.942   4.808   3.789
 2729TIP3    H1 8151   0.957   4.731   3.843
 2729TIP3    H2 8152   1.029   4.834   3.759
 2730TIP3   OH2 8153   6.476   1.342   2.640
 2730TIP3    H1 8154   6.385   1.351   2.612
 2730TIP3    H2 8155   6.490   1.418   2.698
 2731TIP3   OH2 8156   6.902   6.695   5.635
 2731TIP3    H1 8157   6.901   6.630   5.565
 2731TIP3    H2 8158   6.992   6.726   5.638
 2732TIP3   OH2 8159   5.455   1.952   5.349
 2732TIP3    H1 8160   5.549   1.946   5.361
 2732TIP3    H2 8161   5.444   2.002   5.267
 2733TIP3   OH2 8162   5.961   2.122   3.213
 2733TIP3    H1 8163   5.920   2.104   3.298
 2733TIP3    H2 8164   5.947   2.042   3.162
 2734TIP3   OH2 8165   4.092   1.398   2.953
 2734TIP3    H1 8166   4.115   1.331   3.017
 2734TIP3    H2 8167   4.077   1.477   3.005
 2735TIP3   OH2 8168   2.539   0.803   3.937
 2735TIP3    H1 8169   2.579   0.732   3.988
 2735TIP3    H2 8170   2.614   0.854   3.906
 2736TIP3   OH2 8171   3.004   5.211   0.406
 2736TIP3    H1 8172   2.973   5.121   0.398
 2736TIP3    H2 8173   2.951   5.260   0.342
 2737TIP3   OH2 8174   0.280   6.224   2.906
 2737TIP3    H1 8175   0.264   6.130   2.902
 2737TIP3    H2 8176   0.375   6.232   2.902
 2738TIP3   OH2 8177   1.093   4.914   4.537
 2738TIP3    H1 8178   0.999   4.911   4.518
 2738TIP3    H2 8179   1.105   4.854   4.610
 2739TIP3   OH2 8180   2.548   2.191   1.546
 2739TIP3    H1 8181   2.585   2.272   1.511
 2739TIP3    H2 8182   2.583   2.185   1.635
 2740TIP3   OH2 8183   2.857   0.127   4.273
 2740TIP3    H1 8184   2.787   0.080   4.228
 2740TIP3    H2 8185   2.880   0.199   4.215
 2741TIP3   OH2 8186   3.146   2.951   1.750
 2741TIP3    H1 8187   3.098   3.014   1.696
 2741TIP3    H2 8188   3.151   2.991   1.836
 2742TIP3   OH2 8189   3.166   3.944   2.160
 2742TIP3    H1 8190   3.231   3.890   2.207
 2742TIP3    H2 8191   3.082   3.918   2.198
 2743TIP3   OH2 8192   6.407   3.995   2.469
 2743TIP3    H1 8193   6.439   3.955   2.388
 2743TIP3    H2 8194   6.353   4.069   2.440
 2744TIP3   OH2 8195   2.533   1.987   5.711
 2744TIP3    H1 8196   2.564   1.976   5.800
 2744TIP3    H2 8197   2.550   1.903   5.668
 2745TIP3   OH2 8198   6.342   0.795   2.336
 2745TIP3    H1 8199   6.293   0.730   2.285
 2745TIP3    H2 8200   6.276   0.837   2.391
 2746TIP3   OH2 8201   5.600   4.793   1.099
 2746TIP3    H1 8202   5.627   4.856   1.165
 2746TIP3    H2 8203   5.520   4.754   1.135
 2747TIP3   OH2 8204   2.293   4.124   4.567
 2747TIP3    H1 8205   2.244   4.174   4.502
 2747TIP3    H2 8206   2.385   4.140   4.547
 2748TIP3   OH2 8207   3.609   4.843   4.650
 2748TIP3    H1 8208   3.542   4.778   4.629
 2748TIP3    H2 8209   3.677   4.794   4.697
 2749TIP3   OH2 8210  -0.004   3.273   3.907
 2749TIP3    H1 8211   0.065   3.239   3.964
 2749TIP3    H2 8212   0.017   3.366   3.897
 2750TIP3   OH2 8213   0.200   6.224   0.935
 2750TIP3    H1 8214   0.133   6.223   0.867
 2750TIP3    H2 8215   0.283   6.233   0.887
 2751TIP3   OH2 8216   1.794   6.785   1.935
 2751TIP3    H1 8217   1.761   6.695   1.939
 2751TIP3    H2 8218   1.738   6.834   1.995
 2752TIP3   OH2 8219   1.081  -0.046   1.224
 2752TIP3    H1 8220   1.080   0.038   1.272
 2752TIP3    H2 8221   1.169  -0.051   1.188
 2753TIP3   OH2 8222   4.754   1.752   1.754
 2753TIP3    H1 8223   4.780   1.677   1.808
 2753TIP3    H2 8224   4.683   1.719   1.699
 2754TIP3   OH2 8225   6.326   5.542   4.219
 2754TIP3    H1 8226   6.421   5.555   4.230
 2754TIP3    H2 8227   6.309   5.571   4.129
 2755TIP3   OH2 8228   3.407   0.424   0.935
 2755TIP3    H1 8229   3.488   0.375   0.952
 2755TIP3    H2 8230   3.337   0.362   0.954
 2756TIP3   OH2 8231   5.138   4.202   4.461
 2756TIP3    H1 8232   5.092   4.235   4.539
 2756TIP3    H2 8233   5.229   4.230   4.473
 2757TIP3   OH2 8234   7.030   1.854   0.392
 2757TIP3    H1 8235   6.948   1.898   0.366
 2757TIP3    H2 8236   7.097   1.921   0.381
 2758TIP3   OH2 8237   2.215   1.101   4.237
 2758TIP3    H1 8238   2.244   1.038   4.172
 2758TIP3    H2 8239   2.292   1.115   4.292
 2759TIP3   OH2 8240   2.741   2.500   2.756
 2759TIP3    H1 8241   2.703   2.414   2.770
 2759TIP3    H2 8242   2.732   2.545   2.840
 2760TIP3   OH2 8243   2.675   2.620   2.009
 2760TIP3    H1 8244   2.625   2.681   1.954
 2760TIP3    H2 8245   2.735   2.675   2.059
 2761TIP3   OH2 8246   2.166   1.715   2.437
 2761TIP3    H1 8247   2.101   1.693   2.504
 2761TIP3    H2 8248   2.116   1.717   2.355
 2762TIP3   OH2 8249   2.761   0.827   5.596
 2762TIP3    H1 8250   2.772   0.871   5.512
 2762TIP3    H2 8251   2.691   0.763   5.581
 2763TIP3   OH2 8252   2.464   4.908   1.857
 2763TIP3    H1 8253   2.453   4.821   1.818
 2763TIP3    H2 8254   2.419   4.903   1.941
 2764TIP3   OH2 8255   4.858   5.450   4.767
 2764TIP3    H1 8256   4.842   5.483   4.679
 2764TIP3    H2 8257   4.781   5.396   4.787
 2765TIP3   OH2 8258   6.460   2.375   5.592
 2765TIP3    H1 8259   6.496   2.457   5.558
 2765TIP3    H2 8260   6.504   2.362   5.676
 2766TIP3   OH2 8261   3.437   0.396   4.992
 2766TIP3    H1 8262   3.427   0.353   5.077
 2766TIP3    H2 8263   3.364   0.457   4.988
 2767TIP3   OH2 8264   0.976   0.215   4.132
 2767TIP3    H1 8265   0.895   0.265   4.130
 2767TIP3    H2 8266   1.022   0.247   4.210
 2768TIP3   OH2 8267   2.998   1.960   2.478
 2768TIP3    H1 8268   3.000   1.919   2.391
 2768TIP3    H2 8269   3.055   2.036   2.470
 2769TIP3   OH2 8270   2.709   1.244   4.720
 2769TIP3    H1 8271   2.749   1.158   4.721
 2769TIP3    H2 8272   2.716   1.275   4.811
 2770TIP3   OH2 8273   0.870   3.615   1.792
 2770TIP3    H1 8274   0.782   3.646   1.770
 2770TIP3    H2 8275   0.864   3.519   1.787
 2771TIP3   OH2 8276   1.935   0.361   2.783
 2771TIP3    H1 8277   1.940   0.293   2.716
 2771TIP3    H2 8278   1.890   0.320   2.856
 2772TIP3   OH2 8279   7.113   4.518   2.213
 2772TIP3    H1 8280   7.105   4.614   2.208
 2772TIP3    H2 8281   7.192   4.503   2.266
 2773TIP3   OH2 8282   2.739   4.414   4.337
 2773TIP3    H1 8283   2.690   4.422   4.255
 2773TIP3    H2 8284   2.769   4.503   4.355
 2774TIP3   OH2 8285   4.884   0.500   1.333
 2774TIP3    H1 8286   4.907   0.442   1.406
 2774TIP3    H2 8287   4.847   0.578   1.375
 2775TIP3   OH2 8288   2.330   1.841   3.146
 2775TIP3    H1 8289   2.353   1.750   3.166
 2775TIP3    H2 8290   2.414   1.883   3.127
 2776TIP3   OH2 8291   6.645   0.663   3.698
 2776TIP3    H1 8292   6.706   0.628   3.633
 2776TIP3    H2 8293   6.626   0.589   3.756
 2777TIP3   OH2 8294   6.864   6.795   5.294
 2777TIP3    H1 8295   6.770   6.796   5.278
 2777TIP3    H2 8296   6.886   6.703   5.305
 2778TIP3   OH2 8297   6.157   2.224   3.567
 2778TIP3    H1 8298   6.245   2.216   3.602
 2778TIP3    H2 8299   6.100   2.190   3.637
 2779TIP3   OH2 8300   0.998   5.140   2.764
 2779TIP3    H1 8301   0.985   5.234   2.754
 2779TIP3    H2 8302   0.934   5.101   2.704
 2780TIP3   OH2 8303   4.544   5.644   3.001
 2780TIP3    H1 8304   4.507   5.731   2.985
 2780TIP3    H2 8305   4.638   5.658   3.006
 2781TIP3   OH2 8306   2.833   5.153   1.608
 2781TIP3    H1 8307   2.765   5.217   1.630
 2781TIP3    H2 8308   2.814   5.078   1.665
 2782TIP3   OH2 8309   3.308   1.298   3.703
 2782TIP3    H1 8310   3.270   1.223   3.656
 2782TIP3    H2 8311   3.238   1.325   3.763
 2783TIP3   OH2 8312   7.189   5.773   1.137
 2783TIP3    H1 8313   7.131   5.849   1.131
 2783TIP3    H2 8314   7.277   5.809   1.133
 2784TIP3   OH2 8315   2.323   3.072   4.740
 2784TIP3    H1 8316   2.390   3.140   4.743
 2784TIP3    H2 8317   2.367   2.993   4.770
 2785TIP3   OH2 8318   3.708   6.293   3.757
 2785TIP3    H1 8319   3.730   6.271   3.666
 2785TIP3    H2 8320   3.662   6.377   3.750
 2786TIP3   OH2 8321   0.156   4.272   2.046
 2786TIP3    H1 8322   0.090   4.341   2.047
 2786TIP3    H2 8323   0.225   4.304   2.104
 2787TIP3   OH2 8324   1.931   1.024   3.822
 2787TIP3    H1 8325   2.012   1.072   3.807
 2787TIP3    H2 8326   1.873   1.087   3.864
 2788TIP3   OH2 8327   7.118   3.745   4.908
 2788TIP3    H1 8328   7.039   3.749   4.854
 2788TIP3    H2 8329   7.107   3.665   4.960
 2789TIP3   OH2 8330   0.369   0.986   5.714
 2789TIP3    H1 8331   0.339   1.042   5.785
 2789TIP3    H2 8332   0.424   0.921   5.756
 2790TIP3   OH2 8333   3.727   5.943   2.621
 2790TIP3    H1 8334   3.673   6.000   2.567
 2790TIP3    H2 8335   3.749   5.869   2.565
 2791TIP3   OH2 8336   2.733   1.538   0.614
 2791TIP3    H1 8337   2.803   1.604   0.612
 2791TIP3    H2 8338   2.717   1.518   0.522
 2792TIP3   OH2 8339   0.620   5.223   4.710
 2792TIP3    H1 8340   0.694   5.239   4.651
 2792TIP3    H2 8341   0.661   5.202   4.794
 2793TIP3   OH2 8342   6.622   1.022   3.401
 2793TIP3    H1 8343   6.548   1.066   3.443
 2793TIP3    H2 8344   6.672   0.984   3.473
 2794TIP3   OH2 8345   6.007   5.196   1.893
 2794TIP3    H1 8346   5.914   5.191   1.915
 2794TIP3    H2 8347   6.022   5.125   1.832
 2795TIP3   OH2 8348   2.862   1.440   5.369
 2795TIP3    H1 8349   2.857   1.345   5.366
 2795TIP3    H2 8350   2.772   1.470   5.358
 2796TIP3   OH2 8351   3.318   5.113   2.000
 2796TIP3    H1 8352   3.297   5.161   2.080
 2796TIP3    H2 8353   3.364   5.035   2.029
 2797TIP3   OH2 8354   3.411   0.229   2.778
 2797TIP3    H1 8355   3.382   0.153   2.828
 2797TIP3    H2 8356   3.494   0.202   2.740
 2798TIP3   OH2 8357   0.615   3.798   3.567
 2798TIP3    H1 8358   0.696   3.747   3.572
 2798TIP3    H2 8359   0.625   3.865   3.634
 2799TIP3   OH2 8360   3.113   1.538   5.280
 2799TIP3    H1 8361   3.029   1.503   5.309
 2799TIP3    H2 8362   3.100   1.559   5.187
 2800TIP3   OH2 8363   3.583   2.225   5.418
 2800TIP3    H1 8364   3.540   2.196   5.498
 2800TIP3    H2 8365   3.667   2.262   5.447
 2801TIP3   OH2 8366   3.144   3.643   5.271
 2801TIP3    H1 8367   3.049   3.648   5.262
 2801TIP3    H2 8368   3.173   3.591   5.196
 2802TIP3   OH2 8369   3.451   5.903   2.713
 2802TIP3    H1 8370   3.376   5.851   2.741
 2802TIP3    H2 8371   3.465   5.878   2.621
 2803TIP3   OH2 8372   3.436   2.051   2.982
 2803TIP3    H1 8373   3.530   2.068   2.977
 2803TIP3    H2 8374   3.421   2.025   3.073
 2804TIP3   OH2 8375   0.120   2.038   4.159
 2804TIP3    H1 8376   0.027   2.053   4.146
 2804TIP3    H2 8377   0.130   2.027   4.254
 2805TIP3   OH2 8378   6.740   2.405   3.370
 2805TIP3    H1 8379   6.730   2.323   3.418
 2805TIP3    H2 8380   6.825   2.398   3.328
 2806TIP3   OH2 8381   2.821   5.769   2.780
 2806TIP3    H1 8382   2.862   5.833   2.721
 2806TIP3    H2 8383   2.734   5.755   2.742
 2807TIP3   OH2 8384   6.041   4.421   1.463
 2807TIP3    H1 8385   5.959   4.411   1.415
 2807TIP3    H2 8386   6.034   4.507   1.506
 2808TIP3   OH2 8387   5.530   0.951   5.143
 2808TIP3    H1 8388   5.449   0.906   5.167
 2808TIP3    H2 8389   5.557   0.911   5.061
 2809TIP3   OH2 8390   4.780   2.433   4.372
 2809TIP3    H1 8391   4.824   2.496   4.316
 2809TIP3    H2 8392   4.848   2.370   4.396
 2810TIP3   OH2 8393   5.065   3.560   5.694
 2810TIP3    H1 8394   4.979   3.595   5.718
 2810TIP3    H2 8395   5.053   3.465   5.694
 2811TIP3   OH2 8396   0.463   2.862   5.718
 2811TIP3    H1 8397   0.502   2.831   5.800
 2811TIP3    H2 8398   0.432   2.951   5.738
 2812TIP3   OH2 8399   1.706   0.823   0.649
 2812TIP3    H1 8400   1.712   0.729   0.632
 2812TIP3    H2 8401   1.692   0.830   0.743
 2813TIP3   OH2 8402   2.775   1.761   1.888
 2813TIP3    H1 8403   2.865   1.779   1.915
 2813TIP3    H2 8404   2.730   1.845   1.896
 2814TIP3   OH2 8405   6.835   1.147   0.432
 2814TIP3    H1 8406   6.766   1.087   0.403
 2814TIP3    H2 8407   6.886   1.165   0.353
 2815TIP3   OH2 8408   1.796   1.982   2.880
 2815TIP3    H1 8409   1.834   1.922   2.944
 2815TIP3    H2 8410   1.702   1.970   2.888
 2816TIP3   OH2 8411   2.785   4.189   3.517
 2816TIP3    H1 8412   2.805   4.122   3.452
 2816TIP3    H2 8413   2.772   4.141   3.599
 2817TIP3   OH2 8414   1.166   3.351   0.858
 2817TIP3    H1 8415   1.145   3.264   0.894
 2817TIP3    H2 8416   1.173   3.337   0.764
 2818TIP3   OH2 8417   2.034   5.324   5.408
 2818TIP3    H1 8418   1.956   5.294   5.454
 2818TIP3    H2 8419   2.044   5.416   5.435
 2819TIP3   OH2 8420   6.159   3.707   4.372
 2819TIP3    H1 8421   6.107   3.645   4.424
 2819TIP3    H2 8422   6.105   3.725   4.295
 2820TIP3   OH2 8423   6.316   6.683   2.846
 2820TIP3    H1 8424   6.275   6.658   2.929
 2820TIP3    H2 8425   6.267   6.760   2.817
 2821TIP3   OH2 8426   1.231   4.410   5.217
 2821TIP3    H1 8427   1.168   4.378   5.283
 2821TIP3    H2 8428   1.183   4.404   5.134
 2822TIP3   OH2 8429   3.928   4.827   2.482
 2822TIP3    H1 8430   3.942   4.741   2.523
 2822TIP3    H2 8431   3.951   4.889   2.551
 2823TIP3   OH2 8432   3.485   6.515   4.079
 2823TIP3    H1 8433   3.532   6.543   4.157
 2823TIP3    H2 8434   3.393   6.535   4.097
 2824TIP3   OH2 8435   1.983   6.664   2.402
 2824TIP3    H1 8436   1.967   6.732   2.467
 2824TIP3    H2 8437   1.981   6.710   2.318
 2825TIP3   OH2 8438   5.158   4.978   1.347
 2825TIP3    H1 8439   5.188   5.052   1.400
 2825TIP3    H2 8440   5.092   5.016   1.289
 2826TIP3   OH2 8441   5.130   0.466   4.437
 2826TIP3    H1 8442   5.165   0.543   4.391
 2826TIP3    H2 8443   5.143   0.394   4.376
 2827TIP3   OH2 8444   3.379   3.453   1.134
 2827TIP3    H1 8445   3.453   3.506   1.166
 2827TIP3    H2 8446   3.313   3.460   1.203
 2828TIP3   OH2 8447   0.702   3.069   2.494
 2828TIP3    H1 8448   0.607   3.056   2.488
 2828TIP3    H2 8449   0.713   3.135   2.563
 2829TIP3   OH2 8450   5.943   0.161   0.496
 2829TIP3    H1 8451   5.974   0.247   0.525
 2829TIP3    H2 8452   5.854   0.155   0.531
 2830TIP3   OH2 8453   0.296   6.537   5.098
 2830TIP3    H1 8454   0.377   6.559   5.052
 2830TIP3    H2 8455   0.262   6.460   5.051
 2831TIP3   OH2 8456   4.995   0.828   5.507
 2831TIP3    H1 8457   5.089   0.841   5.525
 2831TIP3    H2 8458   4.964   0.775   5.581
 2832TIP3   OH2 8459   0.681   3.292   4.461
 2832TIP3    H1 8460   0.601   3.242   4.448
 2832TIP3    H2 8461   0.665   3.375   4.415
 2833TIP3   OH2 8462   1.039   0.414   0.970
 2833TIP3    H1 8463   0.965   0.354   0.978
 2833TIP3    H2 8464   1.116   0.357   0.963
 2834TIP3   OH2 8465   1.756   5.155   2.278
 2834TIP3    H1 8466   1.771   5.197   2.362
 2834TIP3    H2 8467   1.818   5.082   2.276
 2835TIP3   OH2 8468   0.659   1.423   1.409
 2835TIP3    H1 8469   0.642   1.492   1.344
 2835TIP3    H2 8470   0.696   1.470   1.484
 2836TIP3   OH2 8471   0.059   2.440   5.727
 2836TIP3    H1 8472   0.026   2.433   5.637
 2836TIP3    H2 8473   0.030   2.527   5.755
 2837TIP3   OH2 8474   4.376   4.204   1.308
 2837TIP3    H1 8475   4.352   4.170   1.223
 2837TIP3    H2 8476   4.426   4.283   1.289
 2838TIP3   OH2 8477   6.784   3.929   4.295
 2838TIP3    H1 8478   6.865   3.975   4.318
 2838TIP3    H2 8479   6.811   3.838   4.281
 2839TIP3   OH2 8480   4.491   4.444   1.202
 2839TIP3    H1 8481   4.516   4.440   1.294
 2839TIP3    H2 8482   4.574   4.459   1.156
 2840TIP3   OH2 8483   5.402   2.091   3.261
 2840TIP3    H1 8484   5.422   2.002   3.233
 2840TIP3    H2 8485   5.418   2.091   3.355
 2841TIP3   OH2 8486   4.171   2.154   3.945
 2841TIP3    H1 8487   4.255   2.132   3.984
 2841TIP3    H2 8488   4.107   2.107   3.999
 2842TIP3   OH2 8489   5.257   3.401   4.361
 2842TIP3    H1 8490   5.302   3.318   4.344
 2842TIP3    H2 8491   5.219   3.426   4.276
 2843TIP3   OH2 8492   1.652   2.453   1.347
 2843TIP3    H1 8493   1.641   2.527   1.288
 2843TIP3    H2 8494   1.567   2.408   1.346
 2844TIP3   OH2 8495   0.633   4.236   5.136
 2844TIP3    H1 8496   0.581   4.296   5.083
 2844TIP3    H2 8497   0.688   4.189   5.072
 2845TIP3   OH2 8498   4.469   5.737   4.060
 2845TIP3    H1 8499   4.551   5.750   4.012
 2845TIP3    H2 8500   4.497   5.714   4.149
 2846TIP3   OH2 8501   0.969   1.748   3.558
 2846TIP3    H1 8502   0.980   1.843   3.559
 2846TIP3    H2 8503   1.045   1.716   3.509
 2847TIP3   OH2 8504   3.590   2.814   4.260
 2847TIP3    H1 8505   3.548   2.748   4.315
 2847TIP3    H2 8506   3.623   2.766   4.185
 2848TIP3   OH2 8507   0.069   2.121   5.068
 2848TIP3    H1 8508   0.008   2.081   5.131
 2848TIP3    H2 8509   0.042   2.212   5.063
 2849TIP3   OH2 8510   1.780   3.542   4.755
 2849TIP3    H1 8511   1.756   3.592   4.833
 2849TIP3    H2 8512   1.789   3.452   4.785
 2850TIP3   OH2 8513   0.548   3.544   3.871
 2850TIP3    H1 8514   0.562   3.508   3.783
 2850TIP3    H2 8515   0.503   3.627   3.857
 2851TIP3   OH2 8516   5.099   0.524   0.926
 2851TIP3    H1 8517   5.109   0.480   0.841
 2851TIP3    H2 8518   5.144   0.467   0.988
 2852TIP3   OH2 8519   2.575   3.849   1.326
 2852TIP3    H1 8520   2.617   3.773   1.367
 2852TIP3    H2 8521   2.644   3.915   1.322
 2853TIP3   OH2 8522   0.439   1.710   0.668
 2853TIP3    H1 8523   0.509   1.701   0.732
 2853TIP3    H2 8524   0.471   1.664   0.590
 2854TIP3   OH2 8525   5.635   0.081   5.628
 2854TIP3    H1 8526   5.683   0.159   5.654
 2854TIP3    H2 8527   5.700   0.011   5.628
 2855TIP3   OH2 8528   3.785   5.869   3.534
 2855TIP3    H1 8529   3.880   5.881   3.543
 2855TIP3    H2 8530   3.759   5.826   3.616
 2856TIP3   OH2 8531   2.474   3.039   0.416
 2856TIP3    H1 8532   2.465   2.971   0.483
 2856TIP3    H2 8533   2.397   3.027   0.361
 2857TIP3   OH2 8534   1.444   0.452   3.140
 2857TIP3    H1 8535   1.450   0.534   3.190
 2857TIP3    H2 8536   1.517   0.457   3.078
 2858TIP3   OH2 8537   1.990   4.169   3.657
 2858TIP3    H1 8538   2.002   4.093   3.714
 2858TIP3    H2 8539   1.948   4.135   3.578
 2859TIP3   OH2 8540   0.549   2.187   1.811
 2859TIP3    H1 8541   0.515   2.275   1.791
 2859TIP3    H2 8542   0.626   2.203   1.866
 2860TIP3   OH2 8543   2.758   6.575   1.440
 2860TIP3    H1 8544   2.822   6.601   1.373
 2860TIP3    H2 8545   2.761   6.479   1.441
 2861TIP3   OH2 8546   5.508   0.145   1.996
 2861TIP3    H1 8547   5.551   0.222   2.033
 2861TIP3    H2 8548   5.551   0.071   2.038
 2862TIP3   OH2 8549   3.154   2.586   3.573
 2862TIP3    H1 8550   3.229   2.611   3.627
 2862TIP3    H2 8551   3.142   2.493   3.591
 2863TIP3   OH2 8552   2.362   0.474   5.408
 2863TIP3    H1 8553   2.306   0.544   5.439
 2863TIP3    H2 8554   2.302   0.409   5.371
 2864TIP3   OH2 8555   0.970   3.800   4.464
 2864TIP3    H1 8556   0.875   3.809   4.473
 2864TIP3    H2 8557   1.004   3.813   4.552
 2865TIP3   OH2 8558   3.405   6.716   1.936
 2865TIP3    H1 8559   3.339   6.732   1.869
 2865TIP3    H2 8560   3.361   6.738   2.018
 2866TIP3   OH2 8561   5.535   2.657   5.567
 2866TIP3    H1 8562   5.576   2.589   5.621
 2866TIP3    H2 8563   5.546   2.626   5.477
 2867TIP3   OH2 8564   2.317   4.308   3.045
 2867TIP3    H1 8565   2.292   4.330   2.955
 2867TIP3    H2 8566   2.258   4.236   3.070
 2868TIP3   OH2 8567   5.543   5.953   1.648
 2868TIP3    H1 8568   5.522   6.001   1.728
 2868TIP3    H2 8569   5.458   5.919   1.618
 2869TIP3   OH2 8570   5.730   0.345   1.519
 2869TIP3    H1 8571   5.666   0.292   1.567
 2869TIP3    H2 8572   5.698   0.435   1.529
 2870TIP3   OH2 8573   0.736   2.514   0.268
 2870TIP3    H1 8574   0.760   2.464   0.190
 2870TIP3    H2 8575   0.794   2.590   0.266
 2871TIP3   OH2 8576   5.976   3.626   3.702
 2871TIP3    H1 8577   5.929   3.644   3.783
 2871TIP3    H2 8578   5.952   3.536   3.679
 2872TIP3   OH2 8579   3.883   5.298   0.339
 2872TIP3    H1 8580   3.811   5.359   0.324
 2872TIP3    H2 8581   3.850   5.238   0.406
 2873TIP3   OH2 8582   4.320   6.315   4.741
 2873TIP3    H1 8583   4.348   6.303   4.650
 2873TIP3    H2 8584   4.393   6.282   4.793
 2874TIP3   OH2 8585   1.887   2.301   3.464
 2874TIP3    H1 8586   1.972   2.265   3.486
 2874TIP3    H2 8587   1.833   2.283   3.541
 2875TIP3   OH2 8588   0.840   1.877   0.110
 2875TIP3    H1 8589   0.848   1.784   0.131
 2875TIP3    H2 8590   0.767   1.907   0.164
 2876TIP3   OH2 8591   3.056   4.777   1.726
 2876TIP3    H1 8592   3.040   4.683   1.728
 2876TIP3    H2 8593   3.079   4.796   1.635
 2877TIP3   OH2 8594   5.662   5.394   2.713
 2877TIP3    H1 8595   5.569   5.395   2.691
 2877TIP3    H2 8596   5.676   5.309   2.754
 2878TIP3   OH2 8597   3.154   4.119   3.404
 2878TIP3    H1 8598   3.152   4.190   3.340
 2878TIP3    H2 8599   3.062   4.097   3.418
 2879TIP3   OH2 8600   3.503   2.609   0.035
 2879TIP3    H1 8601   3.541   2.697   0.040
 2879TIP3    H2 8602   3.484   2.597  -0.058
 2880TIP3   OH2 8603   4.219   3.596   5.226
 2880TIP3    H1 8604   4.131   3.574   5.258
 2880TIP3    H2 8605   4.278   3.550   5.286
 2881TIP3   OH2 8606   2.911   5.784   4.987
 2881TIP3    H1 8607   3.001   5.790   4.952
 2881TIP3    H2 8608   2.868   5.720   4.930
 2882TIP3   OH2 8609   6.318   2.992   5.250
 2882TIP3    H1 8610   6.411   3.009   5.234
 2882TIP3    H2 8611   6.273   3.065   5.206
 2883TIP3   OH2 8612   1.777   3.761   4.456
 2883TIP3    H1 8613   1.839   3.759   4.383
 2883TIP3    H2 8614   1.750   3.853   4.461
 2884TIP3   OH2 8615   1.579   3.862   2.331
 2884TIP3    H1 8616   1.652   3.800   2.320
 2884TIP3    H2 8617   1.598   3.907   2.413
 2885TIP3   OH2 8618   3.592   2.977   0.599
 2885TIP3    H1 8619   3.581   3.057   0.651
 2885TIP3    H2 8620   3.634   3.006   0.518
 2886TIP3   OH2 8621   6.747   0.484   4.297
 2886TIP3    H1 8622   6.713   0.555   4.242
 2886TIP3    H2 8623   6.794   0.530   4.367
 2887TIP3   OH2 8624   5.831   5.784  -0.024
 2887TIP3    H1 8625   5.902   5.832   0.019
 2887TIP3    H2 8626   5.804   5.718   0.040
 2888TIP3   OH2 8627   2.799   0.652   4.954
 2888TIP3    H1 8628   2.807   0.568   5.000
 2888TIP3    H2 8629   2.710   0.682   4.974
 2889TIP3   OH2 8630   4.126   4.422   5.711
 2889TIP3    H1 8631   4.081   4.494   5.755
 2889TIP3    H2 8632   4.056   4.360   5.689
 2890TIP3   OH2 8633   6.829   5.796   3.101
 2890TIP3    H1 8634   6.880   5.715   3.093
 2890TIP3    H2 8635   6.824   5.830   3.012
 2891TIP3   OH2 8636   5.827   3.822   4.573
 2891TIP3    H1 8637   5.785   3.844   4.490
 2891TIP3    H2 8638   5.756   3.820   4.636
 2892TIP3   OH2 8639   4.105   1.335   0.177
 2892TIP3    H1 8640   4.155   1.415   0.190
 2892TIP3    H2 8641   4.164   1.265   0.201
 2893TIP3   OH2 8642   3.221   1.476   2.493
 2893TIP3    H1 8643   3.145   1.494   2.439
 2893TIP3    H2 8644   3.261   1.561   2.509
 2894TIP3   OH2 8645   5.690   2.213   2.479
 2894TIP3    H1 8646   5.666   2.261   2.400
 2894TIP3    H2 8647   5.781   2.189   2.466
 2895TIP3   OH2 8648   6.242   0.417   1.821
 2895TIP3    H1 8649   6.174   0.399   1.886
 2895TIP3    H2 8650   6.297   0.339   1.822
 2896TIP3   OH2 8651   4.062   0.269   0.947
 2896TIP3    H1 8652   4.067   0.192   0.889
 2896TIP3    H2 8653   3.990   0.249   1.007
 2897TIP3   OH2 8654   3.976   1.923   1.197
 2897TIP3    H1 8655   3.989   2.018   1.201
 2897TIP3    H2 8656   3.919   1.910   1.121
 2898TIP3   OH2 8657   5.850   3.002   2.416
 2898TIP3    H1 8658   5.861   2.929   2.356
 2898TIP3    H2 8659   5.822   2.963   2.498
 2899TIP3   OH2 8660   2.712   3.714   1.773
 2899TIP3    H1 8661   2.676   3.675   1.853
 2899TIP3    H2 8662   2.654   3.788   1.754
 2900TIP3   OH2 8663   2.031   5.458   5.164
 2900TIP3    H1 8664   2.054   5.368   5.188
 2900TIP3    H2 8665   2.106   5.511   5.192
 2901TIP3   OH2 8666   4.773   5.567   3.534
 2901TIP3    H1 8667   4.748   5.478   3.558
 2901TIP3    H2 8668   4.729   5.582   3.450
 2902TIP3   OH2 8669   4.008   3.009   0.075
 2902TIP3    H1 8670   3.978   2.963   0.154
 2902TIP3    H2 8671   3.987   3.101   0.091
 2903TIP3   OH2 8672   6.406   4.656   4.254
 2903TIP3    H1 8673   6.329   4.704   4.285
 2903TIP3    H2 8674   6.371   4.591   4.194
 2904TIP3   OH2 8675   2.874   1.409   2.817
 2904TIP3    H1 8676   2.942   1.381   2.877
 2904TIP3    H2 8677   2.855   1.499   2.843
 2905TIP3   OH2 8678   5.074   1.488   4.146
 2905TIP3    H1 8679   5.077   1.494   4.051
 2905TIP3    H2 8680   4.990   1.447   4.165
 2906TIP3   OH2 8681   6.109   6.437   2.631
 2906TIP3    H1 8682   6.177   6.479   2.579
 2906TIP3    H2 8683   6.152   6.363   2.672
 2907TIP3   OH2 8684   1.106   3.912   1.760
 2907TIP3    H1 8685   1.190   3.951   1.783
 2907TIP3    H2 8686   1.063   3.893   1.844
 2908TIP3   OH2 8687   2.165   4.381   3.619
 2908TIP3    H1 8688   2.128   4.407   3.534
 2908TIP3    H2 8689   2.093   4.338   3.665
 2909TIP3   OH2 8690   0.084   3.361   3.099
 2909TIP3    H1 8691   0.146   3.365   3.171
 2909TIP3    H2 8692   0.068   3.268   3.086
 2910TIP3   OH2 8693   5.468   5.481   5.760
 2910TIP3    H1 8694   5.480   5.432   5.841
 2910TIP3    H2 8695   5.549   5.465   5.710
 2911TIP3   OH2 8696   2.037   0.926   2.599
 2911TIP3    H1 8697   2.093   0.982   2.545
 2911TIP3    H2 8698   2.065   0.944   2.689
 2912TIP3   OH2 8699   0.872   5.260   4.621
 2912TIP3    H1 8700   0.918   5.321   4.679
 2912TIP3    H2 8701   0.940   5.201   4.589
 2913TIP3   OH2 8702   1.850   3.466   0.041
 2913TIP3    H1 8703   1.799   3.434   0.116
 2913TIP3    H2 8704   1.936   3.426   0.052
 2914TIP3   OH2 8705   1.373   6.420   1.603
 2914TIP3    H1 8706   1.428   6.483   1.650
 2914TIP3    H2 8707   1.380   6.446   1.511
 2915TIP3   OH2 8708   6.376   2.720   5.027
 2915TIP3    H1 8709   6.405   2.678   5.108
 2915TIP3    H2 8710   6.443   2.787   5.010
 2916TIP3   OH2 8711   0.820   1.673   2.759
 2916TIP3    H1 8712   0.828   1.589   2.802
 2916TIP3    H2 8713   0.781   1.653   2.674
 2917TIP3   OH2 8714   6.024   4.832   4.867
 2917TIP3    H1 8715   6.039   4.769   4.796
 2917TIP3    H2 8716   6.069   4.794   4.943
 2918TIP3   OH2 8717   0.209   4.724   5.749
 2918TIP3    H1 8718   0.287   4.725   5.805
 2918TIP3    H2 8719   0.142   4.768   5.800
 2919TIP3   OH2 8720   3.992   3.812   0.703
 2919TIP3    H1 8721   3.969   3.881   0.765
 2919TIP3    H2 8722   4.025   3.859   0.626
 2920TIP3   OH2 8723   2.217   1.975   2.300
 2920TIP3    H1 8724   2.225   2.070   2.298
 2920TIP3    H2 8725   2.210   1.954   2.394
 2921TIP3   OH2 8726   0.634   0.721   4.542
 2921TIP3    H1 8727   0.588   0.742   4.623
 2921TIP3    H2 8728   0.726   0.738   4.562
 2922TIP3   OH2 8729   4.473   0.452   1.191
 2922TIP3    H1 8730   4.496   0.477   1.281
 2922TIP3    H2 8731   4.458   0.358   1.195
 2923TIP3   OH2 8732   2.225   3.360   1.255
 2923TIP3    H1 8733   2.178   3.394   1.179
 2923TIP3    H2 8734   2.158   3.320   1.310
 2924TIP3   OH2 8735   1.146   3.553   1.051
 2924TIP3    H1 8736   1.097   3.496   0.991
 2924TIP3    H2 8737   1.166   3.497   1.126
 2925TIP3   OH2 8738   2.368   2.006   3.925
 2925TIP3    H1 8739   2.332   1.917   3.929
 2925TIP3    H2 8740   2.455   1.998   3.963
 2926TIP3   OH2 8741   0.540   5.961   3.864
 2926TIP3    H1 8742   0.564   6.021   3.793
 2926TIP3    H2 8743   0.463   5.915   3.830
 2927TIP3   OH2 8744   0.354   2.084   1.650
 2927TIP3    H1 8745   0.375   2.093   1.557
 2927TIP3    H2 8746   0.436   2.103   1.695
 2928TIP3   OH2 8747   5.590   0.854   2.157
 2928TIP3    H1 8748   5.570   0.874   2.248
 2928TIP3    H2 8749   5.514   0.803   2.126
 2929TIP3   OH2 8750   5.190   1.360   1.664
 2929TIP3    H1 8751   5.216   1.393   1.750
 2929TIP3    H2 8752   5.137   1.282   1.683
 2930TIP3   OH2 8753   1.947   0.035   0.485
 2930TIP3    H1 8754   1.949   0.066   0.576
 2930TIP3    H2 8755   1.937   0.114   0.433
 2931TIP3   OH2 8756   5.483   1.614   2.978
 2931TIP3    H1 8757   5.472   1.580   2.890
 2931TIP3    H2 8758   5.455   1.542   3.035
 2932TIP3   OH2 8759   3.943   1.841   2.502
 2932TIP3    H1 8760   3.933   1.747   2.519
 2932TIP3    H2 8761   4.035   1.860   2.523
 2933TIP3   OH2 8762   3.967   0.752   3.464
 2933TIP3    H1 8763   4.051   0.706   3.470
 2933TIP3    H2 8764   3.920   0.707   3.394
 2934TIP3   OH2 8765   6.516   4.406   2.759
 2934TIP3    H1 8766   6.596   4.353   2.752
 2934TIP3    H2 8767   6.548   4.496   2.762
 2935TIP3   OH2 8768   3.482   2.479   0.641
 2935TIP3    H1 8769   3.439   2.419   0.703
 2935TIP3    H2 8770   3.428   2.558   0.643
 2936TIP3   OH2 8771   0.503   2.104   1.127
 2936TIP3    H1 8772   0.461   2.182   1.090
 2936TIP3    H2 8773   0.591   2.104   1.089
 2937TIP3   OH2 8774   7.048   1.280   3.800
 2937TIP3    H1 8775   7.077   1.284   3.891
 2937TIP3    H2 8776   6.982   1.211   3.799
 2938TIP3   OH2 8777   0.480   2.391   0.996
 2938TIP3    H1 8778   0.554   2.448   0.974
 2938TIP3    H2 8779   0.443   2.366   0.911
 2939TIP3   OH2 8780   3.004   5.132   1.005
 2939TIP3    H1 8781   3.082   5.115   1.058
 2939TIP3    H2 8782   2.995   5.227   1.006
 2940TIP3   OH2 8783   2.364   6.203   4.872
 2940TIP3    H1 8784   2.299   6.133   4.877
 2940TIP3    H2 8785   2.392   6.215   4.962
 2941TIP3   OH2 8786   0.844   1.899   5.886
 2941TIP3    H1 8787   0.873   1.972   5.832
 2941TIP3    H2 8788   0.816   1.939   5.968
 2942TIP3   OH2 8789   5.144   4.063   5.129
 2942TIP3    H1 8790   5.230   4.070   5.089
 2942TIP3    H2 8791   5.095   4.006   5.070
 2943TIP3   OH2 8792   1.363   3.897   4.712
 2943TIP3    H1 8793   1.311   3.820   4.736
 2943TIP3    H2 8794   1.311   3.971   4.745
 2944TIP3   OH2 8795   1.498   2.127   0.103
 2944TIP3    H1 8796   1.502   2.035   0.130
 2944TIP3    H2 8797   1.589   2.155   0.101
 2945TIP3   OH2 8798   6.827   4.838   2.568
 2945TIP3    H1 8799   6.869   4.760   2.530
 2945TIP3    H2 8800   6.736   4.833   2.539
 2946TIP3   OH2 8801   2.115   4.783   2.540
 2946TIP3    H1 8802   2.059   4.731   2.598
 2946TIP3    H2 8803   2.114   4.736   2.457
 2947TIP3   OH2 8804   4.278   0.765   4.293
 2947TIP3    H1 8805   4.368   0.788   4.272
 2947TIP3    H2 8806   4.273   0.671   4.277
 2948TIP3   OH2 8807   1.918   2.065   1.592
 2948TIP3    H1 8808   1.962   1.994   1.639
 2948TIP3    H2 8809   1.934   2.142   1.646
 2949TIP3   OH2 8810   5.434   1.750   2.550
 2949TIP3    H1 8811   5.455   1.670   2.598
 2949TIP3    H2 8812   5.499   1.754   2.480
 2950TIP3   OH2 8813   5.427   0.158   4.796
 2950TIP3    H1 8814   5.493   0.136   4.730
 2950TIP3    H2 8815   5.454   0.243   4.830
 2951TIP3   OH2 8816   2.339   4.502   1.905
 2951TIP3    H1 8817   2.380   4.553   1.975
 2951TIP3    H2 8818   2.317   4.567   1.838
 2952TIP3   OH2 8819   6.627   1.782   4.203
 2952TIP3    H1 8820   6.553   1.726   4.181
 2952TIP3    H2 8821   6.691   1.767   4.133
 2953TIP3   OH2 8822   4.319   3.806   0.859
 2953TIP3    H1 8823   4.349   3.869   0.794
 2953TIP3    H2 8824   4.257   3.855   0.913
 2954TIP3   OH2 8825   4.642   5.874   1.690
 2954TIP3    H1 8826   4.603   5.923   1.618
 2954TIP3    H2 8827   4.632   5.782   1.665
 2955TIP3   OH2 8828   5.987   5.924   3.954
 2955TIP3    H1 8829   6.017   5.944   3.865
 2955TIP3    H2 8830   5.893   5.944   3.952
 2956TIP3   OH2 8831   4.357   0.224   4.510
 2956TIP3    H1 8832   4.281   0.229   4.452
 2956TIP3    H2 8833   4.348   0.300   4.568
 2957TIP3   OH2 8834   0.882   5.105   3.026
 2957TIP3    H1 8835   0.927   5.108   2.941
 2957TIP3    H2 8836   0.794   5.139   3.007
 2958TIP3   OH2 8837   0.136   6.445   4.733
 2958TIP3    H1 8838   0.149   6.383   4.661
 2958TIP3    H2 8839   0.041   6.458   4.736
 2959TIP3   OH2 8840   5.585   0.908   5.782
 2959TIP3    H1 8841   5.588   0.923   5.688
 2959TIP3    H2 8842   5.514   0.845   5.794
 2960TIP3   OH2 8843   6.604   0.864   2.926
 2960TIP3    H1 8844   6.622   0.873   3.020
 2960TIP3    H2 8845   6.566   0.948   2.901
 2961TIP3   OH2 8846   5.742   2.431   5.735
 2961TIP3    H1 8847   5.647   2.430   5.746
 2961TIP3    H2 8848   5.763   2.523   5.717
 2962TIP3   OH2 8849   0.305   4.483   2.813
 2962TIP3    H1 8850   0.254   4.487   2.894
 2962TIP3    H2 8851   0.241   4.469   2.744
 2963TIP3   OH2 8852   2.815   2.307   3.494
 2963TIP3    H1 8853   2.838   2.333   3.405
 2963TIP3    H2 8854   2.760   2.378   3.526
 2964TIP3   OH2 8855   4.594   0.721   5.864
 2964TIP3    H1 8856   4.544   0.786   5.815
 2964TIP3    H2 8857   4.571   0.637   5.825
 2965TIP3   OH2 8858   3.830   3.941   5.881
 2965TIP3    H1 8859   3.918   3.941   5.842
 2965TIP3    H2 8860   3.779   3.883   5.824
 2966TIP3   OH2 8861   0.515   6.478   4.759
 2966TIP3    H1 8862   0.492   6.404   4.816
 2966TIP3    H2 8863   0.457   6.549   4.786
 2967TIP3   OH2 8864   2.437   6.115   2.411
 2967TIP3    H1 8865   2.431   6.080   2.323
 2967TIP3    H2 8866   2.382   6.057   2.464
 2968TIP3   OH2 8867   6.674   1.658   3.274
 2968TIP3    H1 8868   6.680   1.746   3.310
 2968TIP3    H2 8869   6.724   1.604   3.335
 2969TIP3   OH2 8870   7.145   3.992   3.534
 2969TIP3    H1 8871   7.058   3.970   3.502
 2969TIP3    H2 8872   7.136   3.989   3.630
 2970TIP3   OH2 8873   5.709   6.675   3.778
 2970TIP3    H1 8874   5.762   6.597   3.761
 2970TIP3    H2 8875   5.772   6.740   3.809
 2971TIP3   OH2 8876   2.493   5.995   1.058
 2971TIP3    H1 8877   2.494   6.091   1.060
 2971TIP3    H2 8878   2.465   5.970   1.146
 2972TIP3   OH2 8879   6.660   3.847   0.286
 2972TIP3    H1 8880   6.639   3.792   0.210
 2972TIP3    H2 8881   6.749   3.824   0.309
 2973TIP3   OH2 8882   6.800   1.770   5.827
 2973TIP3    H1 8883   6.764   1.686   5.856
 2973TIP3    H2 8884   6.735   1.835   5.856
 2974TIP3   OH2 8885   0.489   1.069   2.927
 2974TIP3    H1 8886   0.432   1.083   2.851
 2974TIP3    H2 8887   0.572   1.109   2.903
 2975TIP3   OH2 8888   2.323   5.677   5.627
 2975TIP3    H1 8889   2.405   5.705   5.588
 2975TIP3    H2 8890   2.311   5.734   5.703
 2976TIP3   OH2 8891   1.960   4.051   4.285
 2976TIP3    H1 8892   1.977   3.975   4.231
 2976TIP3    H2 8893   1.896   4.021   4.350
 2977TIP3   OH2 8894   6.122   6.017   5.634
 2977TIP3    H1 8895   6.122   5.988   5.543
 2977TIP3    H2 8896   6.169   5.948   5.682
 2978TIP3   OH2 8897   6.539   0.324   5.522
 2978TIP3    H1 8898   6.513   0.275   5.444
 2978TIP3    H2 8899   6.626   0.290   5.543
 2979TIP3   OH2 8900   1.054   0.286   4.378
 2979TIP3    H1 8901   1.108   0.224   4.427
 2979TIP3    H2 8902   1.048   0.363   4.433
 2980TIP3   OH2 8903   5.265   1.783   3.733
 2980TIP3    H1 8904   5.280   1.854   3.796
 2980TIP3    H2 8905   5.270   1.703   3.786
 2981TIP3   OH2 8906   2.781   2.872   1.085
 2981TIP3    H1 8907   2.826   2.801   1.038
 2981TIP3    H2 8908   2.731   2.917   1.018
 2982TIP3   OH2 8909   6.717   3.136   2.836
 2982TIP3    H1 8910   6.743   3.064   2.780
 2982TIP3    H2 8911   6.621   3.134   2.836
 2983TIP3   OH2 8912   1.616   2.528   2.907
 2983TIP3    H1 8913   1.659   2.586   2.844
 2983TIP3    H2 8914   1.548   2.484   2.856
 2984TIP3   OH2 8915   6.622   4.715   0.661
 2984TIP3    H1 8916   6.599   4.677   0.746
 2984TIP3    H2 8917   6.659   4.642   0.611
 2985TIP3   OH2 8918   3.536   2.920   1.640
 2985TIP3    H1 8919   3.630   2.935   1.632
 2985TIP3    H2 8920   3.529   2.840   1.692
 2986TIP3   OH2 8921   2.396   1.919   2.089
 2986TIP3    H1 8922   2.384   1.951   2.178
 2986TIP3    H2 8923   2.309   1.922   2.050
 2987TIP3   OH2 8924   2.894   5.423   2.895
 2987TIP3    H1 8925   2.964   5.420   2.829
 2987TIP3    H2 8926   2.819   5.459   2.847
 2988TIP3   OH2 8927   1.602   5.943   5.567
 2988TIP3    H1 8928   1.572   5.880   5.633
 2988TIP3    H2 8929   1.540   6.015   5.572
 2989TIP3   OH2 8930   6.307   0.670   0.560
 2989TIP3    H1 8931   6.269   0.662   0.648
 2989TIP3    H2 8932   6.285   0.588   0.517
 2990TIP3   OH2 8933   4.185   6.026   4.947
 2990TIP3    H1 8934   4.233   5.997   5.025
 2990TIP3    H2 8935   4.094   6.003   4.965
 2991TIP3   OH2 8936   1.496   3.848   0.701
 2991TIP3    H1 8937   1.422   3.858   0.759
 2991TIP3    H2 8938   1.473   3.774   0.644
 2992TIP3   OH2 8939   3.011   4.356   0.503
 2992TIP3    H1 8940   3.015   4.431   0.444
 2992TIP3    H2 8941   2.921   4.354   0.535
 2993TIP3   OH2 8942   3.386   5.945   1.599
 2993TIP3    H1 8943   3.421   6.032   1.618
 2993TIP3    H2 8944   3.441   5.885   1.649
 2994TIP3   OH2 8945   1.383   4.551   3.691
 2994TIP3    H1 8946   1.460   4.595   3.655
 2994TIP3    H2 8947   1.338   4.515   3.615
 2995TIP3   OH2 8948   4.088   2.928   3.706
 2995TIP3    H1 8949   4.163   2.985   3.687
 2995TIP3    H2 8950   4.127   2.840   3.711
 2996TIP3   OH2 8951   7.018   0.997   2.306
 2996TIP3    H1 8952   6.973   0.963   2.229
 2996TIP3    H2 8953   7.035   1.089   2.286
 2997TIP3   OH2 8954   1.692   2.190   1.979
 2997TIP3    H1 8955   1.661   2.114   1.930
 2997TIP3    H2 8956   1.770   2.159   2.025
 2998TIP3   OH2 8957   3.331   4.577   1.703
 2998TIP3    H1 8958   3.368   4.586   1.791
 2998TIP3    H2 8959   3.289   4.662   1.687
 2999TIP3   OH2 8960   3.154   5.408   4.131
 2999TIP3    H1 8961   3.140   5.399   4.036
 2999TIP3    H2 8962   3.094   5.477   4.158
 3000TIP3   OH2 8963   6.232   1.962   4.817
 3000TIP3    H1 8964   6.170   2.000   4.879
 3000TIP3    H2 8965   6.179   1.935   4.742
 3001TIP3   OH2 8966   3.634   2.410   4.565
 3001TIP3    H1 8967   3.637   2.494   4.519
 3001TIP3    H2 8968   3.540   2.390   4.570
 3002TIP3   OH2 8969   0.507   1.689   2.159
 3002TIP3    H1 8970   0.528   1.667   2.250
 3002TIP3    H2 8971   0.591   1.719   2.123
 3003TIP3   OH2 8972   6.602   5.985   3.238
 3003TIP3    H1 8973   6.595   5.891   3.254
 3003TIP3    H2 8974   6.611   5.993   3.143
 3004TIP3   OH2 8975   1.374   1.863   1.699
 3004TIP3    H1 8976   1.428   1.792   1.733
 3004TIP3    H2 8977   1.330   1.825   1.622
 3005TIP3   OH2 8978   5.140   6.406   2.751
 3005TIP3    H1 8979   5.219   6.370   2.791
 3005TIP3    H2 8980   5.119   6.346   2.681
 3006TIP3   OH2 8981   2.121   5.574   5.472
 3006TIP3    H1 8982   2.166   5.600   5.552
 3006TIP3    H2 8983   2.178   5.606   5.402
 3007TIP3   OH2 8984   2.896   6.637   4.330
 3007TIP3    H1 8985   2.882   6.543   4.325
 3007TIP3    H2 8986   2.884   6.658   4.423
 3008TIP3   OH2 8987   3.461   3.836   0.072
 3008TIP3    H1 8988   3.375   3.852   0.035
 3008TIP3    H2 8989   3.446   3.774   0.143
 3009TIP3   OH2 8990   4.171   2.910   5.151
 3009TIP3    H1 8991   4.090   2.887   5.197
 3009TIP3    H2 8992   4.145   2.981   5.092
 3010TIP3   OH2 8993   3.787   5.026   0.456
 3010TIP3    H1 8994   3.796   4.993   0.366
 3010TIP3    H2 8995   3.825   4.958   0.511
 3011TIP3   OH2 8996   5.523   6.336   4.467
 3011TIP3    H1 8997   5.573   6.322   4.547
 3011TIP3    H2 8998   5.588   6.360   4.401
 3012TIP3   OH2 8999   5.955   6.671   0.120
 3012TIP3    H1 9000   6.004   6.668   0.038
 3012TIP3    H2 9001   5.864   6.682   0.094
 3013TIP3   OH2 9002   1.905   4.598   2.938
 3013TIP3    H1 9003   1.994   4.564   2.947
 3013TIP3    H2 9004   1.917   4.691   2.919
 3014TIP3   OH2 9005   1.092   5.639   2.555
 3014TIP3    H1 9006   1.150   5.583   2.504
 3014TIP3    H2 9007   1.014   5.650   2.500
 3015TIP3   OH2 9008   1.433   4.682   1.025
 3015TIP3    H1 9009   1.378   4.689   0.947
 3015TIP3    H2 9010   1.402   4.752   1.082
 3016TIP3   OH2 9011   3.004   3.619   0.013
 3016TIP3    H1 9012   2.919   3.649  -0.021
 3016TIP3    H2 9013   2.987   3.598   0.105
 3017TIP3   OH2 9014   3.388   0.487   2.876
 3017TIP3    H1 9015   3.425   0.408   2.838
 3017TIP3    H2 9016   3.455   0.554   2.862
 3018TIP3   OH2 9017   7.094   1.069   5.204
 3018TIP3    H1 9018   7.164   1.077   5.139
 3018TIP3    H2 9019   7.014   1.090   5.155
 3019TIP3   OH2 9020   4.431   6.536   4.895
 3019TIP3    H1 9021   4.466   6.604   4.837
 3019TIP3    H2 9022   4.339   6.526   4.868
 3020TIP3   OH2 9023   5.301   0.066   1.829
 3020TIP3    H1 9024   5.387   0.058   1.871
 3020TIP3    H2 9025   5.292  -0.014   1.777
 3021TIP3   OH2 9026   7.123   3.005   5.369
 3021TIP3    H1 9027   7.158   2.949   5.438
 3021TIP3    H2 9028   7.135   2.953   5.289
 3022TIP3   OH2 9029   0.281   3.623   1.504
 3022TIP3    H1 9030   0.367   3.591   1.532
 3022TIP3    H2 9031   0.241   3.548   1.459
 3023TIP3   OH2 9032   3.405   5.558   4.907
 3023TIP3    H1 9033   3.380   5.473   4.871
 3023TIP3    H2 9034   3.343   5.572   4.979
 3024TIP3   OH2 9035   0.959   6.131   0.744
 3024TIP3    H1 9036   0.891   6.123   0.811
 3024TIP3    H2 9037   0.911   6.119   0.661
 3025TIP3   OH2 9038   7.016   0.060   0.980
 3025TIP3    H1 9039   7.005  -0.012   1.042
 3025TIP3    H2 9040   7.013   0.019   0.894
 3026TIP3   OH2 9041   3.942   0.157   1.209
 3026TIP3    H1 9042   4.007   0.225   1.227
 3026TIP3    H2 9043   3.995   0.080   1.186
 3027TIP3   OH2 9044   2.777   4.028   5.743
 3027TIP3    H1 9045   2.741   4.080   5.814
 3027TIP3    H2 9046   2.860   4.072   5.721
 3028TIP3   OH2 9047   5.068   3.877   5.311
 3028TIP3    H1 9048   5.098   3.877   5.402
 3028TIP3    H2 9049   5.116   3.948   5.269
 3029TIP3   OH2 9050   6.629   2.319   4.689
 3029TIP3    H1 9051   6.550   2.370   4.703
 3029TIP3    H2 9052   6.602   2.247   4.631
 3030TIP3   OH2 9053   2.668   2.923   4.834
 3030TIP3    H1 9054   2.710   2.973   4.765
 3030TIP3    H2 9055   2.618   2.855   4.788
 3031TIP3   OH2 9056   1.425   3.087   5.088
 3031TIP3    H1 9057   1.504   3.111   5.136
 3031TIP3    H2 9058   1.416   3.153   5.020
 3032TIP3   OH2 9059   5.876   4.822   5.674
 3032TIP3    H1 9060   5.971   4.813   5.668
 3032TIP3    H2 9061   5.849   4.754   5.735
 3033TIP3   OH2 9062   0.813   5.007   1.004
 3033TIP3    H1 9063   0.786   4.968   1.087
 3033TIP3    H2 9064   0.740   5.064   0.980
 3034TIP3   OH2 9065   0.280   2.805   2.024
 3034TIP3    H1 9066   0.253   2.774   2.111
 3034TIP3    H2 9067   0.302   2.897   2.038
 3035TIP3   OH2 9068   1.072   6.610   3.396
 3035TIP3    H1 9069   1.028   6.670   3.456
 3035TIP3    H2 9070   1.068   6.525   3.440
 3036TIP3   OH2 9071   6.998   2.877   3.555
 3036TIP3    H1 9072   7.057   2.841   3.489
 3036TIP3    H2 9073   6.929   2.921   3.505
 3037TIP3   OH2 9074   3.894   1.446   5.342
 3037TIP3    H1 9075   3.861   1.534   5.363
 3037TIP3    H2 9076   3.862   1.429   5.253
 3038TIP3   OH2 9077   7.186   6.418   1.862
 3038TIP3    H1 9078   7.099   6.424   1.902
 3038TIP3    H2 9079   7.247   6.439   1.932
 3039TIP3   OH2 9080   2.000   1.612   1.901
 3039TIP3    H1 9081   1.950   1.567   1.970
 3039TIP3    H2 9082   2.026   1.543   1.841
 3040TIP3   OH2 9083   4.329   5.471   4.587
 3040TIP3    H1 9084   4.343   5.386   4.629
 3040TIP3    H2 9085   4.237   5.492   4.604
 3041TIP3   OH2 9086   5.231   5.989   0.689
 3041TIP3    H1 9087   5.171   5.950   0.625
 3041TIP3    H2 9088   5.295   5.920   0.706
 3042TIP3   OH2 9089   5.776   0.644   4.349
 3042TIP3    H1 9090   5.796   0.704   4.420
 3042TIP3    H2 9091   5.841   0.664   4.282
 3043TIP3   OH2 9092   1.456   5.803   4.621
 3043TIP3    H1 9093   1.450   5.752   4.540
 3043TIP3    H2 9094   1.452   5.738   4.691
 3044TIP3   OH2 9095   4.607   5.353   3.608
 3044TIP3    H1 9096   4.605   5.302   3.528
 3044TIP3    H2 9097   4.587   5.291   3.678
 3045TIP3   OH2 9098   1.985   3.641   1.319
 3045TIP3    H1 9099   1.974   3.725   1.274
 3045TIP3    H2 9100   2.072   3.646   1.357
 3046TIP3   OH2 9101   0.381   2.616   3.287
 3046TIP3    H1 9102   0.436   2.621   3.209
 3046TIP3    H2 9103   0.444   2.605   3.359
 3047TIP3   OH2 9104   4.974   2.785   0.291
 3047TIP3    H1 9105   4.889   2.751   0.319
 3047TIP3    H2 9106   5.031   2.773   0.368
 3048TIP3   OH2 9107   0.784   6.158   0.510
 3048TIP3    H1 9108   0.716   6.131   0.572
 3048TIP3    H2 9109   0.748   6.236   0.468
 3049TIP3   OH2 9110   4.783   1.789   0.440
 3049TIP3    H1 9111   4.819   1.842   0.512
 3049TIP3    H2 9112   4.807   1.836   0.361
 3050TIP3   OH2 9113   3.655   4.393   0.458
 3050TIP3    H1 9114   3.711   4.355   0.391
 3050TIP3    H2 9115   3.677   4.486   0.458
 3051TIP3   OH2 9116   3.756   3.634   1.874
 3051TIP3    H1 9117   3.818   3.584   1.820
 3051TIP3    H2 9118   3.762   3.593   1.960
 3052TIP3   OH2 9119   0.437   5.531   3.849
 3052TIP3    H1 9120   0.506   5.490   3.796
 3052TIP3    H2 9121   0.462   5.511   3.939
 3053TIP3   OH2 9122   5.302   6.206   5.481
 3053TIP3    H1 9123   5.337   6.173   5.564
 3053TIP3    H2 9124   5.272   6.127   5.435
 3054TIP3   OH2 9125   6.264   5.630   5.573
 3054TIP3    H1 9126   6.284   5.585   5.491
 3054TIP3    H2 9127   6.220   5.710   5.546
 3055TIP3   OH2 9128   4.984   0.180   3.094
 3055TIP3    H1 9129   5.076   0.156   3.101
 3055TIP3    H2 9130   4.940   0.130   3.163
 3056TIP3   OH2 9131   6.329   0.502   3.119
 3056TIP3    H1 9132   6.386   0.572   3.087
 3056TIP3    H2 9133   6.364   0.423   3.079
 3057TIP3   OH2 9134   2.424   5.527   5.088
 3057TIP3    H1 9135   2.429   5.617   5.119
 3057TIP3    H2 9136   2.454   5.531   4.997
 3058TIP3   OH2 9137   0.759   0.128   3.632
 3058TIP3    H1 9138   0.760   0.079   3.549
 3058TIP3    H2 9139   0.851   0.137   3.656
 3059TIP3   OH2 9140   2.053   1.935   4.289
 3059TIP3    H1 9141   2.030   1.997   4.358
 3059TIP3    H2 9142   2.142   1.960   4.263
 3060TIP3   OH2 9143   0.891   1.705   3.172
 3060TIP3    H1 9144   0.976   1.673   3.142
 3060TIP3    H2 9145   0.898   1.800   3.169
 3061TIP3   OH2 9146   1.394   5.588   2.927
 3061TIP3    H1 9147   1.348   5.600   3.010
 3061TIP3    H2 9148   1.398   5.493   2.915
 3062TIP3   OH2 9149   3.950   6.598   4.985
 3062TIP3    H1 9150   3.974   6.656   4.913
 3062TIP3    H2 9151   3.867   6.558   4.956
 3063TIP3   OH2 9152   2.679   2.602   3.000
 3063TIP3    H1 9153   2.585   2.583   2.998
 3063TIP3    H2 9154   2.698   2.620   3.092
 3064TIP3   OH2 9155   6.460   2.697   0.280
 3064TIP3    H1 9156   6.451   2.789   0.304
 3064TIP3    H2 9157   6.554   2.680   0.287
 3065TIP3   OH2 9158   6.719   2.410   1.080
 3065TIP3    H1 9159   6.724   2.315   1.084
 3065TIP3    H2 9160   6.644   2.433   1.135
 3066TIP3   OH2 9161   6.166   4.208   4.550
 3066TIP3    H1 9162   6.143   4.121   4.583
 3066TIP3    H2 9163   6.158   4.200   4.455
 3067TIP3   OH2 9164   1.913   1.641   3.256
 3067TIP3    H1 9165   1.957   1.653   3.340
 3067TIP3    H2 9166   1.979   1.599   3.201
 3068TIP3   OH2 9167   2.794   5.879   2.339
 3068TIP3    H1 9168   2.878   5.923   2.349
 3068TIP3    H2 9169   2.748   5.931   2.273
 3069TIP3   OH2 9170   5.726   6.649   1.435
 3069TIP3    H1 9171   5.729   6.707   1.511
 3069TIP3    H2 9172   5.780   6.693   1.369
 3070TIP3   OH2 9173   1.448   1.157   3.249
 3070TIP3    H1 9174   1.464   1.223   3.317
 3070TIP3    H2 9175   1.355   1.167   3.228
 3071TIP3   OH2 9176   0.907   1.782   5.431
 3071TIP3    H1 9177   0.856   1.708   5.462
 3071TIP3    H2 9178   0.871   1.801   5.344
 3072TIP3   OH2 9179   3.320   6.376   2.841
 3072TIP3    H1 9180   3.292   6.303   2.896
 3072TIP3    H2 9181   3.265   6.371   2.763
 3073TIP3   OH2 9182   2.967   1.272   0.845
 3073TIP3    H1 9183   2.929   1.254   0.931
 3073TIP3    H2 9184   3.032   1.203   0.833
 3074TIP3   OH2 9185   1.974   2.797   4.651
 3074TIP3    H1 9186   1.947   2.744   4.576
 3074TIP3    H2 9187   1.893   2.816   4.698
 3075TIP3   OH2 9188   5.685   0.855   1.701
 3075TIP3    H1 9189   5.721   0.874   1.788
 3075TIP3    H2 9190   5.651   0.940   1.670
 3076TIP3   OH2 9191   1.572   5.788   3.046
 3076TIP3    H1 9192   1.551   5.801   2.954
 3076TIP3    H2 9193   1.635   5.716   3.046
 3077TIP3   OH2 9194   6.181   1.335   4.984
 3077TIP3    H1 9195   6.266   1.293   4.995
 3077TIP3    H2 9196   6.198   1.429   4.994
 3078TIP3   OH2 9197   0.993   6.446   5.883
 3078TIP3    H1 9198   1.010   6.438   5.789
 3078TIP3    H2 9199   0.898   6.438   5.892
 3079TIP3   OH2 9200   1.756   6.637   4.094
 3079TIP3    H1 9201   1.705   6.644   4.013
 3079TIP3    H2 9202   1.717   6.702   4.153
 3080TIP3   OH2 9203   2.592   1.234   5.492
 3080TIP3    H1 9204   2.687   1.230   5.501
 3080TIP3    H2 9205   2.577   1.293   5.418
 3081TIP3   OH2 9206   4.572   5.159   4.397
 3081TIP3    H1 9207   4.625   5.080   4.408
 3081TIP3    H2 9208   4.485   5.125   4.373
 3082TIP3   OH2 9209   0.063   1.654   3.223
 3082TIP3    H1 9210   0.094   1.714   3.290
 3082TIP3    H2 9211   0.094   1.568   3.251
 3083TIP3   OH2 9212   0.566   1.538   5.311
 3083TIP3    H1 9213   0.574   1.594   5.234
 3083TIP3    H2 9214   0.474   1.513   5.314
 3084TIP3   OH2 9215   2.275   6.261   2.038
 3084TIP3    H1 9216   2.216   6.336   2.050
 3084TIP3    H2 9217   2.241   6.216   1.961
 3085TIP3   OH2 9218   3.054   3.340   1.996
 3085TIP3    H1 9219   3.087   3.372   1.911
 3085TIP3    H2 9220   3.052   3.418   2.051
 3086TIP3   OH2 9221   5.852   6.119   0.210
 3086TIP3    H1 9222   5.770   6.088   0.171
 3086TIP3    H2 9223   5.851   6.213   0.196
 3087TIP3   OH2 9224   1.282   5.592   5.344
 3087TIP3    H1 9225   1.259   5.511   5.298
 3087TIP3    H2 9226   1.339   5.639   5.284
 3088TIP3   OH2 9227   0.628   3.972   3.242
 3088TIP3    H1 9228   0.592   3.883   3.251
 3088TIP3    H2 9229   0.702   3.974   3.302
 3089TIP3   OH2 9230   0.423   2.847   0.677
 3089TIP3    H1 9231   0.440   2.921   0.619
 3089TIP3    H2 9232   0.498   2.845   0.737
 3090TIP3   OH2 9233   3.615   1.457   1.409
 3090TIP3    H1 9234   3.661   1.509   1.343
 3090TIP3    H2 9235   3.627   1.505   1.491
 3091TIP3   OH2 9236   6.438   1.541   3.199
 3091TIP3    H1 9237   6.374   1.609   3.219
 3091TIP3    H2 9238   6.514   1.563   3.253
 3092TIP3   OH2 9239   5.808   6.387   2.601
 3092TIP3    H1 9240   5.763   6.341   2.672
 3092TIP3    H2 9241   5.900   6.385   2.625
 3093TIP3   OH2 9242   4.846   0.776   5.761
 3093TIP3    H1 9243   4.770   0.743   5.808
 3093TIP3    H2 9244   4.831   0.870   5.753
 3094TIP3   OH2 9245   3.678   6.581   3.883
 3094TIP3    H1 9246   3.726   6.654   3.924
 3094TIP3    H2 9247   3.609   6.560   3.946
 3095TIP3   OH2 9248   5.751   0.037   1.452
 3095TIP3    H1 9249   5.702  -0.034   1.494
 3095TIP3    H2 9250   5.739   0.023   1.358
 3096TIP3   OH2 9251   4.991   2.277   4.895
 3096TIP3    H1 9252   4.917   2.247   4.841
 3096TIP3    H2 9253   4.960   2.358   4.935
 3097TIP3   OH2 9254   6.543   4.652   5.810
 3097TIP3    H1 9255   6.551   4.705   5.889
 3097TIP3    H2 9256   6.474   4.695   5.759
 3098TIP3   OH2 9257   3.691   3.993   5.132
 3098TIP3    H1 9258   3.753   4.066   5.125
 3098TIP3    H2 9259   3.641   3.996   5.051
 3099TIP3   OH2 9260   5.413   3.090   4.687
 3099TIP3    H1 9261   5.353   3.110   4.760
 3099TIP3    H2 9262   5.500   3.108   4.722
 3100TIP3   OH2 9263   2.004   5.921   4.295
 3100TIP3    H1 9264   1.995   5.992   4.359
 3100TIP3    H2 9265   2.008   5.841   4.348
 3101TIP3   OH2 9266   3.372   1.659   1.306
 3101TIP3    H1 9267   3.297   1.654   1.365
 3101TIP3    H2 9268   3.434   1.717   1.350
 3102TIP3   OH2 9269   4.168   1.875   0.533
 3102TIP3    H1 9270   4.262   1.857   0.526
 3102TIP3    H2 9271   4.159   1.966   0.506
 3103TIP3   OH2 9272   3.379   3.412   0.862
 3103TIP3    H1 9273   3.355   3.488   0.808
 3103TIP3    H2 9274   3.370   3.443   0.952
 3104TIP3   OH2 9275   3.354   5.032   0.781
 3104TIP3    H1 9276   3.430   5.085   0.805
 3104TIP3    H2 9277   3.291   5.094   0.747
 3105TIP3   OH2 9278   5.107   0.212   5.786
 3105TIP3    H1 9279   5.114   0.168   5.701
 3105TIP3    H2 9280   5.182   0.271   5.789
 3106TIP3   OH2 9281   7.135   6.029   3.690
 3106TIP3    H1 9282   7.202   5.962   3.671
 3106TIP3    H2 9283   7.058   6.000   3.642
 3107TIP3   OH2 9284   4.866   0.276   0.846
 3107TIP3    H1 9285   4.950   0.322   0.849
 3107TIP3    H2 9286   4.843   0.263   0.938
 3108TIP3   OH2 9287   5.816   5.170   4.757
 3108TIP3    H1 9288   5.741   5.121   4.791
 3108TIP3    H2 9289   5.799   5.178   4.663
 3109TIP3   OH2 9290   2.875   4.905   0.168
 3109TIP3    H1 9291   2.883   4.899   0.263
 3109TIP3    H2 9292   2.816   4.979   0.153
 3110TIP3   OH2 9293   2.308   4.356   0.967
 3110TIP3    H1 9294   2.271   4.316   0.888
 3110TIP3    H2 9295   2.296   4.290   1.036
 3111TIP3   OH2 9296   6.277   0.179   2.623
 3111TIP3    H1 9297   6.232   0.130   2.555
 3111TIP3    H2 9298   6.228   0.160   2.703
 3112TIP3   OH2 9299   4.225   2.362   3.334
 3112TIP3    H1 9300   4.160   2.405   3.389
 3112TIP3    H2 9301   4.254   2.430   3.274
 3113TIP3   OH2 9302   5.695   0.179   2.428
 3113TIP3    H1 9303   5.686   0.229   2.347
 3113TIP3    H2 9304   5.757   0.229   2.481
 3114TIP3   OH2 9305   4.028   5.060   5.756
 3114TIP3    H1 9306   3.936   5.047   5.734
 3114TIP3    H2 9307   4.067   4.973   5.746
 3115TIP3   OH2 9308   3.305   3.302   3.613
 3115TIP3    H1 9309   3.250   3.326   3.539
 3115TIP3    H2 9310   3.316   3.208   3.606
 3116TIP3   OH2 9311   1.190   5.605   3.442
 3116TIP3    H1 9312   1.239   5.613   3.524
 3116TIP3    H2 9313   1.218   5.521   3.405
 3117TIP3   OH2 9314   3.597   5.682   5.552
 3117TIP3    H1 9315   3.534   5.753   5.559
 3117TIP3    H2 9316   3.555   5.608   5.597
 3118TIP3   OH2 9317   3.528   6.249   0.108
 3118TIP3    H1 9318   3.571   6.165   0.090
 3118TIP3    H2 9319   3.444   6.225   0.147
 3119TIP3   OH2 9320   5.162   2.896   2.036
 3119TIP3    H1 9321   5.203   2.824   2.086
 3119TIP3    H2 9322   5.130   2.854   1.956
 3120TIP3   OH2 9323   1.764   6.665   3.802
 3120TIP3    H1 9324   1.820   6.592   3.773
 3120TIP3    H2 9325   1.675   6.635   3.784
 3121TIP3   OH2 9326   5.465   5.025   2.970
 3121TIP3    H1 9327   5.516   4.944   2.976
 3121TIP3    H2 9328   5.437   5.042   3.060
 3122TIP3   OH2 9329   1.939   2.954   5.173
 3122TIP3    H1 9330   1.883   3.012   5.122
 3122TIP3    H2 9331   1.883   2.919   5.241
 3123TIP3   OH2 9332   4.531   1.771   1.523
 3123TIP3    H1 9333   4.538   1.863   1.547
 3123TIP3    H2 9334   4.462   1.737   1.581
 3124TIP3   OH2 9335   3.039   0.368   4.916
 3124TIP3    H1 9336   3.062   0.331   4.830
 3124TIP3    H2 9337   3.115   0.420   4.941
 3125TIP3   OH2 9338   6.325   6.086   3.244
 3125TIP3    H1 9339   6.416   6.056   3.247
 3125TIP3    H2 9340   6.290   6.067   3.331
 3126TIP3   OH2 9341   5.339   5.601   2.693
 3126TIP3    H1 9342   5.327   5.525   2.636
 3126TIP3    H2 9343   5.349   5.674   2.633
 3127TIP3   OH2 9344   0.362  -0.054   3.583
 3127TIP3    H1 9345   0.370   0.029   3.631
 3127TIP3    H2 9346   0.298  -0.035   3.514
 3128TIP3   OH2 9347   1.566   3.664   1.764
 3128TIP3    H1 9348   1.587   3.755   1.786
 3128TIP3    H2 9349   1.539   3.667   1.673
 3129TIP3   OH2 9350   6.974   0.533   1.498
 3129TIP3    H1 9351   7.012   0.609   1.454
 3129TIP3    H2 9352   6.963   0.469   1.428
 3130TIP3   OH2 9353   3.182   1.873   5.375
 3130TIP3    H1 9354   3.232   1.821   5.312
 3130TIP3    H2 9355   3.151   1.810   5.439
 3131TIP3   OH2 9356   1.515   2.139   5.913
 3131TIP3    H1 9357   1.498   2.203   5.844
 3131TIP3    H2 9358   1.605   2.112   5.900
 3132TIP3   OH2 9359   5.979   2.769   1.310
 3132TIP3    H1 9360   6.072   2.756   1.326
 3132TIP3    H2 9361   5.943   2.797   1.394
 3133TIP3   OH2 9362   5.878   0.355   3.497
 3133TIP3    H1 9363   5.792   0.324   3.470
 3133TIP3    H2 9364   5.907   0.291   3.562
 3134TIP3   OH2 9365   4.128   1.326   5.319
 3134TIP3    H1 9366   4.091   1.253   5.269
 3134TIP3    H2 9367   4.052   1.379   5.343
 3135TIP3   OH2 9368   5.406   3.310   3.701
 3135TIP3    H1 9369   5.325   3.286   3.746
 3135TIP3    H2 9370   5.377   3.369   3.631
 3136TIP3   OH2 9371   1.932   5.057   5.734
 3136TIP3    H1 9372   1.878   4.984   5.766
 3136TIP3    H2 9373   2.012   5.015   5.703
 3137TIP3   OH2 9374   5.699   6.640   5.007
 3137TIP3    H1 9375   5.614   6.669   5.040
 3137TIP3    H2 9376   5.762   6.684   5.064
 3138TIP3   OH2 9377   5.380   4.704   5.784
 3138TIP3    H1 9378   5.311   4.768   5.800
 3138TIP3    H2 9379   5.384   4.696   5.689
 3139TIP3   OH2 9380   3.930   5.852   5.527
 3139TIP3    H1 9381   3.985   5.785   5.568
 3139TIP3    H2 9382   3.940   5.928   5.583
 3140TIP3   OH2 9383   4.311   6.368   3.588
 3140TIP3    H1 9384   4.245   6.362   3.518
 3140TIP3    H2 9385   4.387   6.322   3.553
 3141TIP3   OH2 9386   2.611   6.774   5.874
 3141TIP3    H1 9387   2.692   6.797   5.829
 3141TIP3    H2 9388   2.621   6.682   5.897
 3142TIP3   OH2 9389   3.621   3.884   1.951
 3142TIP3    H1 9390   3.685   3.935   2.001
 3142TIP3    H2 9391   3.662   3.799   1.940
 3143TIP3   OH2 9392   6.028   4.437   4.595
 3143TIP3    H1 9393   5.945   4.390   4.601
 3143TIP3    H2 9394   6.094   4.368   4.588
 3144TIP3   OH2 9395   5.049   5.424   3.755
 3144TIP3    H1 9396   5.111   5.355   3.732
 3144TIP3    H2 9397   5.068   5.495   3.694
 3145TIP3   OH2 9398   4.934   4.030   5.744
 3145TIP3    H1 9399   4.880   4.066   5.815
 3145TIP3    H2 9400   4.872   3.980   5.691
 3146TIP3   OH2 9401   2.372   4.338   5.627
 3146TIP3    H1 9402   2.325   4.418   5.652
 3146TIP3    H2 9403   2.304   4.279   5.595
 3147TIP3   OH2 9404   5.002   3.591   5.384
 3147TIP3    H1 9405   4.936   3.650   5.348
 3147TIP3    H2 9406   5.050   3.645   5.447
 3148TIP3   OH2 9407   2.266   1.208   3.852
 3148TIP3    H1 9408   2.360   1.194   3.864
 3148TIP3    H2 9409   2.239   1.141   3.790
 3149TIP3   OH2 9410   3.909   3.459   2.367
 3149TIP3    H1 9411   3.941   3.500   2.447
 3149TIP3    H2 9412   3.822   3.427   2.389
 3150TIP3   OH2 9413   5.117   2.054   4.240
 3150TIP3    H1 9414   5.044   2.076   4.182
 3150TIP3    H2 9415   5.118   2.125   4.305
 3151TIP3   OH2 9416   5.553   2.424   4.579
 3151TIP3    H1 9417   5.512   2.506   4.551
 3151TIP3    H2 9418   5.525   2.413   4.669
 3152TIP3   OH2 9419   7.021   3.007   2.640
 3152TIP3    H1 9420   7.038   3.101   2.630
 3152TIP3    H2 9421   6.931   2.996   2.610
 3153TIP3   OH2 9422   5.437   5.875   3.305
 3153TIP3    H1 9423   5.459   5.854   3.215
 3153TIP3    H2 9424   5.341   5.874   3.308
 3154TIP3   OH2 9425   5.596   0.458   5.352
 3154TIP3    H1 9426   5.524   0.482   5.293
 3154TIP3    H2 9427   5.569   0.374   5.389
 3155TIP3   OH2 9428   5.470   2.015   0.829
 3155TIP3    H1 9429   5.435   2.101   0.856
 3155TIP3    H2 9430   5.420   1.993   0.751
 3156TIP3   OH2 9431   4.567   5.522   2.256
 3156TIP3    H1 9432   4.612   5.464   2.318
 3156TIP3    H2 9433   4.629   5.594   2.242
 3157TIP3   OH2 9434   4.240   0.127   2.508
 3157TIP3    H1 9435   4.150   0.124   2.541
 3157TIP3    H2 9436   4.294   0.110   2.585
 3158TIP3   OH2 9437   7.097   2.677   3.386
 3158TIP3    H1 9438   7.076   2.647   3.474
 3158TIP3    H2 9439   7.190   2.698   3.389
 3159TIP3   OH2 9440   6.278   1.362   0.798
 3159TIP3    H1 9441   6.317   1.284   0.760
 3159TIP3    H2 9442   6.280   1.346   0.892
 3160TIP3   OH2 9443   7.039   5.318   5.700
 3160TIP3    H1 9444   7.011   5.255   5.767
 3160TIP3    H2 9445   7.046   5.266   5.620
 3161TIP3   OH2 9446   4.946   3.647   2.995
 3161TIP3    H1 9447   4.857   3.635   2.961
 3161TIP3    H2 9448   4.939   3.716   3.061
 3162TIP3   OH2 9449   1.637   1.261   1.234
 3162TIP3    H1 9450   1.619   1.252   1.141
 3162TIP3    H2 9451   1.733   1.261   1.240
 3163TIP3   OH2 9452   6.489   5.910   5.793
 3163TIP3    H1 9453   6.471   5.991   5.839
 3163TIP3    H2 9454   6.419   5.850   5.820
 3164TIP3   OH2 9455   4.334   3.841   0.260
 3164TIP3    H1 9456   4.280   3.761   0.258
 3164TIP3    H2 9457   4.271   3.912   0.262
 3165TIP3   OH2 9458   5.447   4.214   0.360
 3165TIP3    H1 9459   5.490   4.136   0.395
 3165TIP3    H2 9460   5.459   4.207   0.265
 3166TIP3   OH2 9461   7.007   5.473   0.242
 3166TIP3    H1 9462   7.047   5.393   0.276
 3166TIP3    H2 9463   7.032   5.475   0.149
 3167TIP3   OH2 9464   7.068   4.412   0.379
 3167TIP3    H1 9465   7.091   4.327   0.342
 3167TIP3    H2 9466   7.151   4.448   0.411
 3168TIP3   OH2 9467   3.601   6.213   5.140
 3168TIP3    H1 9468   3.623   6.120   5.147
 3168TIP3    H2 9469   3.546   6.219   5.062
 3169TIP3   OH2 9470   0.591   4.330   1.082
 3169TIP3    H1 9471   0.617   4.412   1.040
 3169TIP3    H2 9472   0.495   4.332   1.082
 3170TIP3   OH2 9473   3.570   6.522   0.977
 3170TIP3    H1 9474   3.587   6.492   0.888
 3170TIP3    H2 9475   3.621   6.462   1.032
 3171TIP3   OH2 9476   6.344   2.578   3.871
 3171TIP3    H1 9477   6.367   2.630   3.794
 3171TIP3    H2 9478   6.423   2.581   3.926
 3172TIP3   OH2 9479   0.577   2.416   2.198
 3172TIP3    H1 9480   0.612   2.499   2.230
 3172TIP3    H2 9481   0.482   2.424   2.210
 3173TIP3   OH2 9482   2.429   2.801   0.972
 3173TIP3    H1 9483   2.374   2.878   0.987
 3173TIP3    H2 9484   2.368   2.728   0.974
 3174TIP3   OH2 9485   4.925   5.719   4.575
 3174TIP3    H1 9486   4.843   5.753   4.611
 3174TIP3    H2 9487   4.902   5.633   4.540
 3175TIP3   OH2 9488   2.618   3.837   4.875
 3175TIP3    H1 9489   2.537   3.798   4.842
 3175TIP3    H2 9490   2.659   3.876   4.797
 3176TIP3   OH2 9491   6.232   0.790   5.456
 3176TIP3    H1 9492   6.217   0.708   5.408
 3176TIP3    H2 9493   6.293   0.766   5.526
 3177TIP3   OH2 9494   3.881   4.030   4.252
 3177TIP3    H1 9495   3.943   4.089   4.209
 3177TIP3    H2 9496   3.929   3.948   4.263
 3178TIP3   OH2 9497   5.198   1.468   2.128
 3178TIP3    H1 9498   5.290   1.479   2.103
 3178TIP3    H2 9499   5.187   1.527   2.203
 3179TIP3   OH2 9500   3.597   5.320   0.696
 3179TIP3    H1 9501   3.567   5.269   0.621
 3179TIP3    H2 9502   3.690   5.300   0.704
 3180TIP3   OH2 9503   0.364   3.634   5.302
 3180TIP3    H1 9504   0.359   3.670   5.390
 3180TIP3    H2 9505   0.375   3.540   5.315
 3181TIP3   OH2 9506   5.524   4.643   3.615
 3181TIP3    H1 9507   5.450   4.585   3.596
 3181TIP3    H2 9508   5.483   4.723   3.647
 3182TIP3   OH2 9509   0.140   4.912   4.233
 3182TIP3    H1 9510   0.069   4.946   4.288
 3182TIP3    H2 9511   0.202   4.985   4.226
 3183TIP3   OH2 9512   2.693   3.562   1.171
 3183TIP3    H1 9513   2.637   3.545   1.247
 3183TIP3    H2 9514   2.632   3.560   1.096
 3184TIP3   OH2 9515   0.585   6.210   1.808
 3184TIP3    H1 9516   0.677   6.225   1.832
 3184TIP3    H2 9517   0.536   6.239   1.885
 3185TIP3   OH2 9518   6.140   4.896   0.270
 3185TIP3    H1 9519   6.124   4.822   0.329
 3185TIP3    H2 9520   6.200   4.953   0.318
 3186TIP3   OH2 9521   4.815   5.442   3.963
 3186TIP3    H1 9522   4.738   5.434   3.906
 3186TIP3    H2 9523   4.884   5.396   3.915
 3187TIP3   OH2 9524   1.336   5.700   4.386
 3187TIP3    H1 9525   1.287   5.729   4.309
 3187TIP3    H2 9526   1.383   5.622   4.355
 3188TIP3   OH2 9527   7.115   3.141   1.080
 3188TIP3    H1 9528   7.148   3.115   1.166
 3188TIP3    H2 9529   7.024   3.110   1.080
 3189TIP3   OH2 9530   6.233   2.335   1.087
 3189TIP3    H1 9531   6.160   2.299   1.036
 3189TIP3    H2 9532   6.271   2.259   1.131
 3190TIP3   OH2 9533   5.028   5.272   5.696
 3190TIP3    H1 9534   5.012   5.202   5.633
 3190TIP3    H2 9535   5.116   5.304   5.674
 3191TIP3   OH2 9536   5.097   1.272   3.304
 3191TIP3    H1 9537   5.093   1.184   3.267
 3191TIP3    H2 9538   5.090   1.330   3.229
 3192TIP3   OH2 9539   0.315   1.215   4.408
 3192TIP3    H1 9540   0.396   1.164   4.403
 3192TIP3    H2 9541   0.337   1.298   4.366
 3193TIP3   OH2 9542   7.080   4.109   2.182
 3193TIP3    H1 9543   6.992   4.145   2.193
 3193TIP3    H2 9544   7.076   4.058   2.101
 3194TIP3   OH2 9545   2.851   3.617   4.318
 3194TIP3    H1 9546   2.764   3.600   4.354
 3194TIP3    H2 9547   2.898   3.534   4.327
 3195TIP3   OH2 9548   0.688   3.148   1.632
 3195TIP3    H1 9549   0.632   3.184   1.564
 3195TIP3    H2 9550   0.766   3.118   1.586
 3196TIP3   OH2 9551   3.095   5.258   4.675
 3196TIP3    H1 9552   3.184   5.277   4.705
 3196TIP3    H2 9553   3.102   5.251   4.580
 3197TIP3   OH2 9554   1.258   1.419   2.979
 3197TIP3    H1 9555   1.281   1.326   2.974
 3197TIP3    H2 9556   1.205   1.435   2.901
 3198TIP3   OH2 9557   4.259   3.832   2.306
 3198TIP3    H1 9558   4.183   3.782   2.277
 3198TIP3    H2 9559   4.334   3.780   2.277
 3199TIP3   OH2 9560   1.938   6.059   0.650
 3199TIP3    H1 9561   1.972   5.970   0.645
 3199TIP3    H2 9562   1.844   6.048   0.663
 3200TIP3   OH2 9563   6.360   6.454   0.530
 3200TIP3    H1 9564   6.269   6.483   0.519
 3200TIP3    H2 9565   6.374   6.391   0.459
 3201TIP3   OH2 9566   4.693   4.512   3.932
 3201TIP3    H1 9567   4.614   4.461   3.913
 3201TIP3    H2 9568   4.693   4.521   4.027
 3202TIP3   OH2 9569   7.115   3.982   5.077
 3202TIP3    H1 9570   7.129   3.895   5.040
 3202TIP3    H2 9571   7.183   3.993   5.143
 3203TIP3   OH2 9572   3.794   4.723   3.770
 3203TIP3    H1 9573   3.791   4.795   3.833
 3203TIP3    H2 9574   3.813   4.766   3.687
 3204TIP3   OH2 9575   1.020   4.153   2.455
 3204TIP3    H1 9576   1.001   4.182   2.366
 3204TIP3    H2 9577   1.000   4.059   2.455
 3205TIP3   OH2 9578   2.538   6.240   2.017
 3205TIP3    H1 9579   2.443   6.247   2.026
 3205TIP3    H2 9580   2.557   6.150   2.040
 3206TIP3   OH2 9581   2.881   2.927   2.828
 3206TIP3    H1 9582   2.905   2.859   2.891
 3206TIP3    H2 9583   2.953   2.929   2.766
 3207TIP3   OH2 9584   1.185   1.581   0.211
 3207TIP3    H1 9585   1.179   1.643   0.138
 3207TIP3    H2 9586   1.208   1.497   0.169
 3208TIP3   OH2 9587   4.931   3.569   3.605
 3208TIP3    H1 9588   4.952   3.565   3.698
 3208TIP3    H2 9589   4.843   3.607   3.602
 3209TIP3   OH2 9590   3.745   0.786   2.285
 3209TIP3    H1 9591   3.805   0.728   2.333
 3209TIP3    H2 9592   3.659   0.769   2.325
 3210TIP3   OH2 9593   2.528   0.134   1.146
 3210TIP3    H1 9594   2.600   0.193   1.125
 3210TIP3    H2 9595   2.536   0.062   1.084
 3211TIP3   OH2 9596   0.012   3.375   4.204
 3211TIP3    H1 9597  -0.061   3.362   4.143
 3211TIP3    H2 9598   0.011   3.470   4.221
 3212TIP3   OH2 9599   3.848   0.642   0.734
 3212TIP3    H1 9600   3.780   0.681   0.789
 3212TIP3    H2 9601   3.843   0.692   0.652
 3213TIP3   OH2 9602   0.042   4.207   2.623
 3213TIP3    H1 9603   0.034   4.301   2.640
 3213TIP3    H2 9604   0.137   4.192   2.621
 3214TIP3   OH2 9605   3.691   4.070   0.694
 3214TIP3    H1 9606   3.647   4.012   0.631
 3214TIP3    H2 9607   3.648   4.155   0.683
 3215TIP3   OH2 9608   0.300   1.131   4.993
 3215TIP3    H1 9609   0.350   1.143   4.912
 3215TIP3    H2 9610   0.335   1.196   5.053
 3216TIP3   OH2 9611   2.182   2.282   0.311
 3216TIP3    H1 9612   2.162   2.370   0.277
 3216TIP3    H2 9613   2.097   2.248   0.338
 3217TIP3   OH2 9614   5.948   4.174   0.989
 3217TIP3    H1 9615   6.019   4.181   1.052
 3217TIP3    H2 9616   5.991   4.170   0.904
 3218TIP3   OH2 9617   2.281   1.892   5.053
 3218TIP3    H1 9618   2.247   1.804   5.040
 3218TIP3    H2 9619   2.246   1.921   5.137
 3219TIP3   OH2 9620   2.496   3.418   1.726
 3219TIP3    H1 9621   2.475   3.332   1.762
 3219TIP3    H2 9622   2.539   3.464   1.798
 3220TIP3   OH2 9623   5.586   1.607   5.500
 3220TIP3    H1 9624   5.579   1.701   5.515
 3220TIP3    H2 9625   5.508   1.571   5.540
 3221TIP3   OH2 9626   2.380   4.018   1.636
 3221TIP3    H1 9627   2.476   4.013   1.633
 3221TIP3    H2 9628   2.352   3.998   1.547
 3222TIP3   OH2 9629   0.128   0.378   0.642
 3222TIP3    H1 9630   0.092   0.413   0.561
 3222TIP3    H2 9631   0.161   0.455   0.689
 3223TIP3   OH2 9632   5.063   3.269   2.229
 3223TIP3    H1 9633   5.053   3.175   2.240
 3223TIP3    H2 9634   5.157   3.284   2.235
 3224TIP3   OH2 9635   7.067   5.327   0.998
 3224TIP3    H1 9636   7.144   5.385   1.001
 3224TIP3    H2 9637   7.085   5.266   0.926
 3225TIP3   OH2 9638   6.617   5.339   1.312
 3225TIP3    H1 9639   6.691   5.400   1.311
 3225TIP3    H2 9640   6.642   5.270   1.251
 3226TIP3   OH2 9641   5.272   3.879   1.401
 3226TIP3    H1 9642   5.177   3.867   1.405
 3226TIP3    H2 9643   5.286   3.942   1.330
 3227TIP3   OH2 9644   0.453   1.927   3.844
 3227TIP3    H1 9645   0.372   1.878   3.831
 3227TIP3    H2 9646   0.503   1.911   3.764
 3228TIP3   OH2 9647   0.167   0.870   2.853
 3228TIP3    H1 9648   0.234   0.852   2.787
 3228TIP3    H2 9649   0.096   0.810   2.832
 3229TIP3   OH2 9650   3.674   6.724   5.352
 3229TIP3    H1 9651   3.680   6.749   5.260
 3229TIP3    H2 9652   3.585   6.750   5.378
 3230TIP3   OH2 9653   0.060   1.277   0.553
 3230TIP3    H1 9654   0.092   1.361   0.587
 3230TIP3    H2 9655   0.080   1.214   0.623
 3231TIP3   OH2 9656   1.139   1.174   4.270
 3231TIP3    H1 9657   1.187   1.238   4.322
 3231TIP3    H2 9658   1.105   1.224   4.196
 3232TIP3   OH2 9659   6.037   2.291   5.295
 3232TIP3    H1 9660   6.080   2.279   5.380
 3232TIP3    H2 9661   6.105   2.272   5.231
 3233TIP3   OH2 9662   0.536   3.240   1.392
 3233TIP3    H1 9663   0.536   3.308   1.324
 3233TIP3    H2 9664   0.448   3.202   1.387
 3234TIP3   OH2 9665   5.992   1.430   4.809
 3234TIP3    H1 9666   5.913   1.438   4.863
 3234TIP3    H2 9667   6.049   1.372   4.859
 3235TIP3   OH2 9668   4.690   5.754   5.009
 3235TIP3    H1 9669   4.738   5.781   5.087
 3235TIP3    H2 9670   4.634   5.681   5.039
 3236TIP3   OH2 9671   2.879   6.447   3.234
 3236TIP3    H1 9672   2.797   6.495   3.222
 3236TIP3    H2 9673   2.941   6.512   3.265
 3237TIP3   OH2 9674   7.065   1.497   0.389
 3237TIP3    H1 9675   7.147   1.534   0.422
 3237TIP3    H2 9676   7.069   1.405   0.414
 3238TIP3   OH2 9677   7.030   5.003   2.114
 3238TIP3    H1 9678   7.027   4.957   2.030
 3238TIP3    H2 9679   7.009   5.094   2.093
 3239TIP3   OH2 9680   0.049   4.330   2.368
 3239TIP3    H1 9681   0.005   4.275   2.303
 3239TIP3    H2 9682   0.053   4.276   2.447
 3240TIP3   OH2 9683   6.698   1.815   5.318
 3240TIP3    H1 9684   6.691   1.762   5.238
 3240TIP3    H2 9685   6.727   1.753   5.385
 3241TIP3   OH2 9686   0.374   1.279   5.244
 3241TIP3    H1 9687   0.352   1.234   5.326
 3241TIP3    H2 9688   0.334   1.366   5.252
 3242TIP3   OH2 9689   4.023   4.409   1.924
 3242TIP3    H1 9690   3.959   4.474   1.896
 3242TIP3    H2 9691   3.975   4.351   1.983
 3243TIP3   OH2 9692   4.034   0.273   0.259
 3243TIP3    H1 9693   4.025   0.272   0.164
 3243TIP3    H2 9694   4.128   0.258   0.274
 3244TIP3   OH2 9695   3.279   0.690   1.626
 3244TIP3    H1 9696   3.305   0.759   1.687
 3244TIP3    H2 9697   3.185   0.678   1.641
 3245TIP3   OH2 9698   2.157   0.990   3.663
 3245TIP3    H1 9699   2.212   0.932   3.610
 3245TIP3    H2 9700   2.072   0.991   3.618
 3246TIP3   OH2 9701   3.298   6.728   3.794
 3246TIP3    H1 9702   3.265   6.817   3.782
 3246TIP3    H2 9703   3.227   6.672   3.760
 3247TIP3   OH2 9704   4.289   1.410   4.829
 3247TIP3    H1 9705   4.352   1.382   4.896
 3247TIP3    H2 9706   4.233   1.333   4.815
 3248TIP3   OH2 9707   5.852   4.270   5.666
 3248TIP3    H1 9708   5.855   4.361   5.696
 3248TIP3    H2 9709   5.943   4.249   5.644
 3249TIP3   OH2 9710   7.039   3.986   1.433
 3249TIP3    H1 9711   7.059   3.918   1.498
 3249TIP3    H2 9712   6.955   3.960   1.396
 3250TIP3   OH2 9713   1.442   4.242   3.507
 3250TIP3    H1 9714   1.506   4.197   3.562
 3250TIP3    H2 9715   1.480   4.241   3.420
 3251TIP3   OH2 9716   1.050   3.725   0.038
 3251TIP3    H1 9717   1.129   3.707   0.089
 3251TIP3    H2 9718   1.003   3.792   0.089
 3252TIP3   OH2 9719   5.022   6.168   3.275
 3252TIP3    H1 9720   5.101   6.129   3.313
 3252TIP3    H2 9721   4.967   6.190   3.351
 3253TIP3   OH2 9722   4.796   5.525   0.972
 3253TIP3    H1 9723   4.726   5.493   1.029
 3253TIP3    H2 9724   4.799   5.619   0.987
 3254TIP3   OH2 9725   3.054   1.027   0.025
 3254TIP3    H1 9726   3.075   1.117   0.001
 3254TIP3    H2 9727   3.063   1.025   0.120
 3255TIP3   OH2 9728   3.166   6.496   1.970
 3255TIP3    H1 9729   3.241   6.540   2.010
 3255TIP3    H2 9730   3.183   6.403   1.984
 3256TIP3   OH2 9731   5.796   1.482   1.380
 3256TIP3    H1 9732   5.730   1.548   1.357
 3256TIP3    H2 9733   5.838   1.460   1.297
 3257TIP3   OH2 9734   1.158   3.213   1.531
 3257TIP3    H1 9735   1.227   3.219   1.596
 3257TIP3    H2 9736   1.195   3.158   1.462
 3258TIP3   OH2 9737   1.939   0.241   0.054
 3258TIP3    H1 9738   1.877   0.269   0.122
 3258TIP3    H2 9739   2.018   0.291   0.071
 3259TIP3   OH2 9740   0.530   6.597   5.565
 3259TIP3    H1 9741   0.443   6.563   5.584
 3259TIP3    H2 9742   0.585   6.518   5.555
 3260TIP3   OH2 9743   0.073   0.420   0.151
 3260TIP3    H1 9744   0.106   0.355   0.213
 3260TIP3    H2 9745   0.097   0.387   0.065
 3261TIP3   OH2 9746   5.547   3.669   2.566
 3261TIP3    H1 9747   5.624   3.614   2.554
 3261TIP3    H2 9748   5.538   3.675   2.661
 3262TIP3   OH2 9749   4.133   3.984   0.520
 3262TIP3    H1 9750   4.225   3.981   0.546
 3262TIP3    H2 9751   4.099   4.065   0.559
 3263TIP3   OH2 9752   2.289   0.612   4.452
 3263TIP3    H1 9753   2.278   0.611   4.547
 3263TIP3    H2 9754   2.347   0.687   4.435
 3264TIP3   OH2 9755   0.640   1.340   1.863
 3264TIP3    H1 9756   0.691   1.387   1.797
 3264TIP3    H2 9757   0.549   1.368   1.848
 3265TIP3   OH2 9758   2.369   6.446   0.882
 3265TIP3    H1 9759   2.463   6.463   0.877
 3265TIP3    H2 9760   2.356   6.367   0.829
 3266TIP3   OH2 9761   7.097   2.777   3.839
 3266TIP3    H1 9762   7.116   2.834   3.764
 3266TIP3    H2 9763   7.028   2.823   3.887
 3267TIP3   OH2 9764   5.356   2.386   1.208
 3267TIP3    H1 9765   5.276   2.437   1.219
 3267TIP3    H2 9766   5.402   2.395   1.291
 3268TIP3   OH2 9767   1.924   0.688   3.278
 3268TIP3    H1 9768   1.928   0.621   3.210
 3268TIP3    H2 9769   1.846   0.740   3.256
 3269TIP3   OH2 9770   2.819   0.233   0.346
 3269TIP3    H1 9771   2.796   0.170   0.277
 3269TIP3    H2 9772   2.866   0.181   0.412
 3270TIP3   OH2 9773   3.708   5.084   4.695
 3270TIP3    H1 9774   3.708   4.989   4.679
 3270TIP3    H2 9775   3.651   5.096   4.771
 3271TIP3   OH2 9776   7.091   3.747   1.638
 3271TIP3    H1 9777   7.181   3.748   1.670
 3271TIP3    H2 9778   7.048   3.818   1.686
 3272TIP3   OH2 9779   4.490   4.005   4.301
 3272TIP3    H1 9780   4.552   3.957   4.356
 3272TIP3    H2 9781   4.435   4.052   4.362
 3273TIP3   OH2 9782   0.747   2.364   0.045
 3273TIP3    H1 9783   0.839   2.358   0.018
 3273TIP3    H2 9784   0.700   2.317  -0.023
 3274TIP3   OH2 9785   5.098   5.835   4.937
 3274TIP3    H1 9786   5.048   5.753   4.939
 3274TIP3    H2 9787   5.166   5.823   5.002
 3275TIP3   OH2 9788   0.142   5.694   5.410
 3275TIP3    H1 9789   0.093   5.703   5.491
 3275TIP3    H2 9790   0.086   5.734   5.343
 3276TIP3   OH2 9791   3.929   2.658   1.382
 3276TIP3    H1 9792   3.941   2.676   1.289
 3276TIP3    H2 9793   3.925   2.745   1.423
 3277TIP3   OH2 9794   1.422   1.696   0.516
 3277TIP3    H1 9795   1.451   1.635   0.584
 3277TIP3    H2 9796   1.462   1.779   0.540
 3278TIP3   OH2 9797   0.823   3.119   2.267
 3278TIP3    H1 9798   0.787   3.116   2.356
 3278TIP3    H2 9799   0.793   3.039   2.226
 3279TIP3   OH2 9800   3.435   0.384   0.400
 3279TIP3    H1 9801   3.346   0.420   0.402
 3279TIP3    H2 9802   3.468   0.396   0.489
 3280TIP3   OH2 9803   0.151   5.626   3.116
 3280TIP3    H1 9804   0.217   5.678   3.070
 3280TIP3    H2 9805   0.167   5.643   3.209
 3281TIP3   OH2 9806   4.184   3.093   5.537
 3281TIP3    H1 9807   4.171   3.004   5.505
 3281TIP3    H2 9808   4.206   3.144   5.459
 3282TIP3   OH2 9809   2.767   6.773   0.406
 3282TIP3    H1 9810   2.850   6.776   0.359
 3282TIP3    H2 9811   2.744   6.680   0.409
 3283TIP3   OH2 9812   6.339   4.744   5.662
 3283TIP3    H1 9813   6.263   4.689   5.641
 3283TIP3    H2 9814   6.371   4.773   5.577
 3284TIP3   OH2 9815   5.316   0.134   5.147
 3284TIP3    H1 9816   5.403   0.106   5.120
 3284TIP3    H2 9817   5.273   0.054   5.176
 3285TIP3   OH2 9818   5.841   2.587   0.289
 3285TIP3    H1 9819   5.770   2.651   0.289
 3285TIP3    H2 9820   5.839   2.548   0.376
 3286TIP3   OH2 9821   6.476   6.247   2.027
 3286TIP3    H1 9822   6.381   6.245   2.017
 3286TIP3    H2 9823   6.509   6.215   1.943
 3287TIP3   OH2 9824   4.526   5.147   0.695
 3287TIP3    H1 9825   4.460   5.176   0.633
 3287TIP3    H2 9826   4.597   5.113   0.641
 3288TIP3   OH2 9827   4.452   3.968   4.819
 3288TIP3    H1 9828   4.378   3.965   4.879
 3288TIP3    H2 9829   4.433   4.042   4.761
 3289TIP3   OH2 9830   3.783   6.489   2.745
 3289TIP3    H1 9831   3.861   6.488   2.800
 3289TIP3    H2 9832   3.767   6.397   2.725
 3290TIP3   OH2 9833   5.182   1.934   2.215
 3290TIP3    H1 9834   5.165   1.855   2.266
 3290TIP3    H2 9835   5.270   1.961   2.241
 3291TIP3   OH2 9836   0.662   5.805   4.945
 3291TIP3    H1 9837   0.667   5.710   4.956
 3291TIP3    H2 9838   0.746   5.829   4.906
 3292TIP3   OH2 9839   3.929   5.350   3.929
 3292TIP3    H1 9840   4.013   5.367   3.887
 3292TIP3    H2 9841   3.948   5.284   3.996
 3293TIP3   OH2 9842   6.247   5.669   2.817
 3293TIP3    H1 9843   6.153   5.657   2.811
 3293TIP3    H2 9844   6.260   5.763   2.806
 3294TIP3   OH2 9845   2.391   2.786   0.523
 3294TIP3    H1 9846   2.382   2.811   0.615
 3294TIP3    H2 9847   2.302   2.763   0.496
 3295TIP3   OH2 9848   3.388   1.996   0.790
 3295TIP3    H1 9849   3.481   2.001   0.770
 3295TIP3    H2 9850   3.354   2.084   0.771
 3296TIP3   OH2 9851   4.289   2.622   1.303
 3296TIP3    H1 9852   4.197   2.640   1.287
 3296TIP3    H2 9853   4.307   2.543   1.253
 3297TIP3   OH2 9854   3.183   1.803   0.683
 3297TIP3    H1 9855   3.243   1.729   0.693
 3297TIP3    H2 9856   3.233   1.879   0.713
 3298TIP3   OH2 9857   2.193   5.587   2.112
 3298TIP3    H1 9858   2.281   5.558   2.089
 3298TIP3    H2 9859   2.157   5.515   2.164
 3299TIP3   OH2 9860   5.955   2.089   5.865
 3299TIP3    H1 9861   5.861   2.070   5.867
 3299TIP3    H2 9862   5.962   2.179   5.899
 3300TIP3   OH2 9863   4.564   0.171   3.442
 3300TIP3    H1 9864   4.572   0.220   3.524
 3300TIP3    H2 9865   4.630   0.103   3.448
 3301TIP3   OH2 9866   3.090   3.787   3.404
 3301TIP3    H1 9867   3.099   3.790   3.499
 3301TIP3    H2 9868   3.055   3.699   3.386
 3302TIP3   OH2 9869   0.736   6.612   3.211
 3302TIP3    H1 9870   0.699   6.589   3.296
 3302TIP3    H2 9871   0.825   6.641   3.230
 3303TIP3   OH2 9872   2.193   4.705   4.422
 3303TIP3    H1 9873   2.148   4.648   4.360
 3303TIP3    H2 9874   2.260   4.649   4.461
 3304TIP3   OH2 9875   1.414   2.574   4.466
 3304TIP3    H1 9876   1.452   2.642   4.522
 3304TIP3    H2 9877   1.327   2.606   4.445
 3305TIP3   OH2 9878   2.142   0.229   3.071
 3305TIP3    H1 9879   2.046   0.226   3.072
 3305TIP3    H2 9880   2.168   0.163   3.135
 3306TIP3   OH2 9881   4.409   3.147   4.545
 3306TIP3    H1 9882   4.369   3.060   4.537
 3306TIP3    H2 9883   4.373   3.182   4.626
 3307TIP3   OH2 9884   7.150   3.587   3.028
 3307TIP3    H1 9885   7.093   3.544   2.964
 3307TIP3    H2 9886   7.208   3.517   3.058
 3308TIP3   OH2 9887   3.561   6.496   5.190
 3308TIP3    H1 9888   3.530   6.410   5.161
 3308TIP3    H2 9889   3.645   6.478   5.232
 3309TIP3   OH2 9890   7.156   6.808   5.716
 3309TIP3    H1 9891   7.237   6.791   5.764
 3309TIP3    H2 9892   7.179   6.877   5.654
 3310TIP3   OH2 9893   6.567   5.337   4.808
 3310TIP3    H1 9894   6.601   5.359   4.722
 3310TIP3    H2 9895   6.547   5.244   4.803
 3311TIP3   OH2 9896   0.963   6.783   4.866
 3311TIP3    H1 9897   1.023   6.722   4.823
 3311TIP3    H2 9898   0.981   6.867   4.822
 3312TIP3   OH2 9899   2.373   3.863   2.829
 3312TIP3    H1 9900   2.402   3.777   2.798
 3312TIP3    H2 9901   2.452   3.903   2.865
 3313TIP3   OH2 9902   4.936   2.389   5.530
 3313TIP3    H1 9903   4.918   2.355   5.618
 3313TIP3    H2 9904   5.012   2.340   5.500
 3314TIP3   OH2 9905   6.873   4.210   3.037
 3314TIP3    H1 9906   6.967   4.211   3.055
 3314TIP3    H2 9907   6.862   4.269   2.963
 3315TIP3   OH2 9908   0.370   5.864   1.644
 3315TIP3    H1 9909   0.457   5.841   1.676
 3315TIP3    H2 9910   0.380   5.952   1.608
 3316TIP3   OH2 9911   7.035   2.596   3.140
 3316TIP3    H1 9912   7.064   2.631   3.224
 3316TIP3    H2 9913   6.997   2.670   3.094
 3317TIP3   OH2 9914   4.893   3.179   0.106
 3317TIP3    H1 9915   4.933   3.092   0.108
 3317TIP3    H2 9916   4.950   3.230   0.049
 3318TIP3   OH2 9917   2.693   5.687   2.515
 3318TIP3    H1 9918   2.627   5.717   2.577
 3318TIP3    H2 9919   2.715   5.764   2.463
 3319TIP3   OH2 9920   4.359   6.655   1.590
 3319TIP3    H1 9921   4.387   6.631   1.678
 3319TIP3    H2 9922   4.425   6.616   1.533
 3320TIP3   OH2 9923   4.564   3.811   3.234
 3320TIP3    H1 9924   4.608   3.853   3.160
 3320TIP3    H2 9925   4.506   3.746   3.194
 3321TIP3   OH2 9926   0.750   1.694   5.717
 3321TIP3    H1 9927   0.660   1.726   5.722
 3321TIP3    H2 9928   0.799   1.749   5.778
 3322TIP3   OH2 9929   3.685   1.067   5.241
 3322TIP3    H1 9930   3.657   1.081   5.331
 3322TIP3    H2 9931   3.720   0.978   5.240
 3323TIP3   OH2 9932   4.875   3.780   0.742
 3323TIP3    H1 9933   4.782   3.788   0.720
 3323TIP3    H2 9934   4.876   3.762   0.836
 3324TIP3   OH2 9935   7.007   2.236   3.504
 3324TIP3    H1 9936   7.021   2.273   3.416
 3324TIP3    H2 9937   7.046   2.149   3.500
 3325TIP3   OH2 9938   4.022   2.349   5.875
 3325TIP3    H1 9939   4.068   2.419   5.921
 3325TIP3    H2 9940   4.090   2.287   5.851
 3326TIP3   OH2 9941   6.738   0.224   3.605
 3326TIP3    H1 9942   6.814   0.283   3.597
 3326TIP3    H2 9943   6.759   0.168   3.680
 3327TIP3   OH2 9944   1.681   0.530   0.651
 3327TIP3    H1 9945   1.660   0.540   0.558
 3327TIP3    H2 9946   1.705   0.437   0.660
 3328TIP3   OH2 9947   3.672   5.416   0.112
 3328TIP3    H1 9948   3.678   5.453   0.200
 3328TIP3    H2 9949   3.737   5.466   0.061
 3329TIP3   OH2 9950   6.535   3.581   2.721
 3329TIP3    H1 9951   6.595   3.518   2.682
 3329TIP3    H2 9952   6.540   3.658   2.665
 3330TIP3   OH2 9953   2.837   4.999   4.105
 3330TIP3    H1 9954   2.793   4.956   4.178
 3330TIP3    H2 9955   2.777   5.069   4.079
 3331TIP3   OH2 9956   4.181   2.014   5.013
 3331TIP3    H1 9957   4.211   2.082   5.072
 3331TIP3    H2 9958   4.227   1.935   5.041
 3332TIP3   OH2 9959   6.891   1.550   4.962
 3332TIP3    H1 9960   6.900   1.572   4.869
 3332TIP3    H2 9961   6.913   1.457   4.967
 3333TIP3   OH2 9962   4.497   0.191   4.273
 3333TIP3    H1 9963   4.458   0.210   4.359
 3333TIP3    H2 9964   4.502   0.096   4.269
 3334TIP3   OH2 9965   2.001   1.327   2.485
 3334TIP3    H1 9966   1.949   1.256   2.523
 3334TIP3    H2 9967   1.936   1.385   2.445
 3335TIP3   OH2 9968   1.802   0.579   2.339
 3335TIP3    H1 9969   1.839   0.569   2.426
 3335TIP3    H2 9970   1.830   0.501   2.291
 3336TIP3   OH2 9971   2.223   4.248   2.061
 3336TIP3    H1 9972   2.273   4.263   1.981
 3336TIP3    H2 9973   2.148   4.307   2.053
 3337TIP3   OH2 9974   0.199   4.358   5.496
 3337TIP3    H1 9975   0.259   4.357   5.421
 3337TIP3    H2 9976   0.123   4.309   5.466
 3338TIP3   OH2 9977   3.099   0.059   0.860
 3338TIP3    H1 9978   3.105   0.047   0.765
 3338TIP3    H2 9979   3.109   0.153   0.873
 3339TIP3   OH2 9980   4.870   1.856   5.695
 3339TIP3    H1 9981   4.849   1.861   5.602
 3339TIP3    H2 9982   4.852   1.765   5.719
 3340TIP3   OH2 9983   6.782   4.309   4.707
 3340TIP3    H1 9984   6.852   4.347   4.761
 3340TIP3    H2 9985   6.748   4.237   4.760
 3341TIP3   OH2 9986   3.009   6.163   1.815
 3341TIP3    H1 9987   3.035   6.163   1.907
 3341TIP3    H2 9988   2.916   6.185   1.816
 3342TIP3   OH2 9989   1.758   5.135   3.451
 3342TIP3    H1 9990   1.759   5.140   3.356
 3342TIP3    H2 9991   1.756   5.227   3.479
 3343TIP3   OH2 9992   3.793   1.871   2.872
 3343TIP3    H1 9993   3.865   1.817   2.840
 3343TIP3    H2 9994   3.759   1.914   2.794
 3344TIP3   OH2 9995   6.903   1.336   0.864
 3344TIP3    H1 9996   6.843   1.410   0.861
 3344TIP3    H2 9997   6.978   1.364   0.811
 3345TIP3   OH2 9998   3.099   0.947   5.849
 3345TIP3    H1 9999   3.163   0.917   5.785
 3345TIP3    H210000   3.145   1.014   5.900
 3346TIP3   OH210001   3.045   5.162   3.793
 3346TIP3    H110002   3.010   5.195   3.710
 3346TIP3    H210003   3.107   5.229   3.821
 3347TIP3   OH210004   3.976   2.879   1.235
 3347TIP3    H110005   4.054   2.933   1.251
 3347TIP3    H210006   3.903   2.941   1.241
 3348TIP3   OH210007   2.453   5.128   2.090
 3348TIP3    H110008   2.383   5.063   2.094
 3348TIP3    H210009   2.532   5.078   2.069
 3349TIP3   OH210010   2.751   3.072   3.077
 3349TIP3    H110011   2.808   3.008   3.034
 3349TIP3    H210012   2.807   3.113   3.143
 3350TIP3   OH210013   1.015   0.942   2.290
 3350TIP3    H110014   1.029   1.037   2.293
 3350TIP3    H210015   1.056   0.914   2.209
 3351TIP3   OH210016   3.069   6.418   4.319
 3351TIP3    H110017   3.027   6.382   4.397
 3351TIP3    H210018   3.070   6.347   4.256
 3352TIP3   OH210019   6.724   0.215   3.051
 3352TIP3    H110020   6.755   0.210   3.142
 3352TIP3    H210021   6.787   0.273   3.008
 3353TIP3   OH210022   0.050   4.467   2.690
 3353TIP3    H110023   0.002   4.494   2.769
 3353TIP3    H210024   0.024   4.532   2.624
 3354TIP3   OH210025   4.681   1.750   2.588
 3354TIP3    H110026   4.642   1.830   2.552
 3354TIP3    H210027   4.765   1.779   2.625
 3355TIP3   OH210028   4.309   3.130   2.346
 3355TIP3    H110029   4.389   3.080   2.362
 3355TIP3    H210030   4.261   3.124   2.428
 3356TIP3   OH210031   0.333   0.888   5.233
 3356TIP3    H110032   0.348   0.793   5.229
 3356TIP3    H210033   0.298   0.902   5.322
 3357TIP3   OH210034   7.062   4.146   0.247
 3357TIP3    H110035   7.128   4.081   0.271
 3357TIP3    H210036   7.042   4.126   0.155
 3358TIP3   OH210037   5.904   2.577   1.107
 3358TIP3    H110038   5.943   2.587   1.020
 3358TIP3    H210039   5.942   2.647   1.159
 3359TIP3   OH210040   0.096   1.939   2.517
 3359TIP3    H110041   0.174   1.958   2.570
 3359TIP3    H210042   0.028   1.921   2.582
 3360TIP3   OH210043   3.359   3.333   3.241
 3360TIP3    H110044   3.418   3.408   3.236
 3360TIP3    H210045   3.327   3.321   3.152
 3361TIP3   OH210046   1.689   3.454   2.951
 3361TIP3    H110047   1.627   3.524   2.971
 3361TIP3    H210048   1.644   3.401   2.885
 3362TIP3   OH210049   0.325   2.460   5.505
 3362TIP3    H110050   0.328   2.407   5.425
 3362TIP3    H210051   0.297   2.400   5.573
 3363TIP3   OH210052   7.027   1.561   3.777
 3363TIP3    H110053   6.953   1.597   3.827
 3363TIP3    H210054   7.001   1.471   3.757
 3364TIP3   OH210055   0.235   4.722   2.254
 3364TIP3    H110056   0.200   4.688   2.171
 3364TIP3    H210057   0.186   4.803   2.269
 3365TIP3   OH210058   6.340   1.990   0.095
 3365TIP3    H110059   6.335   1.988  -0.001
 3365TIP3    H210060   6.257   2.030   0.122
 3366TIP3   OH210061   1.243   1.766   5.154
 3366TIP3    H110062   1.290   1.766   5.237
 3366TIP3    H210063   1.188   1.844   5.157
 3367TIP3   OH210064   6.338   3.192   4.072
 3367TIP3    H110065   6.293   3.142   4.004
 3367TIP3    H210066   6.431   3.186   4.049
 3368TIP3   OH210067   2.872   3.455   2.321
 3368TIP3    H110068   2.811   3.528   2.311
 3368TIP3    H210069   2.947   3.492   2.367
 3369TIP3   OH210070   2.482   6.348   2.822
 3369TIP3    H110071   2.438   6.299   2.892
 3369TIP3    H210072   2.411   6.381   2.767
 3370TIP3   OH210073   1.628   5.451   5.139
 3370TIP3    H110074   1.691   5.381   5.119
 3370TIP3    H210075   1.656   5.524   5.084
 3371TIP3   OH210076   1.614   5.573   5.637
 3371TIP3    H110077   1.638   5.641   5.575
 3371TIP3    H210078   1.690   5.564   5.694
 3372TIP3   OH210079   3.564   2.661   2.684
 3372TIP3    H110080   3.623   2.648   2.758
 3372TIP3    H210081   3.614   2.718   2.624
 3373TIP3   OH210082   4.818   2.350   3.862
 3373TIP3    H110083   4.799   2.419   3.926
 3373TIP3    H210084   4.783   2.384   3.780
 3374TIP3   OH210085   5.025   4.601   3.695
 3374TIP3    H110086   4.983   4.546   3.628
 3374TIP3    H210087   5.015   4.552   3.776
 3375TIP3   OH210088   2.610   6.644   4.168
 3375TIP3    H110089   2.637   6.572   4.224
 3375TIP3    H210090   2.617   6.722   4.223
 3376TIP3   OH210091   5.794   5.336   1.650
 3376TIP3    H110092   5.812   5.413   1.704
 3376TIP3    H210093   5.879   5.311   1.614
 3377TIP3   OH210094   2.995   5.404   1.005
 3377TIP3    H110095   2.942   5.445   1.073
 3377TIP3    H210096   3.084   5.436   1.021
 3378TIP3   OH210097   0.018   2.045   0.361
 3378TIP3    H110098   0.012   2.068   0.268
 3378TIP3    H210099   0.107   2.012   0.372
 3379TIP3   OH210100   4.677   4.473   0.744
 3379TIP3    H110101   4.701   4.455   0.653
 3379TIP3    H210102   4.757   4.458   0.793
 3380TIP3   OH210103   6.858   4.855   3.557
 3380TIP3    H110104   6.895   4.822   3.639
 3380TIP3    H210105   6.890   4.795   3.490
 3381TIP3   OH210106   0.889   1.500   0.638
 3381TIP3    H110107   0.825   1.492   0.568
 3381TIP3    H210108   0.973   1.510   0.594
 3382TIP3   OH210109   5.212   1.642   0.219
 3382TIP3    H110110   5.292   1.630   0.271
 3382TIP3    H210111   5.170   1.719   0.258
 3383TIP3   OH210112   0.685   4.766   3.344
 3383TIP3    H110113   0.766   4.715   3.355
 3383TIP3    H210114   0.706   4.828   3.274
 3384TIP3   OH210115   6.552   0.181   3.418
 3384TIP3    H110116   6.571   0.098   3.374
 3384TIP3    H210117   6.625   0.193   3.479
 3385TIP3   OH210118   7.235   0.062   0.074
 3385TIP3    H110119   7.168   0.127   0.096
 3385TIP3    H210120   7.247   0.011   0.154
 3386TIP3   OH210121   2.049   1.733   4.061
 3386TIP3    H110122   2.068   1.801   4.126
 3386TIP3    H210123   1.961   1.702   4.083
 3387TIP3   OH210124   0.877   2.208   3.252
 3387TIP3    H110125   0.910   2.238   3.336
 3387TIP3    H210126   0.934   2.135   3.228
 3388TIP3   OH210127   1.286   4.804   4.328
 3388TIP3    H110128   1.255   4.866   4.393
 3388TIP3    H210129   1.207   4.771   4.286
 3389TIP3   OH210130   3.951   6.674   5.279
 3389TIP3    H110131   3.869   6.723   5.277
 3389TIP3    H210132   3.963   6.644   5.189
 3390TIP3   OH210133   4.046   6.731   2.413
 3390TIP3    H110134   4.094   6.774   2.484
 3390TIP3    H210135   4.110   6.672   2.373
 3391TIP3   OH210136   5.168   4.331   3.939
 3391TIP3    H110137   5.185   4.302   4.028
 3391TIP3    H210138   5.077   4.360   3.940
 3392TIP3   OH210139   6.372   4.225   5.494
 3392TIP3    H110140   6.426   4.271   5.429
 3392TIP3    H210141   6.435   4.189   5.556
 3393TIP3   OH210142   1.973   2.198   3.873
 3393TIP3    H110143   2.039   2.131   3.854
 3393TIP3    H210144   1.890   2.160   3.844
 3394TIP3   OH210145   4.896   4.403   4.380
 3394TIP3    H110146   4.854   4.464   4.441
 3394TIP3    H210147   4.857   4.318   4.400
 3395TIP3   OH210148   1.586   5.676   0.608
 3395TIP3    H110149   1.589   5.581   0.618
 3395TIP3    H210150   1.603   5.691   0.515
 3396TIP3   OH210151   1.732   3.335   5.706
 3396TIP3    H110152   1.818   3.331   5.664
 3396TIP3    H210153   1.738   3.274   5.780
 3397TIP3   OH210154   7.084   1.734   3.046
 3397TIP3    H110155   7.025   1.802   3.077
 3397TIP3    H210156   7.154   1.730   3.112
 3398TIP3   OH210157   3.932   4.383   0.324
 3398TIP3    H110158   3.995   4.322   0.284
 3398TIP3    H210159   3.986   4.443   0.375
 3399TIP3   OH210160   3.009   3.472   5.701
 3399TIP3    H110161   3.061   3.496   5.624
 3399TIP3    H210162   2.940   3.539   5.705
 3400TIP3   OH210163   1.022   5.250   3.978
 3400TIP3    H110164   1.096   5.285   3.930
 3400TIP3    H210165   0.946   5.298   3.944
 3401TIP3   OH210166   6.887   1.590   4.239
 3401TIP3    H110167   6.929   1.543   4.310
 3401TIP3    H210168   6.816   1.639   4.281
 3402TIP3   OH210169   4.511   2.236   1.706
 3402TIP3    H110170   4.603   2.233   1.732
 3402TIP3    H210171   4.490   2.329   1.705
 3403TIP3   OH210172   2.783   4.090   4.130
 3403TIP3    H110173   2.700   4.130   4.104
 3403TIP3    H210174   2.760   4.036   4.206
 3404TIP3   OH210175   1.860   3.521   1.759
 3404TIP3    H110176   1.775   3.505   1.717
 3404TIP3    H210177   1.874   3.615   1.749
 3405TIP3   OH210178   0.902   4.159   0.591
 3405TIP3    H110179   0.981   4.202   0.561
 3405TIP3    H210180   0.831   4.217   0.563
 3406TIP3   OH210181   2.412   0.586   2.606
 3406TIP3    H110182   2.327   0.545   2.625
 3406TIP3    H210183   2.389   0.667   2.561
 3407TIP3   OH210184   5.015   0.715   3.009
 3407TIP3    H110185   4.979   0.632   2.980
 3407TIP3    H210186   4.973   0.781   2.953
 3408TIP3   OH210187   5.185   0.318   4.208
 3408TIP3    H110188   5.095   0.328   4.176
 3408TIP3    H210189   5.231   0.275   4.137
 3409TIP3   OH210190   4.926   1.402   2.616
 3409TIP3    H110191   4.842   1.422   2.575
 3409TIP3    H210192   4.907   1.330   2.676
 3410TIP3   OH210193   1.324   3.069   1.953
 3410TIP3    H110194   1.277   2.985   1.958
 3410TIP3    H210195   1.267   3.130   2.000
 3411TIP3   OH210196   5.284   6.575   2.349
 3411TIP3    H110197   5.333   6.493   2.354
 3411TIP3    H210198   5.212   6.565   2.410
 3412TIP3   OH210199   5.525   1.495   2.658
 3412TIP3    H110200   5.496   1.444   2.582
 3412TIP3    H210201   5.621   1.486   2.656
 3413TIP3   OH210202   5.005   5.624   2.568
 3413TIP3    H110203   4.960   5.705   2.543
 3413TIP3    H210204   5.097   5.641   2.551
 3414TIP3   OH210205   2.833   0.798   1.846
 3414TIP3    H110206   2.767   0.867   1.841
 3414TIP3    H210207   2.899   0.833   1.907
 3415TIP3   OH210208   0.434   4.080   3.403
 3415TIP3    H110209   0.431   4.170   3.372
 3415TIP3    H210210   0.511   4.042   3.360
 3416TIP3   OH210211   0.117   4.062   5.217
 3416TIP3    H110212   0.172   3.985   5.202
 3416TIP3    H210213   0.177   4.136   5.212
 3417TIP3   OH210214   3.635   0.705   1.556
 3417TIP3    H110215   3.628   0.720   1.462
 3417TIP3    H210216   3.728   0.684   1.570
 3418TIP3   OH210217   5.293   5.117   5.580
 3418TIP3    H110218   5.320   5.070   5.659
 3418TIP3    H210219   5.293   5.209   5.606
 3419TIP3   OH210220   7.201   3.632   5.699
 3419TIP3    H110221   7.106   3.626   5.708
 3419TIP3    H210222   7.234   3.623   5.788
 3420TIP3   OH210223   1.157   5.990   5.442
 3420TIP3    H110224   1.190   5.904   5.467
 3420TIP3    H210225   1.062   5.979   5.436
 3421TIP3   OH210226   1.227   6.714   0.051
 3421TIP3    H110227   1.314   6.719   0.011
 3421TIP3    H210228   1.169   6.754  -0.013
 3422TIP3   OH210229   6.741   2.559   5.799
 3422TIP3    H110230   6.763   2.641   5.754
 3422TIP3    H210231   6.822   2.532   5.842
 3423TIP3   OH210232   2.760   6.223   1.437
 3423TIP3    H110233   2.811   6.174   1.502
 3423TIP3    H210234   2.819   6.235   1.363
 3424TIP3   OH210235   2.963   5.574   3.664
 3424TIP3    H110236   2.942   5.618   3.746
 3424TIP3    H210237   2.912   5.493   3.666
 3425TIP3   OH210238   1.378   1.404   4.173
 3425TIP3    H110239   1.432   1.401   4.252
 3425TIP3    H210240   1.298   1.449   4.201
 3426TIP3   OH210241   5.218   3.223   2.800
 3426TIP3    H110242   5.185   3.210   2.711
 3426TIP3    H210243   5.282   3.152   2.812
 3427TIP3   OH210244   6.587   1.239   1.977
 3427TIP3    H110245   6.510   1.192   2.009
 3427TIP3    H210246   6.592   1.215   1.884
 3428TIP3   OH210247   6.206   1.302   0.136
 3428TIP3    H110248   6.202   1.298   0.041
 3428TIP3    H210249   6.185   1.213   0.165
 3429TIP3   OH210250   0.813   4.230   0.949
 3429TIP3    H110251   0.723   4.260   0.963
 3429TIP3    H210252   0.855   4.302   0.901
 3430TIP3   OH210253   3.703   0.509   4.722
 3430TIP3    H110254   3.668   0.590   4.685
 3430TIP3    H210255   3.701   0.522   4.817
 3431TIP3   OH210256   7.095   1.153   0.995
 3431TIP3    H110257   7.043   1.221   0.951
 3431TIP3    H210258   7.161   1.128   0.931
 3432TIP3   OH210259   6.311   6.567   1.989
 3432TIP3    H110260   6.397   6.531   1.967
 3432TIP3    H210261   6.308   6.651   1.944
 3433TIP3   OH210262   4.803   2.660   1.589
 3433TIP3    H110263   4.777   2.727   1.652
 3433TIP3    H210264   4.756   2.682   1.509
 3434TIP3   OH210265   2.125   3.042   3.431
 3434TIP3    H110266   2.143   2.954   3.399
 3434TIP3    H210267   2.196   3.060   3.493
 3435TIP3   OH210268   0.565   6.562   3.009
 3435TIP3    H110269   0.479   6.602   3.025
 3435TIP3    H210270   0.611   6.571   3.092
 3436TIP3   OH210271   5.614   1.385   5.003
 3436TIP3    H110272   5.553   1.407   4.932
 3436TIP3    H210273   5.612   1.460   5.061
 3437TIP3   OH210274   2.472   4.398   0.179
 3437TIP3    H110275   2.447   4.444   0.259
 3437TIP3    H210276   2.389   4.369   0.141
 3438TIP3   OH210277   4.596   2.435   0.827
 3438TIP3    H110278   4.543   2.509   0.856
 3438TIP3    H210279   4.660   2.474   0.768
 3439TIP3   OH210280   2.126   5.751   5.213
 3439TIP3    H110281   2.209   5.784   5.246
 3439TIP3    H210282   2.059   5.797   5.264
 3440TIP3   OH210283   5.145   4.098   4.130
 3440TIP3    H110284   5.092   4.066   4.057
 3440TIP3    H210285   5.084   4.148   4.184
 3441TIP3   OH210286   6.039   4.412   2.001
 3441TIP3    H110287   5.953   4.380   2.029
 3441TIP3    H210288   6.085   4.334   1.969
 3442TIP3   OH210289   6.572   2.919   4.838
 3442TIP3    H110290   6.550   3.012   4.844
 3442TIP3    H210291   6.642   2.906   4.903
 3443TIP3   OH210292   1.860   3.940   2.227
 3443TIP3    H110293   1.927   3.894   2.176
 3443TIP3    H210294   1.851   3.888   2.307
 3444TIP3   OH210295   6.532   2.217   5.044
 3444TIP3    H110296   6.542   2.129   5.008
 3444TIP3    H210297   6.614   2.262   5.023
 3445TIP3   OH210298   6.935   1.305   4.327
 3445TIP3    H110299   6.974   1.221   4.350
 3445TIP3    H210300   6.920   1.300   4.233
 3446TIP3   OH210301   1.332   1.878   0.319
 3446TIP3    H110302   1.330   1.802   0.378
 3446TIP3    H210303   1.370   1.844   0.238
 3447TIP3   OH210304   2.445   1.222   2.673
 3447TIP3    H110305   2.517   1.284   2.679
 3447TIP3    H210306   2.428   1.195   2.764
 3448TIP3   OH210307   3.257   2.342   4.859
 3448TIP3    H110308   3.175   2.310   4.822
 3448TIP3    H210309   3.318   2.269   4.851
 3449TIP3   OH210310   5.859   4.097   2.292
 3449TIP3    H110311   5.790   4.080   2.229
 3449TIP3    H210312   5.832   4.051   2.371
 3450TIP3   OH210313   6.523   0.851   4.973
 3450TIP3    H110314   6.564   0.817   5.053
 3450TIP3    H210315   6.540   0.945   4.974
 3451TIP3   OH210316   3.650   2.781   2.219
 3451TIP3    H110317   3.689   2.716   2.161
 3451TIP3    H210318   3.636   2.858   2.164
 3452TIP3   OH210319   6.217   0.954   3.167
 3452TIP3    H110320   6.271   0.893   3.217
 3452TIP3    H210321   6.188   0.904   3.091
 3453TIP3   OH210322   4.779   4.401   4.766
 3453TIP3    H110323   4.785   4.456   4.844
 3453TIP3    H210324   4.787   4.311   4.800
 3454TIP3   OH210325   4.812   2.488   0.007
 3454TIP3    H110326   4.895   2.522   0.040
 3454TIP3    H210327   4.753   2.488   0.083
 3455TIP3   OH210328   1.302   2.143   5.013
 3455TIP3    H110329   1.273   2.095   5.090
 3455TIP3    H210330   1.285   2.235   5.034
 3456TIP3   OH210331   5.830   3.843   5.087
 3456TIP3    H110332   5.918   3.829   5.052
 3456TIP3    H210333   5.845   3.874   5.177
 3457TIP3   OH210334   5.408   4.027   1.619
 3457TIP3    H110335   5.358   3.948   1.599
 3457TIP3    H210336   5.402   4.035   1.715
 3458TIP3   OH210337   1.894   1.264   4.312
 3458TIP3    H110338   1.896   1.300   4.223
 3458TIP3    H210339   1.920   1.337   4.367
 3459TIP3   OH210340   2.905   4.782   3.041
 3459TIP3    H110341   2.931   4.780   3.133
 3459TIP3    H210342   2.857   4.700   3.028
 3460TIP3   OH210343   2.669   4.737   3.549
 3460TIP3    H110344   2.694   4.773   3.633
 3460TIP3    H210345   2.582   4.700   3.563
 3461TIP3   OH210346   5.832   0.705   4.705
 3461TIP3    H110347   5.836   0.798   4.684
 3461TIP3    H210348   5.788   0.702   4.791
 3462TIP3   OH210349   6.519   5.221   2.538
 3462TIP3    H110350   6.460   5.182   2.603
 3462TIP3    H210351   6.472   5.297   2.505
 3463TIP3   OH210352   6.228   0.770   1.265
 3463TIP3    H110353   6.170   0.775   1.189
 3463TIP3    H210354   6.310   0.808   1.234
 3464TIP3   OH210355   3.687   2.592   5.508
 3464TIP3    H110356   3.690   2.687   5.507
 3464TIP3    H210357   3.762   2.566   5.562
 3465TIP3   OH210358   6.414   2.660   2.403
 3465TIP3    H110359   6.457   2.690   2.483
 3465TIP3    H210360   6.380   2.573   2.425
 3466TIP3   OH210361   0.380   3.486   4.823
 3466TIP3    H110362   0.457   3.479   4.767
 3466TIP3    H210363   0.395   3.423   4.893
 3467TIP3   OH210364   1.910   1.245   1.899
 3467TIP3    H110365   1.824   1.286   1.889
 3467TIP3    H210366   1.899   1.157   1.864
 3468TIP3   OH210367   4.211   4.605   3.221
 3468TIP3    H110368   4.230   4.515   3.245
 3468TIP3    H210369   4.279   4.657   3.264
 3469TIP3   OH210370   0.730   5.300   5.053
 3469TIP3    H110371   0.730   5.378   5.108
 3469TIP3    H210372   0.781   5.236   5.102
 3470TIP3   OH210373   0.646   2.554   3.836
 3470TIP3    H110374   0.610   2.465   3.833
 3470TIP3    H210375   0.570   2.611   3.849
 3471TIP3   OH210376   7.117   0.726   1.368
 3471TIP3    H110377   7.106   0.773   1.285
 3471TIP3    H210378   7.208   0.743   1.394
 3472TIP3   OH210379   5.092   4.862   5.397
 3472TIP3    H110380   5.164   4.921   5.373
 3472TIP3    H210381   5.112   4.780   5.352
 3473TIP3   OH210382   7.036   1.683   2.485
 3473TIP3    H110383   6.975   1.644   2.547
 3473TIP3    H210384   7.075   1.608   2.439
 3474TIP3   OH210385   3.705   6.646   4.676
 3474TIP3    H110386   3.697   6.589   4.753
 3474TIP3    H210387   3.708   6.585   4.603
 3475TIP3   OH210388   5.654   0.048   4.255
 3475TIP3    H110389   5.690   0.101   4.184
 3475TIP3    H210390   5.624  -0.032   4.211
 3476TIP3   OH210391   1.388   5.994   5.182
 3476TIP3    H110392   1.345   6.068   5.222
 3476TIP3    H210393   1.354   5.991   5.093
 3477TIP3   OH210394   4.843   0.458   0.097
 3477TIP3    H110395   4.869   0.455   0.189
 3477TIP3    H210396   4.926   0.467   0.050
 3478TIP3   OH210397   6.778   5.718   4.377
 3478TIP3    H110398   6.772   5.738   4.470
 3478TIP3    H210399   6.791   5.803   4.335
 3479TIP3   OH210400   6.199   0.487   2.855
 3479TIP3    H110401   6.220   0.397   2.880
 3479TIP3    H210402   6.151   0.522   2.930
 3480TIP3   OH210403   6.761   1.560   5.484
 3480TIP3    H110404   6.745   1.521   5.570
 3480TIP3    H210405   6.713   1.504   5.423
 3481TIP3   OH210406   4.985   5.759   0.621
 3481TIP3    H110407   4.980   5.669   0.590
 3481TIP3    H210408   4.963   5.754   0.714
 3482TIP3   OH210409   1.869   5.485   1.186
 3482TIP3    H110410   1.813   5.461   1.260
 3482TIP3    H210411   1.809   5.522   1.122
 3483TIP3   OH210412   2.321   4.501   4.196
 3483TIP3    H110413   2.339   4.472   4.286
 3483TIP3    H210414   2.226   4.500   4.189
 3484TIP3   OH210415   4.396   3.476   2.916
 3484TIP3    H110416   4.366   3.548   2.860
 3484TIP3    H210417   4.465   3.433   2.865
 3485TIP3   OH210418   3.385   1.317   2.356
 3485TIP3    H110419   3.336   1.279   2.283
 3485TIP3    H210420   3.319   1.364   2.407
 3486TIP3   OH210421   2.876   3.794   2.123
 3486TIP3    H110422   2.786   3.778   2.094
 3486TIP3    H210423   2.868   3.862   2.190
 3487TIP3   OH210424   0.182   3.400   1.296
 3487TIP3    H110425   0.107   3.441   1.252
 3487TIP3    H210426   0.257   3.424   1.242
 3488TIP3   OH210427   2.775   1.164   2.999
 3488TIP3    H110428   2.861   1.205   3.003
 3488TIP3    H210429   2.765   1.121   3.084
 3489TIP3   OH210430   0.112   3.538   4.750
 3489TIP3    H110431   0.208   3.533   4.752
 3489TIP3    H210432   0.086   3.528   4.841
 3490TIP3   OH210433   2.453   5.381   0.645
 3490TIP3    H110434   2.414   5.310   0.695
 3490TIP3    H210435   2.432   5.460   0.695
 3491TIP3   OH210436   0.935   3.875   2.952
 3491TIP3    H110437   0.872   3.804   2.945
 3491TIP3    H210438   0.882   3.954   2.966
 3492TIP3   OH210439   4.663   0.114   4.694
 3492TIP3    H110440   4.638   0.191   4.644
 3492TIP3    H210441   4.587   0.057   4.690
 3493TIP3   OH210442   1.345   6.729   1.635
 3493TIP3    H110443   1.390   6.701   1.555
 3493TIP3    H210444   1.415   6.751   1.696
 3494TIP3   OH210445   3.669   2.882   3.547
 3494TIP3    H110446   3.742   2.894   3.486
 3494TIP3    H210447   3.694   2.933   3.624
 3495TIP3   OH210448   6.361   6.099   4.956
 3495TIP3    H110449   6.355   6.060   4.869
 3495TIP3    H210450   6.445   6.069   4.990
 3496TIP3   OH210451   3.735   3.719   2.228
 3496TIP3    H110452   3.752   3.625   2.220
 3496TIP3    H210453   3.639   3.727   2.221
 3497TIP3   OH210454   0.033   2.048   2.910
 3497TIP3    H110455  -0.037   1.987   2.886
 3497TIP3    H210456   0.002   2.092   2.989
 3498TIP3   OH210457   6.037   6.217   5.789
 3498TIP3    H110458   6.018   6.149   5.725
 3498TIP3    H210459   6.069   6.291   5.737
 3499TIP3   OH210460   7.047   2.515   4.210
 3499TIP3    H110461   7.045   2.565   4.292
 3499TIP3    H210462   7.028   2.425   4.236
 3500TIP3   OH210463   0.518   0.984   0.050
 3500TIP3    H110464   0.439   0.933   0.064
 3500TIP3    H210465   0.589   0.920   0.052
 3501TIP3   OH210466   7.226   0.179   2.759
 3501TIP3    H110467   7.152   0.154   2.813
 3501TIP3    H210468   7.224   0.118   2.685
 3502TIP3   OH210469   3.327   2.150   0.420
 3502TIP3    H110470   3.274   2.207   0.365
 3502TIP3    H210471   3.282   2.149   0.504
 3503TIP3   OH210472   1.822   3.478   5.381
 3503TIP3    H110473   1.914   3.453   5.392
 3503TIP3    H210474   1.779   3.398   5.351
 3504TIP3   OH210475   1.462   0.396   5.056
 3504TIP3    H110476   1.406   0.377   5.130
 3504TIP3    H210477   1.461   0.491   5.048
 3505TIP3   OH210478   3.823   6.242   3.996
 3505TIP3    H110479   3.763   6.250   3.921
 3505TIP3    H210480   3.908   6.221   3.957
 3506TIP3   OH210481   5.151   2.189   5.568
 3506TIP3    H110482   5.089   2.179   5.640
 3506TIP3    H210483   5.125   2.122   5.504
 3507TIP3   OH210484   4.621   2.489   0.216
 3507TIP3    H110485   4.625   2.426   0.287
 3507TIP3    H210486   4.631   2.574   0.259
 3508TIP3   OH210487   3.575   6.388   2.941
 3508TIP3    H110488   3.544   6.470   2.980
 3508TIP3    H210489   3.501   6.357   2.889
 3509TIP3   OH210490   1.065   1.808   2.905
 3509TIP3    H110491   1.116   1.794   2.825
 3509TIP3    H210492   1.111   1.757   2.971
 3510TIP3   OH210493   5.475   3.612   4.452
 3510TIP3    H110494   5.434   3.608   4.365
 3510TIP3    H210495   5.567   3.631   4.434
 3511TIP3   OH210496   5.552   5.527   4.594
 3511TIP3    H110497   5.647   5.526   4.587
 3511TIP3    H210498   5.521   5.491   4.511
 3512TIP3   OH210499   0.846   3.939   2.465
 3512TIP3    H110500   0.787   3.957   2.538
 3512TIP3    H210501   0.790   3.941   2.387
 3513TIP3   OH210502   6.989   2.867   1.166
 3513TIP3    H110503   6.962   2.959   1.163
 3513TIP3    H210504   7.003   2.850   1.260
 3514TIP3   OH210505   1.729   1.065   4.854
 3514TIP3    H110506   1.820   1.094   4.855
 3514TIP3    H210507   1.729   0.988   4.797
 3515TIP3   OH210508   3.210   0.583   3.952
 3515TIP3    H110509   3.266   0.634   4.012
 3515TIP3    H210510   3.271   0.548   3.887
 3516TIP3   OH210511   5.062   4.165   3.526
 3516TIP3    H110512   5.019   4.247   3.500
 3516TIP3    H210513   5.111   4.188   3.605
 3517TIP3   OH210514   4.826   2.607   0.463
 3517TIP3    H110515   4.882   2.595   0.540
 3517TIP3    H210516   4.737   2.604   0.499
 3518TIP3   OH210517   2.048   2.563   0.839
 3518TIP3    H110518   2.143   2.548   0.846
 3518TIP3    H210519   2.039   2.658   0.843
 3519TIP3   OH210520   1.687   6.083   3.444
 3519TIP3    H110521   1.694   6.152   3.510
 3519TIP3    H210522   1.656   6.007   3.493
 3520TIP3   OH210523   6.677   6.000   4.021
 3520TIP3    H110524   6.667   5.987   3.926
 3520TIP3    H210525   6.739   6.073   4.028
 3521TIP3   OH210526   6.992   0.167   2.416
 3521TIP3    H110527   6.944   0.227   2.472
 3521TIP3    H210528   7.084   0.183   2.438
 3522TIP3   OH210529   6.605   5.585   4.194
 3522TIP3    H110530   6.663   5.646   4.239
 3522TIP3    H210531   6.663   5.516   4.162
 3523TIP3   OH210532   1.477   3.062   3.879
 3523TIP3    H110533   1.559   3.028   3.842
 3523TIP3    H210534   1.455   3.137   3.824
 3524TIP3   OH210535   4.729   3.240   5.190
 3524TIP3    H110536   4.776   3.282   5.118
 3524TIP3    H210537   4.751   3.292   5.267
 3525TIP3   OH210538   3.959   6.244   0.361
 3525TIP3    H110539   3.933   6.214   0.274
 3525TIP3    H210540   3.885   6.298   0.391
 3526TIP3   OH210541   4.135   1.881   4.486
 3526TIP3    H110542   4.192   1.956   4.469
 3526TIP3    H210543   4.167   1.846   4.569
 3527TIP3   OH210544   5.086   4.333   2.406
 3527TIP3    H110545   5.028   4.297   2.339
 3527TIP3    H210546   5.032   4.398   2.451
 3528TIP3   OH210547   1.170   5.947   2.567
 3528TIP3    H110548   1.090   5.935   2.516
 3528TIP3    H210549   1.215   5.863   2.561
 3529TIP3   OH210550   5.754   5.892   2.801
 3529TIP3    H110551   5.826   5.870   2.861
 3529TIP3    H210552   5.709   5.809   2.786
 3530TIP3   OH210553   5.016   1.180   4.270
 3530TIP3    H110554   5.090   1.187   4.211
 3530TIP3    H210555   4.941   1.213   4.219
 3531TIP3   OH210556   6.403   1.249   5.120
 3531TIP3    H110557   6.443   1.188   5.058
 3531TIP3    H210558   6.474   1.275   5.178
 3532TIP3   OH210559   3.940   1.392   1.384
 3532TIP3    H110560   4.017   1.334   1.379
 3532TIP3    H210561   3.872   1.345   1.336
 3533TIP3   OH210562   5.672   4.592   0.728
 3533TIP3    H110563   5.726   4.623   0.801
 3533TIP3    H210564   5.583   4.613   0.753
 3534TIP3   OH210565   5.832   6.312   4.443
 3534TIP3    H110566   5.829   6.397   4.398
 3534TIP3    H210567   5.924   6.285   4.437
 3535TIP3   OH210568   3.432   4.967   5.248
 3535TIP3    H110569   3.345   4.986   5.284
 3535TIP3    H210570   3.455   4.882   5.285
 3536TIP3   OH210571   4.112   4.733   2.980
 3536TIP3    H110572   4.141   4.702   3.066
 3536TIP3    H210573   4.018   4.716   2.979
 3537TIP3   OH210574   5.377   2.172   1.743
 3537TIP3    H110575   5.328   2.094   1.765
 3537TIP3    H210576   5.336   2.205   1.663
 3538TIP3   OH210577   2.111   6.763   5.809
 3538TIP3    H110578   2.197   6.765   5.767
 3538TIP3    H210579   2.120   6.819   5.885
 3539TIP3   OH210580   2.396   3.621   2.675
 3539TIP3    H110581   2.399   3.601   2.581
 3539TIP3    H210582   2.455   3.557   2.714
 3540TIP3   OH210583   2.438   4.143   0.674
 3540TIP3    H110584   2.419   4.158   0.581
 3540TIP3    H210585   2.457   4.230   0.709
 3541TIP3   OH210586   4.188   5.514   3.225
 3541TIP3    H110587   4.274   5.534   3.188
 3541TIP3    H210588   4.126   5.558   3.166
 3542TIP3   OH210589   3.920   4.913   3.153
 3542TIP3    H110590   3.923   4.930   3.059
 3542TIP3    H210591   3.932   4.999   3.193
 3543TIP3   OH210592   1.386   5.478   5.753
 3543TIP3    H110593   1.306   5.463   5.704
 3543TIP3    H210594   1.447   5.515   5.689
 3544TIP3   OH210595   6.352   3.977   3.325
 3544TIP3    H110596   6.269   4.026   3.327
 3544TIP3    H210597   6.396   4.007   3.246
 3545TIP3   OH210598   2.566   1.273   1.594
 3545TIP3    H110599   2.616   1.345   1.633
 3545TIP3    H210600   2.522   1.231   1.668
 3546TIP3   OH210601   3.259   4.443   3.981
 3546TIP3    H110602   3.330   4.458   4.043
 3546TIP3    H210603   3.202   4.519   3.989
 3547TIP3   OH210604   5.531   4.252   2.210
 3547TIP3    H110605   5.567   4.285   2.128
 3547TIP3    H210606   5.549   4.158   2.208
 3548TIP3   OH210607   5.387   2.246   4.420
 3548TIP3    H110608   5.318   2.223   4.482
 3548TIP3    H210609   5.436   2.316   4.464
 3549TIP3   OH210610   4.359   3.671   1.485
 3549TIP3    H110611   4.348   3.613   1.409
 3549TIP3    H210612   4.452   3.663   1.508
 3550TIP3   OH210613   7.135   6.655   3.711
 3550TIP3    H110614   7.175   6.741   3.722
 3550TIP3    H210615   7.109   6.652   3.619
 3551TIP3   OH210616   3.317   3.105   0.722
 3551TIP3    H110617   3.302   3.047   0.648
 3551TIP3    H210618   3.238   3.158   0.728
 3552TIP3   OH210619   5.087   2.991   1.291
 3552TIP3    H110620   5.077   2.931   1.365
 3552TIP3    H210621   5.018   3.056   1.302
 3553TIP3   OH210622   6.217   2.694   2.732
 3553TIP3    H110623   6.259   2.610   2.715
 3553TIP3    H210624   6.124   2.678   2.715
 3554TIP3   OH210625   4.181   0.655   5.135
 3554TIP3    H110626   4.127   0.583   5.168
 3554TIP3    H210627   4.145   0.734   5.177
 3555TIP3   OH210628   4.838   4.790   5.553
 3555TIP3    H110629   4.914   4.829   5.509
 3555TIP3    H210630   4.795   4.738   5.485
 3556TIP3   OH210631   6.408   1.348   4.790
 3556TIP3    H110632   6.474   1.289   4.753
 3556TIP3    H210633   6.351   1.368   4.716
 3557TIP3   OH210634   2.739   6.392   4.331
 3557TIP3    H110635   2.691   6.405   4.413
 3557TIP3    H210636   2.787   6.311   4.344
 3558TIP3   OH210637   5.400   3.528   3.467
 3558TIP3    H110638   5.350   3.520   3.385
 3558TIP3    H210639   5.420   3.621   3.473
 3559TIP3   OH210640   7.130   3.514   0.157
 3559TIP3    H110641   7.098   3.600   0.129
 3559TIP3    H210642   7.225   3.520   0.146
 3560TIP3   OH210643   4.443   6.168   1.703
 3560TIP3    H110644   4.374   6.143   1.642
 3560TIP3    H210645   4.407   6.147   1.789
 3561TIP3   OH210646   1.748   1.537   0.557
 3561TIP3    H110647   1.751   1.449   0.594
 3561TIP3    H210648   1.815   1.585   0.604
 3562TIP3   OH210649   3.871   6.166   0.082
 3562TIP3    H110650   3.958   6.172   0.043
 3562TIP3    H210651   3.811   6.188   0.011
 3563TIP3   OH210652   0.931   4.464   4.564
 3563TIP3    H110653   0.924   4.385   4.511
 3563TIP3    H210654   1.018   4.458   4.605
 3564TIP3   OH210655   1.399   0.735   2.704
 3564TIP3    H110656   1.385   0.658   2.648
 3564TIP3    H210657   1.454   0.793   2.651
 3565TIP3   OH210658   3.599   3.569   1.545
 3565TIP3    H110659   3.558   3.484   1.531
 3565TIP3    H210660   3.545   3.612   1.611
 3566TIP3   OH210661   5.434   4.695   1.384
 3566TIP3    H110662   5.351   4.691   1.337
 3566TIP3    H210663   5.472   4.608   1.373
 3567TIP3   OH210664   2.267   2.507   0.563
 3567TIP3    H110665   2.204   2.435   0.571
 3567TIP3    H210666   2.214   2.584   0.542
 3568TIP3   OH210667   4.853   4.221   4.964
 3568TIP3    H110668   4.864   4.127   4.980
 3568TIP3    H210669   4.758   4.234   4.964
 3569TIP3   OH210670   7.098   2.617   5.002
 3569TIP3    H110671   7.036   2.690   5.005
 3569TIP3    H210672   7.093   2.586   4.912
 3570TIP3   OH210673   3.103   3.440   0.256
 3570TIP3    H110674   3.028   3.425   0.313
 3570TIP3    H210675   3.132   3.529   0.276
 3571TIP3   OH210676   3.005   4.770   3.282
 3571TIP3    H110677   3.016   4.802   3.372
 3571TIP3    H210678   3.078   4.710   3.268
 3572TIP3   OH210679   3.030   4.711   1.092
 3572TIP3    H110680   2.946   4.688   1.052
 3572TIP3    H210681   3.007   4.740   1.180
 3573TIP3   OH210682   4.308   4.709   4.860
 3573TIP3    H110683   4.367   4.670   4.795
 3573TIP3    H210684   4.336   4.672   4.943
 3574TIP3   OH210685   7.200   3.233   4.438
 3574TIP3    H110686   7.210   3.284   4.357
 3574TIP3    H210687   7.157   3.152   4.410
 3575TIP3   OH210688   2.266   6.574   0.588
 3575TIP3    H110689   2.189   6.572   0.530
 3575TIP3    H210690   2.283   6.667   0.601
 3576TIP3   OH210691   4.373   0.266   0.866
 3576TIP3    H110692   4.453   0.289   0.819
 3576TIP3    H210693   4.404   0.213   0.939
 3577TIP3   OH210694   2.054   1.999   2.683
 3577TIP3    H110695   2.052   1.969   2.774
 3577TIP3    H210696   2.138   1.970   2.649
 3578TIP3   OH210697   0.776   4.732   5.505
 3578TIP3    H110698   0.697   4.679   5.496
 3578TIP3    H210699   0.847   4.672   5.483
 3579TIP3   OH210700   3.239   5.847   5.006
 3579TIP3    H110701   3.319   5.838   4.955
 3579TIP3    H210702   3.236   5.768   5.060
 3580TIP3   OH210703   2.942   2.938   3.374
 3580TIP3    H110704   2.866   2.931   3.431
 3580TIP3    H210705   2.999   3.001   3.418
 3581TIP3   OH210706   0.862   4.337   0.230
 3581TIP3    H110707   0.948   4.299   0.215
 3581TIP3    H210708   0.823   4.280   0.297
 3582TIP3   OH210709   6.841   4.771   1.299
 3582TIP3    H110710   6.893   4.809   1.369
 3582TIP3    H210711   6.859   4.677   1.304
 3583TIP3   OH210712   4.833   4.057   3.406
 3583TIP3    H110713   4.902   4.047   3.472
 3583TIP3    H210714   4.764   4.105   3.451
 3584TIP3   OH210715   0.747   4.925   3.637
 3584TIP3    H110716   0.820   4.891   3.689
 3584TIP3    H210717   0.717   4.851   3.585
 3585TIP3   OH210718   0.209   3.028   4.478
 3585TIP3    H110719   0.177   3.111   4.514
 3585TIP3    H210720   0.129   2.980   4.454
 3586TIP3   OH210721   5.046   3.041   2.940
 3586TIP3    H110722   5.108   3.098   2.894
 3586TIP3    H210723   4.962   3.087   2.931
 3587TIP3   OH210724   5.538   0.936   2.409
 3587TIP3    H110725   5.625   0.972   2.419
 3587TIP3    H210726   5.486   0.974   2.480
 3588TIP3   OH210727   4.154   0.334   3.568
 3588TIP3    H110728   4.178   0.333   3.475
 3588TIP3    H210729   4.196   0.256   3.605
 3589TIP3   OH210730   2.200   1.052   2.893
 3589TIP3    H110731   2.282   1.056   2.943
 3589TIP3    H210732   2.176   0.959   2.893
 3590TIP3   OH210733   1.365   3.294   5.838
 3590TIP3    H110734   1.443   3.239   5.842
 3590TIP3    H210735   1.292   3.231   5.835
 3591TIP3   OH210736   1.267   1.655   4.474
 3591TIP3    H110737   1.355   1.693   4.478
 3591TIP3    H210738   1.268   1.585   4.539
 3592TIP3   OH210739   1.061   2.883   4.644
 3592TIP3    H110740   1.045   2.833   4.724
 3592TIP3    H210741   0.988   2.945   4.639
 3593TIP3   OH210742   3.263   6.042   4.468
 3593TIP3    H110743   3.182   6.064   4.422
 3593TIP3    H210744   3.328   6.033   4.399
 3594TIP3   OH210745   1.136   6.823   0.321
 3594TIP3    H110746   1.175   6.753   0.268
 3594TIP3    H210747   1.140   6.789   0.410
 3595TIP3   OH210748   3.455   1.610   4.139
 3595TIP3    H110749   3.548   1.610   4.116
 3595TIP3    H210750   3.452   1.652   4.225
 3596TIP3   OH210751   4.441   4.123   3.637
 3596TIP3    H110752   4.356   4.089   3.665
 3596TIP3    H210753   4.456   4.083   3.552
 3597TIP3   OH210754   3.588   2.159   5.115
 3597TIP3    H110755   3.647   2.174   5.189
 3597TIP3    H210756   3.517   2.107   5.152
 3598TIP3   OH210757   0.277   6.509   5.653
 3598TIP3    H110758   0.291   6.423   5.691
 3598TIP3    H210759   0.188   6.506   5.618
 3599TIP3   OH210760   1.006   2.085   1.601
 3599TIP3    H110761   0.931   2.099   1.658
 3599TIP3    H210762   1.065   2.158   1.619
 3600TIP3   OH210763   6.403   4.800   5.396
 3600TIP3    H110764   6.498   4.811   5.398
 3600TIP3    H210765   6.377   4.841   5.313
 3601TIP3   OH210766   1.551   1.643   0.998
 3601TIP3    H110767   1.550   1.668   1.091
 3601TIP3    H210768   1.609   1.707   0.957
 3602TIP3   OH210769   7.015   5.245   3.170
 3602TIP3    H110770   7.016   5.149   3.176
 3602TIP3    H210771   7.093   5.273   3.219
 3603TIP3   OH210772   3.784   3.430   2.093
 3603TIP3    H110773   3.832   3.409   2.173
 3603TIP3    H210774   3.728   3.354   2.078
 3604TIP3   OH210775   2.325   1.476   2.425
 3604TIP3    H110776   2.308   1.426   2.504
 3604TIP3    H210777   2.286   1.562   2.441
 3605TIP3   OH210778   6.994   3.567   4.048
 3605TIP3    H110779   7.063   3.552   3.983
 3605TIP3    H210780   6.948   3.645   4.018
 3606TIP3   OH210781   4.071   2.610   5.560
 3606TIP3    H110782   4.096   2.563   5.639
 3606TIP3    H210783   4.043   2.696   5.591
 3607TIP3   OH210784   1.978   6.124   4.497
 3607TIP3    H110785   2.063   6.087   4.520
 3607TIP3    H210786   1.928   6.120   4.578
 3608TIP3   OH210787   5.011   6.610   3.073
 3608TIP3    H110788   4.973   6.690   3.110
 3608TIP3    H210789   5.016   6.549   3.146
 3609TIP3   OH210790   2.986   2.657   2.148
 3609TIP3    H110791   2.983   2.687   2.057
 3609TIP3    H210792   3.060   2.704   2.186
 3610TIP3   OH210793   6.797   2.710   3.706
 3610TIP3    H110794   6.791   2.706   3.802
 3610TIP3    H210795   6.872   2.766   3.689
 3611TIP3   OH210796   1.356   5.781   2.763
 3611TIP3    H110797   1.276   5.817   2.801
 3611TIP3    H210798   1.386   5.714   2.825
 3612TIP3   OH210799   3.760   3.684   2.896
 3612TIP3    H110800   3.709   3.606   2.918
 3612TIP3    H210801   3.822   3.694   2.967
 3613TIP3   OH210802   5.406   6.508   4.682
 3613TIP3    H110803   5.324   6.467   4.657
 3613TIP3    H210804   5.451   6.441   4.735
 3614TIP3   OH210805   4.402   0.332   2.657
 3614TIP3    H110806   4.461   0.330   2.732
 3614TIP3    H210807   4.449   0.286   2.588
 3615TIP3   OH210808   0.137   4.001   1.576
 3615TIP3    H110809   0.151   3.939   1.648
 3615TIP3    H210810   0.116   3.946   1.500
 3616TIP3   OH210811   5.225   3.213   2.504
 3616TIP3    H110812   5.283   3.288   2.491
 3616TIP3    H210813   5.255   3.149   2.439
 3617TIP3   OH210814   4.335   0.450   3.895
 3617TIP3    H110815   4.360   0.357   3.903
 3617TIP3    H210816   4.254   0.457   3.947
 3618TIP3   OH210817   1.794   1.156   1.516
 3618TIP3    H110818   1.849   1.191   1.446
 3618TIP3    H210819   1.727   1.223   1.530
 3619TIP3   OH210820   6.243   3.503   3.041
 3619TIP3    H110821   6.207   3.428   3.089
 3619TIP3    H210822   6.282   3.558   3.109
 3620TIP3   OH210823   1.770   5.160   3.175
 3620TIP3    H110824   1.728   5.081   3.141
 3620TIP3    H210825   1.859   5.156   3.139
 3621TIP3   OH210826   6.094   0.341   0.665
 3621TIP3    H110827   6.063   0.413   0.720
 3621TIP3    H210828   6.063   0.262   0.709
 3622TIP3   OH210829   6.112   5.049   4.307
 3622TIP3    H110830   6.135   5.066   4.398
 3622TIP3    H210831   6.185   5.086   4.257
 3623TIP3   OH210832   4.543   3.992   2.448
 3623TIP3    H110833   4.507   4.014   2.363
 3623TIP3    H210834   4.569   3.900   2.440
 3624TIP3   OH210835   2.632   0.987   1.934
 3624TIP3    H110836   2.588   1.036   1.865
 3624TIP3    H210837   2.681   1.053   1.983
 3625TIP3   OH210838   4.992   0.466   2.475
 3625TIP3    H110839   4.946   0.520   2.540
 3625TIP3    H210840   4.969   0.376   2.499
 3626TIP3   OH210841   1.733   1.019   5.624
 3626TIP3    H110842   1.693   0.934   5.607
 3626TIP3    H210843   1.725   1.066   5.541
 3627TIP3   OH210844   4.250   2.830   5.462
 3627TIP3    H110845   4.327   2.790   5.422
 3627TIP3    H210846   4.177   2.773   5.437
 3628TIP3   OH210847   5.016   0.172   1.090
 3628TIP3    H110848   5.091   0.114   1.078
 3628TIP3    H210849   5.055   0.256   1.116
 3629TIP3   OH210850   6.637   3.726   1.387
 3629TIP3    H110851   6.589   3.651   1.352
 3629TIP3    H210852   6.677   3.694   1.468
 3630TIP3   OH210853   6.826   6.390   4.699
 3630TIP3    H110854   6.811   6.321   4.763
 3630TIP3    H210855   6.856   6.344   4.621
 3631TIP3   OH210856   3.624   4.457   3.642
 3631TIP3    H110857   3.575   4.518   3.587
 3631TIP3    H210858   3.712   4.457   3.605
 3632TIP3   OH210859   6.869   5.090   3.422
 3632TIP3    H110860   6.792   5.073   3.367
 3632TIP3    H210861   6.879   5.011   3.475
 3633TIP3   OH210862   4.821   5.493   5.200
 3633TIP3    H110863   4.903   5.513   5.245
 3633TIP3    H210864   4.757   5.483   5.271
 3634TIP3   OH210865   2.388   5.722   1.684
 3634TIP3    H110866   2.341   5.700   1.765
 3634TIP3    H210867   2.324   5.710   1.615
 3635TIP3   OH210868   3.645   1.345   5.176
 3635TIP3    H110869   3.673   1.256   5.197
 3635TIP3    H210870   3.554   1.336   5.148
 3636TIP3   OH210871   6.455   1.272   3.218
 3636TIP3    H110872   6.518   1.247   3.150
 3636TIP3    H210873   6.467   1.366   3.228
 3637TIP3   OH210874   7.089   0.877   1.121
 3637TIP3    H110875   7.075   0.963   1.081
 3637TIP3    H210876   7.076   0.814   1.049
 3638TIP3   OH210877   3.143   0.138   0.183
 3638TIP3    H110878   3.197   0.145   0.262
 3638TIP3    H210879   3.133   0.228   0.153
 3639TIP3   OH210880   2.427   2.101   0.221
 3639TIP3    H110881   2.404   2.018   0.263
 3639TIP3    H210882   2.347   2.153   0.228
 3640TIP3   OH210883   1.696   1.966   0.245
 3640TIP3    H110884   1.676   1.935   0.333
 3640TIP3    H210885   1.692   1.887   0.191
 3641TIP3   OH210886   1.824   4.103   1.504
 3641TIP3    H110887   1.897   4.043   1.521
 3641TIP3    H210888   1.798   4.085   1.414
 3642TIP3   OH210889   0.896   4.980   0.309
 3642TIP3    H110890   0.872   5.045   0.242
 3642TIP3    H210891   0.988   4.960   0.290
 3643TIP3   OH210892   4.123   2.679   2.588
 3643TIP3    H110893   4.058   2.706   2.652
 3643TIP3    H210894   4.106   2.586   2.574
 3644TIP3   OH210895   1.977   3.287   4.493
 3644TIP3    H110896   2.026   3.213   4.528
 3644TIP3    H210897   1.936   3.254   4.413
 3645TIP3   OH210898   0.652   5.936   1.286
 3645TIP3    H110899   0.585   5.963   1.349
 3645TIP3    H210900   0.602   5.916   1.206
 3646TIP3   OH210901   0.831   5.444   3.898
 3646TIP3    H110902   0.872   5.476   3.817
 3646TIP3    H210903   0.761   5.506   3.916
 3647TIP3   OH210904   2.925   5.992   1.584
 3647TIP3    H110905   2.952   6.020   1.671
 3647TIP3    H210906   3.007   5.970   1.539
 3648TIP3   OH210907   5.331   5.856   2.236
 3648TIP3    H110908   5.397   5.805   2.189
 3648TIP3    H210909   5.377   5.934   2.267
 3649TIP3   OH210910   1.604   5.355   3.208
 3649TIP3    H110911   1.531   5.294   3.199
 3649TIP3    H210912   1.682   5.303   3.189
 3650TIP3   OH210913   5.136   1.178   3.993
 3650TIP3    H110914   5.165   1.263   3.961
 3650TIP3    H210915   5.059   1.156   3.940
 3651TIP3   OH210916   0.236   2.270   0.521
 3651TIP3    H110917   0.143   2.291   0.513
 3651TIP3    H210918   0.277   2.313   0.446
 3652TIP3   OH210919   5.976   0.119   3.622
 3652TIP3    H110920   5.943   0.029   3.615
 3652TIP3    H210921   5.978   0.136   3.716
 3653TIP3   OH210922   6.411   1.120   0.651
 3653TIP3    H110923   6.490   1.155   0.611
 3653TIP3    H210924   6.430   1.121   0.745
 3654TIP3   OH210925   2.812   0.265   2.141
 3654TIP3    H110926   2.727   0.300   2.166
 3654TIP3    H210927   2.875   0.314   2.194
 3655TIP3   OH210928   3.551   5.848   1.783
 3655TIP3    H110929   3.644   5.872   1.789
 3655TIP3    H210930   3.541   5.774   1.843
 3656TIP3   OH210931   6.674   4.916   0.298
 3656TIP3    H110932   6.623   4.837   0.317
 3656TIP3    H210933   6.611   4.988   0.305
 3657TIP3   OH210934   1.352   3.259   1.756
 3657TIP3    H110935   1.364   3.344   1.798
 3657TIP3    H210936   1.355   3.196   1.828
 3658TIP3   OH210937   0.874   5.355   5.847
 3658TIP3    H110938   0.803   5.340   5.909
 3658TIP3    H210939   0.942   5.293   5.874
 3659TIP3   OH210940   4.317   2.524   3.151
 3659TIP3    H110941   4.248   2.579   3.115
 3659TIP3    H210942   4.383   2.521   3.081
 3660TIP3   OH210943   3.947   0.119   3.822
 3660TIP3    H110944   4.038   0.120   3.793
 3660TIP3    H210945   3.952   0.099   3.916
 3661TIP3   OH210946   3.636   3.556   3.870
 3661TIP3    H110947   3.598   3.490   3.812
 3661TIP3    H210948   3.603   3.533   3.957
 3662TIP3   OH210949   3.413   5.699   0.005
 3662TIP3    H110950   3.432   5.654   0.087
 3662TIP3    H210951   3.362   5.776   0.031
 3663TIP3   OH210952   1.128   5.950   1.149
 3663TIP3    H110953   1.173   5.870   1.122
 3663TIP3    H210954   1.041   5.921   1.176
 3664TIP3   OH210955   4.143   5.745   5.653
 3664TIP3    H110956   4.169   5.654   5.663
 3664TIP3    H210957   4.224   5.791   5.633
 3665TIP3   OH210958   3.862   5.182   0.931
 3665TIP3    H110959   3.840   5.131   1.008
 3665TIP3    H210960   3.948   5.220   0.950
 3666TIP3   OH210961   5.248   0.073   3.136
 3666TIP3    H110962   5.298  -0.003   3.109
 3666TIP3    H210963   5.296   0.109   3.211
 3667TIP3   OH210964   0.631   2.299   3.153
 3667TIP3    H110965   0.588   2.222   3.189
 3667TIP3    H210966   0.723   2.275   3.147
 3668TIP3   OH210967   3.142   5.896   0.624
 3668TIP3    H110968   3.237   5.909   0.627
 3668TIP3    H210969   3.121   5.860   0.710
 3669TIP3   OH210970   7.135   1.993   1.316
 3669TIP3    H110971   7.131   2.027   1.405
 3669TIP3    H210972   7.143   2.071   1.261
 3670TIP3   OH210973   0.767   0.138   5.503
 3670TIP3    H110974   0.692   0.090   5.537
 3670TIP3    H210975   0.842   0.101   5.550
 3671TIP3   OH210976   6.411   5.049   1.145
 3671TIP3    H110977   6.501   5.069   1.121
 3671TIP3    H210978   6.390   4.969   1.096
 3672TIP3   OH210979   0.237   1.707   3.434
 3672TIP3    H110980   0.293   1.776   3.398
 3672TIP3    H210981   0.298   1.638   3.460
 3673TIP3   OH210982   5.294   3.192   5.567
 3673TIP3    H110983   5.352   3.240   5.626
 3673TIP3    H210984   5.281   3.251   5.493
 3674TIP3   OH210985   5.476   6.434   1.651
 3674TIP3    H110986   5.461   6.442   1.557
 3674TIP3    H210987   5.570   6.418   1.658
 3675TIP3   OH210988   5.585   6.304   0.494
 3675TIP3    H110989   5.544   6.333   0.412
 3675TIP3    H210990   5.511   6.283   0.551
 3676TIP3   OH210991   2.323   5.344   2.506
 3676TIP3    H110992   2.400   5.349   2.449
 3676TIP3    H210993   2.249   5.348   2.445
 3677TIP3   OH210994   3.286   6.093   2.883
 3677TIP3    H110995   3.299   6.061   2.972
 3677TIP3    H210996   3.335   6.031   2.828
 3678TIP3   OH210997   5.183   5.874   1.944
 3678TIP3    H110998   5.136   5.951   1.976
 3678TIP3    H210999   5.275   5.895   1.959
 3679TIP3   OH211000   6.587   1.611   1.415
 3679TIP3    H111001   6.526   1.644   1.481
 3679TIP3    H211002   6.544   1.534   1.378
 3680TIP3   OH211003   0.990   4.399   0.817
 3680TIP3    H111004   1.037   4.366   0.741
 3680TIP3    H211005   1.053   4.395   0.888
 3681TIP3   OH211006   2.251   0.625   4.080
 3681TIP3    H111007   2.231   0.553   4.140
 3681TIP3    H211008   2.177   0.628   4.020
 3682TIP3   OH211009   4.969   4.968   4.140
 3682TIP3    H111010   4.971   5.063   4.133
 3682TIP3    H211011   4.890   4.950   4.191
 3683TIP3   OH211012   6.044   3.635   1.172
 3683TIP3    H111013   6.031   3.730   1.177
 3683TIP3    H211014   6.040   3.605   1.263
 3684TIP3   OH211015   3.942   0.396   3.945
 3684TIP3    H111016   3.850   0.420   3.935
 3684TIP3    H211017   3.956   0.328   3.880
 3685TIP3   OH211018   0.079   3.775   0.976
 3685TIP3    H111019   0.166   3.743   0.998
 3685TIP3    H211020   0.024   3.751   1.051
 3686TIP3   OH211021   6.860   4.616   3.985
 3686TIP3    H111022   6.795   4.686   3.993
 3686TIP3    H211023   6.939   4.652   4.025
 3687TIP3   OH211024   6.169   1.628   4.674
 3687TIP3    H111025   6.144   1.541   4.704
 3687TIP3    H211026   6.262   1.635   4.696
 3688TIP3   OH211027   0.622   5.498   1.492
 3688TIP3    H111028   0.672   5.574   1.521
 3688TIP3    H211029   0.560   5.481   1.563
 3689TIP3   OH211030   2.786   6.241   0.282
 3689TIP3    H111031   2.714   6.228   0.344
 3689TIP3    H211032   2.771   6.328   0.246
 3690TIP3   OH211033   7.237   6.496   5.539
 3690TIP3    H111034   7.191   6.419   5.506
 3690TIP3    H211035   7.199   6.570   5.491
 3691TIP3   OH211036   6.078   1.463   5.401
 3691TIP3    H111037   6.165   1.423   5.414
 3691TIP3    H211038   6.090   1.554   5.427
 3692TIP3   OH211039   3.633   5.735   0.847
 3692TIP3    H111040   3.643   5.809   0.787
 3692TIP3    H211041   3.701   5.673   0.821
 3693TIP3   OH211042   6.267   2.029   2.707
 3693TIP3    H111043   6.193   2.088   2.691
 3693TIP3    H211044   6.239   1.978   2.783
 3694TIP3   OH211045   6.108   2.752   0.267
 3694TIP3    H111046   6.167   2.685   0.234
 3694TIP3    H211047   6.025   2.736   0.222
 3695TIP3   OH211048   4.413   2.166   4.099
 3695TIP3    H111049   4.439   2.258   4.092
 3695TIP3    H211050   4.485   2.118   4.057
 3696TIP3   OH211051   4.031   0.647   3.884
 3696TIP3    H111052   3.978   0.568   3.876
 3696TIP3    H211053   4.118   0.621   3.853
 3697TIP3   OH211054   3.809   4.890   0.758
 3697TIP3    H111055   3.869   4.961   0.734
 3697TIP3    H211056   3.860   4.835   0.817
 3698TIP3   OH211057   5.836   2.686   5.665
 3698TIP3    H111058   5.892   2.641   5.602
 3698TIP3    H211059   5.876   2.773   5.675
 3699TIP3   OH211060   0.782   0.426   5.493
 3699TIP3    H111061   0.872   0.404   5.515
 3699TIP3    H211062   0.749   0.349   5.445
 3700TIP3   OH211063   6.685   5.613   1.654
 3700TIP3    H111064   6.769   5.600   1.610
 3700TIP3    H211065   6.685   5.705   1.679
 3701TIP3   OH211066   6.000   6.079   1.759
 3701TIP3    H111067   6.014   6.131   1.681
 3701TIP3    H211068   6.088   6.066   1.796
 3702TIP3   OH211069   2.199   0.882   1.781
 3702TIP3    H111070   2.154   0.801   1.803
 3702TIP3    H211071   2.292   0.862   1.793
 3703TIP3   OH211072   5.056   1.153   1.799
 3703TIP3    H111073   5.134   1.117   1.841
 3703TIP3    H211074   4.988   1.145   1.865
 3704TIP3   OH211075   5.806   5.642   1.465
 3704TIP3    H111076   5.804   5.727   1.509
 3704TIP3    H211077   5.727   5.598   1.494
 3705TIP3   OH211078   1.742   4.965   4.668
 3705TIP3    H111079   1.794   4.892   4.702
 3705TIP3    H211080   1.653   4.931   4.664
 3706TIP3   OH211081   6.805   6.355   1.362
 3706TIP3    H111082   6.767   6.380   1.277
 3706TIP3    H211083   6.750   6.399   1.427
 3707TIP3   OH211084   2.255   1.692   0.971
 3707TIP3    H111085   2.318   1.749   1.016
 3707TIP3    H211086   2.259   1.610   1.020
 3708TIP3   OH211087   7.011   0.588   4.542
 3708TIP3    H111088   7.089   0.555   4.585
 3708TIP3    H211089   7.034   0.677   4.514
 3709TIP3   OH211090   3.489   0.577   0.704
 3709TIP3    H111091   3.512   0.496   0.750
 3709TIP3    H211092   3.407   0.605   0.745
 3710TIP3   OH211093   2.922   3.674   1.083
 3710TIP3    H111094   2.919   3.768   1.065
 3710TIP3    H211095   2.833   3.652   1.111
 3711TIP3   OH211096   0.450   0.212   4.301
 3711TIP3    H111097   0.504   0.133   4.299
 3711TIP3    H211098   0.375   0.192   4.245
 3712TIP3   OH211099   5.441   6.104   3.913
 3712TIP3    H111100   5.486   6.112   3.829
 3712TIP3    H211101   5.508   6.071   3.973
 3713TIP3   OH211102   5.954   3.344   3.665
 3713TIP3    H111103   6.034   3.295   3.646
 3713TIP3    H211104   5.885   3.296   3.619
 3714TIP3   OH211105   3.626   1.486   1.963
 3714TIP3    H111106   3.581   1.501   2.046
 3714TIP3    H211107   3.563   1.513   1.896
 3715TIP3   OH211108   5.863   2.073   1.609
 3715TIP3    H111109   5.902   1.986   1.612
 3715TIP3    H211110   5.772   2.058   1.582
 3716TIP3   OH211111   3.726   3.006   1.308
 3716TIP3    H111112   3.753   3.022   1.398
 3716TIP3    H211113   3.672   2.927   1.312
 3717TIP3   OH211114   3.088   2.780   4.101
 3717TIP3    H111115   3.085   2.790   4.197
 3717TIP3    H211116   3.179   2.802   4.078
 3718TIP3   OH211117   2.667   1.669   3.915
 3718TIP3    H111118   2.710   1.650   3.831
 3718TIP3    H211119   2.594   1.607   3.918
 3719TIP3   OH211120   5.593   3.310   4.838
 3719TIP3    H111121   5.663   3.372   4.859
 3719TIP3    H211122   5.550   3.349   4.762
 3720TIP3   OH211123   4.463   5.353   0.157
 3720TIP3    H111124   4.543   5.368   0.106
 3720TIP3    H211125   4.410   5.431   0.143
 3721TIP3   OH211126   6.572   1.873   2.647
 3721TIP3    H111127   6.644   1.877   2.585
 3721TIP3    H211128   6.504   1.929   2.608
 3722TIP3   OH211129   1.454   6.251   3.621
 3722TIP3    H111130   1.389   6.320   3.612
 3722TIP3    H211131   1.404   6.169   3.616
 3723TIP3   OH211132   6.603   6.314   1.157
 3723TIP3    H111133   6.535   6.368   1.197
 3723TIP3    H211134   6.661   6.377   1.112
 3724TIP3   OH211135   6.164   5.680   4.030
 3724TIP3    H111136   6.190   5.767   4.061
 3724TIP3    H211137   6.070   5.675   4.050
 3725TIP3   OH211138   0.385   4.734   0.103
 3725TIP3    H111139   0.457   4.729   0.165
 3725TIP3    H211140   0.318   4.675   0.137
 3726TIP3   OH211141   0.422   4.120   3.121
 3726TIP3    H111142   0.496   4.070   3.156
 3726TIP3    H211143   0.429   4.206   3.162
 3727TIP3   OH211144   0.891   1.587   1.739
 3727TIP3    H111145   0.948   1.527   1.691
 3727TIP3    H211146   0.937   1.671   1.735
 3728TIP3   OH211147   3.513   2.651   4.491
 3728TIP3    H111148   3.424   2.621   4.511
 3728TIP3    H211149   3.513   2.743   4.516
 3729TIP3   OH211150   3.750   2.007   2.614
 3729TIP3    H111151   3.842   2.032   2.627
 3729TIP3    H211152   3.753   1.915   2.587
 3730TIP3   OH211153   0.454   2.731   3.805
 3730TIP3    H111154   0.392   2.669   3.766
 3730TIP3    H211155   0.406   2.814   3.810
 3731TIP3   OH211156   4.822   4.357   1.221
 3731TIP3    H111157   4.907   4.399   1.239
 3731TIP3    H211158   4.819   4.350   1.126
 3732TIP3   OH211159   4.630   5.010   4.055
 3732TIP3    H111160   4.565   5.058   4.004
 3732TIP3    H211161   4.682   5.078   4.097
 3733TIP3   OH211162   3.817   3.335   3.592
 3733TIP3    H111163   3.727   3.367   3.593
 3733TIP3    H211164   3.840   3.327   3.684
 3734TIP3   OH211165   0.057   3.269   0.718
 3734TIP3    H111166   0.139   3.317   0.710
 3734TIP3    H211167   0.066   3.221   0.800
 3735TIP3   OH211168   1.997   2.963   1.251
 3735TIP3    H111169   2.006   3.052   1.215
 3735TIP3    H211170   1.928   2.923   1.197
 3736TIP3   OH211171   1.480   5.662   4.859
 3736TIP3    H111172   1.511   5.576   4.829
 3736TIP3    H211173   1.442   5.645   4.945
 3737TIP3   OH211174   1.354   0.598   5.492
 3737TIP3    H111175   1.413   0.579   5.565
 3737TIP3    H211176   1.270   0.618   5.534
 3738TIP3   OH211177   0.810   2.193   4.645
 3738TIP3    H111178   0.852   2.270   4.607
 3738TIP3    H211179   0.867   2.168   4.717
 3739TIP3   OH211180   0.728   3.714   5.842
 3739TIP3    H111181   0.743   3.786   5.781
 3739TIP3    H211182   0.645   3.735   5.885
 3740TIP3   OH211183   5.366   5.288   0.529
 3740TIP3    H111184   5.425   5.219   0.499
 3740TIP3    H211185   5.354   5.344   0.452
 3741TIP3   OH211186   4.950   2.131   5.734
 3741TIP3    H111187   4.905   2.047   5.726
 3741TIP3    H211188   4.954   2.147   5.829
 3742TIP3   OH211189   4.994   4.047   1.745
 3742TIP3    H111190   4.900   4.062   1.752
 3742TIP3    H211191   5.027   4.059   1.834
 3743TIP3   OH211192   3.876   1.971   5.510
 3743TIP3    H111193   3.921   1.933   5.585
 3743TIP3    H211194   3.913   2.059   5.501
 3744TIP3   OH211195   0.392  -0.001   0.186
 3744TIP3    H111196   0.482  -0.014   0.157
 3744TIP3    H211197   0.363   0.079   0.142
 3745TIP3   OH211198   1.705   4.719   2.743
 3745TIP3    H111199   1.763   4.726   2.668
 3745TIP3    H211200   1.747   4.656   2.801
 3746TIP3   OH211201   3.280   5.591   5.137
 3746TIP3    H111202   3.238   5.505   5.147
 3746TIP3    H211203   3.347   5.593   5.204
 3747TIP3   OH211204   1.719   1.802   0.862
 3747TIP3    H111205   1.716   1.886   0.908
 3747TIP3    H211206   1.812   1.780   0.860
 3748TIP3   OH211207   1.076   6.031   3.513
 3748TIP3    H111208   1.160   5.988   3.496
 3748TIP3    H211209   1.089   6.076   3.597
 3749TIP3   OH211210   1.098   1.261   5.623
 3749TIP3    H111211   1.090   1.328   5.556
 3749TIP3    H211212   1.014   1.216   5.622
 3750TIP3   OH211213   4.351   2.893   2.197
 3750TIP3    H111214   4.427   2.884   2.139
 3750TIP3    H211215   4.321   2.982   2.183
 3751TIP3   OH211216   2.010   3.147   5.344
 3751TIP3    H111217   2.059   3.082   5.394
 3751TIP3    H211218   1.973   3.099   5.270
 3752TIP3   OH211219   6.999   2.057   1.758
 3752TIP3    H111220   6.955   2.128   1.805
 3752TIP3    H211221   7.088   2.057   1.794
 3753TIP3   OH211222   0.425   4.367   5.640
 3753TIP3    H111223   0.407   4.352   5.733
 3753TIP3    H211224   0.343   4.344   5.596
 3754TIP3   OH211225   5.024   6.247   5.607
 3754TIP3    H111226   5.064   6.259   5.693
 3754TIP3    H211227   5.097   6.251   5.546
 3755TIP3   OH211228   4.172   1.734   3.798
 3755TIP3    H111229   4.188   1.687   3.879
 3755TIP3    H211230   4.076   1.734   3.789
 3756TIP3   OH211231   5.764   6.685   5.450
 3756TIP3    H111232   5.807   6.721   5.372
 3756TIP3    H211233   5.779   6.750   5.519
 3757TIP3   OH211234   5.472   1.634   0.303
 3757TIP3    H111235   5.473   1.623   0.208
 3757TIP3    H211236   5.511   1.553   0.336
 3758TIP3   OH211237   1.194   2.613   5.859
 3758TIP3    H111238   1.128   2.595   5.791
 3758TIP3    H211239   1.239   2.529   5.870
 3759TIP3   OH211240   5.130   4.435   1.254
 3759TIP3    H111241   5.126   4.526   1.223
 3759TIP3    H211242   5.160   4.443   1.345
 3760TIP3   OH211243   3.963   2.445   4.136
 3760TIP3    H111244   3.873   2.417   4.153
 3760TIP3    H211245   4.010   2.424   4.217
 3761TIP3   OH211246   0.877   5.916   0.203
 3761TIP3    H111247   0.832   5.966   0.135
 3761TIP3    H211248   0.944   5.975   0.236
 3762TIP3   OH211249   2.184   4.904   3.328
 3762TIP3    H111250   2.160   4.976   3.387
 3762TIP3    H211251   2.136   4.829   3.362
 3763TIP3   OH211252   1.742   4.055   4.475
 3763TIP3    H111253   1.653   4.089   4.482
 3763TIP3    H211254   1.783   4.077   4.559
 3764TIP3   OH211255   5.695   0.527   5.663
 3764TIP3    H111256   5.759   0.599   5.661
 3764TIP3    H211257   5.742   0.452   5.629
 3765TIP3   OH211258   2.434   5.586   0.022
 3765TIP3    H111259   2.368   5.592   0.092
 3765TIP3    H211260   2.440   5.674  -0.014
 3766TIP3   OH211261   4.354   0.317   2.292
 3766TIP3    H111262   4.294   0.315   2.367
 3766TIP3    H211263   4.433   0.273   2.323
 3767TIP3   OH211264   0.076   0.363   4.501
 3767TIP3    H111265   0.151   0.393   4.450
 3767TIP3    H211266   0.060   0.433   4.563
 3768TIP3   OH211267   3.162   4.553   3.374
 3768TIP3    H111268   3.107   4.486   3.414
 3768TIP3    H211269   3.217   4.585   3.445
 3769TIP3   OH211270   3.038   2.968   3.118
 3769TIP3    H111271   3.034   2.882   3.077
 3769TIP3    H211272   3.009   2.953   3.208
 3770TIP3   OH211273   3.164   0.836   4.865
 3770TIP3    H111274   3.103   0.894   4.912
 3770TIP3    H211275   3.240   0.891   4.848
 3771TIP3   OH211276   2.956   1.109   1.809
 3771TIP3    H111277   2.979   1.197   1.779
 3771TIP3    H211278   2.871   1.120   1.850
 3772TIP3   OH211279   0.126   3.169   5.417
 3772TIP3    H111280   0.059   3.101   5.417
 3772TIP3    H211281   0.077   3.251   5.418
 3773TIP3   OH211282   3.321   4.034   0.556
 3773TIP3    H111283   3.291   4.123   0.578
 3773TIP3    H211284   3.315   3.986   0.638
 3774TIP3   OH211285   1.647   4.377   1.441
 3774TIP3    H111286   1.608   4.436   1.377
 3774TIP3    H211287   1.740   4.376   1.419
 3775TIP3   OH211288   3.187   5.805   1.749
 3775TIP3    H111289   3.222   5.718   1.732
 3775TIP3    H211290   3.233   5.862   1.687
 3776TIP3   OH211291   6.162   1.330   5.740
 3776TIP3    H111292   6.197   1.353   5.654
 3776TIP3    H211293   6.127   1.413   5.775
 3777TIP3   OH211294   2.673   3.474   0.576
 3777TIP3    H111295   2.640   3.432   0.655
 3777TIP3    H211296   2.635   3.423   0.504
 3778TIP3   OH211297   3.160   3.171   3.980
 3778TIP3    H111298   3.093   3.124   3.932
 3778TIP3    H211299   3.240   3.121   3.965
 3779TIP3   OH211300   4.113   2.273   5.549
 3779TIP3    H111301   4.170   2.349   5.560
 3779TIP3    H211302   4.138   2.213   5.620
 3780TIP3   OH211303   5.443   1.271   5.393
 3780TIP3    H111304   5.489   1.353   5.373
 3780TIP3    H211305   5.476   1.209   5.329
 3781TIP3   OH211306   0.148   1.810   2.265
 3781TIP3    H111307   0.116   1.824   2.354
 3781TIP3    H211308   0.230   1.763   2.276
 3782TIP3   OH211309   2.351   6.688   5.345
 3782TIP3    H111310   2.416   6.748   5.308
 3782TIP3    H211311   2.276   6.694   5.284
 3783TIP3   OH211312   2.412   3.949  -0.006
 3783TIP3    H111313   2.366   4.023   0.033
 3783TIP3    H211314   2.460   3.910   0.067
 3784TIP3   OH211315   0.131   5.856   2.729
 3784TIP3    H111316   0.072   5.897   2.664
 3784TIP3    H211317   0.161   5.929   2.783
 3785TIP3   OH211318   6.447   5.914   1.796
 3785TIP3    H111319   6.382   5.955   1.740
 3785TIP3    H211320   6.440   5.820   1.776
 3786TIP3   OH211321   2.895   0.611   5.763
 3786TIP3    H111322   2.853   0.667   5.699
 3786TIP3    H211323   2.886   0.522   5.727
 3787TIP3   OH211324   2.660   2.887  -0.007
 3787TIP3    H111325   2.727   2.929   0.047
 3787TIP3    H211326   2.680   2.793  -0.001
 3788TIP3   OH211327   0.684   3.681   0.521
 3788TIP3    H111328   0.752   3.655   0.459
 3788TIP3    H211329   0.717   3.763   0.560
 3789TIP3   OH211330   7.165   2.946   4.398
 3789TIP3    H111331   7.198   2.877   4.339
 3789TIP3    H211332   7.110   2.899   4.461
 3790TIP3   OH211333   0.640   4.745   4.443
 3790TIP3    H111334   0.585   4.681   4.488
 3790TIP3    H211335   0.647   4.818   4.505
 3791TIP3   OH211336   3.687   6.417   3.212
 3791TIP3    H111337   3.734   6.457   3.139
 3791TIP3    H211338   3.660   6.492   3.266
 3792TIP3   OH211339   4.008   2.318   3.702
 3792TIP3    H111340   4.015   2.308   3.607
 3792TIP3    H211341   4.089   2.281   3.736
 3793TIP3   OH211342   0.532   3.308   0.714
 3793TIP3    H111343   0.518   3.333   0.622
 3793TIP3    H211344   0.593   3.234   0.709
 3794TIP3   OH211345   6.097   2.011   1.108
 3794TIP3    H111346   6.096   1.915   1.106
 3794TIP3    H211347   6.119   2.037   1.019
 3795TIP3   OH211348   1.766   6.507   5.126
 3795TIP3    H111349   1.734   6.441   5.188
 3795TIP3    H211350   1.814   6.569   5.180
 3796TIP3   OH211351   3.452   1.809   3.950
 3796TIP3    H111352   3.423   1.736   4.005
 3796TIP3    H211353   3.417   1.887   3.993
 3797TIP3   OH211354   0.150   2.343   3.420
 3797TIP3    H111355   0.166   2.384   3.505
 3797TIP3    H211356   0.085   2.275   3.438
 3798TIP3   OH211357   5.989   2.606   3.464
 3798TIP3    H111358   5.934   2.575   3.393
 3798TIP3    H211359   6.075   2.620   3.424
 3799TIP3   OH211360   2.343   2.396   2.870
 3799TIP3    H111361   2.278   2.348   2.922
 3799TIP3    H211362   2.339   2.485   2.905
 3800TIP3   OH211363   3.329   5.669   0.286
 3800TIP3    H111364   3.399   5.661   0.351
 3800TIP3    H211365   3.248   5.656   0.336
 3801TIP3   OH211366   5.901   2.957   0.828
 3801TIP3    H111367   5.946   2.951   0.912
 3801TIP3    H211368   5.808   2.962   0.851
 3802TIP3   OH211369   5.395   3.748   3.121
 3802TIP3    H111370   5.422   3.836   3.093
 3802TIP3    H211371   5.337   3.717   3.052
 3803TIP3   OH211372   0.506   2.781   4.907
 3803TIP3    H111373   0.530   2.775   4.999
 3803TIP3    H211374   0.411   2.770   4.907
 3804TIP3   OH211375   4.837   3.818   4.647
 3804TIP3    H111376   4.841   3.723   4.657
 3804TIP3    H211377   4.923   3.850   4.675
 3805TIP3   OH211378   2.553   2.170   1.123
 3805TIP3    H111379   2.474   2.171   1.068
 3805TIP3    H211380   2.586   2.260   1.119
 3806TIP3   OH211381   6.462   3.221   2.851
 3806TIP3    H111382   6.405   3.207   2.927
 3806TIP3    H211383   6.405   3.262   2.786
 3807TIP3   OH211384   0.979   1.089   3.347
 3807TIP3    H111385   0.995   1.000   3.315
 3807TIP3    H211386   1.035   1.098   3.424
 3808TIP3   OH211387   4.499   0.615   0.725
 3808TIP3    H111388   4.427   0.624   0.788
 3808TIP3    H211389   4.511   0.704   0.690
 3809TIP3   OH211390   2.082   0.835   1.532
 3809TIP3    H111391   2.111   0.812   1.620
 3809TIP3    H211392   2.157   0.879   1.493
 3810TIP3   OH211393   0.998   6.607   5.152
 3810TIP3    H111394   1.042   6.526   5.123
 3810TIP3    H211395   0.987   6.658   5.072
 3811TIP3   OH211396   1.078   5.181   4.426
 3811TIP3    H111397   1.010   5.205   4.364
 3811TIP3    H211398   1.099   5.090   4.404
 3812TIP3   OH211399   1.870   0.311   2.283
 3812TIP3    H111400   1.960   0.336   2.304
 3812TIP3    H211401   1.878   0.257   2.205
 3813TIP3   OH211402   6.183   3.769   3.613
 3813TIP3    H111403   6.128   3.699   3.649
 3813TIP3    H211404   6.130   3.808   3.543
 3814TIP3   OH211405   5.616   4.012   1.431
 3814TIP3    H111406   5.693   4.016   1.488
 3814TIP3    H211407   5.542   4.002   1.491
 3815TIP3   OH211408   5.108   1.797   3.977
 3815TIP3    H111409   5.180   1.859   3.960
 3815TIP3    H211410   5.147   1.711   3.967
 3816TIP3   OH211411   1.536   4.504   5.198
 3816TIP3    H111412   1.472   4.556   5.246
 3816TIP3    H211413   1.521   4.414   5.227
 3817TIP3   OH211414   3.739   3.487   4.829
 3817TIP3    H111415   3.810   3.438   4.787
 3817TIP3    H211416   3.722   3.560   4.769
 3818TIP3   OH211417   1.490   5.276   4.940
 3818TIP3    H111418   1.511   5.333   4.866
 3818TIP3    H211419   1.569   5.224   4.955
 3819TIP3   OH211420   2.792   6.476   0.535
 3819TIP3    H111421   2.725   6.438   0.592
 3819TIP3    H211422   2.743   6.505   0.458
 3820TIP3   OH211423   2.387   0.648   0.669
 3820TIP3    H111424   2.331   0.715   0.708
 3820TIP3    H211425   2.344   0.565   0.691
 3821TIP3   OH211426   0.060   5.915   4.201
 3821TIP3    H111427   0.027   5.829   4.174
 3821TIP3    H211428   0.099   5.900   4.287
 3822TIP3   OH211429   1.103   6.602   2.650
 3822TIP3    H111430   1.030   6.627   2.594
 3822TIP3    H211431   1.149   6.684   2.669
 3823TIP3   OH211432   2.951   3.132   0.784
 3823TIP3    H111433   2.985   3.131   0.874
 3823TIP3    H211434   2.933   3.224   0.766
 3824TIP3   OH211435   3.120   4.513   2.493
 3824TIP3    H111436   3.114   4.608   2.489
 3824TIP3    H211437   3.185   4.496   2.562
 3825TIP3   OH211438   3.810   2.308   5.556
 3825TIP3    H111439   3.791   2.345   5.643
 3825TIP3    H211440   3.906   2.307   5.552
 3826TIP3   OH211441   5.560   5.086   0.527
 3826TIP3    H111442   5.643   5.114   0.490
 3826TIP3    H211443   5.581   5.057   0.616
 3827TIP3   OH211444   5.068   5.319   0.762
 3827TIP3    H111445   5.124   5.303   0.839
 3827TIP3    H211446   5.032   5.233   0.742
 3828TIP3   OH211447   6.412   2.544   1.030
 3828TIP3    H111448   6.348   2.472   1.036
 3828TIP3    H211449   6.441   2.542   0.938
 3829TIP3   OH211450   2.176   3.912   4.959
 3829TIP3    H111451   2.204   3.883   4.872
 3829TIP3    H211452   2.254   3.950   4.998
 3830TIP3   OH211453   6.660   1.945   4.964
 3830TIP3    H111454   6.740   1.992   4.985
 3830TIP3    H211455   6.675   1.856   4.996
 3831TIP3   OH211456   4.502   5.883   5.405
 3831TIP3    H111457   4.428   5.897   5.463
 3831TIP3    H211458   4.571   5.941   5.439
 3832TIP3   OH211459   2.127   2.527   5.305
 3832TIP3    H111460   2.070   2.486   5.241
 3832TIP3    H211461   2.125   2.620   5.284
 3833TIP3   OH211462   3.640   6.615   4.323
 3833TIP3    H111463   3.595   6.696   4.344
 3833TIP3    H211464   3.591   6.547   4.369
 3834TIP3   OH211465   5.995   1.973   5.218
 3834TIP3    H111466   5.915   2.006   5.260
 3834TIP3    H211467   5.974   1.883   5.194
 3835TIP3   OH211468   4.122   6.305   0.961
 3835TIP3    H111469   4.113   6.348   0.876
 3835TIP3    H211470   4.214   6.319   0.985
 3836TIP3   OH211471   3.867   4.186   5.171
 3836TIP3    H111472   3.871   4.252   5.240
 3836TIP3    H211473   3.898   4.231   5.093
 3837TIP3   OH211474   5.805   4.496   3.779
 3837TIP3    H111475   5.743   4.454   3.718
 3837TIP3    H211476   5.891   4.482   3.739
 3838TIP3   OH211477   3.032   1.859   1.934
 3838TIP3    H111478   3.041   1.879   1.841
 3838TIP3    H211479   3.121   1.860   1.968
 3839TIP3   OH211480   6.534   6.567   3.015
 3839TIP3    H111481   6.584   6.532   2.941
 3839TIP3    H211482   6.444   6.572   2.984
 3840TIP3   OH211483   1.921   2.421   5.113
 3840TIP3    H111484   1.873   2.405   5.195
 3840TIP3    H211485   1.867   2.484   5.066
 3841TIP3   OH211486   5.301   3.079   0.483
 3841TIP3    H111487   5.324   3.143   0.416
 3841TIP3    H211488   5.357   3.100   0.557
 3842TIP3   OH211489   4.513   0.741   1.748
 3842TIP3    H111490   4.512   0.837   1.751
 3842TIP3    H211491   4.602   0.718   1.776
 3843TIP3   OH211492   3.942   0.777   1.613
 3843TIP3    H111493   3.916   0.770   1.521
 3843TIP3    H211494   3.996   0.699   1.628
 3844TIP3   OH211495   0.722   6.472   4.201
 3844TIP3    H111496   0.630   6.454   4.180
 3844TIP3    H211497   0.730   6.567   4.189
 3845TIP3   OH211498   5.376   2.374   4.103
 3845TIP3    H111499   5.391   2.281   4.117
 3845TIP3    H211500   5.357   2.382   4.009
 3846TIP3   OH211501   5.413   2.050   2.368
 3846TIP3    H111502   5.444   1.980   2.425
 3846TIP3    H211503   5.493   2.092   2.336
 3847TIP3   OH211504   4.447   1.646   5.342
 3847TIP3    H111505   4.518   1.593   5.306
 3847TIP3    H211506   4.419   1.599   5.420
 3848TIP3   OH211507   4.176   2.737   4.199
 3848TIP3    H111508   4.184   2.700   4.286
 3848TIP3    H211509   4.083   2.730   4.178
 3849TIP3   OH211510   5.382   6.738   2.870
 3849TIP3    H111511   5.389   6.674   2.800
 3849TIP3    H211512   5.376   6.686   2.950
 3850TIP3   OH211513   3.164   5.954   1.435
 3850TIP3    H111514   3.234   5.959   1.500
 3850TIP3    H211515   3.209   5.944   1.352
 3851TIP3   OH211516   6.231   1.553   3.867
 3851TIP3    H111517   6.163   1.556   3.800
 3851TIP3    H211518   6.295   1.489   3.833
 3852TIP3   OH211519   6.947   5.551   3.256
 3852TIP3    H111520   6.983   5.604   3.327
 3852TIP3    H211521   6.940   5.463   3.291
 3853TIP3   OH211522   0.600   5.171   1.016
 3853TIP3    H111523   0.558   5.132   1.092
 3853TIP3    H211524   0.536   5.161   0.945
 3854TIP3   OH211525   0.607   2.232   1.442
 3854TIP3    H111526   0.630   2.221   1.349
 3854TIP3    H211527   0.538   2.299   1.442
 3855TIP3   OH211528   6.704   6.800   2.334
 3855TIP3    H111529   6.624   6.813   2.284
 3855TIP3    H211530   6.685   6.728   2.393
 3856TIP3   OH211531   2.229   5.736   0.450
 3856TIP3    H111532   2.149   5.747   0.503
 3856TIP3    H211533   2.300   5.743   0.513
 3857TIP3   OH211534   4.758   2.969   0.421
 3857TIP3    H111535   4.728   2.944   0.508
 3857TIP3    H211536   4.853   2.972   0.428
 3858TIP3   OH211537   1.188   3.328   2.110
 3858TIP3    H111538   1.156   3.254   2.162
 3858TIP3    H211539   1.283   3.325   2.122
 3859TIP3   OH211540   6.038   5.916   0.125
 3859TIP3    H111541   5.970   5.969   0.164
 3859TIP3    H211542   6.098   5.895   0.197
 3860TIP3   OH211543   5.607   5.844   3.793
 3860TIP3    H111544   5.534   5.804   3.746
 3860TIP3    H211545   5.617   5.931   3.753
 3861TIP3   OH211546   1.104  -0.003   4.015
 3861TIP3    H111547   1.177   0.051   3.986
 3861TIP3    H211548   1.043   0.059   4.055
 3862TIP3   OH211549   0.644   2.334   5.261
 3862TIP3    H111550   0.635   2.339   5.356
 3862TIP3    H211551   0.688   2.416   5.238
 3863TIP3   OH211552   2.691   0.294   3.164
 3863TIP3    H111553   2.621   0.239   3.129
 3863TIP3    H211554   2.645   0.370   3.200
 3864TIP3   OH211555   4.577   4.491   4.456
 3864TIP3    H111556   4.556   4.489   4.549
 3864TIP3    H211557   4.515   4.552   4.418
 3865TIP3   OH211558   3.688   6.687   1.646
 3865TIP3    H111559   3.759   6.721   1.700
 3865TIP3    H211560   3.707   6.717   1.557
 3866TIP3   OH211561   0.621   2.842   4.245
 3866TIP3    H111562   0.531   2.836   4.215
 3866TIP3    H211563   0.663   2.901   4.182
 3867TIP3   OH211564   2.139   3.520   0.274
 3867TIP3    H111565   2.146   3.492   0.365
 3867TIP3    H211566   2.112   3.441   0.227
 3868TIP3   OH211567   5.172   3.478   2.650
 3868TIP3    H111568   5.236   3.549   2.648
 3868TIP3    H211569   5.194   3.427   2.727
 3869TIP3   OH211570   4.938   4.903   0.441
 3869TIP3    H111571   4.945   4.967   0.512
 3869TIP3    H211572   5.029   4.888   0.414
 3870TIP3   OH211573   2.450   5.796   1.366
 3870TIP3    H111574   2.389   5.846   1.421
 3870TIP3    H211575   2.528   5.851   1.362
 3871TIP3   OH211576   4.915   1.831   2.642
 3871TIP3    H111577   4.913   1.900   2.575
 3871TIP3    H211578   5.008   1.810   2.653
 3872TIP3   OH211579   0.210   0.490   2.266
 3872TIP3    H111580   0.152   0.461   2.195
 3872TIP3    H211581   0.159   0.553   2.315
 3873TIP3   OH211582   7.163   1.732   3.565
 3873TIP3    H111583   7.141   1.668   3.632
 3873TIP3    H211584   7.257   1.720   3.549
 3874TIP3   OH211585   1.838   2.216   2.264
 3874TIP3    H111586   1.861   2.168   2.184
 3874TIP3    H211587   1.915   2.206   2.320
 3875TIP3   OH211588   0.042   4.934   3.142
 3875TIP3    H111589   0.026   4.935   3.236
 3875TIP3    H211590   0.089   4.852   3.126
 3876TIP3   OH211591   6.016   4.029   0.423
 3876TIP3    H111592   5.993   4.116   0.456
 3876TIP3    H211593   5.965   3.969   0.478
 3877TIP3   OH211594   1.250   5.046   2.300
 3877TIP3    H111595   1.222   4.956   2.284
 3877TIP3    H211596   1.329   5.056   2.248
 3878TIP3   OH211597   2.600   2.274   2.813
 3878TIP3    H111598   2.513   2.299   2.781
 3878TIP3    H211599   2.586   2.252   2.905
 3879TIP3   OH211600   1.322   4.738   5.749
 3879TIP3    H111601   1.281   4.824   5.763
 3879TIP3    H211602   1.254   4.686   5.707
 3880TIP3   OH211603   6.878   6.410   0.694
 3880TIP3    H111604   6.825   6.428   0.616
 3880TIP3    H211605   6.956   6.366   0.661
 3881TIP3   OH211606   0.976   3.185   4.019
 3881TIP3    H111607   1.060   3.159   3.981
 3881TIP3    H211608   0.929   3.103   4.033
 3882TIP3   OH211609   6.444   6.663   1.721
 3882TIP3    H111610   6.419   6.737   1.666
 3882TIP3    H211611   6.396   6.589   1.684
 3883TIP3   OH211612   0.756   0.750   3.264
 3883TIP3    H111613   0.785   0.810   3.332
 3883TIP3    H211614   0.738   0.806   3.188
 3884TIP3   OH211615   4.344   1.919   2.839
 3884TIP3    H111616   4.310   1.998   2.881
 3884TIP3    H211617   4.353   1.856   2.910
 3885TIP3   OH211618   1.543   2.245   2.259
 3885TIP3    H111619   1.637   2.236   2.269
 3885TIP3    H211620   1.531   2.320   2.201
 3886TIP3   OH211621   6.748   1.553   0.896
 3886TIP3    H111622   6.683   1.546   0.826
 3886TIP3    H211623   6.798   1.631   0.873
 3887TIP3   OH211624   3.263   4.002   2.766
 3887TIP3    H111625   3.313   4.055   2.828
 3887TIP3    H211626   3.322   3.930   2.744
 3888TIP3   OH211627   3.254   4.460   0.989
 3888TIP3    H111628   3.203   4.473   1.069
 3888TIP3    H211629   3.224   4.529   0.930
 3889TIP3   OH211630   3.662   6.136   2.873
 3889TIP3    H111631   3.692   6.185   2.796
 3889TIP3    H211632   3.628   6.202   2.932
 3890TIP3   OH211633   4.407   6.745   5.087
 3890TIP3    H111634   4.412   6.665   5.036
 3890TIP3    H211635   4.372   6.810   5.026
 3891TIP3   OH211636   6.168   0.555   3.884
 3891TIP3    H111637   6.087   0.533   3.837
 3891TIP3    H211638   6.189   0.475   3.932
 3892TIP3   OH211639   3.184   0.689   2.322
 3892TIP3    H111640   3.223   0.697   2.235
 3892TIP3    H211641   3.119   0.759   2.326
 3893TIP3   OH211642   0.494   6.535   4.461
 3893TIP3    H111643   0.525   6.445   4.448
 3893TIP3    H211644   0.504   6.550   4.555
 3894TIP3   OH211645   1.672   3.958   0.872
 3894TIP3    H111646   1.644   3.892   0.935
 3894TIP3    H211647   1.639   3.926   0.788
 3895TIP3   OH211648   4.354   0.424   4.708
 3895TIP3    H111649   4.380   0.515   4.724
 3895TIP3    H211650   4.357   0.383   4.795
 3896TIP3   OH211651   3.380   0.230   4.771
 3896TIP3    H111652   3.304   0.275   4.735
 3896TIP3    H211653   3.401   0.279   4.851
 3897TIP3   OH211654   4.489   0.850   0.524
 3897TIP3    H111655   4.432   0.926   0.541
 3897TIP3    H211656   4.455   0.813   0.443
 3898TIP3   OH211657   3.607   4.993   3.718
 3898TIP3    H111658   3.606   4.966   3.626
 3898TIP3    H211659   3.693   5.033   3.730
 3899TIP3   OH211660   0.749   2.936   5.545
 3899TIP3    H111661   0.656   2.940   5.521
 3899TIP3    H211662   0.751   2.880   5.623
 3900TIP3   OH211663   0.052   0.587   4.660
 3900TIP3    H111664   0.059   0.531   4.738
 3900TIP3    H211665   0.112   0.660   4.677
 3901TIP3   OH211666   1.255   2.672   0.630
 3901TIP3    H111667   1.302   2.593   0.602
 3901TIP3    H211668   1.312   2.744   0.603
 3902TIP3   OH211669   1.636   4.189   1.999
 3902TIP3    H111670   1.652   4.185   2.093
 3902TIP3    H211671   1.702   4.131   1.961
 3903TIP3   OH211672   7.106   6.002   4.968
 3903TIP3    H111673   7.190   6.046   4.957
 3903TIP3    H211674   7.127   5.909   4.973
 3904TIP3   OH211675   1.249   1.897   3.782
 3904TIP3    H111676   1.260   1.948   3.701
 3904TIP3    H211677   1.228   1.962   3.849
 3905TIP3   OH211678   5.282   3.462   0.034
 3905TIP3    H111679   5.365   3.447  -0.011
 3905TIP3    H211680   5.294   3.546   0.078
 3906TIP3   OH211681   5.691   5.602   5.194
 3906TIP3    H111682   5.688   5.659   5.272
 3906TIP3    H211683   5.619   5.632   5.140
 3907TIP3   OH211684   6.824   1.229   5.551
 3907TIP3    H111685   6.858   1.307   5.507
 3907TIP3    H211686   6.889   1.161   5.535
 3908TIP3   OH211687   2.170   4.002   2.948
 3908TIP3    H111688   2.242   3.939   2.941
 3908TIP3    H211689   2.131   3.984   3.033
 3909TIP3   OH211690   3.989   5.777   1.617
 3909TIP3    H111691   3.919   5.714   1.601
 3909TIP3    H211692   4.010   5.767   1.710
 3910TIP3   OH211693   0.319   5.064   4.816
 3910TIP3    H111694   0.242   5.089   4.765
 3910TIP3    H211695   0.347   5.145   4.858
 3911TIP3   OH211696   1.217   5.848   0.304
 3911TIP3    H111697   1.299   5.875   0.263
 3911TIP3    H211698   1.161   5.820   0.231
 3912TIP3   OH211699   2.881   0.580   2.192
 3912TIP3    H111700   2.844   0.546   2.273
 3912TIP3    H211701   2.880   0.675   2.202
 3913TIP3   OH211702   2.549   5.500   0.419
 3913TIP3    H111703   2.622   5.562   0.427
 3913TIP3    H211704   2.521   5.485   0.510
 3914TIP3   OH211705   1.309   6.701   0.834
 3914TIP3    H111706   1.218   6.687   0.808
 3914TIP3    H211707   1.314   6.793   0.857
 3915TIP3   OH211708   7.012   0.457   0.645
 3915TIP3    H111709   7.003   0.410   0.729
 3915TIP3    H211710   7.017   0.387   0.580
 3916TIP3   OH211711   2.315   1.208   2.135
 3916TIP3    H111712   2.267   1.289   2.147
 3916TIP3    H211713   2.249   1.145   2.104
 3917TIP3   OH211714   0.430   0.354   3.839
 3917TIP3    H111715   0.514   0.397   3.823
 3917TIP3    H211716   0.449   0.260   3.830
 3918TIP3   OH211717   6.461   2.007   0.906
 3918TIP3    H111718   6.424   2.092   0.930
 3918TIP3    H211719   6.472   2.012   0.811
 3919TIP3   OH211720   3.593   0.263   1.975
 3919TIP3    H111721   3.537   0.304   2.041
 3919TIP3    H211722   3.539   0.195   1.936
 3920TIP3   OH211723   2.329   3.408   5.479
 3920TIP3    H111724   2.343   3.499   5.506
 3920TIP3    H211725   2.408   3.362   5.507
 3921TIP3   OH211726   2.085   3.408   1.897
 3921TIP3    H111727   2.005   3.426   1.847
 3921TIP3    H211728   2.074   3.456   1.979
 3922TIP3   OH211729   0.612   4.709   1.747
 3922TIP3    H111730   0.649   4.798   1.746
 3922TIP3    H211731   0.538   4.714   1.687
 3923TIP3   OH211732   1.796   2.446   0.795
 3923TIP3    H111733   1.739   2.522   0.803
 3923TIP3    H211734   1.876   2.471   0.841
 3924TIP3   OH211735   1.378   1.325   0.805
 3924TIP3    H111736   1.451   1.379   0.775
 3924TIP3    H211737   1.318   1.386   0.847
 3925TIP3   OH211738   0.091   5.976   1.342
 3925TIP3    H111739   0.134   6.045   1.292
 3925TIP3    H211740   0.110   5.996   1.434
 3926TIP3   OH211741   3.938   5.545   5.523
 3926TIP3    H111742   3.876   5.617   5.528
 3926TIP3    H211743   3.924   5.495   5.603
 3927TIP3   OH211744   3.736   4.205   1.931
 3927TIP3    H111745   3.682   4.283   1.921
 3927TIP3    H211746   3.782   4.217   2.014
 3928TIP3   OH211747   0.555   4.157   3.633
 3928TIP3    H111748   0.513   4.129   3.551
 3928TIP3    H211749   0.533   4.250   3.639
 3929TIP3   OH211750   4.375   3.487   0.780
 3929TIP3    H111751   4.350   3.547   0.710
 3929TIP3    H211752   4.300   3.486   0.839
 3930TIP3   OH211753   4.242   1.184   1.670
 3930TIP3    H111754   4.335   1.165   1.685
 3930TIP3    H211755   4.197   1.140   1.741
 3931TIP3   OH211756   2.660   6.590   1.742
 3931TIP3    H111757   2.629   6.519   1.686
 3931TIP3    H211758   2.755   6.577   1.748
 3932TIP3   OH211759   4.912   6.652   2.819
 3932TIP3    H111760   4.900   6.561   2.793
 3932TIP3    H211761   4.942   6.647   2.910
 3933TIP3   OH211762   6.906   0.907   2.931
 3933TIP3    H111763   6.839   0.960   2.890
 3933TIP3    H211764   6.881   0.903   3.023
 3934TIP3   OH211765   2.738   4.349   4.905
 3934TIP3    H111766   2.752   4.285   4.975
 3934TIP3    H211767   2.645   4.372   4.912
 3935TIP3   OH211768   0.869   0.572   0.108
 3935TIP3    H111769   0.931   0.631   0.150
 3935TIP3    H211770   0.854   0.503   0.173
 3936TIP3   OH211771   3.402   3.306   4.507
 3936TIP3    H111772   3.424   3.214   4.496
 3936TIP3    H211773   3.336   3.323   4.440
 3937TIP3   OH211774   4.524   1.843   0.943
 3937TIP3    H111775   4.439   1.803   0.925
 3937TIP3    H211776   4.580   1.815   0.871
 3938TIP3   OH211777   3.653   2.596   4.064
 3938TIP3    H111778   3.576   2.595   4.006
 3938TIP3    H211779   3.701   2.516   4.041
 3939TIP3   OH211780   6.745   6.521   2.833
 3939TIP3    H111781   6.736   6.465   2.756
 3939TIP3    H211782   6.731   6.609   2.801
 3940TIP3   OH211783   1.673   4.717   4.178
 3940TIP3    H111784   1.653   4.624   4.177
 3940TIP3    H211785   1.654   4.745   4.267
 3941TIP3   OH211786   5.834   6.767   1.970
 3941TIP3    H111787   5.739   6.759   1.963
 3941TIP3    H211788   5.863   6.796   1.884
 3942TIP3   OH211789   0.213   0.383   4.039
 3942TIP3    H111790   0.233   0.302   4.086
 3942TIP3    H211791   0.282   0.390   3.973
 3943TIP3   OH211792   4.051   4.938   4.261
 3943TIP3    H111793   4.037   4.890   4.180
 3943TIP3    H211794   3.997   4.893   4.325
 3944TIP3   OH211795   1.141   1.497   0.517
 3944TIP3    H111796   1.208   1.446   0.472
 3944TIP3    H211797   1.178   1.514   0.603
 3945TIP3   OH211798   0.369   4.684   1.609
 3945TIP3    H111799   0.336   4.609   1.559
 3945TIP3    H211800   0.300   4.750   1.600
 3946TIP3   OH211801   5.458   1.230   3.771
 3946TIP3    H111802   5.537   1.222   3.718
 3946TIP3    H211803   5.398   1.163   3.737
 3947TIP3   OH211804   4.469   3.508   2.498
 3947TIP3    H111805   4.545   3.480   2.447
 3947TIP3    H211806   4.507   3.548   2.577
 3948TIP3   OH211807   1.904   1.953   4.751
 3948TIP3    H111808   1.973   1.976   4.690
 3948TIP3    H211809   1.931   1.868   4.786
 3949TIP3   OH211810   0.235   6.717   1.000
 3949TIP3    H111811   0.319   6.698   1.040
 3949TIP3    H211812   0.183   6.638   1.014
 3950TIP3   OH211813   0.377   6.741   2.241
 3950TIP3    H111814   0.378   6.686   2.319
 3950TIP3    H211815   0.447   6.705   2.186
 3951TIP3   OH211816   5.331   4.496   5.483
 3951TIP3    H111817   5.352   4.416   5.532
 3951TIP3    H211818   5.236   4.504   5.489
 3952TIP3   OH211819   2.472   5.724   2.899
 3952TIP3    H111820   2.498   5.771   2.820
 3952TIP3    H211821   2.377   5.722   2.896
 3953TIP3   OH211822   6.175   1.088   1.275
 3953TIP3    H111823   6.223   1.035   1.211
 3953TIP3    H211824   6.219   1.070   1.358
 3954TIP3   OH211825   5.985   3.525   3.394
 3954TIP3    H111826   5.959   3.535   3.486
 3954TIP3    H211827   5.905   3.543   3.345
 3955TIP3   OH211828   6.351   6.172   5.548
 3955TIP3    H111829   6.376   6.083   5.525
 3955TIP3    H211830   6.318   6.165   5.638
 3956TIP3   OH211831   4.115   4.971   0.406
 3956TIP3    H111832   4.207   4.982   0.382
 3956TIP3    H211833   4.067   5.012   0.335
 3957TIP3   OH211834   6.931   1.280   1.266
 3957TIP3    H111835   6.859   1.242   1.217
 3957TIP3    H211836   6.908   1.265   1.358
 3958TIP3   OH211837   2.227   1.689   1.727
 3958TIP3    H111838   2.248   1.599   1.752
 3958TIP3    H211839   2.165   1.719   1.794
 3959TIP3   OH211840   6.345   2.356   1.634
 3959TIP3    H111841   6.263   2.403   1.621
 3959TIP3    H211842   6.322   2.264   1.624
 3960TIP3   OH211843   6.839   4.180   0.385
 3960TIP3    H111844   6.803   4.099   0.421
 3960TIP3    H211845   6.923   4.156   0.348
 3961TIP3   OH211846   0.270   5.207   3.100
 3961TIP3    H111847   0.207   5.136   3.114
 3961TIP3    H211848   0.275   5.215   3.005
 3962TIP3   OH211849   0.157   5.677   3.381
 3962TIP3    H111850   0.109   5.736   3.439
 3962TIP3    H211851   0.157   5.593   3.428
 3963TIP3   OH211852   7.084   3.083   1.352
 3963TIP3    H111853   7.022   3.117   1.417
 3963TIP3    H211854   7.125   3.008   1.394
 3964TIP3   OH211855   4.066   2.294   4.362
 3964TIP3    H111856   4.112   2.214   4.338
 3964TIP3    H211857   3.984   2.264   4.402
 3965TIP3   OH211858   5.172   5.993   2.595
 3965TIP3    H111859   5.169   6.085   2.570
 3965TIP3    H211860   5.092   5.978   2.645
 3966TIP3   OH211861   0.482   4.118   5.339
 3966TIP3    H111862   0.534   4.103   5.260
 3966TIP3    H211863   0.429   4.195   5.318
 3967TIP3   OH211864   4.126   0.405   2.575
 3967TIP3    H111865   4.138   0.497   2.599
 3967TIP3    H211866   4.205   0.361   2.609
 3968TIP3   OH211867   3.213   3.519   5.057
 3968TIP3    H111868   3.153   3.502   4.984
 3968TIP3    H211869   3.272   3.587   5.024
 3969TIP3   OH211870   4.069   5.200   5.253
 3969TIP3    H111871   4.122   5.232   5.181
 3969TIP3    H211872   4.114   5.122   5.284
 3970TIP3   OH211873   1.089   5.566   0.368
 3970TIP3    H111874   1.023   5.549   0.301
 3970TIP3    H211875   1.148   5.630   0.328
 3971TIP3   OH211876   5.289   5.189   3.921
 3971TIP3    H111877   5.358   5.160   3.981
 3971TIP3    H211878   5.329   5.186   3.835
 3972TIP3   OH211879   5.923   3.095   0.219
 3972TIP3    H111880   5.875   3.034   0.274
 3972TIP3    H211881   5.877   3.093   0.135
 3973TIP3   OH211882   4.083   5.300   1.285
 3973TIP3    H111883   4.000   5.345   1.301
 3973TIP3    H211884   4.103   5.255   1.367
 3974TIP3   OH211885   3.999   5.606   3.062
 3974TIP3    H111886   4.041   5.692   3.055
 3974TIP3    H211887   3.926   5.620   3.123
 3975TIP3   OH211888   6.839   0.363   4.061
 3975TIP3    H111889   6.863   0.443   4.015
 3975TIP3    H211890   6.821   0.390   4.151
 3976TIP3   OH211891   4.467   2.578   2.170
 3976TIP3    H111892   4.438   2.668   2.154
 3976TIP3    H211893   4.538   2.564   2.107
 3977TIP3   OH211894   2.796   5.342   5.523
 3977TIP3    H111895   2.758   5.327   5.437
 3977TIP3    H211896   2.848   5.422   5.513
 3978TIP3   OH211897   0.100   1.013   4.343
 3978TIP3    H111898   0.157   1.042   4.415
 3978TIP3    H211899   0.116   0.919   4.338
 3979TIP3   OH211900   2.127   5.842   0.092
 3979TIP3    H111901   2.145   5.758   0.050
 3979TIP3    H211902   2.067   5.821   0.164
 3980TIP3   OH211903   0.242   6.734   5.845
 3980TIP3    H111904   0.329   6.773   5.851
 3980TIP3    H211905   0.252   6.666   5.777
 3981TIP3   OH211906   5.360   4.311   5.695
 3981TIP3    H111907   5.373   4.389   5.749
 3981TIP3    H211908   5.424   4.248   5.727
 3982TIP3   OH211909   6.932   5.208   4.841
 3982TIP3    H111910   7.025   5.218   4.858
 3982TIP3    H211911   6.903   5.294   4.811
 3983TIP3   OH211912   1.722   3.668   5.568
 3983TIP3    H111913   1.726   3.736   5.501
 3983TIP3    H211914   1.755   3.590   5.525
 3984TIP3   OH211915   4.240   2.801   2.801
 3984TIP3    H111916   4.204   2.772   2.717
 3984TIP3    H211917   4.198   2.744   2.866
 3985TIP3   OH211918   3.400   4.192   4.206
 3985TIP3    H111919   3.415   4.271   4.257
 3985TIP3    H211920   3.307   4.173   4.217
 3986TIP3   OH211921   0.896   6.379   2.698
 3986TIP3    H111922   0.988   6.358   2.686
 3986TIP3    H211923   0.882   6.372   2.793
 3987TIP3   OH211924   4.693   1.195   4.684
 3987TIP3    H111925   4.657   1.280   4.659
 3987TIP3    H211926   4.716   1.206   4.777
 3988TIP3   OH211927   5.753   2.826   3.514
 3988TIP3    H111928   5.753   2.837   3.419
 3988TIP3    H211929   5.787   2.909   3.548
 3989TIP3   OH211930   4.433   0.235   1.329
 3989TIP3    H111931   4.344   0.200   1.337
 3989TIP3    H211932   4.449   0.280   1.412
 3990TIP3   OH211933   3.010   2.302   3.003
 3990TIP3    H111934   2.969   2.263   2.926
 3990TIP3    H211935   3.042   2.387   2.973
 3991TIP3   OH211936   3.675   0.381   3.784
 3991TIP3    H111937   3.755   0.403   3.736
 3991TIP3    H211938   3.649   0.463   3.825
 3992TIP3   OH211939   4.304   0.007   5.263
 3992TIP3    H111940   4.347   0.088   5.289
 3992TIP3    H211941   4.213   0.033   5.248
 3993TIP3   OH211942   5.240   3.719   4.196
 3993TIP3    H111943   5.182   3.773   4.249
 3993TIP3    H211944   5.188   3.641   4.176
 3994TIP3   OH211945   5.876   0.972   5.876
 3994TIP3    H111946   5.908   1.022   5.801
 3994TIP3    H211947   5.789   0.943   5.849
 3995TIP3   OH211948   2.143   6.767   5.180
 3995TIP3    H111949   2.157   6.830   5.110
 3995TIP3    H211950   2.048   6.764   5.191
 3996TIP3   OH211951   0.249   4.481   3.723
 3996TIP3    H111952   0.337   4.470   3.687
 3996TIP3    H211953   0.257   4.448   3.813
 3997TIP3   OH211954   6.976   3.117   0.713
 3997TIP3    H111955   7.001   3.207   0.732
 3997TIP3    H211956   6.999   3.068   0.792
 3998TIP3   OH211957   1.529   6.701   1.409
 3998TIP3    H111958   1.581   6.707   1.329
 3998TIP3    H211959   1.510   6.792   1.433
 3999TIP3   OH211960   3.412   3.079   2.779
 3999TIP3    H111961   3.355   3.002   2.783
 3999TIP3    H211962   3.359   3.149   2.816
 4000TIP3   OH211963   3.678   2.698   1.185
 4000TIP3    H111964   3.627   2.672   1.108
 4000TIP3    H211965   3.755   2.741   1.150
 4001TIP3   OH211966   7.012   4.364   5.143
 4001TIP3    H111967   6.938   4.403   5.190
 4001TIP3    H211968   6.971   4.307   5.077
 4002TIP3   OH211969   6.102   2.807   5.551
 4002TIP3    H111970   6.148   2.777   5.629
 4002TIP3    H211971   6.141   2.756   5.479
 4003TIP3   OH211972   4.331   3.359   3.841
 4003TIP3    H111973   4.351   3.416   3.916
 4003TIP3    H211974   4.240   3.333   3.856
 4004TIP3   OH211975   6.604   4.660   4.756
 4004TIP3    H111976   6.666   4.691   4.690
 4004TIP3    H211977   6.578   4.573   4.725
 4005TIP3   OH211978   1.716   1.565   2.682
 4005TIP3    H111979   1.724   1.507   2.758
 4005TIP3    H211980   1.650   1.523   2.627
 4006TIP3   OH211981   1.706   0.382   0.159
 4006TIP3    H111982   1.654   0.318   0.109
 4006TIP3    H211983   1.688   0.465   0.116
 4007TIP3   OH211984   5.144   2.116   5.033
 4007TIP3    H111985   5.092   2.171   4.975
 4007TIP3    H211986   5.080   2.065   5.083
 4008TIP3   OH211987   6.592   0.292   4.432
 4008TIP3    H111988   6.623   0.211   4.391
 4008TIP3    H211989   6.626   0.361   4.376
 4009TIP3   OH211990   3.775   4.667   0.586
 4009TIP3    H111991   3.833   4.594   0.608
 4009TIP3    H211992   3.817   4.743   0.627
 4010TIP3   OH211993   0.751   3.920   5.156
 4010TIP3    H111994   0.698   3.840   5.152
 4010TIP3    H211995   0.710   3.979   5.092
 4011TIP3   OH211996   1.483   4.055   1.508
 4011TIP3    H111997   1.403   4.013   1.538
 4011TIP3    H211998   1.504   4.012   1.425
 4012TIP3   OH211999   2.030   6.498   3.137
 4012TIP3    H112000   2.106   6.469   3.187
 4012TIP3    H212001   1.955   6.463   3.185
 4013TIP3   OH212002   0.365   5.791   3.759
 4013TIP3    H112003   0.387   5.720   3.819
 4013TIP3    H212004   0.389   5.757   3.672
 4014TIP3   OH212005   7.109   0.630   1.739
 4014TIP3    H112006   7.038   0.587   1.691
 4014TIP3    H212007   7.185   0.623   1.682
 4015TIP3   OH212008   2.204   1.649   4.401
 4015TIP3    H112009   2.230   1.663   4.492
 4015TIP3    H212010   2.135   1.714   4.386
 4016TIP3   OH212011   5.419   1.404   4.804
 4016TIP3    H112012   5.419   1.398   4.708
 4016TIP3    H212013   5.368   1.482   4.823
 4017TIP3   OH212014   5.343   5.567   0.573
 4017TIP3    H112015   5.308   5.620   0.645
 4017TIP3    H212016   5.324   5.477   0.599
 4018TIP3   OH212017   6.869   5.343   1.575
 4018TIP3    H112018   6.882   5.438   1.577
 4018TIP3    H212019   6.949   5.308   1.535
 4019TIP3   OH212020   6.522   1.164   5.516
 4019TIP3    H112021   6.612   1.195   5.514
 4019TIP3    H212022   6.504   1.148   5.608
 4020TIP3   OH212023   2.908   1.414   1.944
 4020TIP3    H112024   2.839   1.451   1.999
 4020TIP3    H212025   2.874   1.421   1.855
 4021TIP3   OH212026   6.705   2.043   2.252
 4021TIP3    H112027   6.692   2.093   2.172
 4021TIP3    H212028   6.775   1.981   2.232
 4022TIP3   OH212029   4.419   4.721   4.585
 4022TIP3    H112030   4.508   4.738   4.616
 4022TIP3    H212031   4.396   4.798   4.533
 4023TIP3   OH212032   4.110   2.892   3.154
 4023TIP3    H112033   4.194   2.937   3.159
 4023TIP3    H212034   4.052   2.955   3.111
 4024TIP3   OH212035   0.720   5.431   5.612
 4024TIP3    H112036   0.630   5.416   5.641
 4024TIP3    H212037   0.774   5.410   5.688
 4025TIP3   OH212038   5.140   1.380   4.730
 4025TIP3    H112039   5.084   1.406   4.803
 4025TIP3    H212040   5.083   1.381   4.654
 4026TIP3   OH212041   5.240   4.749   2.973
 4026TIP3    H112042   5.215   4.688   3.042
 4026TIP3    H212043   5.254   4.832   3.020
 4027TIP3   OH212044   1.979   3.153   1.857
 4027TIP3    H112045   2.012   3.236   1.890
 4027TIP3    H212046   2.050   3.091   1.872
 4028TIP3   OH212047   4.245   2.168   2.976
 4028TIP3    H112048   4.152   2.143   2.978
 4028TIP3    H212049   4.243   2.259   2.947
 4029TIP3   OH212050   0.804   3.171   1.079
 4029TIP3    H112051   0.769   3.132   1.159
 4029TIP3    H212052   0.726   3.191   1.026
 4030TIP3   OH212053   2.014   0.139   4.343
 4030TIP3    H112054   2.068   0.134   4.264
 4030TIP3    H212055   2.074   0.167   4.412
 4031TIP3   OH212056   5.978   1.624   2.871
 4031TIP3    H112057   5.966   1.628   2.965
 4031TIP3    H212058   6.067   1.591   2.859
 4032TIP3   OH212059   6.883   6.352   0.263
 4032TIP3    H112060   6.881   6.434   0.213
 4032TIP3    H212061   6.860   6.284   0.199
 4033TIP3   OH212062   0.381   0.176   4.567
 4033TIP3    H112063   0.461   0.157   4.617
 4033TIP3    H212064   0.408   0.173   4.476
 4034TIP3   OH212065   5.785   2.216   0.764
 4034TIP3    H112066   5.716   2.150   0.769
 4034TIP3    H212067   5.857   2.173   0.717
 4035TIP3   OH212068   5.703   4.023   2.074
 4035TIP3    H112069   5.709   3.929   2.089
 4035TIP3    H212070   5.682   4.032   1.981
 4036TIP3   OH212071   0.381   3.575   4.424
 4036TIP3    H112072   0.336   3.501   4.383
 4036TIP3    H212073   0.313   3.642   4.431
 4037TIP3   OH212074   1.781   5.798   3.824
 4037TIP3    H112075   1.850   5.781   3.760
 4037TIP3    H212076   1.802   5.741   3.898
 4038TIP3   OH212077   2.981   0.859   0.271
 4038TIP3    H112078   2.952   0.949   0.285
 4038TIP3    H212079   2.949   0.837   0.184
 4039TIP3   OH212080   6.805   5.957   1.997
 4039TIP3    H112081   6.885   5.986   1.954
 4039TIP3    H212082   6.773   6.034   2.044
 4040TIP3   OH212083   2.422   0.953   3.160
 4040TIP3    H112084   2.423   1.004   3.241
 4040TIP3    H212085   2.331   0.924   3.150
 4041TIP3   OH212086   6.864   2.864   3.090
 4041TIP3    H112087   6.832   2.797   3.150
 4041TIP3    H212088   6.801   2.935   3.098
 4042TIP3   OH212089   0.378   1.169   1.960
 4042TIP3    H112090   0.287   1.179   1.989
 4042TIP3    H212091   0.391   1.238   1.895
 4043TIP3   OH212092   5.286   6.769   1.808
 4043TIP3    H112093   5.229   6.713   1.756
 4043TIP3    H212094   5.246   6.769   1.895
 4044TIP3   OH212095   3.638   0.232   0.189
 4044TIP3    H112096   3.573   0.174   0.228
 4044TIP3    H212097   3.700   0.174   0.145
 4045TIP3   OH212098   6.884   2.904   3.954
 4045TIP3    H112099   6.804   2.927   3.907
 4045TIP3    H212100   6.857   2.897   4.045
 4046TIP3   OH212101   1.065   5.260   0.919
 4046TIP3    H112102   1.105   5.303   0.994
 4046TIP3    H212103   0.971   5.258   0.940
 4047TIP3   OH212104   0.227   3.946   3.511
 4047TIP3    H112105   0.152   4.001   3.489
 4047TIP3    H212106   0.302   3.996   3.478
 4048TIP3   OH212107   3.775   3.393   3.229
 4048TIP3    H112108   3.869   3.412   3.224
 4048TIP3    H212109   3.741   3.456   3.292
 4049TIP3   OH212110   4.737   4.602   2.808
 4049TIP3    H112111   4.797   4.534   2.838
 4049TIP3    H212112   4.675   4.556   2.752
 4050TIP3   OH212113   3.815   5.247   3.122
 4050TIP3    H112114   3.752   5.210   3.185
 4050TIP3    H212115   3.811   5.342   3.139
 4051TIP3   OH212116   4.801   5.531   1.904
 4051TIP3    H112117   4.833   5.614   1.868
 4051TIP3    H212118   4.873   5.469   1.887
 4052TIP3   OH212119   1.209   5.531   1.431
 4052TIP3    H112120   1.179   5.445   1.462
 4052TIP3    H212121   1.128   5.579   1.413
 4053TIP3   OH212122   6.678   3.219   2.228
 4053TIP3    H112123   6.693   3.158   2.156
 4053TIP3    H212124   6.633   3.293   2.187
 4054TIP3   OH212125   3.271   6.197   0.524
 4054TIP3    H112126   3.297   6.131   0.588
 4054TIP3    H212127   3.177   6.181   0.510
 4055TIP3   OH212128   4.309   0.612   2.858
 4055TIP3    H112129   4.346   0.535   2.902
 4055TIP3    H212130   4.305   0.679   2.927
 4056TIP3   OH212131   6.713   3.936   2.406
 4056TIP3    H112132   6.750   3.886   2.479
 4056TIP3    H212133   6.753   3.897   2.328
 4057TIP3   OH212134   6.341   2.278   5.238
 4057TIP3    H112135   6.361   2.192   5.276
 4057TIP3    H212136   6.394   2.282   5.159
 4058TIP3   OH212137   1.715   6.753   2.338
 4058TIP3    H112138   1.663   6.802   2.274
 4058TIP3    H212139   1.770   6.819   2.379
 4059TIP3   OH212140   3.389   3.368   0.503
 4059TIP3    H112141   3.425   3.454   0.527
 4059TIP3    H212142   3.458   3.306   0.525
 4060TIP3   OH212143   0.280   5.926   0.912
 4060TIP3    H112144   0.186   5.924   0.892
 4060TIP3    H212145   0.287   5.881   0.996
 4061TIP3   OH212146   6.363   4.967   3.205
 4061TIP3    H112147   6.354   4.874   3.229
 4061TIP3    H212148   6.318   4.974   3.121
 4062TIP3   OH212149   0.327   3.111   1.082
 4062TIP3    H112150   0.283   3.105   1.167
 4062TIP3    H212151   0.257   3.126   1.019
 4063TIP3   OH212152   1.938   4.165   2.050
 4063TIP3    H112153   1.957   4.256   2.074
 4063TIP3    H212154   1.922   4.121   2.134
 4064TIP3   OH212155   1.867   0.311   4.510
 4064TIP3    H112156   1.883   0.405   4.504
 4064TIP3    H212157   1.926   0.272   4.445
 4065TIP3   OH212158   3.016   4.977   4.611
 4065TIP3    H112159   2.928   4.945   4.593
 4065TIP3    H212160   3.004   5.065   4.646
 4066TIP3   OH212161   5.955   6.570   2.814
 4066TIP3    H112162   6.027   6.588   2.874
 4066TIP3    H212163   5.997   6.538   2.735
 4067TIP3   OH212164   0.965   5.092   5.697
 4067TIP3    H112165   0.924   5.043   5.768
 4067TIP3    H212166   0.907   5.078   5.622
 4068TIP3   OH212167   2.190   6.038   0.391
 4068TIP3    H112168   2.203   5.946   0.370
 4068TIP3    H212169   2.119   6.066   0.332
 4069TIP3   OH212170   2.809   6.481   5.285
 4069TIP3    H112171   2.848   6.481   5.372
 4069TIP3    H212172   2.866   6.422   5.234
 4070TIP3   OH212173   6.243   6.459   3.041
 4070TIP3    H112174   6.184   6.410   3.098
 4070TIP3    H212175   6.324   6.468   3.091
 4071TIP3   OH212176   0.397   3.896   1.388
 4071TIP3    H112177   0.436   3.832   1.448
 4071TIP3    H212178   0.305   3.871   1.383
 4072TIP3   OH212179   3.542   2.556   1.940
 4072TIP3    H112180   3.634   2.538   1.960
 4072TIP3    H212181   3.545   2.620   1.869
 4073TIP3   OH212182   3.353   5.071   1.525
 4073TIP3    H112183   3.426   5.113   1.570
 4073TIP3    H212184   3.276   5.097   1.577
 4074TIP3   OH212185   4.646   4.625   1.005
 4074TIP3    H112186   4.631   4.567   0.931
 4074TIP3    H212187   4.581   4.695   0.994
 4075TIP3   OH212188   7.105   1.069   2.729
 4075TIP3    H112189   7.030   1.024   2.768
 4075TIP3    H212190   7.161   0.999   2.696
 4076TIP3   OH212191   6.177   2.325   2.135
 4076TIP3    H112192   6.138   2.329   2.047
 4076TIP3    H212193   6.262   2.367   2.125
 4077TIP3   OH212194   0.197   0.800   1.440
 4077TIP3    H112195   0.156   0.881   1.470
 4077TIP3    H212196   0.213   0.815   1.347
 4078TIP3   OH212197   4.235   1.567   2.340
 4078TIP3    H112198   4.187   1.485   2.352
 4078TIP3    H212199   4.278   1.582   2.424
 4079TIP3   OH212200   6.363   3.783   4.843
 4079TIP3    H112201   6.424   3.856   4.832
 4079TIP3    H212202   6.329   3.767   4.755
 4080TIP3   OH212203   0.000   6.245   2.765
 4080TIP3    H112204   0.028   6.331   2.797
 4080TIP3    H212205   0.082   6.195   2.757
 4081TIP3   OH212206   5.276   2.868   0.769
 4081TIP3    H112207   5.264   2.841   0.860
 4081TIP3    H212208   5.292   2.787   0.721
 4082TIP3   OH212209   6.366   0.954   1.116
 4082TIP3    H112210   6.368   0.961   1.020
 4082TIP3    H212211   6.458   0.959   1.142
 4083TIP3   OH212212   2.978   4.006   2.855
 4083TIP3    H112213   3.063   4.032   2.819
 4083TIP3    H212214   2.938   4.088   2.884
 4084TIP3   OH212215   6.259   3.767   0.690
 4084TIP3    H112216   6.181   3.715   0.707
 4084TIP3    H212217   6.273   3.760   0.596
 4085TIP3   OH212218   1.766   0.562   5.795
 4085TIP3    H112219   1.675   0.535   5.785
 4085TIP3    H212220   1.809   0.485   5.833
 4086TIP3   OH212221   6.582   3.054   1.141
 4086TIP3    H112222   6.513   3.092   1.087
 4086TIP3    H212223   6.573   2.959   1.129
 4087TIP3   OH212224   6.103   1.279   2.437
 4087TIP3    H112225   6.012   1.288   2.467
 4087TIP3    H212226   6.155   1.300   2.514
 4088TIP3   OH212227   1.406   4.712   2.007
 4088TIP3    H112228   1.384   4.619   1.995
 4088TIP3    H212229   1.501   4.714   2.014
 4089TIP3   OH212230   6.132   6.258   0.174
 4089TIP3    H112231   6.046   6.270   0.214
 4089TIP3    H212232   6.172   6.344   0.178
 4090TIP3   OH212233   3.154   0.306   1.009
 4090TIP3    H112234   3.124   0.386   0.965
 4090TIP3    H212235   3.126   0.317   1.100
 4091TIP3   OH212236   1.151   3.629   5.725
 4091TIP3    H112237   1.119   3.559   5.669
 4091TIP3    H212238   1.240   3.602   5.749
 4092TIP3   OH212239   2.359   2.854   2.986
 4092TIP3    H112240   2.347   2.882   3.077
 4092TIP3    H212241   2.385   2.934   2.940
 4093TIP3   OH212242   0.968   6.414   3.550
 4093TIP3    H112243   1.019   6.374   3.620
 4093TIP3    H212244   0.878   6.388   3.568
 4094TIP3   OH212245   1.885   3.140   2.738
 4094TIP3    H112246   1.955   3.075   2.725
 4094TIP3    H212247   1.881   3.151   2.833
 4095TIP3   OH212248   2.406   4.525   0.421
 4095TIP3    H112249   2.461   4.529   0.499
 4095TIP3    H212250   2.337   4.590   0.437
 4096TIP3   OH212251   1.367   5.043   1.225
 4096TIP3    H112252   1.406   5.107   1.166
 4096TIP3    H212253   1.432   5.030   1.294
 4097TIP3   OH212254   2.171   2.779   3.480
 4097TIP3    H112255   2.108   2.753   3.413
 4097TIP3    H212256   2.156   2.718   3.553
 4098TIP3   OH212257   3.987   5.006   2.278
 4098TIP3    H112258   3.961   4.925   2.323
 4098TIP3    H212259   4.035   4.975   2.200
 4099TIP3   OH212260   2.975   4.210   5.327
 4099TIP3    H112261   2.905   4.201   5.262
 4099TIP3    H212262   2.996   4.120   5.351
 4100TIP3   OH212263   4.805   0.710   1.510
 4100TIP3    H112264   4.835   0.789   1.464
 4100TIP3    H212265   4.854   0.710   1.592
 4101TIP3   OH212266   4.186   5.943   2.641
 4101TIP3    H112267   4.166   5.902   2.725
 4101TIP3    H212268   4.151   5.882   2.575
 4102TIP3   OH212269   5.766   4.288   4.623
 4102TIP3    H112270   5.709   4.359   4.652
 4102TIP3    H212271   5.744   4.277   4.530
 4103TIP3   OH212272   6.252   4.629   2.297
 4103TIP3    H112273   6.331   4.582   2.323
 4103TIP3    H212274   6.181   4.566   2.311
 4104TIP3   OH212275   4.060   2.652   3.785
 4104TIP3    H112276   4.018   2.673   3.869
 4104TIP3    H212277   4.091   2.562   3.796
 4105TIP3   OH212278   3.958   4.224   2.629
 4105TIP3    H112279   4.008   4.153   2.589
 4105TIP3    H212280   3.896   4.252   2.562
 4106TIP3   OH212281   1.415   1.894   4.616
 4106TIP3    H112282   1.359   1.882   4.693
 4106TIP3    H212283   1.504   1.887   4.651
 4107TIP3   OH212284   3.350   4.233   2.101
 4107TIP3    H112285   3.362   4.167   2.169
 4107TIP3    H212286   3.316   4.309   2.148
 4108TIP3   OH212287   0.049   3.706   5.281
 4108TIP3    H112288   0.026   3.627   5.232
 4108TIP3    H212289   0.142   3.719   5.265
 4109TIP3   OH212290   5.899   6.518   4.052
 4109TIP3    H112291   5.907   6.613   4.061
 4109TIP3    H212292   5.893   6.504   3.957
 4110TIP3   OH212293   1.155   1.857   0.092
 4110TIP3    H112294   1.064   1.877   0.073
 4110TIP3    H212295   1.163   1.862   0.187
 4111TIP3   OH212296   2.327   6.697   4.490
 4111TIP3    H112297   2.333   6.792   4.477
 4111TIP3    H212298   2.241   6.673   4.455
 4112TIP3   OH212299   5.041   5.883   4.222
 4112TIP3    H112300   5.109   5.862   4.286
 4112TIP3    H212301   5.087   5.936   4.156
 4113TIP3   OH212302   3.961   3.371   0.931
 4113TIP3    H112303   4.020   3.446   0.927
 4113TIP3    H212304   3.877   3.405   0.901
 4114TIP3   OH212305   6.031   3.365   5.319
 4114TIP3    H112306   6.032   3.422   5.243
 4114TIP3    H212307   6.047   3.277   5.284
 4115TIP3   OH212308   1.920   3.205   3.890
 4115TIP3    H112309   1.965   3.165   3.816
 4115TIP3    H212310   1.850   3.257   3.850
 4116TIP3   OH212311   1.518   0.151   3.749
 4116TIP3    H112312   1.566   0.233   3.761
 4116TIP3    H212313   1.506   0.117   3.838
 4117TIP3   OH212314   3.533   5.563   5.291
 4117TIP3    H112315   3.591   5.496   5.255
 4117TIP3    H212316   3.586   5.607   5.357
 4118TIP3   OH212317   0.136   3.066   2.881
 4118TIP3    H112318   0.140   3.160   2.859
 4118TIP3    H212319   0.202   3.055   2.949
 4119TIP3   OH212320   0.404   0.606   2.501
 4119TIP3    H112321   0.452   0.583   2.421
 4119TIP3    H212322   0.326   0.551   2.498
 4120TIP3   OH212323   2.973   6.663   4.856
 4120TIP3    H112324   2.966   6.757   4.871
 4120TIP3    H212325   3.067   6.644   4.862
 4121TIP3   OH212326   3.541   6.647   3.652
 4121TIP3    H112327   3.595   6.621   3.727
 4121TIP3    H212328   3.453   6.656   3.689
 4122TIP3   OH212329   4.549   3.384   0.085
 4122TIP3    H112330   4.621   3.409   0.142
 4122TIP3    H212331   4.591   3.360   0.002
 4123TIP3   OH212332   4.660   6.344   4.215
 4123TIP3    H112333   4.675   6.311   4.304
 4123TIP3    H212334   4.607   6.423   4.228
 4124TIP3   OH212335   6.369   5.223   1.850
 4124TIP3    H112336   6.350   5.192   1.762
 4124TIP3    H212337   6.455   5.264   1.843
 4125TIP3   OH212338   4.505   5.862   0.136
 4125TIP3    H112339   4.497   5.885   0.229
 4125TIP3    H212340   4.579   5.802   0.132
 4126TIP3   OH212341   0.979   5.950   3.142
 4126TIP3    H112342   0.981   5.935   3.236
 4126TIP3    H212343   0.997   5.865   3.103
 4127TIP3   OH212344   2.203   2.419   3.315
 4127TIP3    H112345   2.288   2.380   3.336
 4127TIP3    H212346   2.164   2.438   3.400
 4128TIP3   OH212347   1.894   5.828   3.007
 4128TIP3    H112348   1.874   5.891   2.938
 4128TIP3    H212349   1.946   5.761   2.963
 4129TIP3   OH212350   4.154   4.831   5.135
 4129TIP3    H112351   4.172   4.892   5.063
 4129TIP3    H212352   4.208   4.864   5.207
 4130TIP3   OH212353   1.192   5.396   3.806
 4130TIP3    H112354   1.271   5.353   3.772
 4130TIP3    H212355   1.176   5.467   3.744
 4131TIP3   OH212356   2.888   0.530   4.434
 4131TIP3    H112357   2.849   0.469   4.498
 4131TIP3    H212358   2.824   0.601   4.427
 4132TIP3   OH212359   4.526   4.110   5.877
 4132TIP3    H112360   4.564   4.146   5.797
 4132TIP3    H212361   4.468   4.180   5.909
 4133TIP3   OH212362   2.972   5.221   5.679
 4133TIP3    H112363   2.904   5.252   5.619
 4133TIP3    H212364   2.934   5.144   5.721
 4134TIP3   OH212365   0.074   1.236   0.272
 4134TIP3    H112366   0.092   1.143   0.263
 4134TIP3    H212367   0.048   1.247   0.364
 4135TIP3   OH212368   6.226   5.874   2.497
 4135TIP3    H112369   6.212   5.802   2.436
 4135TIP3    H212370   6.315   5.905   2.478
 4136TIP3   OH212371   0.797   1.063   4.058
 4136TIP3    H112372   0.732   1.084   4.125
 4136TIP3    H212373   0.847   1.144   4.046
 4137TIP3   OH212374   6.061   4.629   3.998
 4137TIP3    H112375   6.080   4.612   3.906
 4137TIP3    H212376   6.052   4.724   4.003
 4138TIP3   OH212377   2.895   2.780   0.339
 4138TIP3    H112378   2.908   2.872   0.365
 4138TIP3    H212379   2.801   2.766   0.349
 4139TIP3   OH212380   4.814   1.388   4.171
 4139TIP3    H112381   4.777   1.419   4.088
 4139TIP3    H212382   4.738   1.380   4.229
 4140TIP3   OH212383   2.772   3.610   4.982
 4140TIP3    H112384   2.854   3.597   4.934
 4140TIP3    H212385   2.731   3.685   4.940
 4141TIP3   OH212386   1.169   1.092   3.113
 4141TIP3    H112387   1.157   1.045   3.030
 4141TIP3    H212388   1.147   1.027   3.180
 4142TIP3   OH212389   4.404   5.750   2.137
 4142TIP3    H112390   4.500   5.749   2.136
 4142TIP3    H212391   4.379   5.761   2.045
 4143TIP3   OH212392   5.590   1.952   1.987
 4143TIP3    H112393   5.515   1.917   1.941
 4143TIP3    H212394   5.664   1.899   1.956
 4144TIP3   OH212395   2.208   2.993   1.034
 4144TIP3    H112396   2.182   3.054   0.965
 4144TIP3    H212397   2.129   2.980   1.086
 4145TIP3   OH212398   0.101   3.090   0.058
 4145TIP3    H112399   0.075   2.999   0.075
 4145TIP3    H212400   0.025   3.142   0.084
 4146TIP3   OH212401   5.096   0.406   0.677
 4146TIP3    H112402   5.146   0.432   0.600
 4146TIP3    H212403   5.120   0.314   0.691
 4147TIP3   OH212404   5.992   3.392   1.668
 4147TIP3    H112405   6.056   3.337   1.712
 4147TIP3    H212406   5.992   3.474   1.718
 4148TIP3   OH212407   1.251   4.087   2.194
 4148TIP3    H112408   1.259   4.030   2.270
 4148TIP3    H212409   1.170   4.059   2.152
 4149TIP3   OH212410   5.804   4.552   1.269
 4149TIP3    H112411   5.818   4.637   1.312
 4149TIP3    H212412   5.829   4.566   1.178
 4150TIP3   OH212413   6.315   4.853   0.979
 4150TIP3    H112414   6.230   4.810   0.977
 4150TIP3    H212415   6.377   4.783   0.958
 4151TIP3   OH212416   5.423   5.102   2.090
 4151TIP3    H112417   5.517   5.099   2.107
 4151TIP3    H212418   5.383   5.065   2.169
 4152TIP3   OH212419   0.227   1.486   1.438
 4152TIP3    H112420   0.200   1.534   1.361
 4152TIP3    H212421   0.235   1.552   1.507
 4153TIP3   OH212422   3.333   3.346   2.056
 4153TIP3    H112423   3.243   3.379   2.050
 4153TIP3    H212424   3.371   3.394   2.129
 4154TIP3   OH212425   3.895   2.782   2.673
 4154TIP3    H112426   3.818   2.803   2.622
 4154TIP3    H212427   3.863   2.724   2.742
 4155TIP3   OH212428   4.573   1.041   3.749
 4155TIP3    H112429   4.534   1.128   3.741
 4155TIP3    H212430   4.549   0.996   3.667
 4156TIP3   OH212431   7.115   1.545   1.700
 4156TIP3    H112432   7.194   1.528   1.750
 4156TIP3    H212433   7.139   1.616   1.640
 4157TIP3   OH212434   6.878   3.305   3.654
 4157TIP3    H112435   6.923   3.386   3.675
 4157TIP3    H212436   6.942   3.236   3.673
 4158TIP3   OH212437   5.677   0.308   2.144
 4158TIP3    H112438   5.721   0.273   2.066
 4158TIP3    H212439   5.656   0.398   2.120
 4159TIP3   OH212440   1.992   1.280   3.196
 4159TIP3    H112441   1.959   1.306   3.283
 4159TIP3    H212442   2.007   1.363   3.151
 4160TIP3   OH212443   7.178   1.277   0.035
 4160TIP3    H112444   7.222   1.261   0.118
 4160TIP3    H212445   7.201   1.367   0.012
 4161TIP3   OH212446   5.537   5.492   1.870
 4161TIP3    H112447   5.626   5.524   1.852
 4161TIP3    H212448   5.536   5.477   1.965
 4162TIP3   OH212449   1.405   5.100   0.383
 4162TIP3    H112450   1.448   5.014   0.379
 4162TIP3    H212451   1.321   5.083   0.426
 4163TIP3   OH212452   4.795   2.173   4.728
 4163TIP3    H112453   4.846   2.135   4.657
 4163TIP3    H212454   4.757   2.253   4.691
 4164TIP3   OH212455   6.569   2.759   2.207
 4164TIP3    H112456   6.489   2.768   2.154
 4164TIP3    H212457   6.539   2.717   2.287
 4165TIP3   OH212458   5.278   0.916   5.581
 4165TIP3    H112459   5.358   0.964   5.560
 4165TIP3    H212460   5.309   0.835   5.622
 4166TIP3   OH212461   0.614   5.398   3.694
 4166TIP3    H112462   0.695   5.357   3.664
 4166TIP3    H212463   0.588   5.456   3.622
 4167TIP3   OH212464   1.745   5.570   3.118
 4167TIP3    H112465   1.704   5.511   3.181
 4167TIP3    H212466   1.835   5.580   3.150
 4168TIP3   OH212467   6.350   0.337   3.701
 4168TIP3    H112468   6.280   0.370   3.757
 4168TIP3    H212469   6.423   0.398   3.714
 4169TIP3   OH212470   1.468   2.853   4.329
 4169TIP3    H112471   1.521   2.773   4.329
 4169TIP3    H212472   1.384   2.825   4.365
 4170TIP3   OH212473   4.421   3.593   5.676
 4170TIP3    H112474   4.408   3.577   5.770
 4170TIP3    H212475   4.368   3.525   5.633
 4171TIP3   OH212476   3.944   4.524   1.442
 4171TIP3    H112477   3.950   4.553   1.351
 4171TIP3    H212478   4.019   4.564   1.485
 4172TIP3   OH212479   7.192   1.348   1.429
 4172TIP3    H112480   7.280   1.384   1.439
 4172TIP3    H212481   7.189   1.274   1.490
 4173TIP3   OH212482   2.078   2.323   1.202
 4173TIP3    H112483   2.091   2.266   1.277
 4173TIP3    H212484   2.019   2.274   1.144
 4174TIP3   OH212485   1.028   4.334   5.382
 4174TIP3    H112486   0.996   4.387   5.456
 4174TIP3    H212487   0.952   4.282   5.356
 4175TIP3   OH212488   6.443   1.364   0.271
 4175TIP3    H112489   6.525   1.335   0.232
 4175TIP3    H212490   6.376   1.337   0.208
 4176TIP3   OH212491   0.951   3.127   2.925
 4176TIP3    H112492   0.918   3.132   2.836
 4176TIP3    H212493   1.046   3.124   2.915
 4177TIP3   OH212494   3.360   4.824   5.854
 4177TIP3    H112495   3.405   4.745   5.822
 4177TIP3    H212496   3.376   4.889   5.785
 4178TIP3   OH212497   6.122   6.761   0.720
 4178TIP3    H112498   6.196   6.773   0.660
 4178TIP3    H212499   6.155   6.794   0.804
 4179TIP3   OH212500   6.448   1.550   4.418
 4179TIP3    H112501   6.467   1.584   4.505
 4179TIP3    H212502   6.525   1.498   4.394
 4180TIP3   OH212503   3.786   0.310   0.391
 4180TIP3    H112504   3.878   0.302   0.365
 4180TIP3    H212505   3.737   0.287   0.312
 4181TIP3   OH212506   2.311   5.216   3.450
 4181TIP3    H112507   2.370   5.162   3.398
 4181TIP3    H212508   2.277   5.157   3.517
 4182TIP3   OH212509   6.465   4.410   3.286
 4182TIP3    H112510   6.529   4.343   3.262
 4182TIP3    H212511   6.385   4.386   3.240
 4183TIP3   OH212512   5.586   2.164   1.255
 4183TIP3    H112513   5.498   2.169   1.292
 4183TIP3    H212514   5.611   2.256   1.243
 4184TIP3   OH212515   3.252   4.298   2.705
 4184TIP3    H112516   3.232   4.239   2.632
 4184TIP3    H212517   3.306   4.245   2.764
 4185TIP3   OH212518   5.912   5.695   0.604
 4185TIP3    H112519   5.877   5.613   0.571
 4185TIP3    H212520   5.841   5.734   0.653
 4186TIP3   OH212521   1.523   0.388   4.645
 4186TIP3    H112522   1.461   0.458   4.664
 4186TIP3    H212523   1.581   0.425   4.577
 4187TIP3   OH212524   6.357   5.508   5.792
 4187TIP3    H112525   6.328   5.544   5.708
 4187TIP3    H212526   6.451   5.494   5.780
 4188TIP3   OH212527   7.048   6.493   4.098
 4188TIP3    H112528   7.117   6.483   4.032
 4188TIP3    H212529   7.003   6.574   4.074
 4189TIP3   OH212530   6.465   3.933   0.749
 4189TIP3    H112531   6.398   3.866   0.761
 4189TIP3    H212532   6.480   3.969   0.837
 4190TIP3   OH212533   2.594   6.236   0.510
 4190TIP3    H112534   2.615   6.217   0.601
 4190TIP3    H212535   2.504   6.271   0.514
 4191TIP3   OH212536   3.558   3.241   0.657
 4191TIP3    H112537   3.485   3.232   0.718
 4191TIP3    H212538   3.615   3.307   0.697
 4192TIP3   OH212539   0.711   4.964   1.732
 4192TIP3    H112540   0.722   5.055   1.705
 4192TIP3    H212541   0.800   4.930   1.743
 4193TIP3   OH212542   3.329   3.692   4.879
 4193TIP3    H112543   3.346   3.637   4.802
 4193TIP3    H212544   3.295   3.774   4.843
 4194TIP3   OH212545   3.822   2.902   3.781
 4194TIP3    H112546   3.837   2.929   3.872
 4194TIP3    H212547   3.907   2.912   3.739
 4195TIP3   OH212548   1.558   3.308   3.727
 4195TIP3    H112549   1.518   3.383   3.770
 4195TIP3    H212550   1.652   3.323   3.736
 4196TIP3   OH212551   2.991   0.989   1.223
 4196TIP3    H112552   2.965   0.964   1.312
 4196TIP3    H212553   3.085   0.969   1.219
 4197TIP3   OH212554   7.119   5.167   3.533
 4197TIP3    H112555   7.052   5.137   3.472
 4197TIP3    H212556   7.073   5.225   3.593
 4198TIP3   OH212557   2.053   0.438   5.198
 4198TIP3    H112558   2.022   0.450   5.287
 4198TIP3    H212559   1.978   0.460   5.143
 4199TIP3   OH212560   7.028   1.190   1.939
 4199TIP3    H112561   7.109   1.173   1.987
 4199TIP3    H212562   6.976   1.111   1.951
 4200TIP3   OH212563   4.018   6.621   0.860
 4200TIP3    H112564   3.971   6.688   0.811
 4200TIP3    H212565   4.073   6.577   0.795
 4201TIP3   OH212566   4.022   5.540   2.515
 4201TIP3    H112567   4.114   5.539   2.489
 4201TIP3    H212568   3.974   5.535   2.432
 4202TIP3   OH212569   5.721   4.299   4.349
 4202TIP3    H112570   5.683   4.378   4.311
 4202TIP3    H212571   5.740   4.243   4.274
 4203TIP3   OH212572   5.630   2.400   1.911
 4203TIP3    H112573   5.550   2.360   1.877
 4203TIP3    H212574   5.600   2.477   1.959
 4204TIP3   OH212575   0.574   1.124   5.547
 4204TIP3    H112576   0.587   1.084   5.461
 4204TIP3    H212577   0.494   1.084   5.581
 4205TIP3   OH212578   3.796   1.588   1.239
 4205TIP3    H112579   3.859   1.633   1.295
 4205TIP3    H212580   3.851   1.530   1.185
 4206TIP3   OH212581   1.783   6.455   3.308
 4206TIP3    H112582   1.856   6.460   3.370
 4206TIP3    H212583   1.707   6.484   3.359
 4207TIP3   OH212584   0.725   4.915   5.884
 4207TIP3    H112585   0.710   4.834   5.835
 4207TIP3    H212586   0.818   4.910   5.908
 4208TIP3   OH212587   6.146   3.744   0.143
 4208TIP3    H112588   6.055   3.718   0.135
 4208TIP3    H212589   6.196   3.665   0.126
 4209TIP3   OH212590   1.717   1.538   1.519
 4209TIP3    H112591   1.749   1.628   1.514
 4209TIP3    H212592   1.795   1.487   1.542
 4210TIP3   OH212593   0.993   2.071   5.727
 4210TIP3    H112594   1.063   2.041   5.669
 4210TIP3    H212595   1.022   2.156   5.759
 4211TIP3   OH212596   1.538   0.697   1.926
 4211TIP3    H112597   1.562   0.704   2.018
 4211TIP3    H212598   1.618   0.667   1.882
 4212TIP3   OH212599   6.915   5.836   3.888
 4212TIP3    H112600   6.978   5.795   3.828
 4212TIP3    H212601   6.939   5.803   3.974
 4213TIP3   OH212602   3.704   3.621   2.641
 4213TIP3    H112603   3.725   3.655   2.728
 4213TIP3    H212604   3.678   3.530   2.656
 4214TIP3   OH212605   6.609   2.748   3.204
 4214TIP3    H112606   6.628   2.744   3.297
 4214TIP3    H212607   6.514   2.761   3.200
 4215TIP3   OH212608   6.979   0.210   5.186
 4215TIP3    H112609   6.961   0.123   5.149
 4215TIP3    H212610   7.074   0.218   5.184
 4216TIP3   OH212611   6.970   6.735   2.275
 4216TIP3    H112612   6.951   6.675   2.202
 4216TIP3    H212613   6.885   6.775   2.296
 4217TIP3   OH212614   1.272   1.073   0.580
 4217TIP3    H112615   1.200   1.089   0.640
 4217TIP3    H212616   1.326   1.152   0.585
 4218TIP3   OH212617   6.532   4.281   5.264
 4218TIP3    H112618   6.567   4.243   5.184
 4218TIP3    H212619   6.599   4.343   5.293
 4219TIP3   OH212620   5.164   5.859   3.527
 4219TIP3    H112621   5.203   5.944   3.508
 4219TIP3    H212622   5.173   5.850   3.622
 4220TIP3   OH212623   5.337   2.797   0.041
 4220TIP3    H112624   5.295   2.723  -0.003
 4220TIP3    H212625   5.429   2.774   0.045
 4221TIP3   OH212626   5.039   6.255   4.035
 4221TIP3    H112627   4.973   6.212   4.090
 4221TIP3    H212628   5.114   6.195   4.037
 4222TIP3   OH212629   5.374   5.520   3.773
 4222TIP3    H112630   5.417   5.551   3.853
 4222TIP3    H212631   5.352   5.429   3.792
 4223TIP3   OH212632  -0.004   6.185   5.144
 4223TIP3    H112633  -0.010   6.274   5.180
 4223TIP3    H212634   0.081   6.184   5.100
 4224TIP3   OH212635   1.438   0.082   2.541
 4224TIP3    H112636   1.463   0.154   2.599
 4224TIP3    H212637   1.419   0.125   2.457
 4225TIP3   OH212638   0.760   1.994   5.607
 4225TIP3    H112639   0.775   1.920   5.548
 4225TIP3    H212640   0.847   2.017   5.639
 4226TIP3   OH212641   0.775   2.755   5.793
 4226TIP3    H112642   0.831   2.702   5.849
 4226TIP3    H212643   0.718   2.802   5.855
 4227TIP3   OH212644   1.897   2.158   0.240
 4227TIP3    H112645   1.943   2.079   0.210
 4227TIP3    H212646   1.826   2.124   0.295
 4228TIP3   OH212647   4.066   3.914   3.396
 4228TIP3    H112648   4.035   3.991   3.444
 4228TIP3    H212649   4.069   3.943   3.305
 4229TIP3   OH212650   3.345   0.703   3.391
 4229TIP3    H112651   3.310   0.613   3.389
 4229TIP3    H212652   3.380   0.712   3.480
 4230TIP3   OH212653   2.353   0.611   2.980
 4230TIP3    H112654   2.318   0.685   3.029
 4230TIP3    H212655   2.277   0.572   2.937
 4231TIP3   OH212656   4.242   2.146   2.277
 4231TIP3    H112657   4.188   2.088   2.223
 4231TIP3    H212658   4.227   2.233   2.241
 4232TIP3   OH212659   3.045   1.505   0.738
 4232TIP3    H112660   3.027   1.416   0.768
 4232TIP3    H212661   3.107   1.494   0.666
 4233TIP3   OH212662   2.671   4.504   4.084
 4233TIP3    H112663   2.576   4.512   4.097
 4233TIP3    H212664   2.680   4.455   4.002
 4234TIP3   OH212665   1.875   0.302   1.461
 4234TIP3    H112666   1.951   0.360   1.470
 4234TIP3    H212667   1.804   0.359   1.432
 4235TIP3   OH212668   5.831   6.363   5.548
 4235TIP3    H112669   5.916   6.406   5.561
 4235TIP3    H212670   5.806   6.386   5.459
 4236TIP3   OH212671   1.094   4.174   0.174
 4236TIP3    H112672   1.162   4.219   0.223
 4236TIP3    H212673   1.082   4.227   0.095
 4237TIP3   OH212674   1.400   1.088   0.073
 4237TIP3    H112675   1.319   1.133   0.097
 4237TIP3    H212676   1.371   1.005   0.034
 4238TIP3   OH212677   2.930   5.753   3.867
 4238TIP3    H112678   2.913   5.829   3.811
 4238TIP3    H212679   2.921   5.786   3.956
 4239TIP3   OH212680   5.740   3.292   0.548
 4239TIP3    H112681   5.668   3.230   0.545
 4239TIP3    H212682   5.746   3.318   0.639
 4240TIP3   OH212683   6.251   4.240   3.920
 4240TIP3    H112684   6.257   4.145   3.926
 4240TIP3    H212685   6.235   4.257   3.827
 4241TIP3   OH212686   6.631   6.339   4.200
 4241TIP3    H112687   6.724   6.335   4.177
 4241TIP3    H212688   6.624   6.295   4.284
 4242TIP3   OH212689   3.868   4.628   1.817
 4242TIP3    H112690   3.814   4.688   1.869
 4242TIP3    H212691   3.812   4.554   1.798
 4243TIP3   OH212692   4.001   0.050   5.265
 4243TIP3    H112693   3.971   0.125   5.213
 4243TIP3    H212694   3.924  -0.006   5.271
 4244TIP3   OH212695   1.680   3.460   0.589
 4244TIP3    H112696   1.709   3.535   0.536
 4244TIP3    H212697   1.750   3.446   0.652
 4245TIP3   OH212698   6.455   3.336   0.345
 4245TIP3    H112699   6.482   3.250   0.315
 4245TIP3    H212700   6.456   3.329   0.441
 4246TIP3   OH212701   6.206   1.283   2.171
 4246TIP3    H112702   6.195   1.287   2.266
 4246TIP3    H212703   6.214   1.375   2.145
 4247TIP3   OH212704   0.899   2.636   4.478
 4247TIP3    H112705   0.922   2.699   4.409
 4247TIP3    H212706   0.819   2.595   4.447
 4248TIP3   OH212707   6.552   1.295   1.607
 4248TIP3    H112708   6.526   1.345   1.530
 4248TIP3    H212709   6.552   1.360   1.678
 4249TIP3   OH212710   0.975   6.299   5.215
 4249TIP3    H112711   1.007   6.299   5.305
 4249TIP3    H212712   1.048   6.334   5.163
 4250TIP3   OH212713   4.656   4.666   1.595
 4250TIP3    H112714   4.669   4.758   1.573
 4250TIP3    H212715   4.632   4.666   1.688
 4251TIP3   OH212716   2.796   1.610   4.955
 4251TIP3    H112717   2.753   1.682   5.001
 4251TIP3    H212718   2.889   1.621   4.974
 4252TIP3   OH212719   1.046   0.961   0.940
 4252TIP3    H112720   0.999   0.881   0.915
 4252TIP3    H212721   1.051   1.012   0.860
 4253TIP3   OH212722   7.129   1.832   2.744
 4253TIP3    H112723   7.096   1.782   2.669
 4253TIP3    H212724   7.128   1.770   2.817
 4254TIP3   OH212725   4.393   3.042   1.201
 4254TIP3    H112726   4.321   3.038   1.264
 4254TIP3    H212727   4.405   2.952   1.172
 4255TIP3   OH212728   4.590   6.084   4.649
 4255TIP3    H112729   4.624   5.995   4.656
 4255TIP3    H212730   4.559   6.106   4.737
 4256TIP3   OH212731   0.816   5.360   1.005
 4256TIP3    H112732   0.725   5.331   1.009
 4256TIP3    H212733   0.852   5.337   1.090
 4257TIP3   OH212734   2.573   0.039   0.578
 4257TIP3    H112735   2.640   0.049   0.645
 4257TIP3    H212736   2.572   0.124   0.533
 4258TIP3   OH212737   3.225   5.402   3.796
 4258TIP3    H112738   3.230   5.491   3.832
 4258TIP3    H212739   3.266   5.409   3.710
 4259TIP3   OH212740   2.732   2.562   0.475
 4259TIP3    H112741   2.666   2.607   0.422
 4259TIP3    H212742   2.762   2.629   0.537
 4260TIP3   OH212743   1.346   4.374   0.847
 4260TIP3    H112744   1.354   4.328   0.763
 4260TIP3    H212745   1.407   4.328   0.905
 4261TIP3   OH212746   3.885   1.862   4.584
 4261TIP3    H112747   3.975   1.887   4.562
 4261TIP3    H212748   3.882   1.768   4.566
 4262TIP3   OH212749   6.895   2.746   5.610
 4262TIP3    H112750   6.880   2.676   5.546
 4262TIP3    H212751   6.989   2.746   5.625
 4263TIP3   OH212752   4.907   5.192   3.522
 4263TIP3    H112753   4.875   5.194   3.612
 4263TIP3    H212754   4.828   5.198   3.468
 4264TIP3   OH212755   4.174   3.007   4.117
 4264TIP3    H112756   4.120   2.928   4.113
 4264TIP3    H212757   4.263   2.975   4.105
 4265TIP3   OH212758   6.893   5.917   2.310
 4265TIP3    H112759   6.932   5.830   2.304
 4265TIP3    H212760   6.917   5.959   2.227
 4266TIP3   OH212761   4.154   2.640   4.470
 4266TIP3    H112762   4.214   2.571   4.442
 4266TIP3    H212763   4.087   2.594   4.522
 4267TIP3   OH212764   6.059   3.989   4.872
 4267TIP3    H112765   6.103   3.956   4.794
 4267TIP3    H212766   5.970   4.010   4.843
 4268TIP3   OH212767   2.696   1.658   1.559
 4268TIP3    H112768   2.662   1.741   1.594
 4268TIP3    H212769   2.663   1.591   1.620
 4269TIP3   OH212770   0.390   2.733   2.466
 4269TIP3    H112771   0.418   2.773   2.548
 4269TIP3    H212772   0.462   2.749   2.406
 4270TIP3   OH212773   4.758   3.493   2.365
 4270TIP3    H112774   4.803   3.529   2.288
 4270TIP3    H212775   4.824   3.439   2.408
 4271TIP3   OH212776   0.250   6.105   5.046
 4271TIP3    H112777   0.337   6.141   5.031
 4271TIP3    H212778   0.264   6.035   5.110
 4272TIP3   OH212779   7.146   3.687   4.590
 4272TIP3    H112780   7.214   3.623   4.614
 4272TIP3    H212781   7.066   3.652   4.629
 4273TIP3   OH212782   6.975   2.342   3.198
 4273TIP3    H112783   6.922   2.343   3.119
 4273TIP3    H212784   7.026   2.423   3.194
 4274TIP3   OH212785   1.575   1.775   5.287
 4274TIP3    H112786   1.548   1.714   5.218
 4274TIP3    H212787   1.505   1.771   5.352
 4275TIP3   OH212788   3.905   3.708   3.115
 4275TIP3    H112789   3.863   3.768   3.177
 4275TIP3    H212790   3.927   3.631   3.168
 4276TIP3   OH212791   5.616   4.321   4.038
 4276TIP3    H112792   5.579   4.366   3.962
 4276TIP3    H212793   5.710   4.325   4.025
 4277TIP3   OH212794   1.357   5.653   1.190
 4277TIP3    H112795   1.372   5.657   1.096
 4277TIP3    H212796   1.270   5.613   1.199
 4278TIP3   OH212797   1.751   4.549   0.246
 4278TIP3    H112798   1.714   4.461   0.245
 4278TIP3    H212799   1.842   4.537   0.218
 4279TIP3   OH212800   2.693   5.217   4.434
 4279TIP3    H112801   2.747   5.268   4.494
 4279TIP3    H212802   2.713   5.126   4.454
 4280TIP3   OH212803   1.085   4.111   3.084
 4280TIP3    H112804   1.166   4.099   3.134
 4280TIP3    H212805   1.032   4.170   3.138
 4281TIP3   OH212806   1.879   0.765   4.950
 4281TIP3    H112807   1.867   0.678   4.989
 4281TIP3    H212808   1.893   0.823   5.025
 4282TIP3   OH212809   5.834   2.950   4.564
 4282TIP3    H112810   5.840   2.918   4.474
 4282TIP3    H212811   5.920   2.989   4.581
 4283TIP3   OH212812   0.640   1.056   3.796
 4283TIP3    H112813   0.660   1.137   3.749
 4283TIP3    H212814   0.692   1.061   3.876
 4284TIP3   OH212815   2.476   4.658   1.270
 4284TIP3    H112816   2.492   4.571   1.306
 4284TIP3    H212817   2.527   4.717   1.325
 4285TIP3   OH212818   3.890   1.316   4.934
 4285TIP3    H112819   3.811   1.263   4.940
 4285TIP3    H212820   3.902   1.330   4.840
 4286TIP3   OH212821   6.268   5.052   2.701
 4286TIP3    H112822   6.218   5.016   2.627
 4286TIP3    H212823   6.203   5.103   2.751
 4287TIP3   OH212824   4.892   5.239   2.240
 4287TIP3    H112825   4.833   5.236   2.164
 4287TIP3    H212826   4.843   5.196   2.310
 4288TIP3   OH212827   6.882   1.091   4.664
 4288TIP3    H112828   6.944   1.058   4.730
 4288TIP3    H212829   6.903   1.185   4.657
 4289TIP3   OH212830   4.827   3.627   0.977
 4289TIP3    H112831   4.735   3.650   0.993
 4289TIP3    H212832   4.825   3.533   0.961
 4290TIP3   OH212833   1.284   4.233   3.761
 4290TIP3    H112834   1.215   4.293   3.731
 4290TIP3    H212835   1.312   4.187   3.682
 4291TIP3   OH212836   5.421   0.362   1.176
 4291TIP3    H112837   5.380   0.283   1.139
 4291TIP3    H212838   5.490   0.384   1.113
 4292TIP3   OH212839   1.759   0.698   0.058
 4292TIP3    H112840   1.742   0.792   0.057
 4292TIP3    H212841   1.791   0.680   0.147
 4293TIP3   OH212842   3.299   2.253   0.040
 4293TIP3    H112843   3.263   2.300   0.116
 4293TIP3    H212844   3.290   2.161   0.064
 4294TIP3   OH212845   4.322   1.267   2.328
 4294TIP3    H112846   4.333   1.186   2.279
 4294TIP3    H212847   4.231   1.291   2.315
 4295TIP3   OH212848   2.222   1.056   4.596
 4295TIP3    H112849   2.273   1.067   4.515
 4295TIP3    H212850   2.219   0.961   4.610
 4296TIP3   OH212851   4.023   6.202   4.184
 4296TIP3    H112852   3.937   6.196   4.142
 4296TIP3    H212853   4.082   6.155   4.124
 4297TIP3   OH212854   4.866   2.400   5.799
 4297TIP3    H112855   4.774   2.407   5.774
 4297TIP3    H212856   4.902   2.487   5.781
 4298TIP3   OH212857   7.187   6.381   5.848
 4298TIP3    H112858   7.190   6.431   5.767
 4298TIP3    H212859   7.205   6.445   5.917
 4299TIP3   OH212860   5.382   5.210   3.672
 4299TIP3    H112861   5.458   5.238   3.620
 4299TIP3    H212862   5.307   5.245   3.624
 4300TIP3   OH212863   3.744   3.451   0.548
 4300TIP3    H112864   3.665   3.493   0.582
 4300TIP3    H212865   3.721   3.428   0.458
 4301TIP3   OH212866   6.149   2.264   2.653
 4301TIP3    H112867   6.214   2.333   2.662
 4301TIP3    H212868   6.066   2.310   2.643
 4302TIP3   OH212869   0.298   5.937   5.305
 4302TIP3    H112870   0.333   5.851   5.284
 4302TIP3    H212871   0.203   5.926   5.302
 4303TIP3   OH212872   0.574   1.975   0.257
 4303TIP3    H112873   0.605   1.901   0.309
 4303TIP3    H212874   0.514   2.021   0.315
 4304TIP3   OH212875   4.005   1.175   1.997
 4304TIP3    H112876   3.926   1.136   2.034
 4304TIP3    H212877   3.974   1.252   1.950
 4305TIP3   OH212878   6.392   5.641   2.123
 4305TIP3    H112879   6.414   5.733   2.107
 4305TIP3    H212880   6.338   5.616   2.049
 4306TIP3   OH212881   4.395   1.398   1.310
 4306TIP3    H112882   4.478   1.369   1.347
 4306TIP3    H212883   4.401   1.494   1.309
 4307TIP3   OH212884   3.264   6.567   0.125
 4307TIP3    H112885   3.297   6.533   0.042
 4307TIP3    H212886   3.329   6.631   0.153
 4308TIP3   OH212887   3.144   6.687   4.028
 4308TIP3    H112888   3.190   6.713   3.947
 4308TIP3    H212889   3.065   6.741   4.029
 4309TIP3   OH212890   3.764   5.818   4.063
 4309TIP3    H112891   3.764   5.723   4.056
 4309TIP3    H212892   3.809   5.836   4.145
 4310TIP3   OH212893   0.894   3.858   3.865
 4310TIP3    H112894   0.821   3.920   3.872
 4310TIP3    H212895   0.959   3.903   3.812
 4311TIP3   OH212896   1.354   0.977   3.763
 4311TIP3    H112897   1.326   0.920   3.835
 4311TIP3    H212898   1.328   1.065   3.792
 4312TIP3   OH212899   6.409   6.684   5.430
 4312TIP3    H112900   6.467   6.681   5.506
 4312TIP3    H212901   6.401   6.593   5.402
 4313TIP3   OH212902   1.626   2.298   5.083
 4313TIP3    H112903   1.621   2.355   5.007
 4313TIP3    H212904   1.669   2.218   5.050
 4314TIP3   OH212905   1.566   3.093   5.867
 4314TIP3    H112906   1.530   3.032   5.802
 4314TIP3    H212907   1.660   3.095   5.848
 4315TIP3   OH212908   3.639   1.752   2.537
 4315TIP3    H112909   3.552   1.723   2.565
 4315TIP3    H212910   3.658   1.701   2.459
 4316TIP3   OH212911   1.107   4.727   2.523
 4316TIP3    H112912   1.122   4.780   2.445
 4316TIP3    H212913   1.173   4.657   2.518
 4317TIP3   OH212914   6.393   4.609   2.049
 4317TIP3    H112915   6.349   4.606   2.134
 4317TIP3    H212916   6.398   4.702   2.028
 4318TIP3   OH212917   0.323   1.958   4.402
 4318TIP3    H112918   0.355   2.044   4.376
 4318TIP3    H212919   0.234   1.974   4.434
 4319TIP3   OH212920   1.509   6.125   4.725
 4319TIP3    H112921   1.429   6.098   4.680
 4319TIP3    H212922   1.561   6.045   4.733
 4320TIP3   OH212923   4.817   6.152   1.625
 4320TIP3    H112924   4.776   6.112   1.702
 4320TIP3    H212925   4.894   6.197   1.660
 4321TIP3   OH212926   3.127   2.517   2.869
 4321TIP3    H112927   3.214   2.480   2.854
 4321TIP3    H212928   3.100   2.550   2.783
 4322TIP3   OH212929   3.942   3.673   1.426
 4322TIP3    H112930   3.979   3.746   1.476
 4322TIP3    H212931   3.858   3.706   1.395
 4323TIP3   OH212932   1.849   0.023   3.900
 4323TIP3    H112933   1.844   0.040   3.806
 4323TIP3    H212934   1.832   0.108   3.941
 4324TIP3   OH212935   4.554   5.610   0.632
 4324TIP3    H112936   4.609   5.552   0.685
 4324TIP3    H212937   4.599   5.694   0.634
 4325TIP3   OH212938   5.603   5.070   2.486
 4325TIP3    H112939   5.564   5.090   2.572
 4325TIP3    H212940   5.546   5.003   2.449
 4326TIP3   OH212941   1.036   0.793   4.932
 4326TIP3    H112942   1.117   0.843   4.922
 4326TIP3    H212943   1.001   0.786   4.843
 4327TIP3   OH212944   2.367   4.732   2.802
 4327TIP3    H112945   2.330   4.792   2.737
 4327TIP3    H212946   2.439   4.780   2.841
 4328TIP3   OH212947   6.425   5.288   3.188
 4328TIP3    H112948   6.436   5.269   3.095
 4328TIP3    H212949   6.506   5.258   3.229
 4329TIP3   OH212950   0.788   0.945   3.498
 4329TIP3    H112951   0.815   0.862   3.539
 4329TIP3    H212952   0.836   1.012   3.545
 4330TIP3   OH212953   0.398   3.819   2.868
 4330TIP3    H112954   0.484   3.802   2.906
 4330TIP3    H212955   0.389   3.755   2.798
 4331TIP3   OH212956   2.806   0.183   4.901
 4331TIP3    H112957   2.862   0.254   4.867
 4331TIP3    H212958   2.726   0.188   4.848
 4332TIP3   OH212959   3.769   2.891   3.258
 4332TIP3    H112960   3.827   2.816   3.244
 4332TIP3    H212961   3.685   2.863   3.221
 4333TIP3   OH212962   3.381   2.256   4.632
 4333TIP3    H112963   3.436   2.218   4.701
 4333TIP3    H212964   3.334   2.181   4.595
 4334TIP3   OH212965   1.797   4.676   4.943
 4334TIP3    H112966   1.720   4.721   4.978
 4334TIP3    H212967   1.793   4.588   4.981
 4335TIP3   OH212968   1.039   3.943   3.603
 4335TIP3    H112969   1.071   3.992   3.527
 4335TIP3    H212970   0.967   3.996   3.637
 4336TIP3   OH212971   2.294   0.369   0.694
 4336TIP3    H112972   2.296   0.275   0.673
 4336TIP3    H212973   2.317   0.373   0.787
 4337TIP3   OH212974   3.939   1.871   5.825
 4337TIP3    H112975   3.935   1.783   5.861
 4337TIP3    H212976   3.865   1.917   5.863
 4338TIP3   OH212977   4.143   0.807   0.442
 4338TIP3    H112978   4.207   0.858   0.490
 4338TIP3    H212979   4.178   0.718   0.442
 4339TIP3   OH212980   4.676   4.636   3.078
 4339TIP3    H112981   4.630   4.720   3.077
 4339TIP3    H212982   4.673   4.607   2.987
 4340TIP3   OH212983   0.903   5.046   4.877
 4340TIP3    H112984   0.847   5.097   4.935
 4340TIP3    H212985   0.903   4.958   4.915
 4341TIP3   OH212986   4.088   0.901   2.547
 4341TIP3    H112987   4.133   0.984   2.562
 4341TIP3    H212988   4.057   0.907   2.456
 4342TIP3   OH212989   6.842   6.123   4.542
 4342TIP3    H112990   6.800   6.102   4.458
 4342TIP3    H212991   6.931   6.150   4.518
 4343TIP3   OH212992   0.467   0.839   0.665
 4343TIP3    H112993   0.434   0.908   0.608
 4343TIP3    H212994   0.540   0.801   0.616
 4344TIP3   OH212995   4.247   2.177   4.706
 4344TIP3    H112996   4.222   2.088   4.679
 4344TIP3    H212997   4.327   2.165   4.757
 4345TIP3   OH212998   5.779   3.274   2.283
 4345TIP3    H112999   5.697   3.234   2.254
 4345TIP3    H213000   5.796   3.343   2.218
 4346TIP3   OH213001   0.885   0.740   5.601
 4346TIP3    H113002   0.912   0.776   5.516
 4346TIP3    H213003   0.879   0.817   5.658
 4347TIP3   OH213004   6.033   1.667   3.998
 4347TIP3    H113005   6.106   1.625   3.953
 4347TIP3    H213006   6.045   1.761   3.981
 4348TIP3   OH213007   6.931   5.204   1.938
 4348TIP3    H113008   6.939   5.180   1.846
 4348TIP3    H213009   6.984   5.283   1.947
 4349TIP3   OH213010   5.527   1.588   1.764
 4349TIP3    H113011   5.513   1.495   1.781
 4349TIP3    H213012   5.614   1.592   1.725
 4350TIP3   OH213013   1.036   6.371   4.715
 4350TIP3    H113014   0.966   6.430   4.744
 4350TIP3    H213015   0.990   6.291   4.690
 4351TIP3   OH213016   3.457   2.594   3.469
 4351TIP3    H113017   3.402   2.665   3.502
 4351TIP3    H213018   3.506   2.633   3.397
 4352TIP3   OH213019   4.598   6.010   0.786
 4352TIP3    H113020   4.647   6.090   0.807
 4352TIP3    H213021   4.619   5.949   0.857
 4353TIP3   OH213022   4.492   0.881   5.515
 4353TIP3    H113023   4.443   0.835   5.582
 4353TIP3    H213024   4.472   0.974   5.530
 4354TIP3   OH213025   5.410   0.134   2.424
 4354TIP3    H113026   5.371   0.050   2.447
 4354TIP3    H213027   5.504   0.119   2.427
 4355TIP3   OH213028  -0.018   4.627   1.090
 4355TIP3    H113029  -0.007   4.535   1.065
 4355TIP3    H213030   0.071   4.662   1.088
 4356TIP3   OH213031   4.959   3.009   2.182
 4356TIP3    H113032   4.912   2.938   2.225
 4356TIP3    H213033   5.035   2.967   2.142
 4357TIP3   OH213034   5.728   1.383   4.525
 4357TIP3    H113035   5.797   1.415   4.467
 4357TIP3    H213036   5.774   1.350   4.602
 4358TIP3   OH213037   1.477   0.850   5.759
 4358TIP3    H113038   1.508   0.867   5.848
 4358TIP3    H213039   1.413   0.919   5.742
 4359TIP3   OH213040   0.392   3.354   5.283
 4359TIP3    H113041   0.368   3.291   5.351
 4359TIP3    H213042   0.317   3.354   5.224
 4360TIP3   OH213043   1.597   4.238   0.878
 4360TIP3    H113044   1.687   4.267   0.894
 4360TIP3    H213045   1.602   4.142   0.878
 4361TIP3   OH213046   6.834   3.629   5.633
 4361TIP3    H113047   6.770   3.587   5.691
 4361TIP3    H213048   6.780   3.672   5.566
 4362TIP3   OH213049   3.714   3.450   1.251
 4362TIP3    H113050   3.694   3.391   1.178
 4362TIP3    H213051   3.807   3.470   1.240
 4363TIP3   OH213052   2.220   1.435   1.814
 4363TIP3    H113053   2.190   1.344   1.823
 4363TIP3    H213054   2.297   1.440   1.870
 4364TIP3   OH213055   4.229   3.248   5.299
 4364TIP3    H113056   4.170   3.298   5.242
 4364TIP3    H213057   4.309   3.237   5.248
 4365TIP3   OH213058   6.348   5.788   4.636
 4365TIP3    H113059   6.295   5.760   4.561
 4365TIP3    H213060   6.365   5.707   4.684
 4366TIP3   OH213061   4.580   6.738   4.753
 4366TIP3    H113062   4.662   6.733   4.704
 4366TIP3    H213063   4.537   6.816   4.718
 4367TIP3   OH213064   1.564   3.287   2.759
 4367TIP3    H113065   1.546   3.347   2.686
 4367TIP3    H213066   1.514   3.209   2.738
 4368TIP3   OH213067   4.814   0.590   0.550
 4368TIP3    H113068   4.800   0.676   0.589
 4368TIP3    H213069   4.884   0.551   0.603
 4369TIP3   OH213070   1.722   4.983   0.084
 4369TIP3    H113071   1.701   4.905   0.134
 4369TIP3    H213072   1.686   5.055   0.136
 4370TIP3   OH213073   5.189   5.363   5.106
 4370TIP3    H113074   5.263   5.393   5.159
 4370TIP3    H213075   5.139   5.443   5.089
 4371TIP3   OH213076   5.540   4.111   5.819
 4371TIP3    H113077   5.588   4.110   5.902
 4371TIP3    H213078   5.606   4.087   5.754
 4372TIP3   OH213079   4.559   6.453   2.921
 4372TIP3    H113080   4.546   6.534   2.970
 4372TIP3    H213081   4.653   6.436   2.928
 4373TIP3   OH213082   1.891   0.708   5.403
 4373TIP3    H113083   1.895   0.735   5.495
 4373TIP3    H213084   1.804   0.672   5.392
 4374TIP3   OH213085   5.190   1.837   2.687
 4374TIP3    H113086   5.217   1.924   2.716
 4374TIP3    H213087   5.255   1.811   2.622
 4375TIP3   OH213088   0.593   3.692   3.251
 4375TIP3    H113089   0.670   3.714   3.303
 4375TIP3    H213090   0.571   3.603   3.276
 4376TIP3   OH213091   5.331   0.988   1.812
 4376TIP3    H113092   5.278   0.996   1.891
 4376TIP3    H213093   5.402   1.051   1.824
 4377TIP3   OH213094   2.331   4.927   5.296
 4377TIP3    H113095   2.329   4.833   5.282
 4377TIP3    H213096   2.240   4.954   5.296
 4378TIP3   OH213097   4.969   2.726   2.593
 4378TIP3    H113098   4.952   2.749   2.502
 4378TIP3    H213099   4.887   2.745   2.638
 4379TIP3   OH213100   7.080   6.103   0.102
 4379TIP3    H113101   7.108   6.192   0.081
 4379TIP3    H213102   7.159   6.061   0.135
 4380TIP3   OH213103   6.401   2.989   3.094
 4380TIP3    H113104   6.354   3.070   3.072
 4380TIP3    H213105   6.419   2.948   3.010
 4381TIP3   OH213106   3.391   2.476   2.815
 4381TIP3    H113107   3.438   2.546   2.771
 4381TIP3    H213108   3.454   2.404   2.821
 4382TIP3   OH213109   6.306   5.227   4.197
 4382TIP3    H113110   6.242   5.279   4.147
 4382TIP3    H213111   6.338   5.287   4.264
 4383TIP3   OH213112   3.797   4.299   0.896
 4383TIP3    H113113   3.719   4.306   0.842
 4383TIP3    H213114   3.771   4.242   0.969
 4384TIP3   OH213115   4.982   1.396   2.338
 4384TIP3    H113116   4.979   1.413   2.433
 4384TIP3    H213117   4.960   1.480   2.298
 4385TIP3   OH213118   1.370   3.469   3.908
 4385TIP3    H113119   1.425   3.525   3.962
 4385TIP3    H213120   1.392   3.493   3.818
 4386TIP3   OH213121   5.520   0.781   4.881
 4386TIP3    H113122   5.442   0.726   4.883
 4386TIP3    H213123   5.581   0.739   4.942
 4387TIP3   OH213124   0.368   5.521   2.845
 4387TIP3    H113125   0.456   5.531   2.881
 4387TIP3    H213126   0.311   5.516   2.922
 4388TIP3   OH213127   0.512   5.690   4.673
 4388TIP3    H113128   0.489   5.598   4.661
 4388TIP3    H213129   0.475   5.713   4.758
 4389TIP3   OH213130   5.931   2.244   1.204
 4389TIP3    H113131   5.984   2.199   1.138
 4389TIP3    H213132   5.922   2.333   1.171
 4390TIP3   OH213133   5.697   2.447   0.856
 4390TIP3    H113134   5.720   2.356   0.835
 4390TIP3    H213135   5.761   2.473   0.922
 4391TIP3   OH213136   5.839   0.631   4.081
 4391TIP3    H113137   5.927   0.662   4.062
 4391TIP3    H213138   5.825   0.558   4.020
 4392TIP3   OH213139   3.858   3.807   5.530
 4392TIP3    H113140   3.883   3.816   5.438
 4392TIP3    H213141   3.852   3.713   5.544
 4393TIP3   OH213142   4.912   3.488   1.272
 4393TIP3    H113143   4.945   3.435   1.200
 4393TIP3    H213144   4.983   3.490   1.335
 4394TIP3   OH213145   4.993   3.927   4.944
 4394TIP3    H113146   5.019   3.865   4.875
 4394TIP3    H213147   4.907   3.897   4.972
 4395TIP3   OH213148   0.795   4.344   4.796
 4395TIP3    H113149   0.812   4.430   4.758
 4395TIP3    H213150   0.718   4.312   4.748
 4396TIP3   OH213151   1.721   5.457   1.415
 4396TIP3    H113152   1.630   5.429   1.418
 4396TIP3    H213153   1.718   5.551   1.434
 4397TIP3   OH213154   1.869   4.240   0.752
 4397TIP3    H113155   1.852   4.151   0.722
 4397TIP3    H213156   1.958   4.236   0.788
 4398TIP3   OH213157   1.276   6.010   4.630
 4398TIP3    H113158   1.240   6.031   4.544
 4398TIP3    H213159   1.318   5.925   4.618
 4399TIP3   OH213160   0.510   2.322   3.744
 4399TIP3    H113161   0.435   2.262   3.745
 4399TIP3    H213162   0.558   2.298   3.665
 4400TIP3   OH213163   2.321   3.597   5.030
 4400TIP3    H113164   2.348   3.626   4.942
 4400TIP3    H213165   2.358   3.509   5.039
 4401TIP3   OH213166   5.505   4.629   2.694
 4401TIP3    H113167   5.460   4.548   2.719
 4401TIP3    H213168   5.452   4.666   2.624
 4402TIP3   OH213169   3.210   0.635   2.605
 4402TIP3    H113170   3.189   0.543   2.618
 4402TIP3    H213171   3.189   0.652   2.513
 4403TIP3   OH213172   1.867   5.512   5.756
 4403TIP3    H113173   1.816   5.431   5.760
 4403TIP3    H213174   1.934   5.501   5.824
 4404TIP3   OH213175   5.754   0.615   4.977
 4404TIP3    H113176   5.804   0.599   5.057
 4404TIP3    H213177   5.787   0.550   4.914
 4405TIP3   OH213178   1.773   4.472   1.886
 4405TIP3    H113179   1.845   4.534   1.869
 4405TIP3    H213180   1.783   4.449   1.978
 4406TIP3   OH213181   2.133   1.221   1.510
 4406TIP3    H113182   2.157   1.307   1.475
 4406TIP3    H213183   2.173   1.158   1.450
 4407TIP3   OH213184   6.832   1.945   2.522
 4407TIP3    H113185   6.906   1.919   2.467
 4407TIP3    H213186   6.849   2.036   2.544
 4408TIP3   OH213187   4.444   1.814   0.515
 4408TIP3    H113188   4.467   1.900   0.550
 4408TIP3    H213189   4.498   1.753   0.564
 4409TIP3   OH213190   5.954   5.238   5.307
 4409TIP3    H113191   5.869   5.209   5.276
 4409TIP3    H213192   5.985   5.167   5.364
 4410TIP3   OH213193   0.670   0.448   4.481
 4410TIP3    H113194   0.635   0.537   4.475
 4410TIP3    H213195   0.594   0.394   4.503
 4411TIP3   OH213196   2.607   0.584   1.091
 4411TIP3    H113197   2.605   0.677   1.114
 4411TIP3    H213198   2.698   0.558   1.101
 4412TIP3   OH213199   7.138   3.892   5.458
 4412TIP3    H113200   7.209   3.841   5.418
 4412TIP3    H213201   7.068   3.891   5.393
 4413TIP3   OH213202   4.216   4.289   2.667
 4413TIP3    H113203   4.124   4.314   2.653
 4413TIP3    H213204   4.224   4.280   2.762
 4414TIP3   OH213205   4.563   1.871   5.464
 4414TIP3    H113206   4.509   1.882   5.543
 4414TIP3    H213207   4.512   1.813   5.408
 4415TIP3   OH213208   2.882   3.605   3.346
 4415TIP3    H113209   2.865   3.659   3.269
 4415TIP3    H213210   2.800   3.608   3.397
 4416TIP3   OH213211   0.169   4.140   4.307
 4416TIP3    H113212   0.252   4.094   4.294
 4416TIP3    H213213   0.170   4.164   4.400
 4417TIP3   OH213214   5.882   3.900   3.781
 4417TIP3    H113215   5.796   3.859   3.777
 4417TIP3    H213216   5.942   3.835   3.746
 4418TIP3   OH213217   0.980   4.384   3.487
 4418TIP3    H113218   0.969   4.466   3.440
 4418TIP3    H213219   0.958   4.405   3.578
 4419TIP3   OH213220   0.855   5.001   3.970
 4419TIP3    H113221   0.938   5.048   3.974
 4419TIP3    H213222   0.872   4.929   3.909
 4420TIP3   OH213223   3.302   1.556   5.776
 4420TIP3    H113224   3.229   1.596   5.822
 4420TIP3    H213225   3.360   1.629   5.755
 4421TIP3   OH213226   1.194   3.663   4.909
 4421TIP3    H113227   1.142   3.651   4.830
 4421TIP3    H213228   1.191   3.579   4.953
 4422TIP3   OH213229   2.809   2.720   0.664
 4422TIP3    H113230   2.893   2.745   0.702
 4422TIP3    H213231   2.746   2.782   0.702
 4423TIP3   OH213232   0.525   2.612   3.536
 4423TIP3    H113233   0.615   2.624   3.568
 4423TIP3    H213234   0.492   2.538   3.586
 4424TIP3   OH213235   0.180   1.652   0.964
 4424TIP3    H113236   0.256   1.707   0.980
 4424TIP3    H213237   0.106   1.705   0.995
 4425TIP3   OH213238   4.420   2.199   3.194
 4425TIP3    H113239   4.366   2.256   3.248
 4425TIP3    H213240   4.363   2.173   3.122
 4426TIP3   OH213241   0.659   3.145   3.237
 4426TIP3    H113242   0.634   3.067   3.286
 4426TIP3    H213243   0.625   3.129   3.148
 4427TIP3   OH213244   1.577   1.331   1.627
 4427TIP3    H113245   1.602   1.419   1.599
 4427TIP3    H213246   1.522   1.344   1.703
 4428TIP3   OH213247   5.346   5.339   0.054
 4428TIP3    H113248   5.383   5.426   0.068
 4428TIP3    H213249   5.271   5.335   0.114
 4429TIP3   OH213250   3.174   5.323   5.128
 4429TIP3    H113251   3.255   5.275   5.146
 4429TIP3    H213252   3.128   5.270   5.064
 4430TIP3   OH213253   0.086   2.260   2.721
 4430TIP3    H113254   0.019   2.328   2.730
 4430TIP3    H213255   0.061   2.194   2.786
 4431TIP3   OH213256   5.661   4.955   4.680
 4431TIP3    H113257   5.627   5.007   4.607
 4431TIP3    H213258   5.670   4.866   4.644
 4432TIP3   OH213259   1.129   0.252   2.612
 4432TIP3    H113260   1.151   0.276   2.522
 4432TIP3    H213261   1.052   0.196   2.604
 4433TIP3   OH213262   1.555   6.402   4.136
 4433TIP3    H113263   1.520   6.491   4.136
 4433TIP3    H213264   1.502   6.355   4.199
 4434TIP3   OH213265   6.811   1.370   5.236
 4434TIP3    H113266   6.835   1.313   5.163
 4434TIP3    H213267   6.717   1.382   5.228
 4435TIP3   OH213268   7.065   6.616   5.048
 4435TIP3    H113269   7.137   6.651   4.994
 4435TIP3    H213270   6.990   6.616   4.989
 4436TIP3   OH213271   3.854   0.888   0.577
 4436TIP3    H113272   3.806   0.965   0.549
 4436TIP3    H213273   3.862   0.834   0.498
 4437TIP3   OH213274   2.344   1.851   4.671
 4437TIP3    H113275   2.409   1.786   4.645
 4437TIP3    H213276   2.390   1.910   4.731
 4438TIP3   OH213277   6.428   1.614   4.096
 4438TIP3    H113278   6.365   1.614   4.025
 4438TIP3    H213279   6.380   1.576   4.170
 4439TIP3   OH213280   7.002   2.401   2.154
 4439TIP3    H113281   7.015   2.445   2.238
 4439TIP3    H213282   7.022   2.468   2.088
 4440TIP3   OH213283   4.082   5.457   4.695
 4440TIP3    H113284   4.028   5.380   4.714
 4440TIP3    H213285   4.020   5.525   4.670
 4441TIP3   OH213286   4.858   3.908   1.507
 4441TIP3    H113287   4.827   3.991   1.472
 4441TIP3    H213288   4.929   3.931   1.567
 4442TIP3   OH213289   5.916   6.133   3.707
 4442TIP3    H113290   5.889   6.187   3.780
 4442TIP3    H213291   6.011   6.131   3.712
 4443TIP3   OH213292   3.029   5.525   2.627
 4443TIP3    H113293   3.028   5.620   2.619
 4443TIP3    H213294   2.959   5.495   2.569
 4444TIP3   OH213295   6.387   3.237   3.419
 4444TIP3    H113296   6.455   3.183   3.461
 4444TIP3    H213297   6.429   3.271   3.340
 4445TIP3   OH213298   3.407   6.720   2.518
 4445TIP3    H113299   3.348   6.746   2.588
 4445TIP3    H213300   3.411   6.796   2.460
 4446TIP3   OH213301   5.724   4.326   1.637
 4446TIP3    H113302   5.634   4.353   1.621
 4446TIP3    H213303   5.755   4.385   1.705
 4447TIP3   OH213304   0.336   3.710   2.043
 4447TIP3    H113305   0.342   3.797   2.004
 4447TIP3    H213306   0.246   3.682   2.027
 4448TIP3   OH213307   3.080   3.602   2.121
 4448TIP3    H113308   3.090   3.622   2.214
 4448TIP3    H213309   3.002   3.650   2.094
 4449TIP3   OH213310   6.820   2.153   3.728
 4449TIP3    H113311   6.871   2.172   3.650
 4449TIP3    H213312   6.831   2.059   3.742
 4450TIP3   OH213313   1.506   4.892   2.333
 4450TIP3    H113314   1.453   4.908   2.411
 4450TIP3    H213315   1.505   4.975   2.286
 4451TIP3   OH213316   4.834   1.575   2.114
 4451TIP3    H113317   4.881   1.645   2.159
 4451TIP3    H213318   4.741   1.596   2.125
 4452TIP3   OH213319   6.820   3.379   2.438
 4452TIP3    H113320   6.779   3.336   2.362
 4452TIP3    H213321   6.898   3.421   2.402
 4453TIP3   OH213322   5.476   2.513   0.988
 4453TIP3    H113323   5.549   2.490   0.930
 4453TIP3    H213324   5.499   2.473   1.072
 4454TIP3   OH213325   6.502   4.451   1.839
 4454TIP3    H113326   6.479   4.491   1.923
 4454TIP3    H213327   6.442   4.490   1.776
 4455TIP3   OH213328   7.202   5.333   4.079
 4455TIP3    H113329   7.251   5.260   4.040
 4455TIP3    H213330   7.110   5.309   4.068
 4456TIP3   OH213331   7.108  -0.024   5.664
 4456TIP3    H113332   7.112   0.058   5.712
 4456TIP3    H213333   7.018  -0.027   5.630
 4457TIP3   OH213334   5.270   6.507   3.116
 4457TIP3    H113335   5.187   6.554   3.110
 4457TIP3    H213336   5.309   6.538   3.198
 4458TIP3   OH213337   0.277   1.947   2.777
 4458TIP3    H113338   0.342   2.018   2.775
 4458TIP3    H213339   0.198   1.988   2.813
 4459TIP3   OH213340   2.578   3.785   5.792
 4459TIP3    H113341   2.649   3.748   5.740
 4459TIP3    H213342   2.529   3.840   5.732
 4460TIP3   OH213343   6.703   3.515   5.845
 4460TIP3    H113344   6.686   3.424   5.869
 4460TIP3    H213345   6.628   3.564   5.879
 4461TIP3   OH213346   0.559   2.840   0.914
 4461TIP3    H113347   0.638   2.790   0.895
 4461TIP3    H213348   0.591   2.916   0.963
 4462TIP3   OH213349   4.223   1.948   0.161
 4462TIP3    H113350   4.263   2.029   0.128
 4462TIP3    H213351   4.175   1.913   0.086
 4463TIP3   OH213352   6.993   3.656   0.845
 4463TIP3    H113353   6.929   3.584   0.841
 4463TIP3    H213354   7.073   3.614   0.876
 4464TIP3   OH213355   7.082   2.176   1.520
 4464TIP3    H113356   7.006   2.229   1.496
 4464TIP3    H213357   7.051   2.120   1.591
 4465TIP3   OH213358   4.310   5.116   4.286
 4465TIP3    H113359   4.282   5.026   4.300
 4465TIP3    H213360   4.243   5.169   4.329
 4466TIP3   OH213361   6.855   3.851   1.005
 4466TIP3    H113362   6.763   3.844   0.983
 4466TIP3    H213363   6.899   3.791   0.945
 4467TIP3   OH213364   1.273   1.189   2.359
 4467TIP3    H113365   1.328   1.151   2.291
 4467TIP3    H213366   1.184   1.182   2.325
 4468TIP3   OH213367   3.364   4.371   3.723
 4468TIP3    H113368   3.447   4.416   3.739
 4468TIP3    H213369   3.316   4.379   3.805
 4469TIP3   OH213370   1.789   2.349   5.325
 4469TIP3    H113371   1.808   2.291   5.399
 4469TIP3    H213372   1.744   2.293   5.262
 4470TIP3   OH213373   3.195   2.594   4.525
 4470TIP3    H113374   3.136   2.651   4.475
 4470TIP3    H213375   3.177   2.616   4.617
 4471TIP3   OH213376   0.386   0.784   2.699
 4471TIP3    H113377   0.387   0.722   2.626
 4471TIP3    H213378   0.441   0.857   2.669
 4472TIP3   OH213379   6.024   1.924   2.515
 4472TIP3    H113380   6.089   1.993   2.498
 4472TIP3    H213381   5.995   1.941   2.605
 4473TIP3   OH213382   3.690   0.479   1.749
 4473TIP3    H113383   3.611   0.490   1.697
 4473TIP3    H213384   3.676   0.398   1.798
 4474TIP3   OH213385   2.195   1.867   3.395
 4474TIP3    H113386   2.242   1.948   3.416
 4474TIP3    H213387   2.231   1.840   3.310
 4475TIP3   OH213388   0.939   5.317   2.020
 4475TIP3    H113389   0.975   5.404   2.036
 4475TIP3    H213390   1.016   5.264   1.995
 4476TIP3   OH213391   5.646   0.110   0.870
 4476TIP3    H113392   5.633   0.101   0.965
 4476TIP3    H213393   5.719   0.052   0.850
 4477TIP3   OH213394   5.342   5.079   5.301
 4477TIP3    H113395   5.436   5.076   5.320
 4477TIP3    H213396   5.300   5.071   5.386
 4478TIP3   OH213397   4.617   3.178   3.186
 4478TIP3    H113398   4.702   3.189   3.227
 4478TIP3    H213399   4.627   3.218   3.099
 4479TIP3   OH213400   6.913   4.761   5.171
 4479TIP3    H113401   6.974   4.724   5.235
 4479TIP3    H213402   6.963   4.762   5.089
 4480TIP3   OH213403   5.453   1.784   5.685
 4480TIP3    H113404   5.469   1.870   5.649
 4480TIP3    H213405   5.359   1.769   5.672
 4481TIP3   OH213406   1.374   6.149   3.910
 4481TIP3    H113407   1.343   6.180   3.995
 4481TIP3    H213408   1.469   6.141   3.920
 4482TIP3   OH213409   7.159   2.446   1.104
 4482TIP3    H113410   7.192   2.462   1.192
 4482TIP3    H213411   7.110   2.364   1.110
 4483TIP3   OH213412   7.102   1.459   5.831
 4483TIP3    H113413   7.100   1.493   5.742
 4483TIP3    H213414   7.179   1.402   5.833
 4484TIP3   OH213415   6.957   4.105   1.065
 4484TIP3    H113416   6.980   4.109   0.972
 4484TIP3    H213417   6.904   4.026   1.073
 4485TIP3   OH213418   3.825   3.300   5.383
 4485TIP3    H113419   3.745   3.248   5.380
 4485TIP3    H213420   3.865   3.289   5.296
 4486TIP3   OH213421   1.667   1.457   1.922
 4486TIP3    H113422   1.630   1.378   1.961
 4486TIP3    H213423   1.671   1.520   1.994
 4487TIP3   OH213424   6.571   6.825   3.609
 4487TIP3    H113425   6.486   6.809   3.652
 4487TIP3    H213426   6.617   6.741   3.614
 4488TIP3   OH213427   6.049   0.079   0.789
 4488TIP3    H113428   6.023   0.075   0.880
 4488TIP3    H213429   5.984   0.028   0.742
 4489TIP3   OH213430   3.374   2.918   1.175
 4489TIP3    H113431   3.373   2.999   1.125
 4489TIP3    H213432   3.442   2.864   1.134
 4490TIP3   OH213433   6.586   2.218   1.625
 4490TIP3    H113434   6.504   2.266   1.633
 4490TIP3    H213435   6.603   2.216   1.530
 4491TIP3   OH213436   3.195   3.618   4.441
 4491TIP3    H113437   3.176   3.671   4.363
 4491TIP3    H213438   3.133   3.545   4.436
 4492TIP3   OH213439   4.299   1.522   5.141
 4492TIP3    H113440   4.343   1.587   5.196
 4492TIP3    H213441   4.239   1.477   5.201
 4493TIP3   OH213442   3.880   4.073   3.571
 4493TIP3    H113443   3.947   4.140   3.558
 4493TIP3    H213444   3.831   4.103   3.648
 4494TIP3   OH213445   2.978   4.014   4.395
 4494TIP3    H113446   3.054   4.025   4.337
 4494TIP3    H213447   2.988   3.925   4.429
 4495TIP3   OH213448   5.287   0.766   2.994
 4495TIP3    H113449   5.334   0.695   2.951
 4495TIP3    H213450   5.194   0.742   2.987
 4496TIP3   OH213451   3.510   6.225   2.178
 4496TIP3    H113452   3.519   6.189   2.090
 4496TIP3    H213453   3.473   6.312   2.164
 4497TIP3   OH213454   5.749   3.886   4.272
 4497TIP3    H113455   5.784   3.968   4.307
 4497TIP3    H213456   5.719   3.908   4.184
 4498TIP3   OH213457   2.621   6.441   5.691
 4498TIP3    H113458   2.591   6.448   5.782
 4498TIP3    H213459   2.570   6.507   5.644
 4499TIP3   OH213460   2.610   1.551   0.350
 4499TIP3    H113461   2.585   1.641   0.327
 4499TIP3    H213462   2.540   1.497   0.314
 4500TIP3   OH213463   7.162   5.305   4.939
 4500TIP3    H113464   7.116   5.341   5.015
 4500TIP3    H213465   7.204   5.225   4.972
 4501TIP3   OH213466   4.275   5.935   2.314
 4501TIP3    H113467   4.212   5.892   2.373
 4501TIP3    H213468   4.307   5.864   2.259
 4502TIP3   OH213469   3.397   3.433   2.593
 4502TIP3    H113470   3.337   3.482   2.649
 4502TIP3    H213471   3.464   3.400   2.653
 4503TIP3   OH213472   0.723   2.966   1.823
 4503TIP3    H113473   0.714   2.891   1.765
 4503TIP3    H213474   0.736   3.040   1.764
 4504TIP3   OH213475   6.445   4.887   2.883
 4504TIP3    H113476   6.529   4.900   2.838
 4504TIP3    H213477   6.396   4.828   2.826
 4505TIP3   OH213478   5.605   2.818   4.173
 4505TIP3    H113479   5.526   2.764   4.178
 4505TIP3    H213480   5.621   2.829   4.079
 4506TIP3   OH213481   2.818   4.173   1.718
 4506TIP3    H113482   2.836   4.181   1.812
 4506TIP3    H213483   2.905   4.179   1.677
 4507TIP3   OH213484   3.578   5.495   2.638
 4507TIP3    H113485   3.529   5.469   2.717
 4507TIP3    H213486   3.538   5.444   2.567
 4508TIP3   OH213487   6.544   1.731   3.000
 4508TIP3    H113488   6.576   1.821   3.010
 4508TIP3    H213489   6.562   1.690   3.084
 4509TIP3   OH213490   2.080   2.570   5.591
 4509TIP3    H113491   2.106   2.650   5.637
 4509TIP3    H213492   2.086   2.592   5.499
 4510TIP3   OH213493   1.197   1.374   1.607
 4510TIP3    H113494   1.131   1.429   1.566
 4510TIP3    H213495   1.280   1.403   1.569
 4511TIP3   OH213496   2.660   2.651   3.262
 4511TIP3    H113497   2.631   2.736   3.296
 4511TIP3    H213498   2.702   2.608   3.337
 4512TIP3   OH213499   7.193   3.920   2.604
 4512TIP3    H113500   7.114   3.920   2.551
 4512TIP3    H213501   7.207   4.012   2.626
 4513TIP3   OH213502   0.064   0.161   0.783
 4513TIP3    H113503   0.101   0.218   0.716
 4513TIP3    H213504   0.063   0.215   0.862
 4514TIP3   OH213505   3.059   0.373   1.587
 4514TIP3    H113506   2.973   0.333   1.577
 4514TIP3    H213507   3.041   0.464   1.610
 4515TIP3   OH213508   5.894   0.295   4.268
 4515TIP3    H113509   5.967   0.286   4.330
 4515TIP3    H213510   5.892   0.388   4.246
 4516TIP3   OH213511   3.791   6.587   5.769
 4516TIP3    H113512   3.847   6.605   5.695
 4516TIP3    H213513   3.713   6.547   5.731
 4517TIP3   OH213514   6.603   1.958   0.178
 4517TIP3    H113515   6.547   1.933   0.104
 4517TIP3    H213516   6.541   1.981   0.247
 4518TIP3   OH213517   1.963   3.026   2.472
 4518TIP3    H113518   1.914   2.945   2.460
 4518TIP3    H213519   1.976   3.032   2.567
 4519TIP3   OH213520   2.976   3.772   4.509
 4519TIP3    H113521   3.059   3.725   4.509
 4519TIP3    H213522   2.930   3.739   4.432
 4520TIP3   OH213523   4.680   4.624   0.241
 4520TIP3    H113524   4.691   4.689   0.171
 4520TIP3    H213525   4.745   4.648   0.306
 4521TIP3   OH213526   1.369   1.086   2.122
 4521TIP3    H113527   1.330   1.155   2.069
 4521TIP3    H213528   1.399   1.021   2.058
 4522TIP3   OH213529   6.209   0.466   4.674
 4522TIP3    H113530   6.279   0.453   4.739
 4522TIP3    H213531   6.255   0.471   4.590
 4523TIP3   OH213532   6.773   3.403   4.110
 4523TIP3    H113533   6.852   3.455   4.094
 4523TIP3    H213534   6.725   3.451   4.176
 4524TIP3   OH213535   0.051   2.787   5.158
 4524TIP3    H113536   0.111   2.746   5.220
 4524TIP3    H213537  -0.015   2.720   5.140
 4525TIP3   OH213538   2.037   5.648   2.506
 4525TIP3    H113539   2.007   5.608   2.424
 4525TIP3    H213540   1.977   5.721   2.520
 4526TIP3   OH213541   0.749   5.724   1.538
 4526TIP3    H113542   0.775   5.766   1.456
 4526TIP3    H213543   0.720   5.796   1.594
 4527TIP3   OH213544   6.771   1.885   2.840
 4527TIP3    H113545   6.687   1.845   2.814
 4527TIP3    H213546   6.826   1.877   2.763
 4528TIP3   OH213547   4.836   0.633   3.325
 4528TIP3    H113548   4.840   0.555   3.379
 4528TIP3    H213549   4.743   0.642   3.302
 4529TIP3   OH213550   0.725   6.573   5.044
 4529TIP3    H113551   0.655   6.636   5.026
 4529TIP3    H213552   0.767   6.558   4.959
 4530TIP3   OH213553   5.460   6.289   5.157
 4530TIP3    H113554   5.462   6.309   5.063
 4530TIP3    H213555   5.501   6.365   5.198
 4531TIP3   OH213556   7.155   1.299   4.825
 4531TIP3    H113557   7.190   1.211   4.818
 4531TIP3    H213558   7.118   1.318   4.739
 4532TIP3   OH213559   4.574   0.921   0.972
 4532TIP3    H113560   4.551   0.830   0.995
 4532TIP3    H213561   4.508   0.947   0.907
 4533TIP3   OH213562   0.405   6.265   0.525
 4533TIP3    H113563   0.352   6.297   0.597
 4533TIP3    H213564   0.487   6.314   0.531
 4534TIP3   OH213565   1.340   1.826   4.081
 4534TIP3    H113566   1.355   1.908   4.035
 4534TIP3    H213567   1.304   1.852   4.166
 4535TIP3   OH213568   0.086   4.111   4.058
 4535TIP3    H113569   0.157   4.153   4.010
 4535TIP3    H213570   0.112   4.117   4.150
 4536TIP3   OH213571   1.504   1.490   2.530
 4536TIP3    H113572   1.513   1.583   2.508
 4536TIP3    H213573   1.493   1.447   2.446
 4537TIP3   OH213574   1.803   5.027   0.690
 4537TIP3    H113575   1.766   4.942   0.715
 4537TIP3    H213576   1.788   5.032   0.595
 4538TIP3   OH213577   4.442   4.285   1.652
 4538TIP3    H113578   4.493   4.337   1.591
 4538TIP3    H213579   4.501   4.213   1.677
 4539TIP3   OH213580   7.125   5.461   3.771
 4539TIP3    H113581   7.133   5.554   3.752
 4539TIP3    H213582   7.196   5.443   3.833
 4540TIP3   OH213583   6.051   5.880   0.434
 4540TIP3    H113584   5.985   5.948   0.447
 4540TIP3    H213585   6.019   5.805   0.483
 4541TIP3   OH213586   3.845   3.356   5.056
 4541TIP3    H113587   3.927   3.352   5.006
 4541TIP3    H213588   3.790   3.417   5.006
 4542TIP3   OH213589   5.476   5.269   0.788
 4542TIP3    H113590   5.416   5.285   0.861
 4542TIP3    H213591   5.420   5.274   0.710
 4543TIP3   OH213592   1.123   3.856   1.306
 4543TIP3    H113593   1.185   3.902   1.249
 4543TIP3    H213594   1.071   3.802   1.246
 4544TIP3   OH213595   0.831   0.772   0.909
 4544TIP3    H113596   0.845   0.714   0.834
 4544TIP3    H213597   0.812   0.713   0.982
 4545TIP3   OH213598   6.211   6.536   2.351
 4545TIP3    H113599   6.203   6.578   2.265
 4545TIP3    H213600   6.146   6.466   2.349
 4546TIP3   OH213601   1.204   2.389   5.655
 4546TIP3    H113602   1.116   2.401   5.691
 4546TIP3    H213603   1.193   2.400   5.561
 4547TIP3   OH213604   2.662   1.782   2.256
 4547TIP3    H113605   2.654   1.870   2.221
 4547TIP3    H213606   2.577   1.763   2.295
 4548TIP3   OH213607   2.377   0.865   4.475
 4548TIP3    H113608   2.421   0.859   4.560
 4548TIP3    H213609   2.423   0.935   4.429
 4549TIP3   OH213610   2.550   4.704   0.870
 4549TIP3    H113611   2.540   4.799   0.861
 4549TIP3    H213612   2.467   4.676   0.909
 4550TIP3   OH213613   5.479   4.146   0.906
 4550TIP3    H113614   5.449   4.088   0.976
 4550TIP3    H213615   5.527   4.215   0.950
 4551TIP3   OH213616   0.272   6.338   3.557
 4551TIP3    H113617   0.183   6.315   3.584
 4551TIP3    H213618   0.281   6.430   3.579
 4552TIP3   OH213619   6.737   6.396   2.606
 4552TIP3    H113620   6.809   6.396   2.543
 4552TIP3    H213621   6.671   6.337   2.568
 4553TIP3   OH213622   5.835   1.645   4.221
 4553TIP3    H113623   5.904   1.651   4.155
 4553TIP3    H213624   5.874   1.597   4.294
 4554TIP3   OH213625   0.822   2.113   3.691
 4554TIP3    H113626   0.763   2.043   3.662
 4554TIP3    H213627   0.801   2.125   3.784
 4555TIP3   OH213628   3.251   3.647   5.842
 4555TIP3    H113629   3.300   3.729   5.840
 4555TIP3    H213630   3.192   3.652   5.767
 4556TIP3   OH213631   4.156   1.618   5.457
 4556TIP3    H113632   4.131   1.700   5.499
 4556TIP3    H213633   4.223   1.581   5.515
 4557TIP3   OH213634   2.556   0.969   4.653
 4557TIP3    H113635   2.635   1.018   4.629
 4557TIP3    H213636   2.503   1.031   4.703
 4558TIP3   OH213637   0.133   4.678   3.097
 4558TIP3    H113638   0.045   4.642   3.089
 4558TIP3    H213639   0.190   4.602   3.109
 4559TIP3   OH213640   0.921  -0.006   4.374
 4559TIP3    H113641   0.879  -0.027   4.290
 4559TIP3    H213642   0.858   0.050   4.419
 4560TIP3   OH213643   5.587   6.505   5.684
 4560TIP3    H113644   5.653   6.486   5.617
 4560TIP3    H213645   5.616   6.455   5.760
 4561TIP3   OH213646   0.452   5.193   0.789
 4561TIP3    H113647   0.423   5.284   0.786
 4561TIP3    H213648   0.373   5.143   0.811
 4562TIP3   OH213649   5.445   0.753   1.878
 4562TIP3    H113650   5.380   0.821   1.857
 4562TIP3    H213651   5.527   0.787   1.843
 4563TIP3   OH213652   2.611   5.879   3.094
 4563TIP3    H113653   2.592   5.834   3.012
 4563TIP3    H213654   2.557   5.958   3.091
 4564TIP3   OH213655   1.074   6.274   1.618
 4564TIP3    H113656   1.114   6.284   1.704
 4564TIP3    H213657   1.122   6.336   1.562
 4565TIP3   OH213658   4.209   4.583   2.478
 4565TIP3    H113659   4.150   4.592   2.553
 4565TIP3    H213660   4.296   4.574   2.517
 4566TIP3   OH213661   3.998   6.427   4.320
 4566TIP3    H113662   3.960   6.415   4.407
 4566TIP3    H213663   4.005   6.339   4.284
 4567TIP3   OH213664   2.583   2.281   1.828
 4567TIP3    H113665   2.495   2.299   1.862
 4567TIP3    H213666   2.640   2.287   1.905
 4568TIP3   OH213667   2.575   3.279   5.492
 4568TIP3    H113668   2.658   3.325   5.484
 4568TIP3    H213669   2.589   3.216   5.563
 4569TIP3   OH213670   6.501   1.937   4.754
 4569TIP3    H113671   6.552   1.939   4.834
 4569TIP3    H213672   6.416   1.972   4.778
 4570TIP3   OH213673   3.013   4.285   2.846
 4570TIP3    H113674   3.106   4.297   2.825
 4570TIP3    H213675   2.998   4.344   2.921
 4571TIP3   OH213676   0.434   0.920   1.837
 4571TIP3    H113677   0.437   0.989   1.903
 4571TIP3    H213678   0.394   0.961   1.761
 4572TIP3   OH213679   0.229   3.417   1.702
 4572TIP3    H113680   0.314   3.439   1.664
 4572TIP3    H213681   0.191   3.353   1.640
 4573TIP3   OH213682   6.457   0.193   1.963
 4573TIP3    H113683   6.550   0.193   1.942
 4573TIP3    H213684   6.453   0.192   2.058
 4574TIP3   OH213685   3.178   5.624   2.980
 4574TIP3    H113686   3.235   5.548   2.975
 4574TIP3    H213687   3.095   5.590   3.014
 4575TIP3   OH213688   5.103   5.192   4.924
 4575TIP3    H113689   5.154   5.115   4.947
 4575TIP3    H213690   5.108   5.248   5.002
 4576TIP3   OH213691   1.067   1.806   2.122
 4576TIP3    H113692   1.103   1.869   2.060
 4576TIP3    H213693   1.004   1.856   2.174
 4577TIP3   OH213694   2.518   1.001   0.344
 4577TIP3    H113695   2.577   0.983   0.271
 4577TIP3    H213696   2.466   0.921   0.354
 4578TIP3   OH213697   5.898   5.605   4.079
 4578TIP3    H113698   5.871   5.609   3.987
 4578TIP3    H213699   5.825   5.646   4.126
 4579TIP3   OH213700   2.409   5.049   4.346
 4579TIP3    H113701   2.498   5.013   4.337
 4579TIP3    H213702   2.370   5.038   4.260
 4580TIP3   OH213703   6.655   4.266   1.939
 4580TIP3    H113704   6.721   4.234   1.878
 4580TIP3    H213705   6.603   4.328   1.888
 4581TIP3   OH213706   6.804   6.712   3.392
 4581TIP3    H113707   6.760   6.739   3.311
 4581TIP3    H213708   6.829   6.794   3.434
 4582TIP3   OH213709   4.296   3.592   0.505
 4582TIP3    H113710   4.202   3.600   0.487
 4582TIP3    H213711   4.328   3.531   0.439
 4583TIP3   OH213712   3.516   3.052   5.640
 4583TIP3    H113713   3.486   3.142   5.647
 4583TIP3    H213714   3.436   2.999   5.650
 4584TIP3   OH213715   4.801   2.408   1.259
 4584TIP3    H113716   4.891   2.411   1.294
 4584TIP3    H213717   4.758   2.340   1.310
 4585TIP3   OH213718   1.408   2.441   1.745
 4585TIP3    H113719   1.448   2.525   1.767
 4585TIP3    H213720   1.468   2.402   1.682
 4586TIP3   OH213721   0.842   1.600   3.792
 4586TIP3    H113722   0.783   1.636   3.858
 4586TIP3    H213723   0.829   1.655   3.715
 4587TIP3   OH213724   4.258   2.468   5.699
 4587TIP3    H113725   4.309   2.522   5.760
 4587TIP3    H213726   4.279   2.504   5.612
 4588TIP3   OH213727   2.571   0.310   0.492
 4588TIP3    H113728   2.526   0.381   0.537
 4588TIP3    H213729   2.664   0.332   0.499
 4589TIP3   OH213730   1.141   2.163   2.639
 4589TIP3    H113731   1.069   2.100   2.638
 4589TIP3    H213732   1.099   2.247   2.659
 4590TIP3   OH213733   4.949   3.023   0.878
 4590TIP3    H113734   5.017   2.975   0.926
 4590TIP3    H213735   4.981   3.027   0.788
 4591TIP3   OH213736   4.757   0.206   0.516
 4591TIP3    H113737   4.670   0.234   0.488
 4591TIP3    H213738   4.743   0.161   0.599
 4592TIP3   OH213739   2.047   6.027   1.379
 4592TIP3    H113740   2.068   6.089   1.308
 4592TIP3    H213741   2.133   6.003   1.415
 4593TIP3   OH213742   6.110   3.047   3.405
 4593TIP3    H113743   6.184   2.986   3.404
 4593TIP3    H213744   6.052   3.015   3.336
 4594TIP3   OH213745   5.972   2.407   0.142
 4594TIP3    H113746   5.990   2.443   0.055
 4594TIP3    H213747   5.930   2.479   0.190
 4595TIP3   OH213748   1.053   2.167   4.790
 4595TIP3    H113749   1.087   2.079   4.807
 4595TIP3    H213750   1.097   2.195   4.709
 4596TIP3   OH213751   6.200   0.673   3.357
 4596TIP3    H113752   6.233   0.625   3.281
 4596TIP3    H213753   6.262   0.654   3.427
 4597TIP3   OH213754   1.822   0.676   0.322
 4597TIP3    H113755   1.806   0.762   0.361
 4597TIP3    H213756   1.750   0.622   0.354
 4598TIP3   OH213757   2.459   2.213   5.501
 4598TIP3    H113758   2.512   2.142   5.537
 4598TIP3    H213759   2.411   2.247   5.576
 4599TIP3   OH213760   0.354   5.418   5.595
 4599TIP3    H113761   0.397   5.383   5.674
 4599TIP3    H213762   0.262   5.398   5.607
 4600TIP3   OH213763   1.290   5.356   4.497
 4600TIP3    H113764   1.229   5.287   4.470
 4600TIP3    H213765   1.259   5.383   4.583
 4601TIP3   OH213766   0.733   3.114   0.700
 4601TIP3    H113767   0.812   3.127   0.647
 4601TIP3    H213768   0.763   3.061   0.775
 4602TIP3   OH213769   1.938   1.020   3.127
 4602TIP3    H113770   1.927   1.110   3.158
 4602TIP3    H213771   1.927   1.026   3.032
 4603TIP3   OH213772   0.817   1.400   2.867
 4603TIP3    H113773   0.731   1.390   2.907
 4603TIP3    H213774   0.878   1.369   2.934
 4604TIP3   OH213775   2.691   5.366   5.275
 4604TIP3    H113776   2.766   5.355   5.216
 4604TIP3    H213777   2.678   5.460   5.279
 4605TIP3   OH213778   4.830   3.643   0.485
 4605TIP3    H113779   4.902   3.687   0.531
 4605TIP3    H213780   4.800   3.575   0.546
 4606TIP3   OH213781   4.989   2.683   0.918
 4606TIP3    H113782   4.947   2.647   0.996
 4606TIP3    H213783   5.028   2.766   0.947
 4607TIP3   OH213784   6.851   0.241   1.123
 4607TIP3    H113785   6.833   0.301   1.051
 4607TIP3    H213786   6.888   0.163   1.080
 4608TIP3   OH213787   6.571   3.492   5.259
 4608TIP3    H113788   6.588   3.409   5.303
 4608TIP3    H213789   6.481   3.514   5.283
 4609TIP3   OH213790   5.566   3.385   5.187
 4609TIP3    H113791   5.613   3.410   5.107
 4609TIP3    H213792   5.605   3.440   5.255
 4610TIP3   OH213793   4.362   2.917   4.819
 4610TIP3    H113794   4.298   2.859   4.860
 4610TIP3    H213795   4.349   2.903   4.725
 4611TIP3   OH213796   4.079   2.198   1.813
 4611TIP3    H113797   4.102   2.251   1.889
 4611TIP3    H213798   4.132   2.119   1.821
 4612TIP3   OH213799   6.573   0.355   4.941
 4612TIP3    H113800   6.495   0.399   4.973
 4612TIP3    H213801   6.642   0.376   5.004
 4613TIP3   OH213802   3.970   2.383   0.199
 4613TIP3    H113803   3.907   2.395   0.128
 4613TIP3    H213804   3.924   2.330   0.264
 4614TIP3   OH213805   5.497   6.320   4.849
 4614TIP3    H113806   5.575   6.318   4.793
 4614TIP3    H213807   5.446   6.244   4.821
 4615TIP3   OH213808   5.003   1.093   3.601
 4615TIP3    H113809   4.961   1.172   3.568
 4615TIP3    H213810   5.006   1.105   3.696
 4616TIP3   OH213811   0.105   2.147   1.765
 4616TIP3    H113812   0.093   2.236   1.799
 4616TIP3    H213813   0.189   2.149   1.721
 4617TIP3   OH213814   0.811   5.010   5.473
 4617TIP3    H113815   0.752   5.041   5.404
 4617TIP3    H213816   0.795   4.915   5.476
 4618TIP3   OH213817   3.494   5.191   0.081
 4618TIP3    H113818   3.399   5.204   0.080
 4618TIP3    H213819   3.530   5.276   0.105
 4619TIP3   OH213820   0.045   2.927   3.657
 4619TIP3    H113821   0.037   2.843   3.612
 4619TIP3    H213822   0.115   2.913   3.721
 4620TIP3   OH213823   7.227   2.870   4.758
 4620TIP3    H113824   7.137   2.838   4.759
 4620TIP3    H213825   7.219   2.961   4.729
 4621TIP3   OH213826   5.730   6.322   1.663
 4621TIP3    H113827   5.755   6.329   1.571
 4621TIP3    H213828   5.798   6.370   1.710
 4622TIP3   OH213829   4.134   0.478   4.128
 4622TIP3    H113830   4.059   0.478   4.070
 4622TIP3    H213831   4.149   0.385   4.148
 4623TIP3   OH213832   5.739   3.619   4.323
 4623TIP3    H113833   5.750   3.711   4.300
 4623TIP3    H213834   5.815   3.598   4.377
 4624TIP3   OH213835   0.114   4.175   0.898
 4624TIP3    H113836   0.177   4.115   0.937
 4624TIP3    H213837   0.101   4.142   0.809
 4625TIP3   OH213838   3.402   6.668   5.640
 4625TIP3    H113839   3.344   6.640   5.710
 4625TIP3    H213840   3.457   6.592   5.622
 4626TIP3   OH213841   7.191   3.319   5.847
 4626TIP3    H113842   7.220   3.392   5.901
 4626TIP3    H213843   7.122   3.355   5.792
 4627TIP3   OH213844   0.388   5.467   4.356
 4627TIP3    H113845   0.450   5.443   4.425
 4627TIP3    H213846   0.440   5.468   4.276
 4628TIP3   OH213847   3.573   5.191   0.440
 4628TIP3    H113848   3.645   5.140   0.475
 4628TIP3    H213849   3.613   5.272   0.407
 4629TIP3   OH213850   4.322   1.395   3.356
 4629TIP3    H113851   4.269   1.475   3.353
 4629TIP3    H213852   4.408   1.422   3.323
 4630TIP3   OH213853   1.754   3.505   1.347
 4630TIP3    H113854   1.842   3.535   1.327
 4630TIP3    H213855   1.697   3.572   1.309
 4631TIP3   OH213856   4.742   2.492   1.906
 4631TIP3    H113857   4.656   2.532   1.893
 4631TIP3    H213858   4.762   2.448   1.823
 4632TIP3   OH213859   4.348   3.750   4.219
 4632TIP3    H113860   4.408   3.708   4.282
 4632TIP3    H213861   4.383   3.838   4.209
 4633TIP3   OH213862   1.064   0.906   4.440
 4633TIP3    H113863   1.036   0.916   4.349
 4633TIP3    H213864   1.095   0.993   4.466
 4634TIP3   OH213865   1.985   3.185   1.108
 4634TIP3    H113866   1.895   3.200   1.079
 4634TIP3    H213867   2.038   3.242   1.053
 4635TIP3   OH213868   5.335   0.977   3.689
 4635TIP3    H113869   5.339   0.906   3.624
 4635TIP3    H213870   5.283   0.940   3.760
 4636TIP3   OH213871   2.110   3.752   0.150
 4636TIP3    H113872   2.130   3.798   0.232
 4636TIP3    H213873   2.121   3.659   0.172
 4637TIP3   OH213874   0.129   2.001   2.075
 4637TIP3    H113875   0.077   2.062   2.125
 4637TIP3    H213876   0.141   1.926   2.133
 4638TIP3   OH213877   2.902   3.995   0.144
 4638TIP3    H113878   2.834   3.964   0.203
 4638TIP3    H213879   2.973   4.023   0.202
 4639TIP3   OH213880   4.548   4.762   5.220
 4639TIP3    H113881   4.593   4.839   5.185
 4639TIP3    H213882   4.618   4.709   5.259
 4640TIP3   OH213883   6.002   4.144   2.613
 4640TIP3    H113884   6.080   4.160   2.560
 4640TIP3    H213885   5.992   4.223   2.665
 4641TIP3   OH213886   2.810   1.351   3.440
 4641TIP3    H113887   2.897   1.368   3.477
 4641TIP3    H213888   2.752   1.350   3.516
 4642TIP3   OH213889   4.493   2.439   4.136
 4642TIP3    H113890   4.443   2.419   4.214
 4642TIP3    H213891   4.460   2.524   4.107
 4643TIP3   OH213892   3.696   0.177   4.130
 4643TIP3    H113893   3.648   0.150   4.052
 4643TIP3    H213894   3.659   0.261   4.153
 4644TIP3   OH213895   2.100   4.801   5.040
 4644TIP3    H113896   2.041   4.727   5.027
 4644TIP3    H213897   2.070   4.868   4.979
 4645TIP3   OH213898   2.011   6.245   4.228
 4645TIP3    H113899   2.019   6.205   4.314
 4645TIP3    H213900   1.932   6.298   4.233
 4646TIP3   OH213901   0.575   3.233   1.925
 4646TIP3    H113902   0.626   3.194   1.854
 4646TIP3    H213903   0.544   3.316   1.889
 4647TIP3   OH213904   3.440   0.440   2.209
 4647TIP3    H113905   3.361   0.408   2.165
 4647TIP3    H213906   3.436   0.535   2.199
 4648TIP3   OH213907   0.624   4.297   4.284
 4648TIP3    H113908   0.681   4.365   4.247
 4648TIP3    H213909   0.545   4.343   4.310
 4649TIP3   OH213910   3.991   6.794   3.534
 4649TIP3    H113911   3.952   6.773   3.450
 4649TIP3    H213912   4.040   6.875   3.518
 4650TIP3   OH213913   6.575   4.611   0.910
 4650TIP3    H113914   6.618   4.623   0.994
 4650TIP3    H213915   6.530   4.527   0.917
 4651TIP3   OH213916   4.537   6.479   3.244
 4651TIP3    H113917   4.601   6.420   3.205
 4651TIP3    H213918   4.588   6.537   3.301
 4652TIP3   OH213919   2.254   5.073   1.736
 4652TIP3    H113920   2.208   5.004   1.783
 4652TIP3    H213921   2.266   5.143   1.801
 4653TIP3   OH213922   1.253   4.341   4.592
 4653TIP3    H113923   1.244   4.354   4.497
 4653TIP3    H213924   1.339   4.378   4.613
 4654TIP3   OH213925   4.888   1.379   5.187
 4654TIP3    H113926   4.897   1.303   5.244
 4654TIP3    H213927   4.966   1.432   5.206
 4655TIP3   OH213928   1.815   5.024   2.602
 4655TIP3    H113929   1.849   5.113   2.611
 4655TIP3    H213930   1.722   5.031   2.622
 4656TIP3   OH213931   4.732   5.696   5.652
 4656TIP3    H113932   4.659   5.677   5.594
 4656TIP3    H213933   4.763   5.610   5.681
 4657TIP3   OH213934   0.527   4.085   4.132
 4657TIP3    H113935   0.531   4.105   4.226
 4657TIP3    H213936   0.601   4.131   4.094
 4658TIP3   OH213937   1.355   5.326   5.193
 4658TIP3    H113938   1.432   5.372   5.161
 4658TIP3    H213939   1.389   5.247   5.234
 4659TIP3   OH213940   2.942   0.938   2.059
 4659TIP3    H113941   2.983   0.947   2.145
 4659TIP3    H213942   2.919   1.028   2.034
 4660TIP3   OH213943   5.428   0.394   4.422
 4660TIP3    H113944   5.406   0.301   4.422
 4660TIP3    H213945   5.343   0.438   4.414
 4661TIP3   OH213946   6.256   0.406   2.216
 4661TIP3    H113947   6.179   0.359   2.185
 4661TIP3    H213948   6.240   0.420   2.310
 4662TIP3   OH213949   6.007   4.806   2.752
 4662TIP3    H113950   6.006   4.762   2.667
 4662TIP3    H213951   5.994   4.898   2.732
 4663TIP3   OH213952   7.185   1.868   0.661
 4663TIP3    H113953   7.178   1.838   0.570
 4663TIP3    H213954   7.268   1.831   0.692
 4664TIP3   OH213955   4.253   4.767   1.166
 4664TIP3    H113956   4.343   4.794   1.154
 4664TIP3    H213957   4.208   4.845   1.199
 4665TIP3   OH213958   5.646   5.063   3.222
 4665TIP3    H113959   5.694   5.133   3.178
 4665TIP3    H213960   5.644   5.088   3.314
 4666TIP3   OH213961   4.678   3.598   5.508
 4666TIP3    H113962   4.617   3.611   5.581
 4666TIP3    H213963   4.649   3.517   5.467
 4667TIP3   OH213964   5.885   1.214   0.918
 4667TIP3    H113965   5.910   1.162   0.842
 4667TIP3    H213966   5.848   1.149   0.979
 4668TIP3   OH213967   5.345   1.383   2.473
 4668TIP3    H113968   5.367   1.343   2.388
 4668TIP3    H213969   5.336   1.308   2.532
 4669TIP3   OH213970   1.485   3.659   5.320
 4669TIP3    H113971   1.556   3.718   5.296
 4669TIP3    H213972   1.468   3.678   5.412
 4670TIP3   OH213973   6.119   2.808   2.365
 4670TIP3    H113974   6.086   2.719   2.357
 4670TIP3    H213975   6.186   2.803   2.433
 4671TIP3   OH213976   5.899   0.045   5.886
 4671TIP3    H113977   5.850   0.125   5.905
 4671TIP3    H213978   5.831  -0.022   5.878
 4672TIP3   OH213979   1.317   3.043   2.604
 4672TIP3    H113980   1.407   3.020   2.629
 4672TIP3    H213981   1.327   3.097   2.526
 4673TIP3   OH213982   7.079   0.845   4.482
 4673TIP3    H113983   7.143   0.868   4.549
 4673TIP3    H213984   7.130   0.801   4.414
 4674TIP3   OH213985   1.675   2.921   3.328
 4674TIP3    H113986   1.635   2.844   3.367
 4674TIP3    H213987   1.644   2.920   3.237
 4675TIP3   OH213988   4.103   4.392   1.233
 4675TIP3    H113989   4.129   4.420   1.320
 4675TIP3    H213990   4.183   4.399   1.180
 4676TIP3   OH213991   4.911   6.751   4.969
 4676TIP3    H113992   4.936   6.727   5.058
 4676TIP3    H213993   4.878   6.669   4.931
 4677TIP3   OH213994   4.644   1.706   4.849
 4677TIP3    H113995   4.672   1.630   4.900
 4677TIP3    H213996   4.562   1.679   4.808
 4678TIP3   OH213997   4.115   0.591   0.717
 4678TIP3    H113998   4.020   0.588   0.720
 4678TIP3    H213999   4.136   0.681   0.694
 4679TIP3   OH214000   2.989   1.081   0.609
 4679TIP3    H114001   2.896   1.098   0.595
 4679TIP3    H214002   3.029   1.168   0.614
 4680TIP3   OH214003   7.207   6.232   3.173
 4680TIP3    H114004   7.292   6.262   3.140
 4680TIP3    H214005   7.159   6.313   3.193
 4681TIP3   OH214006   2.528   4.673   5.444
 4681TIP3    H114007   2.582   4.650   5.519
 4681TIP3    H214008   2.575   4.744   5.401
 4682TIP3   OH214009   1.168   3.588   4.617
 4682TIP3    H114010   1.224   3.512   4.606
 4682TIP3    H214011   1.171   3.633   4.532
 4683TIP3   OH214012   5.318   1.184   1.023
 4683TIP3    H114013   5.309   1.193   1.118
 4683TIP3    H214014   5.239   1.138   0.996
 4684TIP3   OH214015   6.307   1.063   5.359
 4684TIP3    H114016   6.340   0.973   5.364
 4684TIP3    H214017   6.370   1.115   5.408
 4685TIP3   OH214018   2.741   2.005   0.392
 4685TIP3    H114019   2.734   1.945   0.466
 4685TIP3    H214020   2.703   2.086   0.423
 4686TIP3   OH214021   4.564   4.838   2.221
 4686TIP3    H114022   4.555   4.833   2.316
 4686TIP3    H214023   4.641   4.784   2.201
 4687TIP3   OH214024   4.462   2.911   5.178
 4687TIP3    H114025   4.367   2.900   5.175
 4687TIP3    H214026   4.489   2.869   5.260
 4688TIP3   OH214027   7.130   1.492   1.101
 4688TIP3    H114028   7.180   1.561   1.145
 4688TIP3    H214029   7.132   1.516   1.009
 4689TIP3   OH214030   0.876   5.701   0.975
 4689TIP3    H114031   0.868   5.712   0.881
 4689TIP3    H214032   0.786   5.693   1.006
 4690TIP3   OH214033   4.296   0.436   5.717
 4690TIP3    H114034   4.263   0.447   5.807
 4690TIP3    H214035   4.283   0.343   5.698
 4691TIP3   OH214036   6.749   6.788   3.132
 4691TIP3    H114037   6.729   6.708   3.084
 4691TIP3    H214038   6.679   6.848   3.110
 4692TIP3   OH214039   6.587   1.521   0.053
 4692TIP3    H114040   6.611   1.429   0.061
 4692TIP3    H214041   6.494   1.520   0.032
 4693TIP3   OH214042   6.388   6.544   0.803
 4693TIP3    H114043   6.455   6.609   0.784
 4693TIP3    H214044   6.371   6.500   0.720
 4694TIP3   OH214045   4.228   4.121   1.520
 4694TIP3    H114046   4.235   4.178   1.597
 4694TIP3    H214047   4.280   4.165   1.453
 4695TIP3   OH214048   2.630   5.752   3.337
 4695TIP3    H114049   2.619   5.789   3.249
 4695TIP3    H214050   2.699   5.806   3.377
 4696TIP3   OH214051   1.849   3.235   1.625
 4696TIP3    H114052   1.890   3.194   1.701
 4696TIP3    H214053   1.782   3.293   1.662
 4697TIP3   OH214054   2.873   4.675   4.114
 4697TIP3    H114055   2.806   4.609   4.092
 4697TIP3    H214056   2.824   4.757   4.121
 4698TIP3   OH214057   6.729   4.507   5.027
 4698TIP3    H114058   6.674   4.481   4.954
 4698TIP3    H214059   6.747   4.600   5.012
 4699TIP3   OH214060   2.017   4.471   0.215
 4699TIP3    H114061   2.017   4.385   0.173
 4699TIP3    H214062   2.030   4.532   0.143
 4700TIP3   OH214063   1.198   5.039   0.539
 4700TIP3    H114064   1.206   5.026   0.633
 4700TIP3    H214065   1.118   5.089   0.528
 4701TIP3   OH214066   1.533   4.272   4.330
 4701TIP3    H114067   1.484   4.216   4.390
 4701TIP3    H214068   1.584   4.329   4.387
 4702TIP3   OH214069   5.026   4.313   4.675
 4702TIP3    H114070   4.937   4.347   4.671
 4702TIP3    H214071   5.052   4.324   4.767
 4703TIP3   OH214072   2.086   0.649   1.882
 4703TIP3    H114073   2.085   0.646   1.978
 4703TIP3    H214074   2.119   0.564   1.855
 4704TIP3   OH214075   3.933   4.238   1.415
 4704TIP3    H114076   3.982   4.275   1.341
 4704TIP3    H214077   3.979   4.270   1.493
 4705TIP3   OH214078   6.332   4.963   5.142
 4705TIP3    H114079   6.350   4.875   5.109
 4705TIP3    H214080   6.402   5.017   5.107
 4706TIP3   OH214081   6.679   4.520   0.404
 4706TIP3    H114082   6.761   4.537   0.449
 4706TIP3    H214083   6.678   4.580   0.330
 4707TIP3   OH214084   0.752   6.777   0.552
 4707TIP3    H114085   0.691   6.743   0.486
 4707TIP3    H214086   0.813   6.832   0.502
 4708TIP3   OH214087   1.731   3.437   4.489
 4708TIP3    H114088   1.813   3.396   4.514
 4708TIP3    H214089   1.732   3.436   4.394
 4709TIP3   OH214090   0.810   1.425   4.540
 4709TIP3    H114091   0.800   1.459   4.451
 4709TIP3    H214092   0.845   1.498   4.590
 4710TIP3   OH214093   3.996   6.108   5.658
 4710TIP3    H114094   4.033   6.101   5.746
 4710TIP3    H214095   4.053   6.169   5.612
 4711TIP3   OH214096   1.969   5.963   5.662
 4711TIP3    H114097   1.993   5.921   5.745
 4711TIP3    H214098   1.873   5.963   5.662
 4712TIP3   OH214099   2.653   1.553   4.356
 4712TIP3    H114100   2.568   1.523   4.325
 4712TIP3    H214101   2.650   1.648   4.349
 4713TIP3   OH214102   4.063   0.147   2.106
 4713TIP3    H114103   3.972   0.145   2.136
 4713TIP3    H214104   4.085   0.240   2.104
 4714TIP3   OH214105   3.346   2.849   4.063
 4714TIP3    H114106   3.405   2.894   4.003
 4714TIP3    H214107   3.395   2.842   4.145
 4715TIP3   OH214108   4.481   6.761   2.985
 4715TIP3    H114109   4.436   6.743   3.068
 4715TIP3    H214110   4.411   6.758   2.919
 4716TIP3   OH214111   5.400   2.148   5.128
 4716TIP3    H114112   5.323   2.115   5.082
 4716TIP3    H214113   5.387   2.243   5.132
 4717TIP3   OH214114   2.460   5.463   4.463
 4717TIP3    H114115   2.418   5.401   4.404
 4717TIP3    H214116   2.393   5.528   4.482
 4718TIP3   OH214117   2.388   0.298   1.323
 4718TIP3    H114118   2.308   0.284   1.272
 4718TIP3    H214119   2.445   0.225   1.299
 4719TIP3   OH214120   3.414   6.095   3.436
 4719TIP3    H114121   3.337   6.136   3.396
 4719TIP3    H214122   3.484   6.109   3.373
 4720TIP3   OH214123   1.656   0.462   1.179
 4720TIP3    H114124   1.650   0.476   1.084
 4720TIP3    H214125   1.654   0.550   1.216
 4721TIP3   OH214126   4.011   4.453   4.267
 4721TIP3    H114127   4.102   4.434   4.291
 4721TIP3    H214128   4.017   4.527   4.207
 4722TIP3   OH214129   0.804   6.589   1.211
 4722TIP3    H114130   0.791   6.682   1.232
 4722TIP3    H214131   0.849   6.553   1.287
 4723TIP3   OH214132   7.027   4.573   1.288
 4723TIP3    H114133   7.086   4.613   1.224
 4723TIP3    H214134   7.006   4.487   1.251
 4724TIP3   OH214135   4.978   3.002   4.390
 4724TIP3    H114136   4.945   3.091   4.402
 4724TIP3    H214137   5.050   3.011   4.327
 4725TIP3   OH214138   3.620   4.295   2.509
 4725TIP3    H114139   3.583   4.342   2.584
 4725TIP3    H214140   3.605   4.353   2.435
 4726TIP3   OH214141   2.108   4.826   0.950
 4726TIP3    H114142   2.132   4.906   0.997
 4726TIP3    H214143   2.187   4.772   0.956
 4727TIP3   OH214144   6.167   0.024   2.427
 4727TIP3    H114145   6.106  -0.035   2.383
 4727TIP3    H214146   6.253  -0.002   2.396
 4728TIP3   OH214147   5.268   5.176   3.154
 4728TIP3    H114148   5.299   5.215   3.236
 4728TIP3    H214149   5.198   5.234   3.125
 4729TIP3   OH214150   3.205   1.036   2.633
 4729TIP3    H114151   3.137   1.026   2.699
 4729TIP3    H214152   3.158   1.058   2.553
 4730TIP3   OH214153   0.101   5.485   2.403
 4730TIP3    H114154   0.043   5.416   2.437
 4730TIP3    H214155   0.131   5.531   2.481
 4731TIP3   OH214156   6.081   2.503   1.609
 4731TIP3    H114157   6.085   2.475   1.517
 4731TIP3    H214158   5.991   2.484   1.635
 4732TIP3   OH214159   3.582   2.897   5.172
 4732TIP3    H114160   3.514   2.849   5.125
 4732TIP3    H214161   3.650   2.832   5.188
 4733TIP3   OH214162   7.122   4.993   4.399
 4733TIP3    H114163   7.084   4.946   4.473
 4733TIP3    H214164   7.139   5.081   4.433
 4734TIP3   OH214165   0.496   0.486   0.844
 4734TIP3    H114166   0.562   0.531   0.896
 4734TIP3    H214167   0.547   0.422   0.793
 4735TIP3   OH214168   6.810   3.319   1.425
 4735TIP3    H114169   6.790   3.226   1.411
 4735TIP3    H214170   6.726   3.358   1.451
 4736TIP3   OH214171   0.778   0.607   5.293
 4736TIP3    H114172   0.788   0.548   5.367
 4736TIP3    H214173   0.801   0.554   5.216
 4737TIP3   OH214174   1.694   2.493   5.702
 4737TIP3    H114175   1.708   2.498   5.797
 4737TIP3    H214176   1.615   2.441   5.692
 4738TIP3   OH214177   7.080   5.443   1.860
 4738TIP3    H114178   7.158   5.457   1.914
 4738TIP3    H214179   7.018   5.509   1.890
 4739TIP3   OH214180   5.608   5.880   2.396
 4739TIP3    H114181   5.617   5.835   2.311
 4739TIP3    H214182   5.627   5.812   2.461
 4740TIP3   OH214183   0.573   6.243   2.363
 4740TIP3    H114184   0.507   6.302   2.326
 4740TIP3    H214185   0.527   6.198   2.434
 4741TIP3   OH214186   3.109   6.648   2.389
 4741TIP3    H114187   3.152   6.564   2.401
 4741TIP3    H214188   3.018   6.632   2.413
 4742TIP3   OH214189   3.958   3.192   5.637
 4742TIP3    H114190   3.924   3.237   5.559
 4742TIP3    H214191   4.044   3.159   5.611
 4743TIP3   OH214192   6.245   1.718   3.282
 4743TIP3    H114193   6.290   1.696   3.363
 4743TIP3    H214194   6.211   1.807   3.297
 4744TIP3   OH214195   2.759   6.150   2.965
 4744TIP3    H114196   2.714   6.178   3.045
 4744TIP3    H214197   2.837   6.105   2.995
 4745TIP3   OH214198   4.088   4.471   3.545
 4745TIP3    H114199   4.010   4.513   3.510
 4745TIP3    H214200   4.068   4.454   3.637
 4746TIP3   OH214201   5.336   2.518   2.725
 4746TIP3    H114202   5.293   2.604   2.725
 4746TIP3    H214203   5.409   2.528   2.664
 4747TIP3   OH214204   6.021   1.666   5.063
 4747TIP3    H114205   5.993   1.579   5.093
 4747TIP3    H214206   6.007   1.664   4.969
 4748TIP3   OH214207   2.759   0.124   2.548
 4748TIP3    H114208   2.715   0.206   2.528
 4748TIP3    H214209   2.689   0.063   2.567
 4749TIP3   OH214210   0.190   4.885   1.981
 4749TIP3    H114211   0.206   4.941   2.057
 4749TIP3    H214212   0.119   4.928   1.934
 4750TIP3   OH214213   0.479   0.022   2.544
 4750TIP3    H114214   0.539  -0.043   2.581
 4750TIP3    H214215   0.481   0.005   2.449
 4751TIP3   OH214216   5.761   0.988   4.330
 4751TIP3    H114217   5.701   1.025   4.265
 4751TIP3    H214218   5.716   1.000   4.413
 4752TIP3   OH214219   5.169   4.958   1.010
 4752TIP3    H114220   5.139   4.888   0.952
 4752TIP3    H214221   5.241   4.919   1.060
 4753TIP3   OH214222   1.234   6.205   4.811
 4753TIP3    H114223   1.153   6.247   4.782
 4753TIP3    H214224   1.242   6.128   4.756
 4754TIP3   OH214225   2.461   1.994   4.883
 4754TIP3    H114226   2.399   1.956   4.945
 4754TIP3    H214227   2.463   2.087   4.905
 4755TIP3   OH214228   2.718   4.943   1.743
 4755TIP3    H114229   2.628   4.960   1.770
 4755TIP3    H214230   2.730   4.849   1.759
 4756TIP3   OH214231   2.620   5.195   2.959
 4756TIP3    H114232   2.713   5.213   2.967
 4756TIP3    H214233   2.582   5.278   2.932
 4757TIP3   OH214234   2.427   0.175   2.008
 4757TIP3    H114235   2.478   0.095   2.025
 4757TIP3    H214236   2.350   0.144   1.962
 4758TIP3   OH214237   1.474   2.790   1.560
 4758TIP3    H114238   1.480   2.742   1.643
 4758TIP3    H214239   1.505   2.878   1.582
 4759TIP3   OH214240   3.853   2.672   2.079
 4759TIP3    H114241   3.871   2.590   2.126
 4759TIP3    H214242   3.934   2.723   2.086
 4760TIP3   OH214243   1.469   1.646   5.683
 4760TIP3    H114244   1.422   1.721   5.720
 4760TIP3    H214245   1.402   1.595   5.638
 4761TIP3   OH214246   4.890   1.663   4.724
 4761TIP3    H114247   4.824   1.718   4.766
 4761TIP3    H214248   4.903   1.590   4.785
 4762TIP3   OH214249   6.541   2.674   1.531
 4762TIP3    H114250   6.557   2.587   1.568
 4762TIP3    H214251   6.546   2.733   1.606
 4763TIP3   OH214252   5.059   5.779   0.148
 4763TIP3    H114253   5.014   5.784   0.064
 4763TIP3    H214254   5.151   5.794   0.127
 4764TIP3   OH214255   5.983   6.193   2.766
 4764TIP3    H114256   6.005   6.117   2.713
 4764TIP3    H214257   6.067   6.222   2.803
 4765TIP3   OH214258   5.391   2.116   4.191
 4765TIP3    H114259   5.374   2.157   4.276
 4765TIP3    H214260   5.316   2.058   4.177
 4766TIP3   OH214261   4.242   4.471   0.570
 4766TIP3    H114262   4.287   4.436   0.646
 4766TIP3    H214263   4.265   4.563   0.568
 4767TIP3   OH214264   4.251   5.606   5.329
 4767TIP3    H114265   4.199   5.638   5.404
 4767TIP3    H214266   4.200   5.632   5.252
 4768TIP3   OH214267   4.312   6.773   1.267
 4768TIP3    H114268   4.297   6.722   1.187
 4768TIP3    H214269   4.278   6.860   1.247
 4769TIP3   OH214270   3.351   0.123   4.435
 4769TIP3    H114271   3.362   0.097   4.344
 4769TIP3    H214272   3.257   0.115   4.451
 4770TIP3   OH214273   3.211   1.351   1.121
 4770TIP3    H114274   3.140   1.416   1.118
 4770TIP3    H214275   3.283   1.392   1.074
 4771TIP3   OH214276   5.554   1.957   4.388
 4771TIP3    H114277   5.605   1.899   4.444
 4771TIP3    H214278   5.463   1.930   4.402
 4772TIP3   OH214279   3.512   6.122   3.741
 4772TIP3    H114280   3.466   6.145   3.661
 4772TIP3    H214281   3.572   6.195   3.756
 4773TIP3   OH214282   3.321   2.413   1.645
 4773TIP3    H114283   3.288   2.342   1.699
 4773TIP3    H214284   3.400   2.377   1.604
 4774TIP3   OH214285   5.790   4.634   0.999
 4774TIP3    H114286   5.727   4.694   1.039
 4774TIP3    H214287   5.873   4.681   1.001
 4775TIP3   OH214288   7.122   0.634   0.096
 4775TIP3    H114289   7.174   0.714   0.097
 4775TIP3    H214290   7.187   0.564   0.095
 4776TIP3   OH214291   6.877   1.851   2.186
 4776TIP3    H114292   6.905   1.804   2.264
 4776TIP3    H214293   6.889   1.789   2.114
 4777TIP3   OH214294   3.080   2.564   1.641
 4777TIP3    H114295   3.169   2.599   1.639
 4777TIP3    H214296   3.083   2.487   1.584
 4778TIP3   OH214297   0.565   3.667   5.607
 4778TIP3    H114298   0.582   3.679   5.700
 4778TIP3    H214299   0.517   3.747   5.581
 4779TIP3   OH214300   5.644   6.622   4.597
 4779TIP3    H114301   5.557   6.587   4.618
 4779TIP3    H214302   5.639   6.641   4.503
 4780TIP3   OH214303   3.379   6.444   3.208
 4780TIP3    H114304   3.349   6.354   3.194
 4780TIP3    H214305   3.474   6.439   3.199
 4781TIP3   OH214306   6.099   0.792   0.988
 4781TIP3    H114307   6.043   0.822   0.916
 4781TIP3    H214308   6.052   0.718   1.026
 4782TIP3   OH214309   6.483   6.248   3.446
 4782TIP3    H114310   6.518   6.272   3.531
 4782TIP3    H214311   6.560   6.241   3.389
 4783TIP3   OH214312   4.646   3.668   1.638
 4783TIP3    H114313   4.693   3.750   1.621
 4783TIP3    H214314   4.714   3.600   1.637
 4784TIP3   OH214315   0.660   5.469   1.219
 4784TIP3    H114316   0.625   5.384   1.193
 4784TIP3    H214317   0.652   5.471   1.314
 4785TIP3   OH214318   6.797   0.683   2.330
 4785TIP3    H114319   6.767   0.638   2.409
 4785TIP3    H214320   6.830   0.767   2.362
 4786TIP3   OH214321   1.173   5.212   5.547
 4786TIP3    H114322   1.243   5.169   5.498
 4786TIP3    H214323   1.142   5.144   5.607
 4787TIP3   OH214324   5.840   3.669   0.201
 4787TIP3    H114325   5.900   3.651   0.273
 4787TIP3    H214326   5.758   3.628   0.227
 4788TIP3   OH214327   6.996   4.726   0.522
 4788TIP3    H114328   7.079   4.735   0.476
 4788TIP3    H214329   7.017   4.676   0.601
 4789TIP3   OH214330   4.459   0.226   3.991
 4789TIP3    H114331   4.445   0.232   4.085
 4789TIP3    H214332   4.552   0.242   3.979
 4790TIP3   OH214333   5.574   2.639   5.310
 4790TIP3    H114334   5.484   2.656   5.284
 4790TIP3    H214335   5.618   2.617   5.228
 4791TIP3   OH214336   4.949   3.040   4.965
 4791TIP3    H114337   4.871   3.042   5.020
 4791TIP3    H214338   4.916   3.025   4.877
 4792TIP3   OH214339   4.824   1.481   1.856
 4792TIP3    H114340   4.844   1.511   1.944
 4792TIP3    H214341   4.905   1.440   1.826
 4793TIP3   OH214342   4.066   1.996   2.134
 4793TIP3    H114343   3.994   2.001   2.198
 4793TIP3    H214344   4.032   1.940   2.064
 4794TIP3   OH214345   2.050   5.636   4.327
 4794TIP3    H114346   2.142   5.661   4.332
 4794TIP3    H214347   2.046   5.570   4.258
 4795TIP3   OH214348   6.664   0.959   0.332
 4795TIP3    H114349   6.582   0.929   0.372
 4795TIP3    H214350   6.640   0.981   0.242
 4796TIP3   OH214351   4.112   6.683   1.506
 4796TIP3    H114352   4.206   6.676   1.519
 4796TIP3    H214353   4.097   6.776   1.489
 4797TIP3   OH214354   4.669   0.605   2.361
 4797TIP3    H114355   4.709   0.664   2.424
 4797TIP3    H214356   4.582   0.587   2.395
 4798TIP3   OH214357   0.013   1.862   1.098
 4798TIP3    H114358   0.000   1.920   1.173
 4798TIP3    H214359   0.029   1.920   1.024
 4799TIP3   OH214360   6.487   0.320   2.946
 4799TIP3    H114361   6.447   0.255   2.889
 4799TIP3    H214362   6.555   0.272   2.994
 4800TIP3   OH214363   1.673   4.026   1.245
 4800TIP3    H114364   1.611   4.098   1.233
 4800TIP3    H214365   1.750   4.052   1.194
 4801TIP3   OH214366   3.000   4.397   3.799
 4801TIP3    H114367   2.988   4.403   3.704
 4801TIP3    H214368   3.049   4.476   3.822
 4802TIP3   OH214369   3.575   1.937   5.330
 4802TIP3    H114370   3.668   1.921   5.347
 4802TIP3    H214371   3.560   2.027   5.360
 4803TIP3   OH214372   6.711   4.780   2.276
 4803TIP3    H114373   6.710   4.772   2.181
 4803TIP3    H214374   6.693   4.873   2.292
 4804TIP3   OH214375   7.189   0.284   4.192
 4804TIP3    H114376   7.154   0.345   4.257
 4804TIP3    H214377   7.215   0.339   4.119
 4805TIP3   OH214378   3.995   5.761   5.258
 4805TIP3    H114379   3.999   5.738   5.351
 4805TIP3    H214380   3.978   5.855   5.257
 4806TIP3   OH214381   6.482   5.602   2.628
 4806TIP3    H114382   6.414   5.623   2.692
 4806TIP3    H214383   6.439   5.607   2.543
 4807TIP3   OH214384   4.788   2.195   3.034
 4807TIP3    H114385   4.874   2.154   3.035
 4807TIP3    H214386   4.766   2.204   2.941
 4808TIP3   OH214387   0.034   5.534   1.013
 4808TIP3    H114388   0.129   5.529   1.003
 4808TIP3    H214389   0.018   5.620   1.052
 4809TIP3   OH214390   4.043   2.500   1.583
 4809TIP3    H114391   4.006   2.566   1.525
 4809TIP3    H214392   4.117   2.464   1.535
 4810TIP3   OH214393   2.829   6.439   4.781
 4810TIP3    H114394   2.887   6.511   4.804
 4810TIP3    H214395   2.768   6.432   4.854
 4811TIP3   OH214396   3.076   1.831   1.138
 4811TIP3    H114397   3.153   1.822   1.082
 4811TIP3    H214398   3.015   1.885   1.087
 4812TIP3   OH214399   0.532   2.281   4.968
 4812TIP3    H114400   0.578   2.292   5.051
 4812TIP3    H214401   0.574   2.343   4.908
 4813TIP3   OH214402   4.914   4.222   0.474
 4813TIP3    H114403   4.879   4.160   0.410
 4813TIP3    H214404   4.968   4.168   0.532
 4814TIP3   OH214405   2.106   0.160   3.479
 4814TIP3    H114406   2.051   0.224   3.433
 4814TIP3    H214407   2.195   0.188   3.461
 4815TIP3   OH214408   4.467   6.526   4.218
 4815TIP3    H114409   4.520   6.602   4.243
 4815TIP3    H214410   4.376   6.558   4.220
 4816TIP3   OH214411   1.966   6.776   0.291
 4816TIP3    H114412   1.887   6.765   0.238
 4816TIP3    H214413   1.945   6.739   0.376
 4817TIP3   OH214414   4.964   3.618   3.886
 4817TIP3    H114415   5.021   3.555   3.928
 4817TIP3    H214416   4.947   3.684   3.954
 4818TIP3   OH214417   0.135   6.583   3.316
 4818TIP3    H114418   0.164   6.639   3.244
 4818TIP3    H214419   0.194   6.508   3.313
 4819TIP3   OH214420   0.680   6.405   5.484
 4819TIP3    H114421   0.705   6.487   5.443
 4819TIP3    H214422   0.661   6.346   5.411
 4820TIP3   OH214423   5.872   2.424   3.244
 4820TIP3    H114424   5.822   2.396   3.321
 4820TIP3    H214425   5.830   2.505   3.216
 4821TIP3   OH214426   2.057   2.170   2.457
 4821TIP3    H114427   2.140   2.202   2.492
 4821TIP3    H214428   2.025   2.108   2.523
 4822TIP3   OH214429   0.964   4.990   2.102
 4822TIP3    H114430   1.023   4.939   2.046
 4822TIP3    H214431   1.023   5.047   2.153
 4823TIP3   OH214432   4.245   5.896   4.716
 4823TIP3    H114433   4.156   5.900   4.681
 4823TIP3    H214434   4.246   5.961   4.786
 4824TIP3   OH214435   0.910   0.118   2.512
 4824TIP3    H114436   0.942   0.033   2.483
 4824TIP3    H214437   0.831   0.133   2.460
 4825TIP3   OH214438   1.490   6.780   1.862
 4825TIP3    H114439   1.515   6.691   1.887
 4825TIP3    H214440   1.427   6.807   1.929
 4826TIP3   OH214441   2.189   3.145   2.837
 4826TIP3    H114442   2.282   3.163   2.818
 4826TIP3    H214443   2.148   3.232   2.840
 4827TIP3   OH214444   1.886   5.510   0.218
 4827TIP3    H114445   1.919   5.502   0.129
 4827TIP3    H214446   1.937   5.581   0.256
 4828TIP3   OH214447   4.509   6.010   3.717
 4828TIP3    H114448   4.506   6.074   3.788
 4828TIP3    H214449   4.560   5.937   3.752
 4829TIP3   OH214450   4.876   3.035   5.384
 4829TIP3    H114451   4.869   2.949   5.344
 4829TIP3    H214452   4.838   3.095   5.320
 4830TIP3   OH214453   1.447   2.172   4.537
 4830TIP3    H114454   1.400   2.094   4.567
 4830TIP3    H214455   1.537   2.158   4.566
 4831TIP3   OH214456   6.781   4.649   3.283
 4831TIP3    H114457   6.840   4.641   3.357
 4831TIP3    H214458   6.694   4.659   3.322
 4832TIP3   OH214459   6.708   0.995   0.057
 4832TIP3    H114460   6.646   0.930   0.024
 4832TIP3    H214461   6.789   0.947   0.070
 4833TIP3   OH214462   3.534   2.205   4.856
 4833TIP3    H114463   3.574   2.133   4.807
 4833TIP3    H214464   3.554   2.186   4.947
 4834TIP3   OH214465   0.078   1.447   5.018
 4834TIP3    H114466   0.165   1.431   4.981
 4834TIP3    H214467   0.018   1.409   4.954
 4835TIP3   OH214468   1.661   4.833   4.407
 4835TIP3    H114469   1.609   4.859   4.482
 4835TIP3    H214470   1.736   4.786   4.444
 4836TIP3   OH214471   1.107   1.998   5.187
 4836TIP3    H114472   1.129   2.059   5.257
 4836TIP3    H214473   1.048   2.047   5.129
 4837TIP3   OH214474   1.532   5.435   4.700
 4837TIP3    H114475   1.602   5.374   4.678
 4837TIP3    H214476   1.463   5.416   4.636
 4838TIP3   OH214477   0.399   6.849   3.626
 4838TIP3    H114478   0.404   6.754   3.635
 4838TIP3    H214479   0.416   6.883   3.714
 4839TIP3   OH214480   5.655   3.964   4.018
 4839TIP3    H114481   5.562   3.984   4.025
 4839TIP3    H214482   5.660   3.892   3.956
 4840TIP3   OH214483   1.614   1.516   5.514
 4840TIP3    H114484   1.574   1.581   5.572
 4840TIP3    H214485   1.674   1.567   5.459
 4841TIP3   OH214486   0.318   3.896   5.858
 4841TIP3    H114487   0.311   3.975   5.910
 4841TIP3    H214488   0.303   3.925   5.768
 4842TIP3   OH214489   6.423   4.029   4.568
 4842TIP3    H114490   6.447   3.939   4.590
 4842TIP3    H214491   6.358   4.020   4.497
 4843TIP3   OH214492   4.370   6.273   0.114
 4843TIP3    H114493   4.382   6.276   0.209
 4843TIP3    H214494   4.453   6.238   0.081
 4844TIP3   OH214495   1.039   4.630   3.998
 4844TIP3    H114496   1.112   4.569   4.004
 4844TIP3    H214497   1.055   4.694   4.067
 4845TIP3   OH214498   1.819   2.762   2.186
 4845TIP3    H114499   1.885   2.778   2.253
 4845TIP3    H214500   1.812   2.666   2.182
 4846TIP3   OH214501   4.418   2.869   1.769
 4846TIP3    H114502   4.371   2.833   1.694
 4846TIP3    H214503   4.409   2.964   1.760
 4847TIP3   OH214504   3.970   0.623   2.350
 4847TIP3    H114505   4.006   0.600   2.436
 4847TIP3    H214506   3.978   0.543   2.298
 4848TIP3   OH214507   3.641   4.782   1.620
 4848TIP3    H114508   3.583   4.736   1.560
 4848TIP3    H214509   3.701   4.715   1.652
 4849TIP3   OH214510   1.957   1.628   5.819
 4849TIP3    H114511   1.878   1.671   5.788
 4849TIP3    H214512   1.930   1.538   5.837
 4850TIP3   OH214513   5.061   6.642   4.631
 4850TIP3    H114514   5.123   6.659   4.702
 4850TIP3    H214515   5.065   6.722   4.577
 4851TIP3   OH214516   6.921   0.879   2.538
 4851TIP3    H114517   6.951   0.928   2.461
 4851TIP3    H214518   6.892   0.946   2.599
 4852TIP3   OH214519   1.565   4.543   1.220
 4852TIP3    H114520   1.640   4.598   1.198
 4852TIP3    H214521   1.492   4.582   1.174
 4853TIP3   OH214522   0.891   1.161   1.300
 4853TIP3    H114523   0.818   1.161   1.239
 4853TIP3    H214524   0.968   1.141   1.246
 4854TIP3   OH214525   6.697   3.971   3.650
 4854TIP3    H114526   6.631   3.933   3.592
 4854TIP3    H214527   6.696   4.064   3.629
 4855TIP3   OH214528   0.761   0.397   0.776
 4855TIP3    H114529   0.851   0.407   0.806
 4855TIP3    H214530   0.742   0.303   0.788
 4856TIP3   OH214531   3.899   5.210   2.135
 4856TIP3    H114532   3.818   5.224   2.184
 4856TIP3    H214533   3.940   5.135   2.177
 4857TIP3   OH214534   1.977   3.885   2.717
 4857TIP3    H114535   1.964   3.795   2.747
 4857TIP3    H214536   2.002   3.933   2.795
 4858TIP3   OH214537   4.395   6.098   0.444
 4858TIP3    H114538   4.414   6.005   0.439
 4858TIP3    H214539   4.479   6.141   0.423
 4859TIP3   OH214540   0.334   6.338   0.153
 4859TIP3    H114541   0.421   6.300   0.142
 4859TIP3    H214542   0.342   6.393   0.231
 4860TIP3   OH214543   2.359   3.351   2.013
 4860TIP3    H114544   2.424   3.301   2.063
 4860TIP3    H214545   2.318   3.287   1.956
 4861TIP3   OH214546   4.898   3.103   2.583
 4861TIP3    H114547   4.971   3.105   2.520
 4861TIP3    H214548   4.847   3.182   2.563
 4862TIP3   OH214549   2.229   6.525   2.733
 4862TIP3    H114550   2.157   6.477   2.692
 4862TIP3    H214551   2.186   6.593   2.786
 4863TIP3   OH214552   2.497   2.022   1.346
 4863TIP3    H114553   2.522   2.083   1.415
 4863TIP3    H214554   2.511   2.072   1.265
 4864TIP3   OH214555   4.708   3.897   4.980
 4864TIP3    H114556   4.616   3.881   4.999
 4864TIP3    H214557   4.709   3.928   4.889
 4865TIP3   OH214558   5.148   2.880   1.050
 4865TIP3    H114559   5.219   2.832   1.093
 4865TIP3    H214560   5.105   2.928   1.121
 4866TIP3   OH214561   0.225   3.635   3.699
 4866TIP3    H114562   0.280   3.591   3.633
 4866TIP3    H214563   0.161   3.684   3.648
 4867TIP3   OH214564   1.423   3.571   3.661
 4867TIP3    H114565   1.349   3.631   3.673
 4867TIP3    H214566   1.400   3.522   3.583
 4868TIP3   OH214567   3.859   4.845   4.420
 4868TIP3    H114568   3.849   4.884   4.507
 4868TIP3    H214569   3.773   4.857   4.379
 4869TIP3   OH214570   2.808   4.698   2.014
 4869TIP3    H114571   2.742   4.729   2.076
 4869TIP3    H214572   2.761   4.691   1.930
 4870TIP3   OH214573   6.199   2.294   5.510
 4870TIP3    H114574   6.165   2.336   5.589
 4870TIP3    H214575   6.288   2.326   5.502
 4871TIP3   OH214576   1.873   0.637   4.535
 4871TIP3    H114577   1.945   0.638   4.597
 4871TIP3    H214578   1.912   0.665   4.452
 4872TIP3   OH214579   1.838   0.854   3.618
 4872TIP3    H114580   1.755   0.812   3.597
 4872TIP3    H214581   1.824   0.895   3.703
 4873TIP3   OH214582   4.773   4.096   4.719
 4873TIP3    H114583   4.692   4.135   4.687
 4873TIP3    H214584   4.777   4.010   4.677
 4874TIP3   OH214585   5.434   6.204   1.820
 4874TIP3    H114586   5.343   6.195   1.791
 4874TIP3    H214587   5.459   6.293   1.794
 4875TIP3   OH214588   1.353   6.783   5.745
 4875TIP3    H114589   1.412   6.714   5.775
 4875TIP3    H214590   1.387   6.863   5.785
 4876TIP3   OH214591   3.356   1.971   1.262
 4876TIP3    H114592   3.271   1.957   1.304
 4876TIP3    H214593   3.414   1.909   1.306
 4877TIP3   OH214594   3.068   5.778   3.280
 4877TIP3    H114595   3.020   5.753   3.201
 4877TIP3    H214596   3.049   5.708   3.342
 4878TIP3   OH214597   0.641   3.485   1.286
 4878TIP3    H114598   0.701   3.413   1.305
 4878TIP3    H214599   0.690   3.564   1.308
 4879TIP3   OH214600   5.959   3.966   3.006
 4879TIP3    H114601   5.885   4.000   2.956
 4879TIP3    H214602   5.945   3.871   3.007
 4880TIP3   OH214603   0.994   2.567   5.704
 4880TIP3    H114604   0.915   2.556   5.758
 4880TIP3    H214605   0.962   2.611   5.625
 4881TIP3   OH214606   5.218   1.149   4.624
 4881TIP3    H114607   5.302   1.193   4.623
 4881TIP3    H214608   5.159   1.210   4.668
 4882TIP3   OH214609   6.978   6.040   0.683
 4882TIP3    H114610   6.978   6.106   0.613
 4882TIP3    H214611   6.895   6.053   0.728
 4883TIP3   OH214612   0.232   6.150   1.187
 4883TIP3    H114613   0.240   6.242   1.211
 4883TIP3    H214614   0.216   6.151   1.092
 4884TIP3   OH214615   3.748   0.444   5.210
 4884TIP3    H114616   3.836   0.419   5.237
 4884TIP3    H214617   3.710   0.486   5.287
 4885TIP3   OH214618   5.860   5.458   0.458
 4885TIP3    H114619   5.788   5.396   0.469
 4885TIP3    H214620   5.918   5.417   0.395
 4886TIP3   OH214621   1.561   2.477   2.077
 4886TIP3    H114622   1.568   2.572   2.068
 4886TIP3    H214623   1.591   2.443   1.993
 4887TIP3   OH214624   2.226   2.700   2.786
 4887TIP3    H114625   2.173   2.634   2.831
 4887TIP3    H214626   2.293   2.725   2.850
 4888TIP3   OH214627   2.166   3.284   4.925
 4888TIP3    H114628   2.235   3.299   4.990
 4888TIP3    H214629   2.206   3.224   4.862
 4889TIP3   OH214630   1.149   5.687   5.553
 4889TIP3    H114631   1.196   5.653   5.477
 4889TIP3    H214632   1.113   5.609   5.596
 4890TIP3   OH214633   1.477   6.271   4.374
 4890TIP3    H114634   1.481   6.312   4.460
 4890TIP3    H214635   1.553   6.212   4.373
 4891TIP3   OH214636   4.529   2.745   4.937
 4891TIP3    H114637   4.562   2.748   4.848
 4891TIP3    H214638   4.484   2.829   4.949
 4892TIP3   OH214639   6.330   1.764   0.320
 4892TIP3    H114640   6.273   1.841   0.329
 4892TIP3    H214641   6.348   1.758   0.226
 4893TIP3   OH214642   2.567   5.814   5.219
 4893TIP3    H114643   2.513   5.818   5.297
 4893TIP3    H214644   2.644   5.762   5.245
 4894TIP3   OH214645   4.640   1.583   4.321
 4894TIP3    H114646   4.731   1.595   4.348
 4894TIP3    H214647   4.639   1.610   4.229
 4895TIP3   OH214648   4.831   6.325   2.137
 4895TIP3    H114649   4.767   6.320   2.208
 4895TIP3    H214650   4.914   6.346   2.181
 4896TIP3   OH214651   5.007   5.739   1.234
 4896TIP3    H114652   4.998   5.832   1.256
 4896TIP3    H214653   5.101   5.724   1.231
 4897TIP3   OH214654   5.282   0.283   0.034
 4897TIP3    H114655   5.233   0.362   0.012
 4897TIP3    H214656   5.220   0.230   0.084
 4898TIP3   OH214657   4.560   5.461   1.981
 4898TIP3    H114658   4.647   5.500   1.979
 4898TIP3    H214659   4.514   5.509   2.050
 4899TIP3   OH214660   5.889   3.441   5.759
 4899TIP3    H114661   5.800   3.434   5.794
 4899TIP3    H214662   5.880   3.496   5.681
 4900TIP3   OH214663   6.815   3.645   5.006
 4900TIP3    H114664   6.725   3.624   4.980
 4900TIP3    H214665   6.847   3.704   4.937
 4901TIP3   OH214666   4.267   3.313   4.748
 4901TIP3    H114667   4.303   3.402   4.747
 4901TIP3    H214668   4.269   3.288   4.841
 4902TIP3   OH214669   2.889   4.647   4.399
 4902TIP3    H114670   2.918   4.584   4.465
 4902TIP3    H214671   2.949   4.636   4.326
 4903TIP3   OH214672   3.366   3.320   5.181
 4903TIP3    H114673   3.426   3.316   5.107
 4903TIP3    H214674   3.300   3.384   5.156
 4904TIP3   OH214675   5.662   3.760   2.097
 4904TIP3    H114676   5.680   3.739   2.189
 4904TIP3    H214677   5.577   3.719   2.079
 4905TIP3   OH214678   7.108   6.424   1.210
 4905TIP3    H114679   7.062   6.340   1.212
 4905TIP3    H214680   7.089   6.463   1.296
 4906TIP3   OH214681   1.508   1.770   3.430
 4906TIP3    H114682   1.542   1.859   3.439
 4906TIP3    H214683   1.516   1.750   3.337
 4907TIP3   OH214684   0.437   1.712   4.136
 4907TIP3    H114685   0.449   1.782   4.201
 4907TIP3    H214686   0.351   1.730   4.097
 4908TIP3   OH214687   3.041   3.404   4.322
 4908TIP3    H114688   3.080   3.430   4.238
 4908TIP3    H214689   3.011   3.314   4.308
 4909TIP3   OH214690   4.977   5.358   1.820
 4909TIP3    H114691   5.026   5.422   1.770
 4909TIP3    H214692   5.037   5.284   1.831
 4910TIP3   OH214693   1.333   1.321   0.445
 4910TIP3    H114694   1.420   1.323   0.484
 4910TIP3    H214695   1.348   1.337   0.352
 4911TIP3   OH214696   6.386   1.645   1.599
 4911TIP3    H114697   6.434   1.723   1.627
 4911TIP3    H214698   6.317   1.635   1.665
 4912TIP3   OH214699   1.373   3.923   3.484
 4912TIP3    H114700   1.446   3.919   3.545
 4912TIP3    H214701   1.394   3.858   3.418
 4913TIP3   OH214702   2.086   5.753   4.944
 4913TIP3    H114703   1.992   5.757   4.924
 4913TIP3    H214704   2.090   5.739   5.039
 4914TIP3   OH214705   3.290   5.555   1.667
 4914TIP3    H114706   3.293   5.478   1.723
 4914TIP3    H214707   3.379   5.562   1.631
 4915TIP3   OH214708   0.752   2.127   5.115
 4915TIP3    H114709   0.694   2.185   5.164
 4915TIP3    H214710   0.834   2.176   5.107
 4916TIP3   OH214711   5.579   6.106   3.664
 4916TIP3    H114712   5.635   6.183   3.660
 4916TIP3    H214713   5.563   6.084   3.572
 4917TIP3   OH214714   3.822   5.963   1.803
 4917TIP3    H114715   3.796   5.988   1.715
 4917TIP3    H214716   3.903   6.012   1.819
 4918TIP3   OH214717   6.523   3.450   0.082
 4918TIP3    H114718   6.569   3.384   0.029
 4918TIP3    H214719   6.505   3.407   0.165
 4919TIP3   OH214720   1.745   4.625   5.363
 4919TIP3    H114721   1.753   4.694   5.297
 4919TIP3    H214722   1.680   4.565   5.327
 4920TIP3   OH214723   3.494   6.120   5.672
 4920TIP3    H114724   3.570   6.107   5.729
 4920TIP3    H214725   3.467   6.032   5.647
 4921TIP3   OH214726   3.700   0.011   4.623
 4921TIP3    H114727   3.726  -0.006   4.713
 4921TIP3    H214728   3.682   0.105   4.620
 4922TIP3   OH214729   2.008   4.992   1.853
 4922TIP3    H114730   1.971   4.955   1.773
 4922TIP3    H214731   2.011   4.919   1.914
 4923TIP3   OH214732   6.248   0.428   0.460
 4923TIP3    H114733   6.203   0.383   0.389
 4923TIP3    H214734   6.211   0.390   0.540
 4924TIP3   OH214735   6.369   4.683   2.679
 4924TIP3    H114736   6.413   4.723   2.604
 4924TIP3    H214737   6.308   4.621   2.640
 4925TIP3   OH214738   5.113   0.709   0.637
 4925TIP3    H114739   5.121   0.638   0.700
 4925TIP3    H214740   5.113   0.788   0.691
 4926TIP3   OH214741   0.965   0.948   5.430
 4926TIP3    H114742   0.974   0.973   5.338
 4926TIP3    H214743   0.961   1.030   5.478
 4927TIP3   OH214744   5.754   5.031   3.675
 4927TIP3    H114745   5.807   4.961   3.637
 4927TIP3    H214746   5.788   5.041   3.764
 4928TIP3   OH214747   0.298   1.432   4.851
 4928TIP3    H114748   0.285   1.527   4.858
 4928TIP3    H214749   0.391   1.422   4.833
 4929TIP3   OH214750   2.263   4.274   0.421
 4929TIP3    H114751   2.270   4.365   0.452
 4929TIP3    H214752   2.169   4.258   0.418
 4930TIP3   OH214753   0.562   5.075   3.505
 4930TIP3    H114754   0.618   5.029   3.567
 4930TIP3    H214755   0.621   5.136   3.460
 4931TIP3   OH214756   2.421   4.573   2.556
 4931TIP3    H114757   2.387   4.616   2.635
 4931TIP3    H214758   2.460   4.492   2.589
 4932TIP3   OH214759   3.607   0.274   4.631
 4932TIP3    H114760   3.528   0.247   4.678
 4932TIP3    H214761   3.633   0.356   4.672
 4933TIP3   OH214762   4.050   5.527   0.658
 4933TIP3    H114763   4.126   5.565   0.701
 4933TIP3    H214764   4.025   5.591   0.592
 4934TIP3   OH214765   0.993   5.774   3.375
 4934TIP3    H114766   1.043   5.700   3.410
 4934TIP3    H214767   0.999   5.841   3.443
 4935TIP3   OH214768   6.383   4.263   2.953
 4935TIP3    H114769   6.425   4.300   2.876
 4935TIP3    H214770   6.308   4.214   2.919
 4936TIP3   OH214771   2.573   0.645   5.516
 4936TIP3    H114772   2.513   0.598   5.574
 4936TIP3    H214773   2.534   0.635   5.429
 4937TIP3   OH214774   3.420   1.715   3.192
 4937TIP3    H114775   3.492   1.702   3.130
 4937TIP3    H214776   3.351   1.756   3.140
 4938TIP3   OH214777   3.838   3.696   3.977
 4938TIP3    H114778   3.766   3.659   3.926
 4938TIP3    H214779   3.803   3.776   4.015
 4939TIP3   OH214780   4.959   3.401   4.633
 4939TIP3    H114781   4.890   3.355   4.583
 4939TIP3    H214782   4.910   3.456   4.694
 4940TIP3   OH214783   4.870   6.663   4.316
 4940TIP3    H114784   4.882   6.738   4.374
 4940TIP3    H214785   4.854   6.702   4.230
 4941TIP3   OH214786   0.137   5.669   0.473
 4941TIP3    H114787   0.136   5.653   0.568
 4941TIP3    H214788   0.048   5.648   0.445
 4942TIP3   OH214789   0.872   4.210   4.441
 4942TIP3    H114790   0.935   4.164   4.386
 4942TIP3    H214791   0.797   4.226   4.383
 4943TIP3   OH214792   2.514   5.377   3.713
 4943TIP3    H114793   2.492   5.311   3.647
 4943TIP3    H214794   2.503   5.461   3.668
 4944TIP3   OH214795   0.277   2.939   3.843
 4944TIP3    H114796   0.242   2.958   3.930
 4944TIP3    H214797   0.258   3.017   3.791
 4945TIP3   OH214798   0.744   5.631   3.285
 4945TIP3    H114799   0.729   5.725   3.290
 4945TIP3    H214800   0.839   5.622   3.271
 4946TIP3   OH214801   2.385   4.556   3.923
 4946TIP3    H114802   2.377   4.483   3.862
 4946TIP3    H214803   2.327   4.533   3.996
 4947TIP3   OH214804   5.494   5.050   4.479
 4947TIP3    H114805   5.410   5.075   4.518
 4947TIP3    H214806   5.471   4.999   4.402
 4948TIP3   OH214807   0.337   3.962   0.132
 4948TIP3    H114808   0.343   4.046   0.178
 4948TIP3    H214809   0.332   3.897   0.202
 4949TIP3   OH214810   1.533   0.979   1.926
 4949TIP3    H114811   1.515   0.974   1.832
 4949TIP3    H214812   1.518   0.890   1.957
 4950TIP3   OH214813   5.014   2.628   1.806
 4950TIP3    H114814   5.022   2.669   1.720
 4950TIP3    H214815   4.946   2.678   1.851
 4951TIP3   OH214816   5.695   1.094   0.018
 4951TIP3    H114817   5.712   1.009  -0.024
 4951TIP3    H214818   5.700   1.075   0.112
 4952TIP3   OH214819   5.851   3.385   1.301
 4952TIP3    H114820   5.809   3.335   1.371
 4952TIP3    H214821   5.893   3.459   1.345
 4953TIP3   OH214822   4.987   3.612   4.983
 4953TIP3    H114823   5.079   3.587   4.977
 4953TIP3    H214824   4.973   3.628   5.077
 4954TIP3   OH214825   3.847   6.653   4.137
 4954TIP3    H114826   3.776   6.643   4.201
 4954TIP3    H214827   3.917   6.596   4.171
 4955TIP3   OH214828   1.161   1.702   1.052
 4955TIP3    H114829   1.101   1.691   1.126
 4955TIP3    H214830   1.204   1.786   1.069
 4956TIP3   OH214831   2.784   1.352   4.954
 4956TIP3    H114832   2.848   1.322   5.019
 4956TIP3    H214833   2.797   1.446   4.950
 4957TIP3   OH214834   2.138   0.425   2.352
 4957TIP3    H114835   2.227   0.411   2.318
 4957TIP3    H214836   2.150   0.435   2.446
 4958TIP3   OH214837   5.335   4.328   0.620
 4958TIP3    H114838   5.388   4.321   0.541
 4958TIP3    H214839   5.297   4.240   0.630
 4959TIP3   OH214840   1.625   2.752   0.292
 4959TIP3    H114841   1.608   2.682   0.228
 4959TIP3    H214842   1.720   2.755   0.299
 4960TIP3   OH214843   1.716   0.534   1.531
 4960TIP3    H114844   1.718   0.589   1.454
 4960TIP3    H214845   1.749   0.590   1.602
 4961TIP3   OH214846   2.995   6.729   0.289
 4961TIP3    H114847   3.042   6.806   0.256
 4961TIP3    H214848   2.993   6.668   0.215
 4962TIP3   OH214849   3.894   4.401   4.510
 4962TIP3    H114850   3.939   4.420   4.427
 4962TIP3    H214851   3.956   4.429   4.578
 4963TIP3   OH214852   5.649   2.995   4.878
 4963TIP3    H114853   5.745   2.998   4.877
 4963TIP3    H214854   5.626   2.979   4.969
 4964TIP3   OH214855   3.604   5.069   0.865
 4964TIP3    H114856   3.675   5.133   0.870
 4964TIP3    H214857   3.648   4.986   0.847
 4965TIP3   OH214858   3.282   0.887   1.421
 4965TIP3    H114859   3.283   0.805   1.470
 4965TIP3    H214860   3.252   0.952   1.484
 4966TIP3   OH214861   1.764   0.724   3.982
 4966TIP3    H114862   1.695   0.712   3.916
 4966TIP3    H214863   1.790   0.815   3.973
 4967TIP3   OH214864   4.772   3.503   0.722
 4967TIP3    H114865   4.702   3.476   0.782
 4967TIP3    H214866   4.837   3.546   0.779
 4968TIP3   OH214867   0.730   6.395   0.421
 4968TIP3    H114868   0.796   6.436   0.366
 4968TIP3    H214869   0.738   6.439   0.505
 4969TIP3   OH214870   5.087   4.121   0.902
 4969TIP3    H114871   5.001   4.091   0.871
 4969TIP3    H214872   5.139   4.041   0.911
 4970TIP3   OH214873   0.460   5.041   2.312
 4970TIP3    H114874   0.525   5.014   2.247
 4970TIP3    H214875   0.468   4.976   2.382
 4971TIP3   OH214876   7.220   4.942   1.791
 4971TIP3    H114877   7.130   4.925   1.819
 4971TIP3    H214878   7.220   5.033   1.763
 4972TIP3   OH214879   2.795   2.335   4.146
 4972TIP3    H114880   2.798   2.259   4.204
 4972TIP3    H214881   2.862   2.394   4.181
 4973TIP3   OH214882   3.636   4.966   4.005
 4973TIP3    H114883   3.572   4.907   3.964
 4973TIP3    H214884   3.632   5.046   3.954
 4974TIP3   OH214885   5.056   0.410   1.992
 4974TIP3    H114886   5.003   0.422   1.913
 4974TIP3    H214887   4.994   0.423   2.064
 4975TIP3   OH214888   4.870   1.162   0.725
 4975TIP3    H114889   4.800   1.161   0.661
 4975TIP3    H214890   4.828   1.194   0.806
 4976TIP3   OH214891   6.137   2.576   3.054
 4976TIP3    H114892   6.076   2.537   2.992
 4976TIP3    H214893   6.103   2.664   3.070
 4977TIP3   OH214894   5.390   2.718   3.241
 4977TIP3    H114895   5.360   2.731   3.331
 4977TIP3    H214896   5.317   2.750   3.187
 4978TIP3   OH214897   3.497   3.219   1.703
 4978TIP3    H114898   3.504   3.123   1.699
 4978TIP3    H214899   3.553   3.250   1.632
 4979TIP3   OH214900   6.820   1.639   3.982
 4979TIP3    H114901   6.871   1.617   4.060
 4979TIP3    H214902   6.754   1.569   3.976
 4980TIP3   OH214903   1.043   4.680   5.315
 4980TIP3    H114904   1.013   4.599   5.273
 4980TIP3    H214905   1.057   4.741   5.243
 4981TIP3   OH214906   4.127   4.041   0.163
 4981TIP3    H114907   4.153   4.029   0.072
 4981TIP3    H214908   4.166   4.125   0.189
 4982TIP3   OH214909   5.135   0.121   2.551
 4982TIP3    H114910   5.099   0.210   2.555
 4982TIP3    H214911   5.178   0.108   2.635
 4983TIP3   OH214912   3.562   4.108   5.359
 4983TIP3    H114913   3.568   4.190   5.310
 4983TIP3    H214914   3.606   4.044   5.304
 4984TIP3   OH214915   0.112   2.692   3.031
 4984TIP3    H114916   0.029   2.729   3.001
 4984TIP3    H214917   0.093   2.656   3.117
 4985TIP3   OH214918   1.823   2.532   0.303
 4985TIP3    H114919   1.879   2.523   0.379
 4985TIP3    H214920   1.735   2.509   0.334
 4986TIP3   OH214921   7.083   3.147   3.705
 4986TIP3    H114922   7.112   3.057   3.691
 4986TIP3    H214923   7.138   3.179   3.777
 4987TIP3   OH214924   6.303   1.627   5.067
 4987TIP3    H114925   6.225   1.681   5.067
 4987TIP3    H214926   6.331   1.624   5.159
 4988TIP3   OH214927   1.046   1.336   4.059
 4988TIP3    H114928   0.965   1.353   4.107
 4988TIP3    H214929   1.051   1.407   3.995
 4989TIP3   OH214930   6.562   6.162   1.756
 4989TIP3    H114931   6.525   6.073   1.750
 4989TIP3    H214932   6.577   6.188   1.665
 4990TIP3   OH214933   3.717   6.744   2.858
 4990TIP3    H114934   3.744   6.693   2.781
 4990TIP3    H214935   3.646   6.694   2.896
 4991TIP3   OH214936   6.338   1.810   5.575
 4991TIP3    H114937   6.280   1.864   5.522
 4991TIP3    H214938   6.416   1.864   5.586
 4992TIP3   OH214939   6.929   5.628   1.544
 4992TIP3    H114940   6.970   5.667   1.466
 4992TIP3    H214941   7.002   5.619   1.606
 4993TIP3   OH214942   3.425   2.038   2.246
 4993TIP3    H114943   3.501   2.064   2.194
 4993TIP3    H214944   3.453   2.051   2.337
 4994TIP3   OH214945   5.743   4.867   4.237
 4994TIP3    H114946   5.807   4.803   4.268
 4994TIP3    H214947   5.764   4.879   4.144
 4995TIP3   OH214948   0.816   1.875   5.199
 4995TIP3    H114949   0.777   1.962   5.195
 4995TIP3    H214950   0.837   1.854   5.108
 4996TIP3   OH214951   6.376   0.600   4.258
 4996TIP3    H114952   6.348   0.616   4.168
 4996TIP3    H214953   6.295   0.588   4.307
 4997TIP3   OH214954   1.413   3.893   3.043
 4997TIP3    H114955   1.333   3.925   3.002
 4997TIP3    H214956   1.483   3.927   2.987
 4998TIP3   OH214957   7.077   2.087   3.113
 4998TIP3    H114958   7.061   2.161   3.171
 4998TIP3    H214959   7.001   2.029   3.126
 4999TIP3   OH214960   0.768   0.661   1.484
 4999TIP3    H114961   0.689   0.701   1.518
 4999TIP3    H214962   0.816   0.733   1.443
 5000TIP3   OH214963   6.885   2.313   4.352
 5000TIP3    H114964   6.792   2.323   4.332
 5000TIP3    H214965   6.897   2.358   4.436
 5001TIP3   OH214966   5.737   1.592   4.891
 5001TIP3    H114967   5.704   1.616   4.977
 5001TIP3    H214968   5.735   1.496   4.890
 5002TIP3   OH214969   0.692   5.965   5.221
 5002TIP3    H114970   0.767   6.023   5.202
 5002TIP3    H214971   0.675   5.978   5.314
 5003TIP3   OH214972   5.359   3.880   2.464
 5003TIP3    H114973   5.421   3.810   2.486
 5003TIP3    H214974   5.409   3.961   2.480
 5004TIP3   OH214975   2.054   4.958   4.782
 5004TIP3    H114976   2.139   4.982   4.743
 5004TIP3    H214977   1.998   5.035   4.766
 5005TIP3   OH214978   0.796   2.090   1.752
 5005TIP3    H114979   0.766   2.040   1.827
 5005TIP3    H214980   0.729   2.076   1.685
 5006TIP3   OH214981   2.579   5.136   2.339
 5006TIP3    H114982   2.506   5.111   2.395
 5006TIP3    H214983   2.539   5.171   2.260
 5007TIP3   OH214984   2.565   1.261   1.097
 5007TIP3    H114985   2.542   1.180   1.051
 5007TIP3    H214986   2.529   1.250   1.185
 5008TIP3   OH214987   4.163   3.697   3.982
 5008TIP3    H114988   4.091   3.721   3.924
 5008TIP3    H214989   4.239   3.689   3.924
 5009TIP3   OH214990   1.760   0.254   4.069
 5009TIP3    H114991   1.697   0.207   4.123
 5009TIP3    H214992   1.808   0.309   4.131
 5010TIP3   OH214993   4.036   0.685   5.693
 5010TIP3    H114994   4.027   0.651   5.782
 5010TIP3    H214995   3.946   0.704   5.665
 5011TIP3   OH214996   1.695   6.543   1.968
 5011TIP3    H114997   1.776   6.529   1.920
 5011TIP3    H214998   1.655   6.456   1.975
 5012TIP3   OH214999   3.681   3.824   1.503
 5012TIP3    H115000   3.634   3.865   1.575
 5012TIP3    H215001   3.654   3.732   1.506
 5013TIP3   OH215002   0.507   4.574   3.259
 5013TIP3    H115003   0.505   4.600   3.167
 5013TIP3    H215004   0.556   4.644   3.302
 5014TIP3   OH215005   1.447   4.236   4.913
 5014TIP3    H115006   1.442   4.173   4.984
 5014TIP3    H215007   1.362   4.231   4.869
 5015TIP3   OH215008   1.572   3.035   1.600
 5015TIP3    H115009   1.519   3.106   1.637
 5015TIP3    H215010   1.628   3.007   1.673
 5016TIP3   OH215011   5.412   0.525   5.166
 5016TIP3    H115012   5.453   0.506   5.081
 5016TIP3    H215013   5.323   0.491   5.158
 5017TIP3   OH215014   0.730   4.651   2.785
 5017TIP3    H115015   0.777   4.581   2.830
 5017TIP3    H215016   0.773   4.658   2.700
 5018TIP3   OH215017   6.214   4.269   4.275
 5018TIP3    H115018   6.277   4.325   4.228
 5018TIP3    H215019   6.250   4.181   4.265
 5019TIP3   OH215020   2.475   1.706   1.956
 5019TIP3    H115021   2.559   1.748   1.937
 5019TIP3    H215022   2.428   1.770   2.010
 5020TIP3   OH215023   6.947   3.584   2.773
 5020TIP3    H115024   6.896   3.660   2.802
 5020TIP3    H215025   6.881   3.516   2.758
 5021TIP3   OH215026   1.587   3.704   5.822
 5021TIP3    H115027   1.676   3.684   5.792
 5021TIP3    H215028   1.594   3.789   5.865
 5022TIP3   OH215029   4.305   2.654   0.629
 5022TIP3    H115030   4.269   2.739   0.652
 5022TIP3    H215031   4.232   2.606   0.590
 5023TIP3   OH215032   6.337   1.410   5.539
 5023TIP3    H115033   6.401   1.340   5.554
 5023TIP3    H215034   6.359   1.478   5.602
 5024TIP3   OH215035   3.020   2.593   2.648
 5024TIP3    H115036   2.929   2.566   2.661
 5024TIP3    H215037   3.015   2.666   2.587
 5025TIP3   OH215038   1.083   5.442   5.677
 5025TIP3    H115039   1.096   5.370   5.615
 5025TIP3    H215040   0.999   5.423   5.718
 5026TIP3   OH215041   4.160   6.092   3.016
 5026TIP3    H115042   4.119   6.163   3.065
 5026TIP3    H215043   4.135   6.108   2.925
 5027TIP3   OH215044   4.860   6.221   5.212
 5027TIP3    H115045   4.774   6.181   5.227
 5027TIP3    H215046   4.914   6.148   5.181
 5028TIP3   OH215047   2.432   0.790   4.860
 5028TIP3    H115048   2.348   0.808   4.904
 5028TIP3    H215049   2.475   0.875   4.853
 5029TIP3   OH215050   2.636   2.535   3.528
 5029TIP3    H115051   2.715   2.587   3.545
 5029TIP3    H215052   2.565   2.587   3.566
 5030TIP3   OH215053   7.010  -0.007   1.799
 5030TIP3    H115054   6.947  -0.009   1.870
 5030TIP3    H215055   7.018   0.085   1.777
 5031TIP3   OH215056   3.022   4.134   3.825
 5031TIP3    H115057   3.019   4.229   3.808
 5031TIP3    H215058   2.932   4.105   3.812
 5032TIP3   OH215059   6.398   0.138   0.972
 5032TIP3    H115060   6.398   0.225   0.932
 5032TIP3    H215061   6.398   0.077   0.898
 5033TIP3   OH215062   2.958   6.138   5.315
 5033TIP3    H115063   2.959   6.155   5.410
 5033TIP3    H215064   3.041   6.093   5.299
 5034TIP3   OH215065   1.033   2.444   4.633
 5034TIP3    H115066   0.980   2.504   4.581
 5034TIP3    H215067   1.007   2.462   4.723
 5035TIP3   OH215068   2.628   6.121   2.733
 5035TIP3    H115069   2.557   6.183   2.749
 5035TIP3    H215070   2.687   6.132   2.808
 5036TIP3   OH215071   3.357   1.592   4.848
 5036TIP3    H115072   3.397   1.671   4.886
 5036TIP3    H215073   3.415   1.521   4.875
 5037TIP3   OH215074   3.568   5.537   1.327
 5037TIP3    H115075   3.493   5.593   1.347
 5037TIP3    H215076   3.591   5.557   1.236
 5038TIP3   OH215077   1.506   6.059   1.130
 5038TIP3    H115078   1.551   6.025   1.207
 5038TIP3    H215079   1.424   6.096   1.164
 5039TIP3   OH215080   6.790   6.018   1.457
 5039TIP3    H115081   6.796   5.985   1.367
 5039TIP3    H215082   6.833   5.951   1.510
 5040TIP3   OH215083   1.804   1.448   4.722
 5040TIP3    H115084   1.831   1.372   4.669
 5040TIP3    H215085   1.829   1.425   4.811
 5041TIP3   OH215086   6.614   0.641   4.797
 5041TIP3    H115087   6.585   0.562   4.842
 5041TIP3    H215088   6.629   0.705   4.867
 5042TIP3   OH215089   2.590   5.574   4.037
 5042TIP3    H115090   2.540   5.649   4.003
 5042TIP3    H215091   2.558   5.500   3.986
 5043TIP3   OH215092   5.433   5.929   1.911
 5043TIP3    H115093   5.430   6.017   1.949
 5043TIP3    H215094   5.524   5.918   1.883
 5044TIP3   OH215095   3.138   0.424   5.282
 5044TIP3    H115096   3.079   0.386   5.347
 5044TIP3    H215097   3.083   0.435   5.204
 5045TIP3   OH215098   5.509   6.672   3.548
 5045TIP3    H115099   5.457   6.609   3.599
 5045TIP3    H215100   5.566   6.713   3.613
 5046TIP3   OH215101   4.772   5.950   2.862
 5046TIP3    H115102   4.755   6.010   2.934
 5046TIP3    H215103   4.777   5.864   2.903
 5047TIP3   OH215104   0.680   4.460   5.536
 5047TIP3    H115105   0.602   4.439   5.586
 5047TIP3    H215106   0.704   4.379   5.492
 5048TIP3   OH215107   5.873   5.527   0.934
 5048TIP3    H115108   5.888   5.557   1.023
 5048TIP3    H215109   5.941   5.570   0.882
 5049TIP3   OH215110   0.595   5.000   0.655
 5049TIP3    H115111   0.646   5.079   0.642
 5049TIP3    H215112   0.515   5.029   0.699
 5050TIP3   OH215113   1.827   1.171   2.645
 5050TIP3    H115114   1.809   1.245   2.703
 5050TIP3    H215115   1.744   1.156   2.599
 5051TIP3   OH215116   4.083   2.161   1.255
 5051TIP3    H115117   4.046   2.248   1.274
 5051TIP3    H215118   4.116   2.168   1.166
 5052TIP3   OH215119   0.704   3.488   4.072
 5052TIP3    H115120   0.663   3.406   4.098
 5052TIP3    H215121   0.663   3.509   3.988
 5053TIP3   OH215122   5.200   3.871   5.556
 5053TIP3    H115123   5.188   3.819   5.635
 5053TIP3    H215124   5.294   3.889   5.554
 5054TIP3   OH215125   1.544   4.807   1.413
 5054TIP3    H115126   1.555   4.901   1.397
 5054TIP3    H215127   1.633   4.771   1.407
 5055TIP3   OH215128   6.729   0.671   4.543
 5055TIP3    H115129   6.809   0.618   4.549
 5055TIP3    H215130   6.697   0.677   4.633
 5056TIP3   OH215131   3.632   0.293   1.117
 5056TIP3    H115132   3.711   0.327   1.075
 5056TIP3    H215133   3.663   0.227   1.178
 5057TIP3   OH215134   4.205   3.530   2.509
 5057TIP3    H115135   4.233   3.592   2.577
 5057TIP3    H215136   4.287   3.495   2.474
 5058TIP3   OH215137   1.387   5.371   2.238
 5058TIP3    H115138   1.394   5.276   2.249
 5058TIP3    H215139   1.469   5.396   2.196
 5059TIP3   OH215140   3.834   3.543   5.552
 5059TIP3    H115141   3.784   3.522   5.631
 5059TIP3    H215142   3.837   3.461   5.503
 5060TIP3   OH215143   0.306   3.892   4.338
 5060TIP3    H115144   0.226   3.899   4.390
 5060TIP3    H215145   0.365   3.957   4.376
 5061TIP3   OH215146   6.133   6.072   0.928
 5061TIP3    H115147   6.158   6.084   1.020
 5061TIP3    H215148   6.214   6.052   0.882
 5062TIP3   OH215149   7.138   2.681   0.671
 5062TIP3    H115150   7.168   2.627   0.744
 5062TIP3    H215151   7.218   2.706   0.625
 5063TIP3   OH215152   6.866   0.002   5.564
 5063TIP3    H115153   6.867  -0.042   5.480
 5063TIP3    H215154   6.774   0.021   5.581
 5064TIP3   OH215155   1.897   5.102   3.895
 5064TIP3    H115156   1.839   5.037   3.937
 5064TIP3    H215157   1.894   5.079   3.802
 5065TIP3   OH215158   4.117   3.969   4.544
 5065TIP3    H115159   4.022   3.977   4.538
 5065TIP3    H215160   4.139   3.895   4.488
 5066TIP3   OH215161   3.031   6.400   2.275
 5066TIP3    H115162   3.042   6.411   2.181
 5066TIP3    H215163   3.075   6.317   2.295
 5067TIP3   OH215164   2.987   0.617   1.691
 5067TIP3    H115165   2.993   0.582   1.779
 5067TIP3    H215166   2.941   0.700   1.701
 5068TIP3   OH215167   4.523   4.664   5.529
 5068TIP3    H115168   4.610   4.647   5.493
 5068TIP3    H215169   4.463   4.641   5.458
 5069TIP3   OH215170   5.228   2.344   3.590
 5069TIP3    H115171   5.156   2.346   3.528
 5069TIP3    H215172   5.202   2.404   3.660
 5070TIP3   OH215173   6.938   0.869   0.123
 5070TIP3    H115174   6.953   0.914   0.206
 5070TIP3    H215175   6.996   0.793   0.126
 5071TIP3   OH215176   4.695   6.491   0.962
 5071TIP3    H115177   4.609   6.488   0.921
 5071TIP3    H215178   4.712   6.584   0.975
 5072TIP3   OH215179   3.257   1.588   2.179
 5072TIP3    H115180   3.343   1.546   2.182
 5072TIP3    H215181   3.271   1.670   2.132
 5073TIP3   OH215182   1.002   0.615   2.082
 5073TIP3    H115183   1.069   0.674   2.048
 5073TIP3    H215184   0.921   0.666   2.079
 5074TIP3   OH215185   6.922   5.655   1.971
 5074TIP3    H115186   6.947   5.737   2.014
 5074TIP3    H215187   6.839   5.631   2.011
 5075TIP3   OH215188   6.151   3.093   1.348
 5075TIP3    H115189   6.169   3.171   1.400
 5075TIP3    H215190   6.089   3.043   1.401
 5076TIP3   OH215191   4.620   3.904   4.526
 5076TIP3    H115192   4.706   3.887   4.564
 5076TIP3    H215193   4.578   3.819   4.522
 5077TIP3   OH215194   2.602   4.807   3.826
 5077TIP3    H115195   2.585   4.861   3.903
 5077TIP3    H215196   2.554   4.726   3.842
 5078TIP3   OH215197   6.433   2.425   2.062
 5078TIP3    H115198   6.508   2.438   2.119
 5078TIP3    H215199   6.399   2.513   2.046
 5079TIP3   OH215200   0.939   4.843   3.117
 5079TIP3    H115201   0.929   4.928   3.074
 5079TIP3    H215202   1.030   4.843   3.147
 5080TIP3   OH215203   5.585   4.906   5.628
 5080TIP3    H115204   5.518   4.871   5.570
 5080TIP3    H215205   5.538   4.933   5.707
 5081TIP3   OH215206   5.391   5.985   1.092
 5081TIP3    H115207   5.365   5.893   1.083
 5081TIP3    H215208   5.466   5.982   1.151
 5082TIP3   OH215209   3.009   2.121   3.878
 5082TIP3    H115210   3.054   2.045   3.841
 5082TIP3    H215211   3.078   2.170   3.924
 5083TIP3   OH215212   3.465   2.393   0.369
 5083TIP3    H115213   3.467   2.430   0.457
 5083TIP3    H215214   3.381   2.423   0.332
 5084TIP3   OH215215   4.606   6.363   1.759
 5084TIP3    H115216   4.558   6.416   1.822
 5084TIP3    H215217   4.542   6.300   1.726
 5085TIP3   OH215218   6.980   3.036   4.852
 5085TIP3    H115219   6.923   3.078   4.787
 5085TIP3    H215220   7.068   3.065   4.827
 5086TIP3   OH215221   3.575   4.669   5.074
 5086TIP3    H115222   3.593   4.638   4.985
 5086TIP3    H215223   3.650   4.639   5.125
 5087TIP3   OH215224   0.621   5.983   0.618
 5087TIP3    H115225   0.564   5.965   0.543
 5087TIP3    H215226   0.566   6.032   0.679
 5088TIP3   OH215227   0.480   6.098   0.835
 5088TIP3    H115228   0.406   6.052   0.875
 5088TIP3    H215229   0.441   6.170   0.786
 5089TIP3   OH215230   2.106   5.360   3.099
 5089TIP3    H115231   2.134   5.447   3.126
 5089TIP3    H215232   2.026   5.374   3.049
 5090TIP3   OH215233   0.286   2.892   3.055
 5090TIP3    H115234   0.265   2.893   3.149
 5090TIP3    H215235   0.213   2.844   3.015
 5091TIP3   OH215236   2.976   4.089   4.944
 5091TIP3    H115237   2.963   4.173   4.899
 5091TIP3    H215238   2.919   4.094   5.021
 5092TIP3   OH215239   0.329   4.460   1.127
 5092TIP3    H115240   0.323   4.547   1.166
 5092TIP3    H215241   0.302   4.400   1.196
 5093TIP3   OH215242   4.536   1.734   3.757
 5093TIP3    H115243   4.569   1.657   3.711
 5093TIP3    H215244   4.579   1.808   3.714
 5094TIP3   OH215245   3.412   3.148   0.990
 5094TIP3    H115246   3.411   3.244   0.988
 5094TIP3    H215247   3.389   3.122   0.901
 5095TIP3   OH215248   2.401   0.732   0.252
 5095TIP3    H115249   2.377   0.772   0.169
 5095TIP3    H215250   2.319   0.698   0.288
 5096TIP3   OH215251   5.507   5.998   2.819
 5096TIP3    H115252   5.489   6.087   2.790
 5096TIP3    H215253   5.596   5.981   2.789
 5097TIP3   OH215254   0.634   1.510   3.199
 5097TIP3    H115255   0.689   1.445   3.243
 5097TIP3    H215256   0.571   1.458   3.149
 5098TIP3   OH215257   0.496   3.543   2.943
 5098TIP3    H115258   0.492   3.457   2.903
 5098TIP3    H215259   0.410   3.581   2.926
 5099TIP3   OH215260   1.127   1.913   5.525
 5099TIP3    H115261   1.127   1.996   5.477
 5099TIP3    H215262   1.042   1.873   5.504
 5100TIP3   OH215263   3.760   2.040   4.416
 5100TIP3    H115264   3.723   2.001   4.337
 5100TIP3    H215265   3.777   1.967   4.475
 5101TIP3   OH215266   5.781   4.568   2.767
 5101TIP3    H115267   5.695   4.585   2.728
 5101TIP3    H215268   5.836   4.542   2.694
 5102TIP3   OH215269   3.983   2.244   4.807
 5102TIP3    H115270   3.941   2.261   4.723
 5102TIP3    H215271   4.076   2.241   4.787
 5103TIP3   OH215272   0.841   6.601   0.927
 5103TIP3    H115273   0.847   6.591   1.022
 5103TIP3    H215274   0.815   6.692   0.914
 5104TIP3   OH215275   6.456   6.712   4.663
 5104TIP3    H115276   6.437   6.705   4.756
 5104TIP3    H215277   6.373   6.741   4.623
 5105TIP3   OH215278   2.218   2.540   1.077
 5105TIP3    H115279   2.168   2.463   1.103
 5105TIP3    H215280   2.224   2.593   1.157
 5106TIP3   OH215281   0.164   3.975   5.608
 5106TIP3    H115282   0.114   4.027   5.545
 5106TIP3    H215283   0.104   3.905   5.633
 5107TIP3   OH215284   4.105   1.556   3.340
 5107TIP3    H115285   4.095   1.629   3.279
 5107TIP3    H215286   4.040   1.574   3.409
 5108TIP3   OH215287   6.512   4.377   1.214
 5108TIP3    H115288   6.530   4.385   1.121
 5108TIP3    H215289   6.545   4.290   1.238
 5109TIP3   OH215290   4.799   6.591   2.093
 5109TIP3    H115291   4.736   6.601   2.021
 5109TIP3    H215292   4.805   6.496   2.107
 5110TIP3   OH215293   3.229   1.212   1.360
 5110TIP3    H115294   3.320   1.213   1.387
 5110TIP3    H215295   3.228   1.257   1.276
 5111TIP3   OH215296   3.099   4.970   4.350
 5111TIP3    H115297   3.051   4.895   4.315
 5111TIP3    H215298   3.062   4.984   4.437
 5112TIP3   OH215299   0.377   5.230   0.168
 5112TIP3    H115300   0.302   5.189   0.211
 5112TIP3    H215301   0.428   5.157   0.134
 5113TIP3   OH215302   3.312   3.001   3.159
 5113TIP3    H115303   3.326   2.919   3.110
 5113TIP3    H215304   3.218   3.019   3.149
 5114TIP3   OH215305   6.283   1.013   4.261
 5114TIP3    H115306   6.333   0.941   4.299
 5114TIP3    H215307   6.350   1.075   4.230
 5115TIP3   OH215308   1.096   6.672   0.554
 5115TIP3    H115309   1.048   6.594   0.525
 5115TIP3    H215310   1.187   6.644   0.558
 5116TIP3   OH215311   6.068   3.070   4.621
 5116TIP3    H115312   6.083   3.072   4.715
 5116TIP3    H215313   6.148   3.030   4.585
 5117TIP3   OH215314   0.415   0.475   5.518
 5117TIP3    H115315   0.446   0.522   5.596
 5117TIP3    H215316   0.330   0.515   5.499
 5118TIP3   OH215317   6.902   6.789   2.775
 5118TIP3    H115318   6.816   6.797   2.816
 5118TIP3    H215319   6.949   6.725   2.829
 5119TIP3   OH215320   6.806   0.344   2.209
 5119TIP3    H115321   6.774   0.350   2.119
 5119TIP3    H215322   6.735   0.303   2.258
 5120TIP3   OH215323   4.626   4.571   3.646
 5120TIP3    H115324   4.601   4.480   3.632
 5120TIP3    H215325   4.673   4.571   3.729
 5121TIP3   OH215326   2.789   3.769   0.008
 5121TIP3    H115327   2.874   3.799   0.041
 5121TIP3    H215328   2.735   3.761   0.086
 5122TIP3   OH215329   0.804   2.639   3.374
 5122TIP3    H115330   0.819   2.716   3.429
 5122TIP3    H215331   0.826   2.565   3.430
 5123TIP3   OH215332   1.108   6.559   4.027
 5123TIP3    H115333   1.064   6.621   4.085
 5123TIP3    H215334   1.084   6.588   3.939
 5124TIP3   OH215335   5.402   4.227   4.208
 5124TIP3    H115336   5.448   4.232   4.124
 5124TIP3    H215337   5.355   4.310   4.215
 5125TIP3   OH215338   0.151   6.196   4.612
 5125TIP3    H115339   0.220   6.205   4.545
 5125TIP3    H215340   0.186   6.131   4.673
 5126TIP3   OH215341   5.881   0.201   4.702
 5126TIP3    H115342   5.795   0.176   4.670
 5126TIP3    H215343   5.937   0.198   4.625
 5127TIP3   OH215344   6.976   4.083   5.619
 5127TIP3    H115345   6.888   4.069   5.584
 5127TIP3    H215346   7.028   4.012   5.582
 5128TIP3   OH215347   6.719   3.677   0.064
 5128TIP3    H115348   6.777   3.607   0.095
 5128TIP3    H215349   6.644   3.632   0.028
 5129TIP3   OH215350   3.988   0.691   2.068
 5129TIP3    H115351   3.908   0.694   2.015
 5129TIP3    H215352   3.958   0.662   2.154
 5130TIP3   OH215353   4.499   1.472   0.542
 5130TIP3    H115354   4.587   1.510   0.537
 5130TIP3    H215355   4.500   1.402   0.477
 5131TIP3   OH215356   4.698   6.386   1.204
 5131TIP3    H115357   4.682   6.292   1.193
 5131TIP3    H215358   4.712   6.418   1.115
 5132TIP3   OH215359   4.669   3.465   1.878
 5132TIP3    H115360   4.575   3.451   1.879
 5132TIP3    H215361   4.684   3.524   1.803
 5133TIP3   OH215362   0.418   5.961   2.846
 5133TIP3    H115363   0.418   5.891   2.780
 5133TIP3    H215364   0.508   5.993   2.846
 5134TIP3   OH215365   4.243   0.843   1.620
 5134TIP3    H115366   4.234   0.898   1.698
 5134TIP3    H215367   4.163   0.860   1.570
 5135TIP3   OH215368   5.509   4.918   3.735
 5135TIP3    H115369   5.597   4.922   3.698
 5135TIP3    H215370   5.469   5.002   3.710
 5136TIP3   OH215371   2.533   6.128   3.677
 5136TIP3    H115372   2.521   6.151   3.585
 5136TIP3    H215373   2.545   6.033   3.676
 5137TIP3   OH215374   2.406   3.642   5.588
 5137TIP3    H115375   2.496   3.613   5.605
 5137TIP3    H215376   2.416   3.734   5.562
 5138TIP3   OH215377   1.819   1.629   1.132
 5138TIP3    H115378   1.780   1.544   1.154
 5138TIP3    H215379   1.769   1.692   1.183
 5139TIP3   OH215380   5.424   3.332   0.372
 5139TIP3    H115381   5.381   3.271   0.312
 5139TIP3    H215382   5.373   3.413   0.364
 5140TIP3   OH215383   3.960   5.960   3.211
 5140TIP3    H115384   4.024   5.946   3.281
 5140TIP3    H215385   3.911   6.037   3.238
 5141TIP3   OH215386   6.937   6.272   5.585
 5141TIP3    H115387   6.877   6.248   5.656
 5141TIP3    H215388   7.006   6.206   5.588
 5142TIP3   OH215389   0.513   6.730   5.009
 5142TIP3    H115390   0.517   6.788   5.084
 5142TIP3    H215391   0.427   6.747   4.970
 5143TIP3   OH215392   3.277   2.910   4.400
 5143TIP3    H115393   3.201   2.854   4.413
 5143TIP3    H215394   3.255   2.965   4.325
 5144TIP3   OH215395   2.710   5.034   0.654
 5144TIP3    H115396   2.703   5.117   0.606
 5144TIP3    H215397   2.643   5.041   0.722
 5145TIP3   OH215398   2.175   6.472   1.740
 5145TIP3    H115399   2.237   6.524   1.791
 5145TIP3    H215400   2.193   6.495   1.649
 5146TIP3   OH215401   3.452   2.116   5.619
 5146TIP3    H115402   3.441   2.021   5.610
 5146TIP3    H215403   3.374   2.144   5.668
 5147TIP3   OH215404   1.170   2.651   2.346
 5147TIP3    H115405   1.208   2.566   2.323
 5147TIP3    H215406   1.238   2.696   2.395
 5148TIP3   OH215407   0.843   4.964   4.276
 5148TIP3    H115408   0.777   4.949   4.208
 5148TIP3    H215409   0.793   4.983   4.355
 5149TIP3   OH215410   5.006   4.834   1.575
 5149TIP3    H115411   5.075   4.859   1.513
 5149TIP3    H215412   5.012   4.900   1.644
 5150TIP3   OH215413   0.616   4.173   1.947
 5150TIP3    H115414   0.639   4.092   1.900
 5150TIP3    H215415   0.534   4.202   1.906
 5151TIP3   OH215416   4.817   1.577   5.477
 5151TIP3    H115417   4.856   1.560   5.562
 5151TIP3    H215418   4.748   1.511   5.468
 5152TIP3   OH215419   0.628   6.031   5.476
 5152TIP3    H115420   0.580   6.106   5.510
 5152TIP3    H215421   0.564   5.959   5.478
 5153TIP3   OH215422   3.536   3.634   0.582
 5153TIP3    H115423   3.540   3.687   0.663
 5153TIP3    H215424   3.501   3.694   0.516
 5154TIP3   OH215425   2.997   3.953   1.493
 5154TIP3    H115426   3.031   4.033   1.453
 5154TIP3    H215427   3.037   3.882   1.443
 5155TIP3   OH215428   0.199   6.712   5.264
 5155TIP3    H115429   0.233   6.660   5.191
 5155TIP3    H215430   0.277   6.740   5.311
 5156TIP3   OH215431   1.631   5.508   1.045
 5156TIP3    H115432   1.548   5.556   1.047
 5156TIP3    H215433   1.608   5.422   1.009
 5157TIP3   OH215434   3.731   5.742   0.440
 5157TIP3    H115435   3.726   5.802   0.366
 5157TIP3    H215436   3.825   5.725   0.451
 5158TIP3   OH215437   1.131   0.368   2.027
 5158TIP3    H115438   1.092   0.454   2.041
 5158TIP3    H215439   1.215   0.387   1.985
 5159TIP3   OH215440   3.838   4.156   2.392
 5159TIP3    H115441   3.811   4.067   2.415
 5159TIP3    H215442   3.756   4.206   2.389
 5160TIP3   OH215443   4.657   2.287   2.769
 5160TIP3    H115444   4.736   2.266   2.719
 5160TIP3    H215445   4.592   2.225   2.738
 5161TIP3   OH215446   2.875   2.486   0.257
 5161TIP3    H115447   2.830   2.496   0.341
 5161TIP3    H215448   2.888   2.392   0.247
 5162TIP3   OH215449   5.172   6.154   1.099
 5162TIP3    H115450   5.250   6.099   1.100
 5162TIP3    H215451   5.198   6.232   1.050
 5163TIP3   OH215452   0.985   4.694   3.371
 5163TIP3    H115453   1.045   4.739   3.430
 5163TIP3    H215454   0.972   4.755   3.299
 5164TIP3   OH215455   3.972   1.502   1.680
 5164TIP3    H115456   3.976   1.460   1.594
 5164TIP3    H215457   3.935   1.435   1.738
 5165TIP3   OH215458   1.305   0.749   5.246
 5165TIP3    H115459   1.331   0.707   5.328
 5165TIP3    H215460   1.214   0.721   5.233
 5166TIP3   OH215461   2.755   5.897   5.862
 5166TIP3    H115462   2.667   5.918   5.830
 5166TIP3    H215463   2.774   5.810   5.826
 5167TIP3   OH215464   2.388   3.253   1.487
 5167TIP3    H115465   2.393   3.204   1.568
 5167TIP3    H215466   2.303   3.228   1.449
 5168TIP3   OH215467   5.885   4.553   3.081
 5168TIP3    H115468   5.803   4.589   3.115
 5168TIP3    H215469   5.861   4.469   3.043
 5169TIP3   OH215470   1.283   6.746   2.078
 5169TIP3    H115471   1.196   6.772   2.049
 5169TIP3    H215472   1.277   6.651   2.091
 5170TIP3   OH215473   4.454   2.719   4.147
 5170TIP3    H115474   4.360   2.734   4.145
 5170TIP3    H215475   4.491   2.793   4.097
 5171TIP3   OH215476   4.541   0.172   5.021
 5171TIP3    H115477   4.451   0.198   5.000
 5171TIP3    H215478   4.590   0.194   4.942
 5172TIP3   OH215479   3.636   1.881   5.693
 5172TIP3    H115480   3.665   1.914   5.778
 5172TIP3    H215481   3.703   1.910   5.632
 5173TIP3   OH215482   4.002   0.962   4.727
 5173TIP3    H115483   3.987   0.889   4.786
 5173TIP3    H215484   4.082   1.004   4.760
 5174TIP3   OH215485   5.820   2.271   5.539
 5174TIP3    H115486   5.835   2.311   5.625
 5174TIP3    H215487   5.725   2.277   5.526
 5175TIP3   OH215488   0.836   6.331   1.848
 5175TIP3    H115489   0.887   6.370   1.777
 5175TIP3    H215490   0.880   6.360   1.928
 5176TIP3   OH215491   5.208   0.922   3.911
 5176TIP3    H115492   5.126   0.877   3.931
 5176TIP3    H215493   5.209   0.997   3.970
 5177TIP3   OH215494   3.651   4.991   3.436
 5177TIP3    H115495   3.659   5.083   3.409
 5177TIP3    H215496   3.603   4.949   3.364
 5178TIP3   OH215497   4.099   0.698   5.426
 5178TIP3    H115498   4.096   0.666   5.516
 5178TIP3    H215499   4.128   0.789   5.433
 5179TIP3   OH215500   6.966   2.790   2.795
 5179TIP3    H115501   7.018   2.812   2.872
 5179TIP3    H215502   6.957   2.873   2.747
 5180TIP3   OH215503   0.037   5.634   3.973
 5180TIP3    H115504   0.097   5.589   4.033
 5180TIP3    H215505   0.081   5.718   3.955
 5181TIP3   OH215506   6.765   4.621   4.509
 5181TIP3    H115507   6.753   4.534   4.470
 5181TIP3    H215508   6.732   4.681   4.443
 5182TIP3   OH215509   3.663   1.052   2.693
 5182TIP3    H115510   3.748   1.047   2.736
 5182TIP3    H215511   3.679   1.021   2.604
 5183TIP3   OH215512   2.628   6.420   4.974
 5183TIP3    H115513   2.574   6.497   4.992
 5183TIP3    H215514   2.578   6.347   5.012
 5184TIP3   OH215515   0.465   3.113   4.397
 5184TIP3    H115516   0.407   3.066   4.458
 5184TIP3    H215517   0.409   3.133   4.322
 5185TIP3   OH215518   6.486   1.447   1.073
 5185TIP3    H115519   6.570   1.448   1.027
 5185TIP3    H215520   6.446   1.531   1.051
 5186TIP3   OH215521   3.190   1.084   3.576
 5186TIP3    H115522   3.202   1.019   3.646
 5186TIP3    H215523   3.139   1.038   3.509
 5187TIP3   OH215524   0.873   5.110   5.185
 5187TIP3    H115525   0.847   5.018   5.188
 5187TIP3    H215526   0.840   5.146   5.268
 5188TIP3   OH215527   0.828   4.532   1.704
 5188TIP3    H115528   0.781   4.510   1.624
 5188TIP3    H215529   0.777   4.603   1.743
 5189TIP3   OH215530   4.023   6.039   5.198
 5189TIP3    H115531   3.982   6.098   5.134
 5189TIP3    H215532   4.088   6.094   5.242
 5190TIP3   OH215533   2.696   5.322   1.974
 5190TIP3    H115534   2.652   5.242   2.004
 5190TIP3    H215535   2.664   5.335   1.885
 5191TIP3   OH215536   3.010   1.545   1.159
 5191TIP3    H115537   3.017   1.639   1.141
 5191TIP3    H215538   2.918   1.524   1.142
 5192TIP3   OH215539   6.602   1.123   4.927
 5192TIP3    H115540   6.695   1.138   4.915
 5192TIP3    H215541   6.566   1.119   4.838
 5193TIP3   OH215542   3.472   0.068   1.002
 5193TIP3    H115543   3.522   0.148   0.989
 5193TIP3    H215544   3.438   0.046   0.916
 5194TIP3   OH215545   1.177   5.215   2.050
 5194TIP3    H115546   1.217   5.292   2.091
 5194TIP3    H215547   1.238   5.192   1.979
 5195TIP3   OH215548   4.880   0.397   0.364
 5195TIP3    H115549   4.860   0.477   0.413
 5195TIP3    H215550   4.870   0.327   0.428
 5196TIP3   OH215551   7.194   5.226   1.724
 5196TIP3    H115552   7.165   5.240   1.633
 5196TIP3    H215553   7.175   5.309   1.768
 5197TIP3   OH215554   5.661   4.388   1.022
 5197TIP3    H115555   5.722   4.461   1.010
 5197TIP3    H215556   5.584   4.413   0.972
 5198TIP3   OH215557   2.373   5.327   0.292
 5198TIP3    H115558   2.436   5.269   0.249
 5198TIP3    H215559   2.427   5.387   0.343
 5199TIP3   OH215560   0.122   1.496   4.303
 5199TIP3    H115561   0.198   1.554   4.299
 5199TIP3    H215562   0.104   1.487   4.396
 5200TIP3   OH215563   0.341   3.460   4.151
 5200TIP3    H115564   0.260   3.409   4.161
 5200TIP3    H215565   0.383   3.424   4.074
 5201TIP3   OH215566   0.606   6.680   3.981
 5201TIP3    H115567   0.620   6.591   3.950
 5201TIP3    H215568   0.686   6.702   4.029
 5202TIP3   OH215569   4.070   2.529   0.592
 5202TIP3    H115570   3.984   2.502   0.625
 5202TIP3    H215571   4.050   2.577   0.511
 5203TIP3   OH215572   5.363   2.437   5.147
 5203TIP3    H115573   5.391   2.497   5.216
 5203TIP3    H215574   5.268   2.436   5.153
 5204TIP3   OH215575   2.416   3.571   2.419
 5204TIP3    H115576   2.506   3.552   2.393
 5204TIP3    H215577   2.400   3.661   2.389
 5205TIP3   OH215578   1.945   2.109   2.040
 5205TIP3    H115579   1.985   2.024   2.056
 5205TIP3    H215580   1.972   2.133   1.952
 5206TIP3   OH215581   0.811   3.899   0.896
 5206TIP3    H115582   0.875   3.966   0.919
 5206TIP3    H215583   0.833   3.824   0.951
 5207TIP3   OH215584   6.020   1.053   5.199
 5207TIP3    H115585   5.933   1.017   5.182
 5207TIP3    H215586   6.024   1.061   5.294
 5208TIP3   OH215587   2.006   0.587   3.943
 5208TIP3    H115588   1.921   0.608   3.981
 5208TIP3    H215589   2.004   0.626   3.856
 5209TIP3   OH215590   6.427   3.630   5.848
 5209TIP3    H115591   6.399   3.546   5.811
 5209TIP3    H215592   6.376   3.696   5.802
 5210TIP3   OH215593   6.108   3.349   5.625
 5210TIP3    H115594   6.020   3.375   5.650
 5210TIP3    H215595   6.097   3.303   5.541
 5211TIP3   OH215596   3.121   2.285   1.406
 5211TIP3    H115597   3.099   2.320   1.320
 5211TIP3    H215598   3.208   2.246   1.395
 5212TIP3   OH215599   4.268   0.274   1.657
 5212TIP3    H115600   4.280   0.363   1.689
 5212TIP3    H215601   4.197   0.238   1.710
 5213TIP3   OH215602   3.395   3.703   5.614
 5213TIP3    H115603   3.327   3.635   5.609
 5213TIP3    H215604   3.407   3.731   5.524
 5214TIP3   OH215605   1.549   1.605   2.127
 5214TIP3    H115606   1.456   1.625   2.140
 5214TIP3    H215607   1.595   1.683   2.160
 5215TIP3   OH215608   3.199   1.066   4.638
 5215TIP3    H115609   3.267   1.041   4.701
 5215TIP3    H215610   3.193   1.161   4.646
 5216TIP3   OH215611   4.004   5.917   4.574
 5216TIP3    H115612   3.910   5.905   4.561
 5216TIP3    H215613   4.029   5.984   4.511
 5217TIP3   OH215614   3.191   2.120   3.127
 5217TIP3    H115615   3.269   2.130   3.072
 5217TIP3    H215616   3.131   2.188   3.097
 5218TIP3   OH215617   2.272   6.082   4.163
 5218TIP3    H115618   2.264   6.136   4.242
 5218TIP3    H215619   2.183   6.051   4.146
 5219TIP3   OH215620   6.239   3.213   3.012
 5219TIP3    H115621   6.195   3.201   2.929
 5219TIP3    H215622   6.170   3.240   3.073
 5220TIP3   OH215623   4.904   0.339   1.605
 5220TIP3    H115624   4.931   0.252   1.634
 5220TIP3    H215625   4.986   0.389   1.601
 5221TIP3   OH215626   2.408   3.321   5.034
 5221TIP3    H115627   2.479   3.262   5.007
 5221TIP3    H215628   2.396   3.303   5.127
 5222TIP3   OH215629   3.258   3.231   2.448
 5222TIP3    H115630   3.325   3.176   2.490
 5222TIP3    H215631   3.307   3.284   2.386
 5223TIP3   OH215632   0.858   3.547   2.825
 5223TIP3    H115633   0.801   3.618   2.794
 5223TIP3    H215634   0.866   3.488   2.750
 5224TIP3   OH215635   5.952   6.625   3.212
 5224TIP3    H115636   6.013   6.611   3.285
 5224TIP3    H215637   6.008   6.654   3.139
 5225TIP3   OH215638   5.141   5.124   1.927
 5225TIP3    H115639   5.229   5.143   1.959
 5225TIP3    H215640   5.151   5.112   1.832
 5226TIP3   OH215641   3.618   3.468   2.974
 5226TIP3    H115642   3.673   3.420   3.036
 5226TIP3    H215643   3.541   3.492   3.025
 5227TIP3   OH215644   6.203   5.834   4.884
 5227TIP3    H115645   6.251   5.789   4.814
 5227TIP3    H215646   6.137   5.886   4.838
 5228TIP3   OH215647   3.896   3.828   4.935
 5228TIP3    H115648   3.867   3.872   5.015
 5228TIP3    H215649   3.823   3.837   4.875
 5229TIP3   OH215650   0.398   0.212   5.432
 5229TIP3    H115651   0.434   0.292   5.471
 5229TIP3    H215652   0.310   0.205   5.469
 5230TIP3   OH215653   6.539   4.656   3.401
 5230TIP3    H115654   6.522   4.566   3.375
 5230TIP3    H215655   6.456   4.701   3.384
 5231TIP3   OH215656   3.026   0.552   0.885
 5231TIP3    H115657   2.949   0.503   0.857
 5231TIP3    H215658   2.991   0.636   0.916
 5232TIP3   OH215659   1.383   2.982   0.287
 5232TIP3    H115660   1.316   2.924   0.252
 5232TIP3    H215661   1.466   2.943   0.259
 5233TIP3   OH215662   5.812   4.907   5.013
 5233TIP3    H115663   5.790   4.815   5.004
 5233TIP3    H215664   5.886   4.920   4.955
 5234TIP3   OH215665   0.742   1.068   2.244
 5234TIP3    H115666   0.672   1.002   2.245
 5234TIP3    H215667   0.815   1.026   2.199
 5235TIP3   OH215668   7.163   2.265   0.766
 5235TIP3    H115669   7.169   2.253   0.671
 5235TIP3    H215670   7.198   2.353   0.782
 5236TIP3   OH215671   4.859   3.695   5.814
 5236TIP3    H115672   4.952   3.712   5.823
 5236TIP3    H215673   4.816   3.768   5.860
 5237TIP3   OH215674   5.049   1.802   4.288
 5237TIP3    H115675   5.049   1.743   4.213
 5237TIP3    H215676   5.061   1.889   4.250
 5238TIP3   OH215677   6.102   6.180   4.591
 5238TIP3    H115678   6.058   6.122   4.652
 5238TIP3    H215679   6.195   6.156   4.597
 5239TIP3   OH215680   5.345   4.528   5.036
 5239TIP3    H115681   5.348   4.497   4.946
 5239TIP3    H215682   5.365   4.450   5.089
 5240TIP3   OH215683   4.586   0.937   2.856
 5240TIP3    H115684   4.681   0.923   2.854
 5240TIP3    H215685   4.563   0.932   2.949
 5241TIP3   OH215686   0.159   2.705   3.495
 5241TIP3    H115687   0.199   2.636   3.548
 5241TIP3    H215688   0.233   2.749   3.452
 5242TIP3   OH215689   5.894   3.647   3.015
 5242TIP3    H115690   5.893   3.559   2.975
 5242TIP3    H215691   5.822   3.645   3.078
 5243TIP3   OH215692   2.429   6.123   5.754
 5243TIP3    H115693   2.386   6.207   5.744
 5243TIP3    H215694   2.516   6.136   5.717
 5244TIP3   OH215695   4.173   6.317   5.321
 5244TIP3    H115696   4.249   6.373   5.307
 5244TIP3    H215697   4.123   6.324   5.240
 5245TIP3   OH215698   5.694   1.808   2.941
 5245TIP3    H115699   5.624   1.745   2.957
 5245TIP3    H215700   5.678   1.840   2.852
 5246TIP3   OH215701   1.341   5.903   4.921
 5246TIP3    H115702   1.415   5.846   4.902
 5246TIP3    H215703   1.325   5.950   4.839
 5247TIP3   OH215704   5.096   1.930   5.433
 5247TIP3    H115705   5.154   1.866   5.392
 5247TIP3    H215706   5.011   1.886   5.438
 5248TIP3   OH215707   0.625   0.756   5.021
 5248TIP3    H115708   0.676   0.819   5.071
 5248TIP3    H215709   0.570   0.712   5.086
 5249TIP3   OH215710   2.251   3.560  -0.022
 5249TIP3    H115711   2.207   3.642   0.001
 5249TIP3    H215712   2.344   3.582  -0.022
 5250TIP3   OH215713   0.060   1.699   5.099
 5250TIP3    H115714   0.088   1.610   5.080
 5250TIP3    H215715   0.085   1.749   5.021
 5251TIP3   OH215716   3.358   4.233   1.280
 5251TIP3    H115717   3.429   4.279   1.234
 5251TIP3    H215718   3.394   4.148   1.302
 5252TIP3   OH215719   3.554   4.197   0.118
 5252TIP3    H115720   3.607   4.252   0.060
 5252TIP3    H215721   3.588   4.108   0.104
 5253TIP3   OH215722   2.844   1.616   3.718
 5253TIP3    H115723   2.937   1.603   3.698
 5253TIP3    H215724   2.819   1.694   3.670
 5254TIP3   OH215725   1.642   4.566   0.875
 5254TIP3    H115726   1.671   4.501   0.940
 5254TIP3    H215727   1.579   4.620   0.922
 5255TIP3   OH215728   7.041   2.668   0.242
 5255TIP3    H115729   6.946   2.665   0.227
 5255TIP3    H215730   7.052   2.723   0.319
 5256TIP3   OH215731   6.131   5.907   3.030
 5256TIP3    H115732   6.182   5.962   3.090
 5256TIP3    H215733   6.174   5.916   2.945
 5257TIP3   OH215734   4.634   5.367   2.473
 5257TIP3    H115735   4.685   5.313   2.533
 5257TIP3    H215736   4.552   5.384   2.519
 5258TIP3   OH215737   2.144   5.267   5.705
 5258TIP3    H115738   2.052   5.241   5.707
 5258TIP3    H215739   2.172   5.248   5.616
 5259TIP3   OH215740   4.089   6.341   3.764
 5259TIP3    H115741   4.166   6.351   3.709
 5259TIP3    H215742   4.035   6.418   3.745
 5260TIP3   OH215743   6.727   1.924   3.371
 5260TIP3    H115744   6.682   2.008   3.382
 5260TIP3    H215745   6.815   1.938   3.405
 5261TIP3   OH215746   6.641   4.194   2.398
 5261TIP3    H115747   6.546   4.188   2.386
 5261TIP3    H215748   6.669   4.104   2.411
 5262TIP3   OH215749   3.413   4.786   4.293
 5262TIP3    H115750   3.465   4.867   4.294
 5262TIP3    H215751   3.402   4.764   4.386
 5263TIP3   OH215752   4.453   3.373   5.048
 5263TIP3    H115753   4.472   3.296   4.993
 5263TIP3    H215754   4.539   3.399   5.081
 5264TIP3   OH215755   2.766   5.333   0.797
 5264TIP3    H115756   2.831   5.333   0.867
 5264TIP3    H215757   2.813   5.366   0.720
 5265TIP3   OH215758   5.339   3.705   4.703
 5265TIP3    H115759   5.293   3.624   4.723
 5265TIP3    H215760   5.379   3.690   4.617
 5266TIP3   OH215761   1.189   3.011   3.507
 5266TIP3    H115762   1.282   3.024   3.528
 5266TIP3    H215763   1.150   2.981   3.589
 5267TIP3   OH215764   5.264   2.872   4.910
 5267TIP3    H115765   5.302   2.960   4.920
 5267TIP3    H215766   5.217   2.857   4.992
 5268TIP3   OH215767   5.377   1.679   0.951
 5268TIP3    H115768   5.404   1.756   1.002
 5268TIP3    H215769   5.302   1.644   0.999
 5269TIP3   OH215770   2.385   6.762   4.948
 5269TIP3    H115771   2.360   6.805   4.866
 5269TIP3    H215772   2.322   6.691   4.958
 5270TIP3   OH215773   5.206   3.894   0.947
 5270TIP3    H115774   5.154   3.840   1.006
 5270TIP3    H215775   5.285   3.842   0.930
 5271TIP3   OH215776   6.017   4.987   1.239
 5271TIP3    H115777   6.017   4.967   1.146
 5271TIP3    H215778   5.970   5.070   1.246
 5272TIP3   OH215779   3.933   3.272   3.844
 5272TIP3    H115780   4.002   3.298   3.905
 5272TIP3    H215781   3.917   3.180   3.863
 5273TIP3   OH215782   2.346   4.477   4.471
 5273TIP3    H115783   2.434   4.455   4.502
 5273TIP3    H215784   2.288   4.452   4.544
 5274TIP3   OH215785   5.681   2.454   1.201
 5274TIP3    H115786   5.756   2.502   1.166
 5274TIP3    H215787   5.669   2.490   1.289
 5275TIP3   OH215788   0.931   6.093   2.052
 5275TIP3    H115789   1.004   6.044   2.016
 5275TIP3    H215790   0.918   6.166   1.991
 5276TIP3   OH215791   1.662   2.019   4.979
 5276TIP3    H115792   1.698   1.934   5.004
 5276TIP3    H215793   1.725   2.054   4.917
 5277TIP3   OH215794   2.391   5.321   5.244
 5277TIP3    H115795   2.402   5.401   5.192
 5277TIP3    H215796   2.475   5.312   5.291
 5278TIP3   OH215797   2.667   3.761   5.359
 5278TIP3    H115798   2.658   3.829   5.426
 5278TIP3    H215799   2.584   3.764   5.312
 5279TIP3   OH215800   0.406   1.779   1.924
 5279TIP3    H115801   0.351   1.853   1.949
 5279TIP3    H215802   0.441   1.746   2.007
 5280TIP3   OH215803   6.508   3.129   0.156
 5280TIP3    H115804   6.529   3.076   0.233
 5280TIP3    H215805   6.575   3.105   0.091
 5281TIP3   OH215806   3.206   6.209   1.204
 5281TIP3    H115807   3.259   6.220   1.125
 5281TIP3    H215808   3.187   6.115   1.207
 5282TIP3   OH215809   0.238   3.577   2.941
 5282TIP3    H115810   0.149   3.606   2.925
 5282TIP3    H215811   0.242   3.562   3.036
 5283TIP3   OH215812   3.348   5.088   2.646
 5283TIP3    H115813   3.422   5.127   2.692
 5283TIP3    H215814   3.281   5.156   2.645
 5284TIP3   OH215815   2.718   0.245   5.447
 5284TIP3    H115816   2.808   0.219   5.469
 5284TIP3    H215817   2.718   0.248   5.351
 5285TIP3   OH215818   5.531   0.542   2.058
 5285TIP3    H115819   5.520   0.599   1.982
 5285TIP3    H215820   5.441   0.521   2.085
 5286TIP3   OH215821   5.669   3.307   3.632
 5286TIP3    H115822   5.581   3.310   3.669
 5286TIP3    H215823   5.725   3.286   3.707
 5287TIP3   OH215824   3.320   1.019   5.143
 5287TIP3    H115825   3.251   0.956   5.166
 5287TIP3    H215826   3.339   1.001   5.051
 5288TIP3   OH215827   7.000   3.391   5.669
 5288TIP3    H115828   6.952   3.309   5.655
 5288TIP3    H215829   6.932   3.458   5.673
 5289TIP3   OH215830   2.410   4.045   0.393
 5289TIP3    H115831   2.496   4.085   0.379
 5289TIP3    H215832   2.348   4.117   0.382
 5290TIP3   OH215833   2.108   1.568   5.258
 5290TIP3    H115834   2.173   1.504   5.288
 5290TIP3    H215835   2.106   1.635   5.326
 5291TIP3   OH215836   5.815   3.176   3.035
 5291TIP3    H115837   5.757   3.222   3.096
 5291TIP3    H215838   5.850   3.246   2.979
 5292TIP3   OH215839   5.297   4.567   3.230
 5292TIP3    H115840   5.319   4.528   3.315
 5292TIP3    H215841   5.327   4.657   3.237
 5293TIP3   OH215842   2.884   4.372   2.410
 5293TIP3    H115843   2.951   4.421   2.459
 5293TIP3    H215844   2.832   4.329   2.477
 5294TIP3   OH215845   3.119   6.568   5.238
 5294TIP3    H115846   3.053   6.624   5.279
 5294TIP3    H215847   3.068   6.501   5.192
 5295TIP3   OH215848   5.351   0.581   1.611
 5295TIP3    H115849   5.361   0.524   1.687
 5295TIP3    H215850   5.277   0.638   1.633
 5296TIP3   OH215851   3.467   0.956   2.213
 5296TIP3    H115852   3.550   1.003   2.211
 5296TIP3    H215853   3.436   0.958   2.122
 5297TIP3   OH215854   3.406   1.057   2.907
 5297TIP3    H115855   3.320   1.028   2.938
 5297TIP3    H215856   3.463   1.048   2.983
 5298TIP3   OH215857   4.939   6.218   3.524
 5298TIP3    H115858   4.903   6.303   3.548
 5298TIP3    H215859   5.013   6.206   3.583
 5299TIP3   OH215860   0.510   5.021   0.054
 5299TIP3    H115861   0.530   4.943   0.003
 5299TIP3    H215862   0.580   5.083   0.031
 5300TIP3   OH215863   6.403   4.799   0.048
 5300TIP3    H115864   6.312   4.769   0.053
 5300TIP3    H215865   6.448   4.748   0.115
 5301TIP3   OH215866   6.907   2.382   5.462
 5301TIP3    H115867   7.000   2.362   5.453
 5301TIP3    H215868   6.870   2.304   5.503
 5302TIP3   OH215869   1.125   2.614   4.149
 5302TIP3    H115870   1.036   2.645   4.133
 5302TIP3    H215871   1.162   2.679   4.210
 5303TIP3   OH215872   2.754   0.516   0.789
 5303TIP3    H115873   2.764   0.610   0.775
 5303TIP3    H215874   2.664   0.498   0.762
 5304TIP3   OH215875   5.671   4.001   0.177
 5304TIP3    H115876   5.585   4.036   0.155
 5304TIP3    H215877   5.675   4.005   0.273
 5305TIP3   OH215878   0.073   2.345   0.164
 5305TIP3    H115879   0.039   2.390   0.086
 5305TIP3    H215880   0.006   2.359   0.230
 5306TIP3   OH215881   6.355   2.466   2.681
 5306TIP3    H115882   6.383   2.427   2.763
 5306TIP3    H215883   6.429   2.452   2.621
 5307TIP3   OH215884   3.957   0.051   0.512
 5307TIP3    H115885   3.971   0.085   0.423
 5307TIP3    H215886   3.885  -0.011   0.503
 5308TIP3   OH215887   1.144   6.242   1.110
 5308TIP3    H115888   1.184   6.155   1.106
 5308TIP3    H215889   1.058   6.228   1.148
 5309TIP3   OH215890   3.949   0.091   4.094
 5309TIP3    H115891   3.868   0.136   4.116
 5309TIP3    H215892   3.944   0.007   4.141
 5310TIP3   OH215893   7.044   0.351   3.544
 5310TIP3    H115894   7.128   0.373   3.584
 5310TIP3    H215895   7.065   0.284   3.480
 5311TIP3   OH215896   5.681   1.962   3.175
 5311TIP3    H115897   5.682   2.050   3.137
 5311TIP3    H215898   5.714   1.905   3.105
 5312TIP3   OH215899   1.213   6.054   3.039
 5312TIP3    H115900   1.130   6.022   3.076
 5312TIP3    H215901   1.189   6.088   2.953
 5313TIP3   OH215902   5.425   4.750   5.462
 5313TIP3    H115903   5.386   4.663   5.459
 5313TIP3    H215904   5.443   4.771   5.370
 5314TIP3   OH215905   0.308   1.555   5.358
 5314TIP3    H115906   0.221   1.515   5.361
 5314TIP3    H215907   0.292   1.647   5.379
 5315TIP3   OH215908   0.593   6.735   0.306
 5315TIP3    H115909   0.509   6.712   0.264
 5315TIP3    H215910   0.631   6.800   0.248
 5316TIP3   OH215911   5.876   5.136   2.533
 5316TIP3    H115912   5.896   5.174   2.447
 5316TIP3    H215913   5.790   5.095   2.522
 5317TIP3   OH215914   0.343   2.488   1.677
 5317TIP3    H115915   0.332   2.487   1.772
 5317TIP3    H215916   0.288   2.560   1.647
 5318TIP3   OH215917   2.776   0.771   3.695
 5318TIP3    H115918   2.862   0.759   3.736
 5318TIP3    H215919   2.732   0.687   3.708
 5319TIP3   OH215920   1.856   3.817   4.006
 5319TIP3    H115921   1.769   3.790   4.036
 5319TIP3    H215922   1.915   3.788   4.076
 5320TIP3   OH215923   7.078   3.471   5.019
 5320TIP3    H115924   7.109   3.397   5.072
 5320TIP3    H215925   7.005   3.507   5.070
 5321TIP3   OH215926   0.749   0.389   4.876
 5321TIP3    H115927   0.769   0.297   4.891
 5321TIP3    H215928   0.826   0.422   4.829
 5322TIP3   OH215929   1.656   2.612   4.217
 5322TIP3    H115930   1.562   2.597   4.225
 5322TIP3    H215931   1.692   2.527   4.192
 5323TIP3   OH215932   5.184   5.286   3.517
 5323TIP3    H115933   5.211   5.342   3.445
 5323TIP3    H215934   5.092   5.264   3.498
 5324TIP3   OH215935   4.180   1.989   1.552
 5324TIP3    H115936   4.226   1.987   1.467
 5324TIP3    H215937   4.167   1.896   1.573
 5325TIP3   OH215938   1.442   6.156   1.565
 5325TIP3    H115939   1.360   6.117   1.536
 5325TIP3    H215940   1.416   6.235   1.613
 5326TIP3   OH215941   4.397   2.892   5.706
 5326TIP3    H115942   4.327   2.878   5.769
 5326TIP3    H215943   4.356   2.876   5.621
 5327TIP3   OH215944   6.362   0.100   4.165
 5327TIP3    H115945   6.440   0.085   4.111
 5327TIP3    H215946   6.311   0.020   4.155
 5328TIP3   OH215947   0.390   5.099   5.164
 5328TIP3    H115948   0.434   5.132   5.086
 5328TIP3    H215949   0.391   5.172   5.225
 5329TIP3   OH215950   1.484   1.055   1.324
 5329TIP3    H115951   1.425   1.131   1.328
 5329TIP3    H215952   1.572   1.094   1.321
 5330TIP3   OH215953   3.156   3.654   0.424
 5330TIP3    H115954   3.066   3.662   0.455
 5330TIP3    H215955   3.175   3.738   0.383
 5331TIP3   OH215956   5.687   6.621   0.330
 5331TIP3    H115957   5.687   6.646   0.238
 5331TIP3    H215958   5.751   6.681   0.370
 5332TIP3   OH215959   5.446   1.330   4.541
 5332TIP3    H115960   5.379   1.378   4.492
 5332TIP3    H215961   5.528   1.373   4.520
 5333TIP3   OH215962   5.792   1.744   1.890
 5333TIP3    H115963   5.802   1.719   1.798
 5333TIP3    H215964   5.874   1.715   1.931
 5334TIP3   OH215965   1.348   1.248   2.627
 5334TIP3    H115966   1.295   1.224   2.551
 5334TIP3    H215967   1.423   1.296   2.591
 5335TIP3   OH215968   6.929   0.345   4.857
 5335TIP3    H115969   7.011   0.308   4.890
 5335TIP3    H215970   6.946   0.439   4.849
 5336TIP3   OH215971   5.644   1.444   0.427
 5336TIP3    H115972   5.678   1.514   0.482
 5336TIP3    H215973   5.720   1.412   0.378
 5337TIP3   OH215974   2.609   3.804   2.093
 5337TIP3    H115975   2.586   3.888   2.054
 5337TIP3    H215976   2.526   3.757   2.099
 5338TIP3   OH215977   3.385   5.337   4.716
 5338TIP3    H115978   3.420   5.264   4.768
 5338TIP3    H215979   3.368   5.299   4.630
 5339TIP3   OH215980   0.612   4.991   5.275
 5339TIP3    H115981   0.564   4.953   5.348
 5339TIP3    H215982   0.545   5.031   5.220
 5340TIP3   OH215983   2.165   3.813   0.942
 5340TIP3    H115984   2.156   3.873   0.868
 5340TIP3    H215985   2.117   3.855   1.013
 5341TIP3   OH215986   6.422   3.570   0.863
 5341TIP3    H115987   6.396   3.576   0.955
 5341TIP3    H215988   6.372   3.640   0.820
 5342TIP3   OH215989   1.684   2.885   2.389
 5342TIP3    H115990   1.719   2.821   2.328
 5342TIP3    H215991   1.701   2.970   2.348
 5343TIP3   OH215992   2.838   1.490   3.212
 5343TIP3    H115993   2.757   1.524   3.175
 5343TIP3    H215994   2.811   1.441   3.290
 5344TIP3   OH215995   5.553   1.836   4.095
 5344TIP3    H115996   5.523   1.775   4.163
 5344TIP3    H215997   5.614   1.785   4.042
 5345TIP3   OH215998   5.466   5.651   5.053
 5345TIP3    H115999   5.495   5.726   5.001
 5345TIP3    H216000   5.456   5.581   4.989
 5346TIP3   OH216001   2.898   4.816   2.632
 5346TIP3    H116002   2.849   4.737   2.609
 5346TIP3    H216003   2.867   4.840   2.719
 5347TIP3   OH216004   5.831   4.815   1.319
 5347TIP3    H116005   5.903   4.876   1.299
 5347TIP3    H216006   5.760   4.871   1.350
 5348TIP3   OH216007   3.320   4.501   3.131
 5348TIP3    H116008   3.381   4.453   3.188
 5348TIP3    H216009   3.282   4.568   3.187
 5349TIP3   OH216010   2.416   5.329   3.959
 5349TIP3    H116011   2.453   5.355   3.875
 5349TIP3    H216012   2.417   5.233   3.958
 5350TIP3   OH216013   0.554   0.132   4.781
 5350TIP3    H116014   0.510   0.049   4.798
 5350TIP3    H216015   0.643   0.119   4.814
 5351TIP3   OH216016   4.852   0.502   5.024
 5351TIP3    H116017   4.861   0.407   5.018
 5351TIP3    H216018   4.859   0.533   4.934
 5352TIP3   OH216019   1.812   0.244   4.783
 5352TIP3    H116020   1.796   0.286   4.699
 5352TIP3    H216021   1.725   0.222   4.816
 5353TIP3   OH216022   6.146   4.741   4.409
 5353TIP3    H116023   6.132   4.835   4.424
 5353TIP3    H216024   6.058   4.707   4.389
 5354TIP3   OH216025   4.968   2.186   4.010
 5354TIP3    H116026   5.043   2.224   3.964
 5354TIP3    H216027   4.894   2.243   3.986
 5355TIP3   OH216028   5.012   0.455   5.349
 5355TIP3    H116029   4.923   0.457   5.314
 5355TIP3    H216030   5.068   0.441   5.272
 5356TIP3   OH216031   5.523   3.786   3.371
 5356TIP3    H116032   5.563   3.873   3.368
 5356TIP3    H216033   5.473   3.780   3.289
 5357TIP3   OH216034   4.393   1.033   3.089
 5357TIP3    H116035   4.330   0.966   3.117
 5357TIP3    H216036   4.344   1.116   3.096
 5358TIP3   OH216037   5.814   1.135   2.970
 5358TIP3    H116038   5.818   1.115   2.877
 5358TIP3    H216039   5.722   1.121   2.994
 5359TIP3   OH216040   5.933   1.087   0.690
 5359TIP3    H116041   5.976   1.143   0.626
 5359TIP3    H216042   5.990   1.010   0.697
 5360TIP3   OH216043   6.806   1.484   2.607
 5360TIP3    H116044   6.824   1.407   2.554
 5360TIP3    H216045   6.750   1.453   2.678
 5361TIP3   OH216046   2.184   0.147   1.835
 5361TIP3    H116047   2.211   0.148   1.743
 5361TIP3    H216048   2.159   0.056   1.852
 5362TIP3   OH216049   4.171   3.882   1.055
 5362TIP3    H116050   4.205   3.868   1.144
 5362TIP3    H216051   4.118   3.961   1.062
 5363TIP3   OH216052   3.839   3.530   4.423
 5363TIP3    H116053   3.888   3.532   4.504
 5363TIP3    H216054   3.858   3.614   4.381
 5364TIP3   OH216055   2.655   5.480   2.743
 5364TIP3    H116056   2.572   5.489   2.790
 5364TIP3    H216057   2.635   5.510   2.654
 5365TIP3   OH216058   5.049   5.249   4.083
 5365TIP3    H116059   5.066   5.312   4.153
 5365TIP3    H216060   5.129   5.247   4.031
 5366TIP3   OH216061   2.092   6.187   2.700
 5366TIP3    H116062   2.062   6.249   2.766
 5366TIP3    H216063   2.119   6.241   2.626
 5367TIP3   OH216064   6.440   4.943   1.571
 5367TIP3    H116065   6.393   4.992   1.504
 5367TIP3    H216066   6.424   4.992   1.652
 5368TIP3   OH216067   6.522   6.658   4.109
 5368TIP3    H116068   6.581   6.723   4.070
 5368TIP3    H216069   6.516   6.683   4.201
 5369TIP3   OH216070   4.834   1.657   3.718
 5369TIP3    H116071   4.893   1.672   3.644
 5369TIP3    H216072   4.772   1.730   3.715
 5370TIP3   OH216073   5.669   6.061   1.886
 5370TIP3    H116074   5.604   6.123   1.852
 5370TIP3    H216075   5.754   6.100   1.862
 5371TIP3   OH216076   1.486   3.245   0.332
 5371TIP3    H116077   1.452   3.157   0.315
 5371TIP3    H216078   1.443   3.301   0.268
 5372TIP3   OH216079   4.108   5.702   2.178
 5372TIP3    H116080   4.079   5.612   2.161
 5372TIP3    H216081   4.203   5.698   2.176
 5373TIP3   OH216082   2.953   2.721   3.011
 5373TIP3    H116083   2.968   2.644   2.957
 5373TIP3    H216084   2.928   2.686   3.097
 5374TIP3   OH216085   3.708   4.458   1.712
 5374TIP3    H116086   3.759   4.411   1.646
 5374TIP3    H216087   3.622   4.415   1.711
 5375TIP3   OH216088   6.651   2.161   3.484
 5375TIP3    H116089   6.681   2.182   3.572
 5375TIP3    H216090   6.559   2.138   3.494
 5376TIP3   OH216091   1.278   5.309   0.148
 5376TIP3    H116092   1.223   5.267   0.214
 5376TIP3    H216093   1.220   5.369   0.102
 5377TIP3   OH216094   1.453   5.871   1.730
 5377TIP3    H116095   1.534   5.922   1.732
 5377TIP3    H216096   1.392   5.924   1.678
 5378TIP3   OH216097   5.204   2.810   3.038
 5378TIP3    H116098   5.179   2.722   3.011
 5378TIP3    H216099   5.136   2.867   3.001
 5379TIP3   OH216100   3.407   0.978   3.370
 5379TIP3    H116101   3.464   1.016   3.436
 5379TIP3    H216102   3.404   0.885   3.392
 5380TIP3   OH216103   1.258   1.482   3.701
 5380TIP3    H116104   1.224   1.538   3.631
 5380TIP3    H216105   1.306   1.543   3.758
 5381TIP3   OH216106   5.578   6.524   5.310
 5381TIP3    H116107   5.647   6.569   5.359
 5381TIP3    H216108   5.519   6.595   5.282
 5382TIP3   OH216109   1.228   4.813   2.876
 5382TIP3    H116110   1.235   4.839   2.968
 5382TIP3    H216111   1.309   4.845   2.836
 5383TIP3   OH216112   7.009   2.003   0.838
 5383TIP3    H116113   7.055   2.063   0.896
 5383TIP3    H216114   7.075   1.976   0.774
 5384TIP3   OH216115   6.350   1.607   0.732
 5384TIP3    H116116   6.427   1.575   0.685
 5384TIP3    H216117   6.301   1.528   0.753
 5385TIP3   OH216118   1.344   2.260   4.266
 5385TIP3    H116119   1.412   2.326   4.248
 5385TIP3    H216120   1.262   2.306   4.248
 5386TIP3   OH216121   5.948   4.625   2.179
 5386TIP3    H116122   5.994   4.569   2.117
 5386TIP3    H216123   5.907   4.693   2.125
 5387TIP3   OH216124   6.655   2.042   4.319
 5387TIP3    H116125   6.619   1.965   4.275
 5387TIP3    H216126   6.648   2.112   4.255
 5388TIP3   OH216127   0.514   2.441   2.833
 5388TIP3    H116128   0.513   2.507   2.902
 5388TIP3    H216129   0.422   2.433   2.806
 5389TIP3   OH216130   3.652   5.556   3.255
 5389TIP3    H116131   3.593   5.593   3.321
 5389TIP3    H216132   3.729   5.612   3.257
 5390TIP3   OH216133   2.599   4.643   5.793
 5390TIP3    H116134   2.507   4.644   5.819
 5390TIP3    H216135   2.621   4.735   5.778
 5391TIP3   OH216136   6.664   5.772   2.407
 5391TIP3    H116137   6.717   5.834   2.356
 5391TIP3    H216138   6.573   5.798   2.390
 5392TIP3   OH216139   3.036   0.364   1.250
 5392TIP3    H116140   3.011   0.455   1.234
 5392TIP3    H216141   3.012   0.348   1.341
 5393TIP3   OH216142   3.777   5.873   4.393
 5393TIP3    H116143   3.767   5.781   4.370
 5393TIP3    H216144   3.729   5.883   4.475
 5394TIP3   OH216145   6.443   1.978   5.224
 5394TIP3    H116146   6.451   2.036   5.299
 5394TIP3    H216147   6.523   1.994   5.173
 5395TIP3   OH216148   5.864   0.458   0.291
 5395TIP3    H116149   5.943   0.405   0.298
 5395TIP3    H216150   5.830   0.464   0.380
 5396TIP3   OH216151   2.506   4.098   2.734
 5396TIP3    H116152   2.446   4.040   2.687
 5396TIP3    H216153   2.557   4.040   2.791
 5397TIP3   OH216154   5.647   2.083   3.921
 5397TIP3    H116155   5.708   2.033   3.867
 5397TIP3    H216156   5.599   2.138   3.858
 5398TIP3   OH216157   4.752   3.748   1.265
 5398TIP3    H116158   4.785   3.793   1.343
 5398TIP3    H216159   4.760   3.655   1.286
 5399TIP3   OH216160   3.906   3.247   1.672
 5399TIP3    H116161   3.875   3.336   1.657
 5399TIP3    H216162   3.945   3.249   1.759
 5400TIP3   OH216163   1.560   0.250   5.694
 5400TIP3    H116164   1.487   0.190   5.680
 5400TIP3    H216165   1.518   0.337   5.699
 5401TIP3   OH216166   1.806   3.708   0.148
 5401TIP3    H116167   1.827   3.643   0.081
 5401TIP3    H216168   1.840   3.790   0.112
 5402TIP3   OH216169   4.312   2.568   4.864
 5402TIP3    H116170   4.240   2.631   4.867
 5402TIP3    H216171   4.391   2.622   4.868
 5403TIP3   OH216172   2.195   1.406   2.647
 5403TIP3    H116173   2.157   1.421   2.734
 5403TIP3    H216174   2.120   1.386   2.591
 5404TIP3   OH216175   5.412   2.147   0.510
 5404TIP3    H116176   5.493   2.188   0.480
 5404TIP3    H216177   5.371   2.212   0.567
 5405TIP3   OH216178   0.079   4.673   1.794
 5405TIP3    H116179   0.065   4.768   1.795
 5405TIP3    H216180   0.021   4.641   1.726
 5406TIP3   OH216181   3.942   1.348   3.243
 5406TIP3    H116182   4.015   1.407   3.263
 5406TIP3    H216183   3.928   1.298   3.323
 5407TIP3   OH216184   3.755   0.022   3.651
 5407TIP3    H116185   3.816   0.055   3.718
 5407TIP3    H216186   3.802   0.034   3.568
 5408TIP3   OH216187   3.216   3.833   2.992
 5408TIP3    H116188   3.172   3.753   2.964
 5408TIP3    H216189   3.225   3.884   2.911
 5409TIP3   OH216190   0.793   0.930   5.782
 5409TIP3    H116191   0.721   0.879   5.820
 5409TIP3    H216192   0.830   0.979   5.855
 5410TIP3   OH216193   1.230   5.353   3.344
 5410TIP3    H116194   1.143   5.328   3.311
 5410TIP3    H216195   1.290   5.293   3.299
 5411TIP3   OH216196   4.881   4.675   1.813
 5411TIP3    H116197   4.904   4.720   1.732
 5411TIP3    H216198   4.789   4.695   1.827
 5412TIP3   OH216199   0.995   1.555   4.769
 5412TIP3    H116200   1.016   1.472   4.812
 5412TIP3    H216201   1.071   1.574   4.715
 5413TIP3   OH216202   1.914   0.305   3.307
 5413TIP3    H116203   1.861   0.300   3.227
 5413TIP3    H216204   1.850   0.311   3.378
 5414TIP3   OH216205   4.887   0.965   1.415
 5414TIP3    H116206   4.885   1.014   1.332
 5414TIP3    H216207   4.867   1.031   1.481
 5415TIP3   OH216208   6.925   2.028   4.412
 5415TIP3    H116209   6.936   2.123   4.407
 5415TIP3    H216210   6.836   2.013   4.378
 5416TIP3   OH216211   2.837   1.807   3.493
 5416TIP3    H116212   2.862   1.754   3.418
 5416TIP3    H216213   2.747   1.835   3.473
 5417TIP3   OH216214   4.381   3.849   0.546
 5417TIP3    H116215   4.400   3.867   0.454
 5417TIP3    H216216   4.350   3.758   0.547
 5418TIP3   OH216217   6.192   0.227   3.469
 5418TIP3    H116218   6.250   0.251   3.541
 5418TIP3    H216219   6.108   0.208   3.511
 5419TIP3   OH216220   7.078   6.615   2.965
 5419TIP3    H116221   7.021   6.647   3.036
 5419TIP3    H216222   7.156   6.583   3.010
 5420TIP3   OH216223   5.334   4.462   3.473
 5420TIP3    H116224   5.409   4.405   3.453
 5420TIP3    H216225   5.310   4.439   3.563
 5421TIP3   OH216226   0.385   1.825   1.018
 5421TIP3    H116227   0.405   1.913   1.050
 5421TIP3    H216228   0.468   1.777   1.026
 5422TIP3   OH216229   6.163   3.183   1.730
 5422TIP3    H116230   6.162   3.128   1.808
 5422TIP3    H216231   6.097   3.143   1.672
 5423TIP3   OH216232   1.346   0.998   4.234
 5423TIP3    H116233   1.377   1.044   4.156
 5423TIP3    H216234   1.257   1.028   4.247
 5424TIP3   OH216235   2.855   2.245   2.478
 5424TIP3    H116236   2.820   2.158   2.457
 5424TIP3    H216237   2.933   2.253   2.423
 5425TIP3   OH216238   2.241   5.028   3.661
 5425TIP3    H116239   2.235   5.067   3.748
 5425TIP3    H216240   2.199   4.943   3.670
 5426TIP3   OH216241   5.067   2.860   5.166
 5426TIP3    H116242   5.026   2.941   5.137
 5426TIP3    H216243   5.003   2.821   5.226
 5427TIP3   OH216244   2.255   6.073   0.022
 5427TIP3    H116245   2.237   5.991   0.067
 5427TIP3    H216246   2.299   6.128   0.087
 5428TIP3   OH216247   6.003   4.336   2.305
 5428TIP3    H116248   5.985   4.402   2.237
 5428TIP3    H216249   5.938   4.267   2.289
 5429TIP3   OH216250   6.671   3.073   1.983
 5429TIP3    H116251   6.763   3.064   2.009
 5429TIP3    H216252   6.674   3.103   1.893
 5430TIP3   OH216253   3.863   2.352   1.034
 5430TIP3    H116254   3.945   2.309   1.008
 5430TIP3    H216255   3.875   2.373   1.126
 5431TIP3   OH216256   3.781   1.317   2.270
 5431TIP3    H116257   3.738   1.363   2.342
 5431TIP3    H216258   3.710   1.275   2.222
 5432TIP3   OH216259   5.118   0.537   5.091
 5432TIP3    H116260   5.166   0.602   5.039
 5432TIP3    H216261   5.027   0.551   5.068
 5433TIP3   OH216262   6.331   1.105   1.504
 5433TIP3    H116263   6.408   1.054   1.482
 5433TIP3    H216264   6.358   1.160   1.578
 5434TIP3   OH216265   4.818   4.733   4.300
 5434TIP3    H116266   4.759   4.670   4.259
 5434TIP3    H216267   4.762   4.807   4.323
 5435TIP3   OH216268   5.057   5.189   0.119
 5435TIP3    H116269   5.148   5.161   0.130
 5435TIP3    H216270   5.040   5.181   0.026
 5436TIP3   OH216271   5.632   6.485   1.168
 5436TIP3    H116272   5.589   6.564   1.134
 5436TIP3    H216273   5.704   6.468   1.106
 5437TIP3   OH216274   3.497   3.459   5.414
 5437TIP3    H116275   3.504   3.536   5.358
 5437TIP3    H216276   3.507   3.384   5.355
 5438TIP3   OH216277   6.484   1.191   4.326
 5438TIP3    H116278   6.459   1.171   4.417
 5438TIP3    H216279   6.513   1.282   4.329
 5439TIP3   OH216280   4.502   1.033   4.540
 5439TIP3    H116281   4.560   1.093   4.586
 5439TIP3    H216282   4.547   0.949   4.544
 5440TIP3   OH216283   3.337   4.252   1.714
 5440TIP3    H116284   3.418   4.200   1.713
 5440TIP3    H216285   3.362   4.333   1.759
 5441TIP3   OH216286   2.726   0.390   3.517
 5441TIP3    H116287   2.721   0.476   3.477
 5441TIP3    H216288   2.779   0.338   3.457
 5442TIP3   OH216289   5.518   3.357   4.568
 5442TIP3    H116290   5.515   3.438   4.516
 5442TIP3    H216291   5.502   3.287   4.504
 5443TIP3   OH216292   3.201   0.362   2.669
 5443TIP3    H116293   3.282   0.342   2.718
 5443TIP3    H216294   3.137   0.299   2.702
 5444TIP3   OH216295   3.593   4.289   4.007
 5444TIP3    H116296   3.589   4.382   3.982
 5444TIP3    H216297   3.518   4.277   4.065
 5445TIP3   OH216298   4.952   5.882   1.581
 5445TIP3    H116299   4.899   5.953   1.546
 5445TIP3    H216300   5.036   5.889   1.536
 5446TIP3   OH216301   6.300   6.031   0.229
 5446TIP3    H116302   6.303   5.961   0.294
 5446TIP3    H216303   6.237   6.094   0.265
 5447TIP3   OH216304   3.681   2.879   5.497
 5447TIP3    H116305   3.633   2.926   5.566
 5447TIP3    H216306   3.630   2.893   5.418
 5448TIP3   OH216307   4.637   3.884   2.063
 5448TIP3    H116308   4.604   3.966   2.026
 5448TIP3    H216309   4.615   3.818   1.997
 5449TIP3   OH216310   1.211   3.955   3.945
 5449TIP3    H116311   1.280   4.019   3.927
 5449TIP3    H216312   1.232   3.881   3.888
 5450TIP3   OH216313   4.069   0.548   0.298
 5450TIP3    H116314   4.067   0.454   0.280
 5450TIP3    H216315   4.144   0.581   0.247
 5451TIP3   OH216316   7.199   2.224   2.212
 5451TIP3    H116317   7.250   2.248   2.289
 5451TIP3    H216318   7.116   2.272   2.222
 5452TIP3   OH216319   4.931   5.092   0.712
 5452TIP3    H116320   4.880   5.113   0.633
 5452TIP3    H216321   4.872   5.109   0.785
 5453TIP3   OH216322   1.676   5.662   2.655
 5453TIP3    H116323   1.723   5.711   2.588
 5453TIP3    H216324   1.590   5.645   2.616
 5454TIP3   OH216325   5.060   1.361   5.768
 5454TIP3    H116326   5.120   1.359   5.842
 5454TIP3    H216327   5.089   1.290   5.711
 5455TIP3   OH216328   2.765   4.343   0.114
 5455TIP3    H116329   2.669   4.349   0.110
 5455TIP3    H216330   2.786   4.266   0.061
 5456TIP3   OH216331   3.454   5.166   3.925
 5456TIP3    H116332   3.382   5.157   3.987
 5456TIP3    H216333   3.443   5.093   3.864
 5457TIP3   OH216334   1.137   0.353   0.143
 5457TIP3    H116335   1.152   0.444   0.168
 5457TIP3    H216336   1.172   0.346   0.055
 5458TIP3   OH216337   1.163   2.590   3.574
 5458TIP3    H116338   1.211   2.584   3.492
 5458TIP3    H216339   1.220   2.548   3.639
 5459TIP3   OH216340   3.627   5.472   0.371
 5459TIP3    H116341   3.659   5.560   0.393
 5459TIP3    H216342   3.545   5.464   0.420
 5460TIP3   OH216343   0.993   6.542   0.088
 5460TIP3    H116344   1.073   6.517   0.044
 5460TIP3    H216345   1.011   6.528   0.181
 5461TIP3   OH216346   0.175   5.268   4.337
 5461TIP3    H116347   0.089   5.310   4.338
 5461TIP3    H216348   0.236   5.338   4.314
 5462TIP3   OH216349   6.554   2.011   1.264
 5462TIP3    H116350   6.558   1.916   1.250
 5462TIP3    H216351   6.461   2.029   1.278
 5463TIP3   OH216352   0.357   2.188   3.295
 5463TIP3    H116353   0.328   2.197   3.204
 5463TIP3    H216354   0.317   2.262   3.340
 5464TIP3   OH216355   0.217   5.632   4.167
 5464TIP3    H116356   0.257   5.719   4.164
 5464TIP3    H216357   0.276   5.579   4.221
 5465TIP3   OH216358   1.369   6.091   5.615
 5465TIP3    H116359   1.295   6.081   5.555
 5465TIP3    H216360   1.410   6.173   5.588
 5466TIP3   OH216361   0.806   0.448   3.921
 5466TIP3    H116362   0.725   0.496   3.905
 5466TIP3    H216363   0.835   0.421   3.834
 5467TIP3   OH216364   1.315   0.668   4.246
 5467TIP3    H116365   1.331   0.762   4.259
 5467TIP3    H216366   1.396   0.626   4.277
 5468TIP3   OH216367   0.072   0.393   1.010
 5468TIP3    H116368   0.032   0.400   1.096
 5468TIP3    H216369   0.131   0.469   1.004
 5469TIP3   OH216370   3.945   2.971   2.861
 5469TIP3    H116371   4.010   2.994   2.796
 5469TIP3    H216372   3.904   2.891   2.827
 5470TIP3   OH216373   5.028   2.701   5.413
 5470TIP3    H116374   4.947   2.723   5.459
 5470TIP3    H216375   5.095   2.703   5.481
 5471TIP3   OH216376   1.562   3.212   4.652
 5471TIP3    H116377   1.584   3.262   4.574
 5471TIP3    H216378   1.643   3.209   4.702
 5472TIP3   OH216379   6.957   6.208   2.182
 5472TIP3    H116380   7.030   6.152   2.209
 5472TIP3    H216381   6.992   6.258   2.109
 5473TIP3   OH216382   2.775   5.088   5.019
 5473TIP3    H116383   2.682   5.100   5.040
 5473TIP3    H216384   2.818   5.082   5.104
 5474TIP3   OH216385   1.594   0.663   2.195
 5474TIP3    H116386   1.670   0.632   2.244
 5474TIP3    H216387   1.528   0.680   2.261
 5475TIP3   OH216388   1.725   1.476   3.176
 5475TIP3    H116389   1.782   1.545   3.209
 5475TIP3    H216390   1.675   1.518   3.105
 5476TIP3   OH216391   3.950   2.696   1.817
 5476TIP3    H116392   3.900   2.726   1.892
 5476TIP3    H216393   3.939   2.601   1.817
 5477TIP3   OH216394   6.344   0.828   4.762
 5477TIP3    H116395   6.415   0.842   4.825
 5477TIP3    H216396   6.372   0.752   4.711
 5478TIP3   OH216397   2.523   4.630   2.097
 5478TIP3    H116398   2.499   4.695   2.163
 5478TIP3    H216399   2.531   4.548   2.146
 5479TIP3   OH216400   2.269   6.355   5.755
 5479TIP3    H116401   2.270   6.398   5.841
 5479TIP3    H216402   2.261   6.427   5.692
 5480TIP3   OH216403   4.756   3.835   2.739
 5480TIP3    H116404   4.791   3.879   2.816
 5480TIP3    H216405   4.819   3.765   2.720
 5481TIP3   OH216406   1.403   0.173   2.266
 5481TIP3    H116407   1.418   0.258   2.225
 5481TIP3    H216408   1.481   0.122   2.245
 5482TIP3   OH216409   3.165   5.641   3.490
 5482TIP3    H116410   3.150   5.735   3.479
 5482TIP3    H216411   3.102   5.615   3.557
 5483TIP3   OH216412   3.060   3.444   3.141
 5483TIP3    H116413   3.053   3.521   3.084
 5483TIP3    H216414   3.066   3.370   3.082
 5484TIP3   OH216415   4.791   1.843   1.385
 5484TIP3    H116416   4.826   1.877   1.467
 5484TIP3    H216417   4.699   1.824   1.404
 5485TIP3   OH216418   6.012   5.111   5.548
 5485TIP3    H116419   6.096   5.068   5.531
 5485TIP3    H216420   6.035   5.203   5.562
 5486TIP3   OH216421   6.598   0.859   5.492
 5486TIP3    H116422   6.637   0.924   5.551
 5486TIP3    H216423   6.578   0.784   5.548
 5487TIP3   OH216424   4.929   6.742   5.275
 5487TIP3    H116425   5.007   6.692   5.251
 5487TIP3    H216426   4.927   6.738   5.371
 5488TIP3   OH216427   0.880   5.986   4.199
 5488TIP3    H116428   0.974   5.972   4.196
 5488TIP3    H216429   0.870   6.078   4.224
 5489TIP3   OH216430   6.189   2.432   0.817
 5489TIP3    H116431   6.252   2.398   0.880
 5489TIP3    H216432   6.242   2.477   0.751
 5490TIP3   OH216433   5.316   2.589   4.533
 5490TIP3    H116434   5.323   2.684   4.530
 5490TIP3    H216435   5.268   2.570   4.613
 5491TIP3   OH216436   5.771   5.429   5.658
 5491TIP3    H116437   5.845   5.465   5.706
 5491TIP3    H216438   5.784   5.456   5.568
 5492TIP3   OH216439   1.351   3.707   0.455
 5492TIP3    H116440   1.362   3.623   0.500
 5492TIP3    H216441   1.268   3.741   0.487
 5493TIP3   OH216442   0.850   2.636   4.014
 5493TIP3    H116443   0.823   2.725   3.991
 5493TIP3    H216444   0.792   2.579   3.963
 5494TIP3   OH216445   2.915   2.369   4.520
 5494TIP3    H116446   2.957   2.421   4.452
 5494TIP3    H216447   2.902   2.283   4.481
 5495TIP3   OH216448   5.445   6.343   2.430
 5495TIP3    H116449   5.512   6.358   2.363
 5495TIP3    H216450   5.420   6.251   2.419
 5496TIP3   OH216451   7.067   3.511   3.673
 5496TIP3    H116452   7.137   3.553   3.723
 5496TIP3    H216453   7.062   3.561   3.591
 5497TIP3   OH216454   7.041   4.071   4.299
 5497TIP3    H116455   7.060   4.133   4.229
 5497TIP3    H216456   7.103   4.094   4.368
 5498TIP3   OH216457   0.012   0.353   1.590
 5498TIP3    H116458   0.064   0.391   1.661
 5498TIP3    H216459  -0.072   0.331   1.632
 5499TIP3   OH216460   5.658   5.639   2.897
 5499TIP3    H116461   5.705   5.609   2.975
 5499TIP3    H216462   5.677   5.573   2.830
 5500TIP3   OH216463   1.452   0.499   4.011
 5500TIP3    H116464   1.444   0.567   4.078
 5500TIP3    H216465   1.391   0.431   4.039
 5501TIP3   OH216466   0.661   5.499   4.877
 5501TIP3    H116467   0.707   5.500   4.793
 5501TIP3    H216468   0.677   5.411   4.911
 5502TIP3   OH216469   5.787   3.179   5.222
 5502TIP3    H116470   5.784   3.108   5.287
 5502TIP3    H216471   5.731   3.247   5.259
 5503TIP3   OH216472   3.420   4.012   5.660
 5503TIP3    H116473   3.498   4.011   5.605
 5503TIP3    H216474   3.386   3.923   5.654
 5504TIP3   OH216475   4.124   2.153   0.413
 5504TIP3    H116476   4.186   2.219   0.445
 5504TIP3    H216477   4.162   2.124   0.329
 5505TIP3   OH216478   2.789   1.501   0.082
 5505TIP3    H116479   2.714   1.546   0.043
 5505TIP3    H216480   2.776   1.509   0.176
 5506TIP3   OH216481   2.927   0.620   3.432
 5506TIP3    H116482   2.835   0.641   3.445
 5506TIP3    H216483   2.972   0.655   3.508
 5507TIP3   OH216484   5.036   5.609   2.862
 5507TIP3    H116485   5.027   5.610   2.767
 5507TIP3    H216486   5.130   5.616   2.877
 5508TIP3   OH216487   6.521   2.888   4.167
 5508TIP3    H116488   6.520   2.940   4.248
 5508TIP3    H216489   6.436   2.906   4.127
 5509TIP3   OH216490   6.097   2.957   0.646
 5509TIP3    H116491   6.027   2.962   0.711
 5509TIP3    H216492   6.135   3.045   0.646
 5510TIP3   OH216493   2.083   1.803   5.431
 5510TIP3    H116494   1.993   1.771   5.422
 5510TIP3    H216495   2.075   1.898   5.426
 5511TIP3   OH216496   2.461   6.698   2.806
 5511TIP3    H116497   2.378   6.650   2.805
 5511TIP3    H216498   2.436   6.790   2.793
 5512TIP3   OH216499   5.919   0.489   1.369
 5512TIP3    H116500   5.910   0.578   1.402
 5512TIP3    H216501   5.850   0.439   1.413
 5513TIP3   OH216502   2.470   5.439   2.921
 5513TIP3    H116503   2.378   5.414   2.911
 5513TIP3    H216504   2.468   5.527   2.958
 5514TIP3   OH216505   6.930   0.634   3.995
 5514TIP3    H116506   6.950   0.723   3.966
 5514TIP3    H216507   6.968   0.577   3.929
 5515TIP3   OH216508   0.378   3.730   4.919
 5515TIP3    H116509   0.403   3.788   4.847
 5515TIP3    H216510   0.411   3.644   4.892
 5516TIP3   OH216511   0.651   1.432   2.634
 5516TIP3    H116512   0.594   1.379   2.578
 5516TIP3    H216513   0.628   1.406   2.723
 5517TIP3   OH216514   1.684   2.677   0.857
 5517TIP3    H116515   1.620   2.723   0.911
 5517TIP3    H216516   1.701   2.737   0.784
 5518TIP3   OH216517   0.322   0.794   0.090
 5518TIP3    H116518   0.226   0.801   0.095
 5518TIP3    H216519   0.344   0.721   0.149
 5519TIP3   OH216520   0.889   5.664   2.387
 5519TIP3    H116521   0.827   5.599   2.356
 5519TIP3    H216522   0.882   5.736   2.323
 5520TIP3   OH216523   0.065   2.019   4.476
 5520TIP3    H116524  -0.001   1.955   4.500
 5520TIP3    H216525   0.082   2.067   4.557
 5521TIP3   OH216526   3.636   0.769   2.999
 5521TIP3    H116527   3.656   0.745   2.909
 5521TIP3    H216528   3.700   0.836   3.021
 5522TIP3   OH216529   6.065   5.367   4.134
 5522TIP3    H116530   6.024   5.449   4.107
 5522TIP3    H216531   6.007   5.333   4.202
 5523TIP3   OH216532   2.849   1.953   4.511
 5523TIP3    H116533   2.790   1.947   4.586
 5523TIP3    H216534   2.936   1.933   4.547
 5524TIP3   OH216535   1.646   4.118   2.270
 5524TIP3    H116536   1.734   4.082   2.280
 5524TIP3    H216537   1.590   4.041   2.262
 5525TIP3   OH216538   2.652   0.618   3.387
 5525TIP3    H116539   2.644   0.677   3.312
 5525TIP3    H216540   2.564   0.614   3.424
 5526TIP3   OH216541   7.026   4.671   0.856
 5526TIP3    H116542   7.093   4.671   0.925
 5526TIP3    H216543   6.954   4.620   0.892
 5527TIP3   OH216544   2.712   0.965   0.136
 5527TIP3    H116545   2.738   0.890   0.083
 5527TIP3    H216546   2.700   1.036   0.074
 5528TIP3   OH216547   1.300   1.279   1.259
 5528TIP3    H116548   1.228   1.223   1.229
 5528TIP3    H216549   1.318   1.336   1.184
 5529TIP3   OH216550   1.056   4.634   1.234
 5529TIP3    H116551   1.120   4.580   1.187
 5529TIP3    H216552   1.109   4.688   1.293
 5530TIP3   OH216553   5.921   4.838   0.689
 5530TIP3    H116554   5.825   4.841   0.692
 5530TIP3    H216555   5.946   4.922   0.649
 5531TIP3   OH216556   1.822   5.927   4.952
 5531TIP3    H116557   1.751   5.983   4.982
 5531TIP3    H216558   1.834   5.863   5.022
 5532TIP3   OH216559   3.604   6.673   2.152
 5532TIP3    H116560   3.677   6.612   2.164
 5532TIP3    H216561   3.583   6.667   2.059
 5533TIP3   OH216562   0.585   1.718   3.375
 5533TIP3    H116563   0.638   1.673   3.309
 5533TIP3    H216564   0.549   1.647   3.428
 5534TIP3   OH216565   5.173   3.080   1.741
 5534TIP3    H116566   5.134   3.121   1.818
 5534TIP3    H216567   5.252   3.037   1.775
 5535TIP3   OH216568   5.517   1.882   0.406
 5535TIP3    H116569   5.462   1.866   0.482
 5535TIP3    H216570   5.504   1.805   0.350
 5536TIP3   OH216571   0.155   3.783   3.184
 5536TIP3    H116572   0.230   3.831   3.151
 5536TIP3    H216573   0.190   3.699   3.214
 5537TIP3   OH216574   5.918   0.501   3.761
 5537TIP3    H116575   5.927   0.464   3.673
 5537TIP3    H216576   5.824   0.499   3.778
 5538TIP3   OH216577   6.031   6.387   1.085
 5538TIP3    H116578   5.948   6.399   1.040
 5538TIP3    H216579   6.040   6.293   1.095
 5539TIP3   OH216580   2.945   3.023   5.074
 5539TIP3    H116581   2.886   2.953   5.101
 5539TIP3    H216582   2.984   3.054   5.156
 5540TIP3   OH216583   1.369   6.725   5.322
 5540TIP3    H116584   1.310   6.780   5.374
 5540TIP3    H216585   1.398   6.657   5.383
 5541TIP3   OH216586   3.079   4.963   2.922
 5541TIP3    H116587   3.027   4.889   2.955
 5541TIP3    H216588   3.051   5.037   2.975
 5542TIP3   OH216589   1.207   5.423   4.852
 5542TIP3    H116590   1.233   5.501   4.802
 5542TIP3    H216591   1.114   5.412   4.832
 5543TIP3   OH216592   6.848   4.460   2.853
 5543TIP3    H116593   6.853   4.411   2.770
 5543TIP3    H216594   6.785   4.530   2.836
 5544TIP3   OH216595   0.916   2.289   3.499
 5544TIP3    H116596   0.910   2.370   3.548
 5544TIP3    H216597   0.871   2.224   3.553
 5545TIP3   OH216598   3.043   4.688   0.125
 5545TIP3    H116599   3.015   4.774   0.155
 5545TIP3    H216600   3.046   4.695   0.030
 5546TIP3   OH216601   4.158   2.250   0.055
 5546TIP3    H116602   4.093   2.181   0.040
 5546TIP3    H216603   4.119   2.307   0.120
 5547TIP3   OH216604   0.050   6.775   3.970
 5547TIP3    H116605  -0.036   6.734   3.968
 5547TIP3    H216606   0.052   6.831   3.892
 5548TIP3   OH216607   4.740   1.144   2.400
 5548TIP3    H116608   4.765   1.225   2.356
 5548TIP3    H216609   4.762   1.158   2.492
 5549TIP3   OH216610   3.646   5.372   3.615
 5549TIP3    H116611   3.601   5.456   3.622
 5549TIP3    H216612   3.640   5.334   3.703
 5550TIP3   OH216613   6.075   0.743   4.100
 5550TIP3    H116614   6.154   0.762   4.049
 5550TIP3    H216615   6.108   0.709   4.183
 5551TIP3   OH216616   3.707   1.111   4.947
 5551TIP3    H116617   3.675   1.100   5.037
 5551TIP3    H216618   3.627   1.118   4.895
 5552TIP3   OH216619   2.482   6.074   3.967
 5552TIP3    H116620   2.449   5.985   3.955
 5552TIP3    H216621   2.430   6.109   4.040
 5553TIP3   OH216622   6.297   5.748   1.372
 5553TIP3    H116623   6.327   5.661   1.346
 5553TIP3    H216624   6.324   5.805   1.301
 5554TIP3   OH216625   5.416   0.198   3.312
 5554TIP3    H116626   5.378   0.269   3.363
 5554TIP3    H216627   5.505   0.189   3.345
 5555TIP3   OH216628   6.621   5.034   4.446
 5555TIP3    H116629   6.641   4.941   4.430
 5555TIP3    H216630   6.634   5.076   4.361
 5556TIP3   OH216631   1.934   6.437   1.452
 5556TIP3    H116632   1.901   6.526   1.466
 5556TIP3    H216633   1.856   6.385   1.436
 5557TIP3   OH216634   3.935   4.069   1.817
 5557TIP3    H116635   3.992   4.051   1.892
 5557TIP3    H216636   3.847   4.079   1.854
 5558TIP3   OH216637   1.440   3.271   4.882
 5558TIP3    H116638   1.514   3.317   4.921
 5558TIP3    H216639   1.465   3.257   4.791
 5559TIP3   OH216640   2.768   0.214   5.163
 5559TIP3    H116641   2.673   0.219   5.151
 5559TIP3    H216642   2.802   0.207   5.074
 5560TIP3   OH216643   2.568   6.778   5.175
 5560TIP3    H116644   2.649   6.749   5.134
 5560TIP3    H216645   2.499   6.747   5.117
 5561TIP3   OH216646   6.922   3.793   0.346
 5561TIP3    H116647   6.985   3.796   0.274
 5561TIP3    H216648   6.970   3.831   0.420
 5562TIP3   OH216649   3.990   1.535   1.015
 5562TIP3    H116650   4.012   1.442   1.012
 5562TIP3    H216651   4.044   1.575   0.947
 5563TIP3   OH216652   6.865   5.758   0.045
 5563TIP3    H116653   6.944   5.747   0.099
 5563TIP3    H216654   6.876   5.844   0.004
 5564TIP3   OH216655   5.644   0.599   1.565
 5564TIP3    H116656   5.693   0.677   1.591
 5564TIP3    H216657   5.560   0.608   1.611
 5565TIP3   OH216658   5.255   0.093   2.816
 5565TIP3    H116659   5.218   0.090   2.905
 5565TIP3    H216660   5.290   0.005   2.802
 5566TIP3   OH216661   5.216   2.277   3.891
 5566TIP3    H116662   5.195   2.364   3.856
 5566TIP3    H216663   5.282   2.242   3.832
 5567TIP3   OH216664   7.192   4.134   1.262
 5567TIP3    H116665   7.123   4.085   1.307
 5567TIP3    H216666   7.147   4.175   1.187
 5568TIP3   OH216667   1.018   0.388   1.622
 5568TIP3    H116668   0.977   0.469   1.652
 5568TIP3    H216669   0.963   0.358   1.549
 5569TIP3   OH216670   1.314   6.427   3.278
 5569TIP3    H116671   1.305   6.510   3.232
 5569TIP3    H216672   1.379   6.444   3.346
 5570TIP3   OH216673   1.618   1.109   0.986
 5570TIP3    H116674   1.536   1.077   0.950
 5570TIP3    H216675   1.676   1.033   0.987
 5571TIP3   OH216676   1.245   5.258   1.449
 5571TIP3    H116677   1.188   5.184   1.428
 5571TIP3    H216678   1.320   5.219   1.494
 5572TIP3   OH216679   1.881   4.874   5.253
 5572TIP3    H116680   1.947   4.806   5.260
 5572TIP3    H216681   1.930   4.956   5.257
 5573TIP3   OH216682   5.438   1.799   1.451
 5573TIP3    H116683   5.383   1.854   1.507
 5573TIP3    H216684   5.465   1.727   1.509
 5574TIP3   OH216685   5.385   3.435   0.699
 5574TIP3    H116686   5.359   3.364   0.640
 5574TIP3    H216687   5.463   3.402   0.744
 5575TIP3   OH216688   6.325   0.058   3.812
 5575TIP3    H116689   6.329   0.100   3.726
 5575TIP3    H216690   6.372  -0.024   3.801
 5576TIP3   OH216691   3.529   4.195   5.870
 5576TIP3    H116692   3.473   4.198   5.948
 5576TIP3    H216693   3.469   4.171   5.799
 5577TIP3   OH216694   6.895   3.768   4.757
 5577TIP3    H116695   6.896   3.862   4.742
 5577TIP3    H216696   6.846   3.732   4.684
 5578TIP3   OH216697   0.229   0.972   5.487
 5578TIP3    H116698   0.293   0.972   5.558
 5578TIP3    H216699   0.192   1.060   5.487
 5579TIP3   OH216700   2.937   2.115   1.100
 5579TIP3    H116701   2.893   2.065   1.169
 5579TIP3    H216702   3.028   2.086   1.105
 5580TIP3   OH216703   2.394   1.552   3.709
 5580TIP3    H116704   2.364   1.641   3.726
 5580TIP3    H216705   2.409   1.514   3.796
 5581TIP3   OH216706   3.650   0.438   2.634
 5581TIP3    H116707   3.575   0.385   2.608
 5581TIP3    H216708   3.723   0.376   2.637
 5582TIP3   OH216709   5.738   5.628   0.208
 5582TIP3    H116710   5.743   5.649   0.302
 5582TIP3    H216711   5.787   5.547   0.199
 5583TIP3   OH216712   1.620   2.203   1.125
 5583TIP3    H116713   1.601   2.296   1.117
 5583TIP3    H216714   1.553   2.160   1.072
 5584TIP3   OH216715   6.021   1.101   2.068
 5584TIP3    H116716   6.003   1.053   2.148
 5584TIP3    H216717   6.113   1.126   2.074
 5585TIP3   OH216718   0.256   0.214   5.684
 5585TIP3    H116719   0.230   0.151   5.751
 5585TIP3    H216720   0.335   0.255   5.719
 5586TIP3   OH216721   1.439   3.696   5.603
 5586TIP3    H116722   1.432   3.601   5.604
 5586TIP3    H216723   1.507   3.716   5.667
 5587TIP3   OH216724   1.880   0.463   4.239
 5587TIP3    H116725   1.891   0.555   4.215
 5587TIP3    H216726   1.968   0.432   4.256
 5588TIP3   OH216727   6.264   4.176   0.065
 5588TIP3    H116728   6.185   4.122   0.064
 5588TIP3    H216729   6.310   4.150   0.145
 5589TIP3   OH216730   3.502   4.628   3.463
 5589TIP3    H116731   3.429   4.678   3.498
 5589TIP3    H216732   3.559   4.695   3.424
 5590TIP3   OH216733   5.995   1.152   3.170
 5590TIP3    H116734   6.014   1.058   3.176
 5590TIP3    H216735   5.949   1.162   3.087
 5591TIP3   OH216736   0.704   3.832   4.436
 5591TIP3    H116737   0.700   3.736   4.436
 5591TIP3    H216738   0.732   3.854   4.347
 5592TIP3   OH216739   4.241   5.665   2.822
 5592TIP3    H116740   4.272   5.675   2.912
 5592TIP3    H216741   4.320   5.663   2.769
 5593TIP3   OH216742   4.533   2.101   5.636
 5593TIP3    H116743   4.507   2.187   5.603
 5593TIP3    H216744   4.548   2.049   5.558
 5594TIP3   OH216745   6.495   0.218   4.694
 5594TIP3    H116746   6.557   0.271   4.744
 5594TIP3    H216747   6.496   0.255   4.606
 5595TIP3   OH216748   1.441   0.649   4.663
 5595TIP3    H116749   1.535   0.659   4.676
 5595TIP3    H216750   1.418   0.715   4.598
 5596TIP3   OH216751   5.375   0.468   0.805
 5596TIP3    H116752   5.456   0.456   0.853
 5596TIP3    H216753   5.361   0.563   0.802
 5597TIP3   OH216754   4.828   5.056   4.425
 5597TIP3    H116755   4.885   5.059   4.501
 5597TIP3    H216756   4.822   5.147   4.395
 5598TIP3   OH216757   0.378   1.294   3.801
 5598TIP3    H116758   0.403   1.261   3.888
 5598TIP3    H216759   0.421   1.379   3.795
 5599TIP3   OH216760   4.743   0.341   1.909
 5599TIP3    H116761   4.765   0.316   1.999
 5599TIP3    H216762   4.736   0.258   1.862
 5600TIP3   OH216763   3.017   2.383   0.613
 5600TIP3    H116764   3.023   2.448   0.543
 5600TIP3    H216765   2.927   2.390   0.645
 5601TIP3   OH216766   5.774   0.384   2.911
 5601TIP3    H116767   5.738   0.466   2.878
 5601TIP3    H216768   5.699   0.339   2.951
 5602TIP3   OH216769   3.596   1.177   2.086
 5602TIP3    H116770   3.663   1.113   2.062
 5602TIP3    H216771   3.553   1.198   2.004
 5603TIP3   OH216772   5.168   5.386   4.722
 5603TIP3    H116773   5.093   5.445   4.735
 5603TIP3    H216774   5.147   5.309   4.774
 5604TIP3   OH216775   2.331   5.196   0.823
 5604TIP3    H116776   2.311   5.180   0.915
 5604TIP3    H216777   2.246   5.192   0.779
 5605TIP3   OH216778   7.074   6.031   5.688
 5605TIP3    H116779   7.112   5.944   5.678
 5605TIP3    H216780   7.088   6.054   5.780
 5606TIP3   OH216781   3.143   2.806   0.072
 5606TIP3    H116782   3.204   2.834   0.003
 5606TIP3    H216783   3.118   2.888   0.115
 5607TIP3   OH216784   5.883   4.874   2.007
 5607TIP3    H116785   5.891   4.867   1.912
 5607TIP3    H216786   5.791   4.896   2.022
 5608TIP3   OH216787   0.383   4.013   2.068
 5608TIP3    H116788   0.304   4.043   2.113
 5608TIP3    H216789   0.439   4.091   2.065
 5609TIP3   OH216790   0.128   4.928   1.163
 5609TIP3    H116791   0.050   4.952   1.112
 5609TIP3    H216792   0.116   4.972   1.247
 5610TIP3   OH216793   3.095   2.177   5.372
 5610TIP3    H116794   3.143   2.230   5.308
 5610TIP3    H216795   3.101   2.088   5.339
 5611TIP3   OH216796   5.556   5.726   5.430
 5611TIP3    H116797   5.604   5.764   5.504
 5611TIP3    H216798   5.549   5.797   5.367
 5612TIP3   OH216799   5.375   3.705   0.148
 5612TIP3    H116800   5.413   3.749   0.071
 5612TIP3    H216801   5.394   3.764   0.221
 5613TIP3   OH216802   5.497   3.787   4.899
 5613TIP3    H116803   5.439   3.745   4.835
 5613TIP3    H216804   5.457   3.769   4.984
 5614TIP3   OH216805   0.191   1.452   0.132
 5614TIP3    H116806   0.182   1.384   0.199
 5614TIP3    H216807   0.286   1.462   0.121
 5615TIP3   OH216808   4.772   2.187   1.430
 5615TIP3    H116809   4.842   2.148   1.377
 5615TIP3    H216810   4.719   2.113   1.458
 5616TIP3   OH216811   2.048   0.403   4.800
 5616TIP3    H116812   1.961   0.369   4.819
 5616TIP3    H216813   2.071   0.363   4.716
 5617TIP3   OH216814   0.223   0.629   0.999
 5617TIP3    H116815   0.304   0.606   1.044
 5617TIP3    H216816   0.248   0.634   0.906
 5618TIP3   OH216817   4.466   2.642   0.951
 5618TIP3    H116818   4.383   2.688   0.938
 5618TIP3    H216819   4.498   2.673   1.036
 5619TIP3   OH216820   0.827   6.480   2.332
 5619TIP3    H116821   0.764   6.481   2.404
 5619TIP3    H216822   0.912   6.489   2.375
 5620TIP3   OH216823   5.039   4.424   4.958
 5620TIP3    H116824   5.058   4.427   5.052
 5620TIP3    H216825   4.972   4.357   4.949
 5621TIP3   OH216826   4.310   0.281   5.216
 5621TIP3    H116827   4.307   0.347   5.285
 5621TIP3    H216828   4.395   0.296   5.173
 5622TIP3   OH216829   6.520   3.972   1.448
 5622TIP3    H116830   6.568   4.002   1.525
 5622TIP3    H216831   6.553   3.884   1.432
 5623TIP3   OH216832   0.253   5.490   1.782
 5623TIP3    H116833   0.194   5.444   1.841
 5623TIP3    H216834   0.302   5.549   1.839
 5624TIP3   OH216835   5.102   6.768   1.383
 5624TIP3    H116836   5.046   6.806   1.451
 5624TIP3    H216837   5.070   6.678   1.374
 5625TIP3   OH216838   1.362   5.996   3.498
 5625TIP3    H116839   1.433   5.932   3.511
 5625TIP3    H216840   1.370   6.022   3.407
 5626TIP3   OH216841   5.287   5.631   2.952
 5626TIP3    H116842   5.335   5.607   2.874
 5626TIP3    H216843   5.352   5.674   3.008
 5627TIP3   OH216844   6.988   4.759   2.268
 5627TIP3    H116845   6.994   4.852   2.243
 5627TIP3    H216846   6.898   4.735   2.248
 5628TIP3   OH216847   5.962   5.727   1.770
 5628TIP3    H116848   6.054   5.709   1.751
 5628TIP3    H216849   5.932   5.779   1.695
 5629TIP3   OH216850   4.562   1.227   1.451
 5629TIP3    H116851   4.652   1.260   1.448
 5629TIP3    H216852   4.560   1.169   1.527
 5630TIP3   OH216853   3.624   0.566   5.400
 5630TIP3    H116854   3.564   0.620   5.349
 5630TIP3    H216855   3.567   0.506   5.448
 5631TIP3   OH216856   2.446   2.778   3.885
 5631TIP3    H116857   2.379   2.784   3.953
 5631TIP3    H216858   2.497   2.858   3.894
 5632TIP3   OH216859   5.395   4.814   3.979
 5632TIP3    H116860   5.309   4.832   3.939
 5632TIP3    H216861   5.455   4.871   3.931
 5633TIP3   OH216862   3.428   2.584   3.116
 5633TIP3    H116863   3.465   2.499   3.137
 5633TIP3    H216864   3.385   2.571   3.031
 5634TIP3   OH216865   5.570   2.706   0.270
 5634TIP3    H116866   5.569   2.703   0.174
 5634TIP3    H216867   5.478   2.699   0.295
 5635TIP3   OH216868   6.682   0.657   1.634
 5635TIP3    H116869   6.749   0.616   1.579
 5635TIP3    H216870   6.608   0.596   1.629
 5636TIP3   OH216871   3.858   3.527   1.642
 5636TIP3    H116872   3.925   3.569   1.588
 5636TIP3    H216873   3.775   3.554   1.602
 5637TIP3   OH216874   4.251   0.373   0.539
 5637TIP3    H116875   4.232   0.462   0.512
 5637TIP3    H216876   4.245   0.321   0.459
 5638TIP3   OH216877   5.626   2.279   0.373
 5638TIP3    H116878   5.690   2.211   0.349
 5638TIP3    H216879   5.679   2.358   0.386
 5639TIP3   OH216880   3.293   0.197   3.118
 5639TIP3    H116881   3.301   0.291   3.100
 5639TIP3    H216882   3.383   0.165   3.116
 5640TIP3   OH216883   3.670   1.012   4.688
 5640TIP3    H116884   3.724   1.013   4.767
 5640TIP3    H216885   3.580   1.004   4.720
 5641TIP3   OH216886   4.997   6.472   3.310
 5641TIP3    H116887   5.021   6.481   3.402
 5641TIP3    H216888   5.005   6.379   3.292
 5642TIP3   OH216889   5.213   6.385   4.881
 5642TIP3    H116890   5.180   6.335   4.956
 5642TIP3    H216891   5.291   6.430   4.914
 5643TIP3   OH216892   6.484   0.572   5.396
 5643TIP3    H116893   6.509   0.503   5.458
 5643TIP3    H216894   6.551   0.640   5.408
 5644TIP3   OH216895   2.399   2.782   1.267
 5644TIP3    H116896   2.432   2.870   1.249
 5644TIP3    H216897   2.459   2.724   1.219
 5645TIP3   OH216898   0.125   5.861   3.847
 5645TIP3    H116899   0.211   5.833   3.815
 5645TIP3    H216900   0.129   5.957   3.842
 5646TIP3   OH216901   6.927   5.666   1.041
 5646TIP3    H116902   7.011   5.621   1.036
 5646TIP3    H216903   6.864   5.597   1.063
 5647TIP3   OH216904   3.267   4.957   4.912
 5647TIP3    H116905   3.183   4.999   4.931
 5647TIP3    H216906   3.265   4.938   4.819
 5648TIP3   OH216907   5.521   0.348   3.949
 5648TIP3    H116908   5.547   0.420   3.891
 5648TIP3    H216909   5.536   0.382   4.037
 5649TIP3   OH216910   1.921   2.918   5.632
 5649TIP3    H116911   1.999   2.863   5.643
 5649TIP3    H216912   1.956   3.005   5.612
 5650TIP3   OH216913   4.596   2.306   5.231
 5650TIP3    H116914   4.619   2.225   5.185
 5650TIP3    H216915   4.531   2.348   5.175
 5651TIP3   OH216916   4.262   4.493   1.040
 5651TIP3    H116917   4.352   4.498   1.074
 5651TIP3    H216918   4.273   4.462   0.950
 5652TIP3   OH216919   3.525   1.373   3.500
 5652TIP3    H116920   3.456   1.318   3.537
 5652TIP3    H216921   3.595   1.371   3.565
 5653TIP3   OH216922   0.022   3.732   2.163
 5653TIP3    H116923   0.042   3.674   2.089
 5653TIP3    H216924  -0.033   3.679   2.221
 5654TIP3   OH216925   3.436   1.884   3.405
 5654TIP3    H116926   3.351   1.924   3.420
 5654TIP3    H216927   3.425   1.833   3.324
 5655TIP3   OH216928   6.866   1.280   3.206
 5655TIP3    H116929   6.907   1.261   3.290
 5655TIP3    H216930   6.873   1.374   3.196
 5656TIP3   OH216931   2.084   3.794   5.553
 5656TIP3    H116932   2.144   3.800   5.479
 5656TIP3    H216933   2.029   3.872   5.546
 5657TIP3   OH216934   3.394   2.363   0.933
 5657TIP3    H116935   3.480   2.332   0.905
 5657TIP3    H216936   3.399   2.367   1.028
 5658TIP3   OH216937   5.283   1.684   1.692
 5658TIP3    H116938   5.366   1.644   1.718
 5658TIP3    H216939   5.217   1.641   1.745
 5659TIP3   OH216940   7.133   1.233   4.059
 5659TIP3    H116941   7.105   1.177   4.131
 5659TIP3    H216942   7.213   1.192   4.027
 5660TIP3   OH216943   0.535   3.562   1.916
 5660TIP3    H116944   0.463   3.607   1.960
 5660TIP3    H216945   0.534   3.597   1.826
 5661TIP3   OH216946   5.781   2.035   3.453
 5661TIP3    H116947   5.739   2.120   3.466
 5661TIP3    H216948   5.726   1.991   3.388
 5662TIP3   OH216949   3.308   4.147   0.928
 5662TIP3    H116950   3.361   4.210   0.977
 5662TIP3    H216951   3.250   4.201   0.875
 5663TIP3   OH216952   0.437   5.440   0.478
 5663TIP3    H116953   0.450   5.512   0.539
 5663TIP3    H216954   0.466   5.475   0.393
 5664TIP3   OH216955   6.800   3.734   3.939
 5664TIP3    H116956   6.709   3.735   3.968
 5664TIP3    H216957   6.828   3.825   3.942
 5665TIP3   OH216958   6.569   3.510   1.239
 5665TIP3    H116959   6.560   3.439   1.303
 5665TIP3    H216960   6.491   3.503   1.184
 5666TIP3   OH216961   0.078   2.993   4.078
 5666TIP3    H116962  -0.010   3.030   4.072
 5666TIP3    H216963   0.064   2.903   4.110
 5667TIP3   OH216964   1.734   2.868   4.895
 5667TIP3    H116965   1.801   2.932   4.917
 5667TIP3    H216966   1.667   2.879   4.962
 5668TIP3   OH216967   4.103   1.443   3.644
 5668TIP3    H116968   4.186   1.471   3.605
 5668TIP3    H216969   4.037   1.465   3.578
 5669TIP3   OH216970   1.106   0.782   3.666
 5669TIP3    H116971   1.140   0.871   3.674
 5669TIP3    H216972   1.135   0.738   3.747
 5670TIP3   OH216973   7.007   2.263   2.858
 5670TIP3    H116974   6.932   2.310   2.896
 5670TIP3    H216975   7.047   2.218   2.932
 5671TIP3   OH216976   2.123   2.204   3.538
 5671TIP3    H116977   2.176   2.193   3.617
 5671TIP3    H216978   2.180   2.176   3.467
 5672TIP3   OH216979   0.306   3.062   1.361
 5672TIP3    H116980   0.252   3.070   1.440
 5672TIP3    H216981   0.292   2.972   1.331
 5673TIP3   OH216982   4.148   2.414   2.839
 5673TIP3    H116983   4.099   2.418   2.757
 5673TIP3    H216984   4.138   2.501   2.878
 5674TIP3   OH216985   7.221   5.318   2.678
 5674TIP3    H116986   7.153   5.315   2.746
 5674TIP3    H216987   7.265   5.402   2.691
 5675TIP3   OH216988   5.723   4.063   2.900
 5675TIP3    H116989   5.708   3.986   2.843
 5675TIP3    H216990   5.682   4.039   2.983
 5676TIP3   OH216991   5.165   0.965   3.324
 5676TIP3    H116992   5.194   0.886   3.369
 5676TIP3    H216993   5.070   0.967   3.337
 5677TIP3   OH216994   5.403   5.033   2.649
 5677TIP3    H116995   5.405   4.989   2.733
 5677TIP3    H216996   5.330   4.993   2.602
 5678TIP3   OH216997   4.312   0.261   0.275
 5678TIP3    H116998   4.360   0.325   0.222
 5678TIP3    H216999   4.363   0.181   0.268
 5679TIP3   OH217000   5.699   5.330   1.091
 5679TIP3    H117001   5.768   5.372   1.041
 5679TIP3    H217002   5.621   5.383   1.075
 5680TIP3   OH217003   4.057   2.893   1.621
 5680TIP3    H117004   4.027   2.870   1.709
 5680TIP3    H217005   4.104   2.975   1.632
 5681TIP3   OH217006   1.762   3.718   5.280
 5681TIP3    H117007   1.741   3.629   5.308
 5681TIP3    H217008   1.854   3.714   5.254
 5682TIP3   OH217009   2.852   6.540   5.565
 5682TIP3    H117010   2.931   6.518   5.615
 5682TIP3    H217011   2.780   6.499   5.614
 5683TIP3   OH217012   2.898   0.617   1.232
 5683TIP3    H117013   2.837   0.664   1.290
 5683TIP3    H217014   2.925   0.683   1.167
 5684TIP3   OH217015   2.587   1.556   3.117
 5684TIP3    H117016   2.544   1.572   3.033
 5684TIP3    H217017   2.556   1.469   3.143
 5685TIP3   OH217018   4.965   5.381   1.360
 5685TIP3    H117019   4.884   5.333   1.340
 5685TIP3    H217020   4.936   5.457   1.409
 5686TIP3   OH217021   5.836   3.520   5.463
 5686TIP3    H117022   5.741   3.503   5.462
 5686TIP3    H217023   5.868   3.477   5.384
 5687TIP3   OH217024   2.922   6.676   2.968
 5687TIP3    H117025   2.906   6.622   2.890
 5687TIP3    H217026   3.014   6.701   2.960
 5688TIP3   OH217027   4.550   0.331   2.899
 5688TIP3    H117028   4.482   0.358   2.961
 5688TIP3    H217029   4.592   0.412   2.872
 5689TIP3   OH217030   6.612   1.135   2.385
 5689TIP3    H117031   6.553   1.210   2.387
 5689TIP3    H217032   6.700   1.174   2.382
 5690TIP3   OH217033   1.759   0.932   4.534
 5690TIP3    H117034   1.841   0.975   4.510
 5690TIP3    H217035   1.718   0.909   4.450
 5691TIP3   OH217036   0.963   3.448   4.047
 5691TIP3    H117037   0.963   3.360   4.010
 5691TIP3    H217038   0.874   3.480   4.033
 5692TIP3   OH217039   2.179   0.171   5.129
 5692TIP3    H117040   2.109   0.237   5.131
 5692TIP3    H217041   2.144   0.097   5.178
 5693TIP3   OH217042   1.278   1.965   1.060
 5693TIP3    H117043   1.229   2.046   1.048
 5693TIP3    H217044   1.314   1.971   1.149
 5694TIP3   OH217045   1.261   4.644   1.695
 5694TIP3    H117046   1.196   4.606   1.754
 5694TIP3    H217047   1.337   4.661   1.750
 5695TIP3   OH217048   2.154   4.963   0.160
 5695TIP3    H117049   2.217   4.962   0.088
 5695TIP3    H217050   2.134   5.056   0.172
 5696TIP3   OH217051   1.774   6.053   5.394
 5696TIP3    H117052   1.820   6.124   5.438
 5696TIP3    H217053   1.709   6.023   5.458
 5697TIP3   OH217054   7.046   3.923   2.001
 5697TIP3    H117055   6.984   3.886   2.064
 5697TIP3    H217056   7.132   3.900   2.035
 5698TIP3   OH217057   7.147   2.119   0.062
 5698TIP3    H117058   7.161   2.127  -0.033
 5698TIP3    H217059   7.196   2.192   0.099
 5699TIP3   OH217060   5.273   0.204   2.190
 5699TIP3    H117061   5.296   0.184   2.281
 5699TIP3    H217062   5.334   0.151   2.138
 5700TIP3   OH217063   1.305   6.333   0.511
 5700TIP3    H117064   1.292   6.240   0.496
 5700TIP3    H217065   1.227   6.360   0.560
 5701TIP3   OH217066   2.498   6.624   1.435
 5701TIP3    H117067   2.456   6.558   1.490
 5701TIP3    H217068   2.590   6.597   1.432
 5702TIP3   OH217069   2.906   0.791   2.584
 5702TIP3    H117070   2.950   0.850   2.645
 5702TIP3    H217071   2.880   0.716   2.638
 5703TIP3   OH217072   4.605   4.411   1.491
 5703TIP3    H117073   4.615   4.503   1.514
 5703TIP3    H217074   4.693   4.384   1.464
 5704TIP3   OH217075   5.878   4.686   0.041
 5704TIP3    H117076   5.956   4.705  -0.011
 5704TIP3    H217077   5.811   4.665  -0.024
 5705TIP3   OH217078   0.516   4.845   4.212
 5705TIP3    H117079   0.555   4.794   4.283
 5705TIP3    H217080   0.467   4.781   4.160
 5706TIP3   OH217081   0.576   1.408   4.727
 5706TIP3    H117082   0.664   1.398   4.691
 5706TIP3    H217083   0.588   1.399   4.822
 5707TIP3   OH217084   6.740   6.126   0.815
 5707TIP3    H117085   6.697   6.087   0.891
 5707TIP3    H217086   6.682   6.198   0.789
 5708TIP3   OH217087   6.809   5.952   4.260
 5708TIP3    H117088   6.750   5.957   4.185
 5708TIP3    H217089   6.875   6.019   4.244
 5709TIP3   OH217090   7.010   1.784   5.104
 5709TIP3    H117091   7.097   1.747   5.114
 5709TIP3    H217092   6.960   1.717   5.058
 5710TIP3   OH217093   5.954   5.420   2.103
 5710TIP3    H117094   5.917   5.419   2.191
 5710TIP3    H217095   6.043   5.387   2.115
 5711TIP3   OH217096   1.696   4.992   1.128
 5711TIP3    H117097   1.640   5.036   1.064
 5711TIP3    H217098   1.785   5.020   1.105
 5712TIP3   OH217099   4.425   4.689   0.464
 5712TIP3    H117100   4.503   4.735   0.496
 5712TIP3    H217101   4.422   4.708   0.370
 5713TIP3   OH217102   6.304   5.089   3.447
 5713TIP3    H117103   6.341   5.037   3.376
 5713TIP3    H217104   6.379   5.140   3.480
 5714TIP3   OH217105   2.842   1.188   1.067
 5714TIP3    H117106   2.761   1.215   1.110
 5714TIP3    H217107   2.891   1.142   1.135
 5715TIP3   OH217108   5.840   6.376   1.384
 5715TIP3    H117109   5.826   6.469   1.371
 5715TIP3    H217110   5.838   6.339   1.295
 5716TIP3   OH217111   3.322   1.832   0.991
 5716TIP3    H117112   3.405   1.789   1.009
 5716TIP3    H217113   3.338   1.884   0.912
 5717TIP3   OH217114   1.617   2.407   0.465
 5717TIP3    H117115   1.591   2.404   0.557
 5717TIP3    H217116   1.535   2.397   0.417
 5718TIP3   OH217117   2.702   6.513   0.237
 5718TIP3    H117118   2.739   6.576   0.176
 5718TIP3    H217119   2.608   6.531   0.238
 5719TIP3   OH217120   6.570   6.675   5.648
 5719TIP3    H117121   6.525   6.729   5.713
 5719TIP3    H217122   6.660   6.707   5.647
 5720TIP3   OH217123   4.657   4.597   2.470
 5720TIP3    H117124   4.576   4.637   2.501
 5720TIP3    H217125   4.629   4.522   2.418
 5721TIP3   OH217126   1.303   0.781   1.434
 5721TIP3    H117127   1.314   0.876   1.439
 5721TIP3    H217128   1.346   0.747   1.512
 5722TIP3   OH217129   3.390   1.948   2.737
 5722TIP3    H117130   3.441   1.914   2.811
 5722TIP3    H217131   3.336   2.018   2.775
 5723TIP3   OH217132   3.879   2.444   1.848
 5723TIP3    H117133   3.945   2.398   1.797
 5723TIP3    H217134   3.890   2.411   1.937
 5724TIP3   OH217135   0.725   4.907   2.186
 5724TIP3    H117136   0.667   4.906   2.110
 5724TIP3    H217137   0.806   4.947   2.154
 5725TIP3   OH217138   2.324   2.062   5.288
 5725TIP3    H117139   2.246   2.105   5.254
 5725TIP3    H217140   2.350   2.115   5.363
 5726TIP3   OH217141   2.145   3.862   2.301
 5726TIP3    H117142   2.229   3.871   2.257
 5726TIP3    H217143   2.089   3.818   2.238
 5727TIP3   OH217144   7.217   2.411   5.161
 5727TIP3    H117145   7.133   2.366   5.171
 5727TIP3    H217146   7.199   2.483   5.100
 5728TIP3   OH217147   4.882   4.398   2.877
 5728TIP3    H117148   4.907   4.349   2.799
 5728TIP3    H217149   4.958   4.392   2.935
 5729TIP3   OH217150   1.525   1.540   0.702
 5729TIP3    H117151   1.563   1.543   0.789
 5729TIP3    H217152   1.593   1.577   0.645
 5730TIP3   OH217153   3.354   5.047   0.434
 5730TIP3    H117154   3.429   5.102   0.411
 5730TIP3    H217155   3.392   4.980   0.491
 5731TIP3   OH217156   6.613   0.414   3.804
 5731TIP3    H117157   6.597   0.333   3.756
 5731TIP3    H217158   6.603   0.390   3.896
 5732TIP3   OH217159   6.571   0.366   2.457
 5732TIP3    H117160   6.567   0.363   2.362
 5732TIP3    H217161   6.484   0.394   2.485
 5733TIP3   OH217162   6.675   4.103   4.510
 5733TIP3    H117163   6.689   4.021   4.463
 5733TIP3    H217164   6.581   4.104   4.530
 5734TIP3   OH217165   1.242   2.537   2.634
 5734TIP3    H117166   1.249   2.625   2.670
 5734TIP3    H217167   1.329   2.498   2.647
 5735TIP3   OH217168   5.426   6.861   1.553
 5735TIP3    H117169   5.361   6.893   1.615
 5735TIP3    H217170   5.440   6.770   1.577
 5736TIP3   OH217171   0.745   4.461   3.921
 5736TIP3    H117172   0.760   4.514   3.999
 5736TIP3    H217173   0.727   4.373   3.954
 5737TIP3   OH217174   2.119   6.225   1.174
 5737TIP3    H117175   2.067   6.213   1.095
 5737TIP3    H217176   2.102   6.315   1.201
 5738TIP3   OH217177   2.098   2.735   0.511
 5738TIP3    H117178   2.035   2.672   0.547
 5738TIP3    H217179   2.051   2.819   0.514
 5739TIP3   OH217180   3.460   5.722   3.402
 5739TIP3    H117181   3.412   5.683   3.330
 5739TIP3    H217182   3.397   5.782   3.443
 5740TIP3   OH217183   4.495   2.098   2.669
 5740TIP3    H117184   4.462   2.024   2.719
 5740TIP3    H217185   4.529   2.060   2.588
 5741TIP3   OH217186   4.430   1.643   2.564
 5741TIP3    H117187   4.494   1.709   2.589
 5741TIP3    H217188   4.455   1.565   2.614
 5742TIP3   OH217189   2.338   0.872   5.586
 5742TIP3    H117190   2.376   0.916   5.510
 5742TIP3    H217191   2.282   0.804   5.549
 5743TIP3   OH217192   4.547   2.070   3.398
 5743TIP3    H117193   4.509   2.111   3.321
 5743TIP3    H217194   4.477   2.070   3.463
 5744TIP3   OH217195   5.530   3.257   1.682
 5744TIP3    H117196   5.619   3.221   1.678
 5744TIP3    H217197   5.543   3.351   1.692
 5745TIP3   OH217198   0.754   4.240   5.397
 5745TIP3    H117199   0.766   4.145   5.407
 5745TIP3    H217200   0.720   4.250   5.308
 5746TIP3   OH217201   1.737   6.076   0.931
 5746TIP3    H117202   1.781   6.001   0.972
 5746TIP3    H217203   1.669   6.101   0.994
 5747TIP3   OH217204   6.805   2.586   2.803
 5747TIP3    H117205   6.744   2.577   2.731
 5747TIP3    H217206   6.850   2.669   2.786
 5748TIP3   OH217207   2.897   6.552   1.113
 5748TIP3    H117208   2.879   6.646   1.116
 5748TIP3    H217209   2.925   6.536   1.023
 5749TIP3   OH217210   5.066   4.022   0.609
 5749TIP3    H117211   5.139   4.037   0.669
 5749TIP3    H217212   5.107   4.001   0.525
 5750TIP3   OH217213   0.747   0.859   0.595
 5750TIP3    H117214   0.738   0.954   0.590
 5750TIP3    H217215   0.819   0.845   0.657
 5751TIP3   OH217216   0.801   1.528   5.489
 5751TIP3    H117217   0.723   1.507   5.437
 5751TIP3    H217218   0.769   1.534   5.579
 5752TIP3   OH217219   4.869   6.352   0.066
 5752TIP3    H117220   4.876   6.323  -0.024
 5752TIP3    H217221   4.912   6.437   0.068
 5753TIP3   OH217222   6.231   4.951   1.901
 5753TIP3    H117223   6.253   5.043   1.892
 5753TIP3    H217224   6.168   4.934   1.831
 5754TIP3   OH217225   3.830   1.174   0.868
 5754TIP3    H117226   3.910   1.208   0.908
 5754TIP3    H217227   3.759   1.227   0.906
 5755TIP3   OH217228   2.376   4.278   1.416
 5755TIP3    H117229   2.292   4.294   1.458
 5755TIP3    H217230   2.441   4.296   1.483
 5756TIP3   OH217231   6.490   6.651   0.081
 5756TIP3    H117232   6.560   6.665   0.144
 5756TIP3    H217233   6.532   6.605   0.008
 5757TIP3   OH217234   1.226   5.187   2.531
 5757TIP3    H117235   1.225   5.133   2.452
 5757TIP3    H217236   1.140   5.173   2.571
 5758TIP3   OH217237   4.920   0.583   4.678
 5758TIP3    H117238   4.933   0.652   4.743
 5758TIP3    H217239   4.913   0.629   4.595
 5759TIP3   OH217240   4.847   1.330   1.451
 5759TIP3    H117241   4.867   1.416   1.488
 5759TIP3    H217242   4.901   1.325   1.372
 5760TIP3   OH217243   2.647   2.587   5.763
 5760TIP3    H117244   2.645   2.491   5.758
 5760TIP3    H217245   2.592   2.616   5.690
 5761TIP3   OH217246   6.351   2.753   4.744
 5761TIP3    H117247   6.300   2.690   4.795
 5761TIP3    H217248   6.419   2.782   4.804
 5762TIP3   OH217249   4.621   6.082   1.170
 5762TIP3    H117250   4.652   6.026   1.099
 5762TIP3    H217251   4.661   6.046   1.248
 5763TIP3   OH217252   1.348   0.455   1.832
 5763TIP3    H117253   1.295   0.524   1.792
 5763TIP3    H217254   1.411   0.430   1.763
 5764TIP3   OH217255   4.406   4.634   2.680
 5764TIP3    H117256   4.390   4.570   2.750
 5764TIP3    H217257   4.433   4.713   2.727
 5765TIP3   OH217258   4.095   1.184   5.722
 5765TIP3    H117259   4.040   1.162   5.797
 5765TIP3    H217260   4.148   1.258   5.752
 5766TIP3   OH217261   4.287   5.660   0.725
 5766TIP3    H117262   4.302   5.754   0.737
 5766TIP3    H217263   4.370   5.626   0.693
 5767TIP3   OH217264   4.370   1.570   3.617
 5767TIP3    H117265   4.369   1.653   3.664
 5767TIP3    H217266   4.410   1.591   3.532
 5768TIP3   OH217267   2.049   1.151   4.772
 5768TIP3    H117268   2.115   1.125   4.708
 5768TIP3    H217269   2.099   1.193   4.842
 5769TIP3   OH217270   2.012   3.780   4.289
 5769TIP3    H117271   2.018   3.709   4.353
 5769TIP3    H217272   2.103   3.801   4.269
 5770TIP3   OH217273   6.050   4.411   2.694
 5770TIP3    H117274   6.071   4.487   2.748
 5770TIP3    H217275   6.134   4.388   2.653
 5771TIP3   OH217276   5.948   0.674   5.601
 5771TIP3    H117277   5.967   0.713   5.516
 5771TIP3    H217278   5.958   0.746   5.663
 5772TIP3   OH217279   1.764   3.300   2.526
 5772TIP3    H117280   1.772   3.231   2.591
 5772TIP3    H217281   1.768   3.254   2.442
 5773TIP3   OH217282   3.711   6.358   0.439
 5773TIP3    H117283   3.618   6.350   0.461
 5773TIP3    H217284   3.711   6.410   0.358
 5774TIP3   OH217285   1.307   0.396   1.251
 5774TIP3    H117286   1.232   0.337   1.253
 5774TIP3    H217287   1.296   0.451   1.329
 5775TIP3   OH217288   5.465   0.800   0.729
 5775TIP3    H117289   5.392   0.781   0.788
 5775TIP3    H217290   5.478   0.895   0.739
 5776TIP3   OH217291   2.128   0.603   0.335
 5776TIP3    H117292   2.036   0.626   0.343
 5776TIP3    H217293   2.151   0.567   0.421
 5777TIP3   OH217294   7.032   2.564   3.606
 5777TIP3    H117295   7.047   2.471   3.623
 5777TIP3    H217296   6.966   2.590   3.670
 5778TIP3   OH217297   0.963   3.514   4.353
 5778TIP3    H117298   0.962   3.603   4.386
 5778TIP3    H217299   0.880   3.505   4.306
 5779TIP3   OH217300   3.850   5.886   2.940
 5779TIP3    H117301   3.899   5.810   2.909
 5779TIP3    H217302   3.883   5.900   3.029
 5780TIP3   OH217303   3.028   1.564   2.309
 5780TIP3    H117304   3.105   1.566   2.252
 5780TIP3    H217305   2.991   1.652   2.302
 5781TIP3   OH217306   1.184   4.464   1.047
 5781TIP3    H117307   1.195   4.401   1.118
 5781TIP3    H217308   1.225   4.423   0.971
 5782TIP3   OH217309   1.264   6.300   1.826
 5782TIP3    H117310   1.287   6.341   1.909
 5782TIP3    H217311   1.298   6.360   1.760
 5783TIP3   OH217312   6.268   6.298   1.425
 5783TIP3    H117313   6.278   6.367   1.491
 5783TIP3    H217314   6.342   6.311   1.366
 5784TIP3   OH217315   0.316   1.074   1.114
 5784TIP3    H117316   0.395   1.038   1.073
 5784TIP3    H217317   0.265   0.997   1.139
 5785TIP3   OH217318   0.224   1.868   0.753
 5785TIP3    H117319   0.267   1.873   0.838
 5785TIP3    H217320   0.295   1.844   0.693
 5786TIP3   OH217321   6.720   3.764   4.526
 5786TIP3    H117322   6.803   3.783   4.483
 5786TIP3    H217323   6.671   3.712   4.462
 5787TIP3   OH217324   5.650   2.232   2.843
 5787TIP3    H117325   5.626   2.212   2.934
 5787TIP3    H217326   5.600   2.168   2.791
 5788TIP3   OH217327   1.782   1.057   2.291
 5788TIP3    H117328   1.818   0.996   2.356
 5788TIP3    H217329   1.774   1.004   2.212
 5789TIP3   OH217330   2.226   4.566   5.688
 5789TIP3    H117331   2.238   4.619   5.767
 5789TIP3    H217332   2.142   4.522   5.701
 5790TIP3   OH217333   5.696   5.796   5.660
 5790TIP3    H117334   5.661   5.876   5.699
 5790TIP3    H217335   5.708   5.736   5.734
 5791TIP3   OH217336   2.543   6.576   0.464
 5791TIP3    H117337   2.467   6.517   0.462
 5791TIP3    H217338   2.509   6.659   0.432
 5792TIP3   OH217339   0.985   4.572   3.025
 5792TIP3    H117340   1.066   4.576   2.973
 5792TIP3    H217341   0.954   4.663   3.028
 5793TIP3   OH217342   3.982   0.732   4.889
 5793TIP3    H117343   4.035   0.693   4.819
 5793TIP3    H217344   3.908   0.672   4.899
 5794TIP3   OH217345   0.299   3.143   0.242
 5794TIP3    H117346   0.228   3.115   0.184
 5794TIP3    H217347   0.372   3.160   0.184
 5795TIP3   OH217348   1.600   4.229   3.278
 5795TIP3    H117349   1.627   4.184   3.198
 5795TIP3    H217350   1.667   4.297   3.291
 5796TIP3   OH217351   1.195   4.547   2.853
 5796TIP3    H117352   1.213   4.640   2.839
 5796TIP3    H217353   1.231   4.504   2.775
 5797TIP3   OH217354   2.683   3.555   5.602
 5797TIP3    H117355   2.716   3.510   5.524
 5797TIP3    H217356   2.745   3.627   5.615
 5798TIP3   OH217357   4.151   5.172   1.510
 5798TIP3    H117358   4.186   5.113   1.577
 5798TIP3    H217359   4.085   5.225   1.556
 5799TIP3   OH217360   1.745   5.923   0.240
 5799TIP3    H117361   1.712   5.954   0.156
 5799TIP3    H217362   1.679   5.951   0.303
 5800TIP3   OH217363   3.086   1.731   5.836
 5800TIP3    H117364   3.083   1.711   5.929
 5800TIP3    H217365   3.031   1.809   5.826
 5801TIP3   OH217366   0.013   3.945   0.235
 5801TIP3    H117367   0.048   3.906   0.315
 5801TIP3    H217368   0.083   3.934   0.170
 5802TIP3   OH217369   4.245   2.911   0.029
 5802TIP3    H117370   4.281   2.986  -0.019
 5802TIP3    H217371   4.165   2.945   0.069
 5803TIP3   OH217372   2.790   0.035   0.143
 5803TIP3    H117373   2.863  -0.012   0.101
 5803TIP3    H217374   2.718   0.027   0.081
 5804TIP3   OH217375   5.900   6.563   4.360
 5804TIP3    H117376   5.993   6.580   4.352
 5804TIP3    H217377   5.869   6.628   4.424
 5805TIP3   OH217378   0.207   4.849   5.461
 5805TIP3    H117379   0.203   4.767   5.510
 5805TIP3    H217380   0.151   4.909   5.511
 5806TIP3   OH217381   3.795   1.882   3.155
 5806TIP3    H117382   3.775   1.862   3.064
 5806TIP3    H217383   3.821   1.797   3.192
 5807TIP3   OH217384   6.491   5.090   4.730
 5807TIP3    H117385   6.442   5.013   4.759
 5807TIP3    H217386   6.538   5.062   4.652
 5808TIP3   OH217387   2.557   3.007   3.287
 5808TIP3    H117388   2.570   3.084   3.342
 5808TIP3    H217389   2.636   3.004   3.232
 5809TIP3   OH217390   2.236   0.218   0.265
 5809TIP3    H117391   2.149   0.256   0.280
 5809TIP3    H217392   2.286   0.288   0.223
 5810TIP3   OH217393   6.989   2.219   1.170
 5810TIP3    H117394   6.916   2.166   1.141
 5810TIP3    H217395   6.960   2.255   1.254
 5811TIP3   OH217396   0.254   5.158   3.499
 5811TIP3    H117397   0.253   5.237   3.554
 5811TIP3    H217398   0.345   5.146   3.475
 5812TIP3   OH217399   1.193   0.335   3.722
 5812TIP3    H117400   1.233   0.303   3.802
 5812TIP3    H217401   1.255   0.398   3.687
 5813TIP3   OH217402   1.150   2.831   1.991
 5813TIP3    H117403   1.087   2.780   2.043
 5813TIP3    H217404   1.181   2.770   1.925
 5814TIP3   OH217405   3.258   6.329   1.452
 5814TIP3    H117406   3.353   6.325   1.448
 5814TIP3    H217407   3.229   6.290   1.369
 5815TIP3   OH217408   6.910   5.062   1.648
 5815TIP3    H117409   6.853   5.139   1.651
 5815TIP3    H217410   6.858   4.995   1.604
 5816TIP3   OH217411   2.748   4.328   0.601
 5816TIP3    H117412   2.708   4.317   0.515
 5816TIP3    H217413   2.690   4.389   0.647
 5817TIP3   OH217414   0.739   1.689   4.373
 5817TIP3    H117415   0.690   1.769   4.356
 5817TIP3    H217416   0.770   1.661   4.287
 5818TIP3   OH217417   4.630   2.409   4.696
 5818TIP3    H117418   4.570   2.481   4.675
 5818TIP3    H217419   4.586   2.361   4.766
 5819TIP3   OH217420   2.205   0.216   5.418
 5819TIP3    H117421   2.135   0.153   5.400
 5819TIP3    H217422   2.158   0.297   5.441
 5820TIP3   OH217423   4.853   5.967   4.406
 5820TIP3    H117424   4.874   5.920   4.486
 5820TIP3    H217425   4.908   5.927   4.339
 5821TIP3   OH217426   6.034   4.329   0.257
 5821TIP3    H117427   6.020   4.245   0.213
 5821TIP3    H217428   6.061   4.306   0.346
 5822TIP3   OH217429   3.135   6.210   0.883
 5822TIP3    H117430   3.206   6.267   0.912
 5822TIP3    H217431   3.179   6.131   0.850
 5823TIP3   OH217432   5.341   1.461   5.571
 5823TIP3    H117433   5.372   1.386   5.521
 5823TIP3    H217434   5.359   1.438   5.662
 5824TIP3   OH217435   6.614   4.068   4.093
 5824TIP3    H117436   6.679   4.111   4.039
 5824TIP3    H217437   6.664   4.010   4.150
 5825TIP3   OH217438   2.773   5.464   1.152
 5825TIP3    H117439   2.728   5.402   1.209
 5825TIP3    H217440   2.727   5.546   1.166
 5826TIP3   OH217441   6.159   4.172   3.357
 5826TIP3    H117442   6.150   4.232   3.282
 5826TIP3    H217443   6.079   4.186   3.408
 5827TIP3   OH217444   5.182   6.419   0.658
 5827TIP3    H117445   5.129   6.431   0.580
 5827TIP3    H217446   5.261   6.374   0.628
 5828TIP3   OH217447   0.667   5.274   0.557
 5828TIP3    H117448   0.709   5.331   0.622
 5828TIP3    H217449   0.579   5.309   0.548
 5829TIP3   OH217450   6.221   2.187   4.511
 5829TIP3    H117451   6.126   2.179   4.514
 5829TIP3    H217452   6.253   2.101   4.538
 5830TIP3   OH217453   6.126   3.989   5.709
 5830TIP3    H117454   6.154   4.001   5.800
 5830TIP3    H217455   6.137   4.075   5.669
 5831TIP3   OH217456   6.429   5.764   1.071
 5831TIP3    H117457   6.387   5.808   0.998
 5831TIP3    H217458   6.455   5.678   1.036
 5832TIP3   OH217459   5.124   3.756   0.576
 5832TIP3    H117460   5.201   3.755   0.632
 5832TIP3    H217461   5.058   3.802   0.627
 5833TIP3   OH217462   3.828   1.388   4.270
 5833TIP3    H117463   3.784   1.473   4.280
 5833TIP3    H217464   3.785   1.331   4.334
 5834TIP3   OH217465   4.831   6.571   1.398
 5834TIP3    H117466   4.835   6.552   1.491
 5834TIP3    H217467   4.798   6.491   1.358
 5835TIP3   OH217468   3.121   2.690   0.695
 5835TIP3    H117469   3.100   2.630   0.767
 5835TIP3    H217470   3.116   2.635   0.617
 5836TIP3   OH217471   6.109   1.179   4.425
 5836TIP3    H117472   6.058   1.235   4.366
 5836TIP3    H217473   6.167   1.131   4.367
 5837TIP3   OH217474   6.309   5.063   0.469
 5837TIP3    H117475   6.374   4.994   0.483
 5837TIP3    H217476   6.266   5.073   0.555
 5838TIP3   OH217477   5.933   5.865   4.306
 5838TIP3    H117478   6.011   5.855   4.252
 5838TIP3    H217479   5.931   5.958   4.328
 5839TIP3   OH217480   1.445   4.153   0.664
 5839TIP3    H117481   1.445   4.201   0.581
 5839TIP3    H217482   1.510   4.199   0.718
 5840TIP3   OH217483   5.806   1.213   5.736
 5840TIP3    H117484   5.749   1.265   5.792
 5840TIP3    H217485   5.752   1.193   5.659
 5841TIP3   OH217486   2.546   2.689   4.738
 5841TIP3    H117487   2.633   2.649   4.749
 5841TIP3    H217488   2.519   2.662   4.650
 5842TIP3   OH217489   4.244   1.062   3.840
 5842TIP3    H117490   4.236   0.981   3.791
 5842TIP3    H217491   4.295   1.039   3.918
 5843TIP3   OH217492   3.213   0.135   1.543
 5843TIP3    H117493   3.279   0.166   1.482
 5843TIP3    H217494   3.157   0.211   1.560
 5844TIP3   OH217495   3.143   0.450   0.463
 5844TIP3    H117496   3.052   0.433   0.487
 5844TIP3    H217497   3.140   0.533   0.414
 5845TIP3   OH217498   6.401   0.647   3.543
 5845TIP3    H117499   6.456   0.673   3.469
 5845TIP3    H217500   6.449   0.677   3.620
 5846TIP3   OH217501   5.144   4.397   3.075
 5846TIP3    H117502   5.191   4.453   3.137
 5846TIP3    H217503   5.107   4.327   3.129
 5847TIP3   OH217504   6.820   2.622   2.374
 5847TIP3    H117505   6.898   2.568   2.388
 5847TIP3    H217506   6.851   2.692   2.316
 5848TIP3   OH217507   5.909   1.778   3.536
 5848TIP3    H117508   5.892   1.871   3.524
 5848TIP3    H217509   5.890   1.738   3.452
 5849TIP3   OH217510   1.474   1.275   2.860
 5849TIP3    H117511   1.502   1.186   2.879
 5849TIP3    H217512   1.430   1.269   2.775
 5850TIP3   OH217513   0.588   5.049   4.435
 5850TIP3    H117514   0.510   5.074   4.485
 5850TIP3    H217515   0.564   5.066   4.344
 5851TIP3   OH217516   2.344   4.000   3.696
 5851TIP3    H117517   2.433   4.001   3.731
 5851TIP3    H217518   2.301   3.929   3.745
 5852TIP3   OH217519   1.097   0.867   3.323
 5852TIP3    H117520   1.070   0.783   3.359
 5852TIP3    H217521   1.182   0.884   3.364
 5853TIP3   OH217522   2.605   3.364   5.790
 5853TIP3    H117523   2.632   3.436   5.733
 5853TIP3    H217524   2.544   3.405   5.852
 5854TIP3   OH217525   2.451   3.379   0.690
 5854TIP3    H117526   2.386   3.446   0.714
 5854TIP3    H217527   2.420   3.344   0.607
 5855TIP3   OH217528   2.845   1.663   4.600
 5855TIP3    H117529   2.877   1.687   4.512
 5855TIP3    H217530   2.902   1.712   4.660
 5856TIP3   OH217531   5.142   0.428   4.846
 5856TIP3    H117532   5.149   0.351   4.902
 5856TIP3    H217533   5.201   0.492   4.885
 5857TIP3   OH217534   0.435   3.077   2.554
 5857TIP3    H117535   0.411   3.015   2.622
 5857TIP3    H217536   0.360   3.136   2.548
 5858TIP3   OH217537   2.875   3.229   3.260
 5858TIP3    H117538   2.924   3.308   3.239
 5858TIP3    H217539   2.787   3.260   3.282
 5859TIP3   OH217540   2.424   3.435   4.701
 5859TIP3    H117541   2.422   3.346   4.665
 5859TIP3    H217542   2.508   3.441   4.746
 5860TIP3   OH217543   5.037   5.283   0.369
 5860TIP3    H117544   5.033   5.258   0.276
 5860TIP3    H217545   5.110   5.233   0.404
 5861TIP3   OH217546   3.421   2.850   2.346
 5861TIP3    H117547   3.497   2.823   2.295
 5861TIP3    H217548   3.355   2.871   2.280
 5862TIP3   OH217549   3.171   1.306   4.287
 5862TIP3    H117550   3.188   1.368   4.359
 5862TIP3    H217551   3.080   1.322   4.263
 5863TIP3   OH217552   6.862   5.882   4.704
 5863TIP3    H117553   6.791   5.933   4.666
 5863TIP3    H217554   6.930   5.881   4.636
 5864TIP3   OH217555   3.473   0.663   3.627
 5864TIP3    H117556   3.475   0.599   3.698
 5864TIP3    H217557   3.561   0.700   3.626
 5865TIP3   OH217558   2.688   6.175   5.711
 5865TIP3    H117559   2.704   6.251   5.654
 5865TIP3    H217560   2.754   6.182   5.779
 5866TIP3   OH217561   6.724   1.712   4.489
 5866TIP3    H117562   6.681   1.746   4.568
 5866TIP3    H217563   6.682   1.759   4.417
 5867TIP3   OH217564   4.032   3.501   3.578
 5867TIP3    H117565   4.090   3.425   3.570
 5867TIP3    H217566   3.944   3.463   3.578
 5868TIP3   OH217567   2.720   0.998   3.554
 5868TIP3    H117568   2.626   1.019   3.552
 5868TIP3    H217569   2.725   0.916   3.603
 5869TIP3   OH217570   4.015   4.322   5.379
 5869TIP3    H117571   4.022   4.281   5.465
 5869TIP3    H217572   4.027   4.416   5.395
 5870TIP3   OH217573   5.582   3.227   3.180
 5870TIP3    H117574   5.553   3.136   3.183
 5870TIP3    H217575   5.502   3.277   3.163
 5871TIP3   OH217576   5.900   6.237   3.466
 5871TIP3    H117577   5.873   6.156   3.423
 5871TIP3    H217578   5.890   6.219   3.559
 5872TIP3   OH217579   0.169   4.730   0.485
 5872TIP3    H117580   0.251   4.748   0.438
 5872TIP3    H217581   0.100   4.761   0.426
 5873TIP3   OH217582   0.720   4.067   2.961
 5873TIP3    H117583   0.638   4.104   2.928
 5873TIP3    H217584   0.694   4.016   3.038
 5874TIP3   OH217585   6.125   5.063   0.028
 5874TIP3    H117586   6.074   5.020  -0.040
 5874TIP3    H217587   6.133   4.997   0.097
 5875TIP3   OH217588   0.802   1.709   4.918
 5875TIP3    H117589   0.727   1.743   4.870
 5875TIP3    H217590   0.864   1.684   4.850
 5876TIP3   OH217591   2.094   6.411   4.780
 5876TIP3    H117592   2.155   6.377   4.714
 5876TIP3    H217593   2.010   6.416   4.735
 5877TIP3   OH217594   0.387   4.439   0.827
 5877TIP3    H117595   0.375   4.478   0.913
 5877TIP3    H217596   0.307   4.462   0.779
 5878TIP3   OH217597   5.775   0.516   2.365
 5878TIP3    H117598   5.833   0.592   2.359
 5878TIP3    H217599   5.822   0.447   2.318
 5879TIP3   OH217600   3.016   6.213   0.459
 5879TIP3    H117601   3.072   6.277   0.414
 5879TIP3    H217602   2.928   6.233   0.427
 5880TIP3   OH217603   5.062   2.134   1.396
 5880TIP3    H117604   5.049   2.195   1.468
 5880TIP3    H217605   5.062   2.047   1.437
 5881TIP3   OH217606   2.575   3.162   0.082
 5881TIP3    H117607   2.584   3.073   0.046
 5881TIP3    H217608   2.483   3.170   0.104
 5882TIP3   OH217609   6.477   4.349   0.306
 5882TIP3    H117610   6.496   4.257   0.321
 5882TIP3    H217611   6.518   4.394   0.380
 5883TIP3   OH217612   5.140   5.059   4.486
 5883TIP3    H117613   5.146   4.975   4.441
 5883TIP3    H217614   5.082   5.042   4.560
 5884TIP3   OH217615   4.574   1.350   1.834
 5884TIP3    H117616   4.654   1.401   1.835
 5884TIP3    H217617   4.511   1.401   1.885
 5885TIP3   OH217618   1.604   3.238   5.397
 5885TIP3    H117619   1.590   3.273   5.485
 5885TIP3    H217620   1.531   3.273   5.346
 5886TIP3   OH217621   1.377   1.419   1.817
 5886TIP3    H117622   1.398   1.512   1.827
 5886TIP3    H217623   1.286   1.418   1.787
 5887TIP3   OH217624   1.056   6.765   5.676
 5887TIP3    H117625   1.061   6.723   5.762
 5887TIP3    H217626   1.135   6.819   5.671
 5888TIP3   OH217627   0.253   0.101   1.109
 5888TIP3    H117628   0.273   0.040   1.180
 5888TIP3    H217629   0.181   0.155   1.143
 5889TIP3   OH217630   5.139   3.504   3.199
 5889TIP3    H117631   5.065   3.529   3.144
 5889TIP3    H217632   5.137   3.567   3.271
 5890TIP3   OH217633   3.862   3.995   0.889
 5890TIP3    H117634   3.868   4.055   0.963
 5890TIP3    H217635   3.814   4.044   0.822
 5891TIP3   OH217636   6.942   3.514   0.520
 5891TIP3    H117637   7.021   3.529   0.468
 5891TIP3    H217638   6.890   3.594   0.507
 5892TIP3   OH217639   1.734   0.704   1.309
 5892TIP3    H117640   1.728   0.767   1.380
 5892TIP3    H217641   1.695   0.748   1.234
 5893TIP3   OH217642   0.591   0.612   3.848
 5893TIP3    H117643   0.507   0.649   3.874
 5893TIP3    H217644   0.610   0.654   3.764
 5894TIP3   OH217645   3.802   2.500   5.778
 5894TIP3    H117646   3.748   2.506   5.857
 5894TIP3    H217647   3.884   2.461   5.809
 5895TIP3   OH217648   6.755   4.756   2.011
 5895TIP3    H117649   6.669   4.795   1.996
 5895TIP3    H217650   6.748   4.668   1.975
 5896TIP3   OH217651   4.611   5.559   3.775
 5896TIP3    H117652   4.666   5.627   3.738
 5896TIP3    H217653   4.596   5.498   3.703
 5897TIP3   OH217654   6.097   3.318   3.213
 5897TIP3    H117655   6.059   3.396   3.253
 5897TIP3    H217656   6.117   3.261   3.288
 5898TIP3   OH217657   6.084   4.448   3.716
 5898TIP3    H117658   6.116   4.358   3.707
 5898TIP3    H217659   6.131   4.497   3.649
 5899TIP3   OH217660   6.370   1.778   0.998
 5899TIP3    H117661   6.402   1.866   0.981
 5899TIP3    H217662   6.344   1.744   0.913
 5900TIP3   OH217663   1.001   1.313   3.104
 5900TIP3    H117664   1.015   1.223   3.133
 5900TIP3    H217665   1.067   1.363   3.151
 5901TIP3   OH217666   3.144   4.598   5.521
 5901TIP3    H117667   3.082   4.536   5.560
 5901TIP3    H217668   3.180   4.551   5.446
 5902TIP3   OH217669   3.487   5.453   5.661
 5902TIP3    H117670   3.408   5.399   5.667
 5902TIP3    H217671   3.559   5.391   5.656
 5903TIP3   OH217672   1.548   1.368   2.284
 5903TIP3    H117673   1.527   1.301   2.220
 5903TIP3    H217674   1.561   1.448   2.233
 5904TIP3   OH217675   3.563   0.755   0.198
 5904TIP3    H117676   3.528   0.754   0.287
 5904TIP3    H217677   3.527   0.677   0.157
 5905TIP3   OH217678   5.062   6.478   1.128
 5905TIP3    H117679   5.005   6.549   1.096
 5905TIP3    H217680   5.011   6.399   1.112
 5906TIP3   OH217681   5.407   5.257   1.877
 5906TIP3    H117682   5.437   5.205   1.951
 5906TIP3    H217683   5.454   5.340   1.884
 5907TIP3   OH217684   6.115   4.624   1.821
 5907TIP3    H117685   6.138   4.554   1.882
 5907TIP3    H217686   6.197   4.670   1.804
 5908TIP3   OH217687   0.941   6.227   1.359
 5908TIP3    H117688   1.013   6.166   1.375
 5908TIP3    H217689   0.879   6.210   1.430
 5909TIP3   OH217690   1.906   6.520   1.809
 5909TIP3    H117691   1.998   6.491   1.813
 5909TIP3    H217692   1.908   6.595   1.750
 5910TIP3   OH217693   5.542   5.349   4.377
 5910TIP3    H117694   5.453   5.313   4.380
 5910TIP3    H217695   5.595   5.287   4.428
 5911TIP3   OH217696   0.090   6.561   0.100
 5911TIP3    H117697   0.078   6.623   0.172
 5911TIP3    H217698   0.155   6.602   0.043
 5912TIP3   OH217699   5.168   1.869   5.694
 5912TIP3    H117700   5.135   1.895   5.608
 5912TIP3    H217701   5.112   1.915   5.756
 5913TIP3   OH217702   4.091   2.741   4.792
 5913TIP3    H117703   4.080   2.794   4.713
 5913TIP3    H217704   4.013   2.686   4.795
 5914TIP3   OH217705   6.154   0.594   0.210
 5914TIP3    H117706   6.127   0.538   0.137
 5914TIP3    H217707   6.188   0.532   0.275
 5915TIP3   OH217708   0.008   1.083   1.295
 5915TIP3    H117709   0.016   1.004   1.241
 5915TIP3    H217710   0.027   1.053   1.384
 5916TIP3   OH217711   6.661   4.652   2.776
 5916TIP3    H117712   6.683   4.707   2.852
 5916TIP3    H217713   6.624   4.713   2.712
 5917TIP3   OH217714   5.478   3.837   2.838
 5917TIP3    H117715   5.389   3.858   2.866
 5917TIP3    H217716   5.514   3.920   2.808
 5918TIP3   OH217717   5.309   1.028   3.103
 5918TIP3    H117718   5.299   0.947   3.053
 5918TIP3    H217719   5.276   1.007   3.190
 5919TIP3   OH217720   4.659   5.997   3.100
 5919TIP3    H117721   4.685   5.920   3.150
 5919TIP3    H217722   4.565   6.006   3.117
 5920TIP3   OH217723   0.132   3.840   4.791
 5920TIP3    H117724   0.064   3.785   4.830
 5920TIP3    H217725   0.214   3.803   4.824
 5921TIP3   OH217726   2.165   6.558   2.064
 5921TIP3    H117727   2.127   6.638   2.100
 5921TIP3    H217728   2.240   6.588   2.012
 5922TIP3   OH217729   4.293   0.840   0.937
 5922TIP3    H117730   4.239   0.786   0.994
 5922TIP3    H217731   4.230   0.883   0.879
 5923TIP3   OH217732   0.284   4.456   2.501
 5923TIP3    H117733   0.198   4.432   2.468
 5923TIP3    H217734   0.332   4.373   2.505
 5924TIP3   OH217735   0.843   2.950   0.890
 5924TIP3    H117736   0.889   2.878   0.934
 5924TIP3    H217737   0.871   3.029   0.936
 5925TIP3   OH217738   6.852   4.046   2.627
 5925TIP3    H117739   6.828   4.024   2.537
 5925TIP3    H217740   6.831   4.140   2.635
 5926TIP3   OH217741   3.006   4.376   5.583
 5926TIP3    H117742   2.929   4.401   5.634
 5926TIP3    H217743   2.983   4.291   5.545
 5927TIP3   OH217744   6.747   1.179   1.052
 5927TIP3    H117745   6.719   1.096   1.014
 5927TIP3    H217746   6.809   1.214   0.988
 5928TIP3   OH217747   6.911   4.030   3.385
 5928TIP3    H117748   6.925   4.101   3.322
 5928TIP3    H217749   6.843   4.063   3.443
 5929TIP3   OH217750   3.953   2.695   3.297
 5929TIP3    H117751   3.956   2.675   3.391
 5929TIP3    H217752   4.019   2.763   3.285
 5930TIP3   OH217753   2.977   0.960   3.434
 5930TIP3    H117754   2.909   0.926   3.492
 5930TIP3    H217755   3.006   0.883   3.384
 5931TIP3   OH217756   6.659   5.275   2.083
 5931TIP3    H117757   6.608   5.310   2.010
 5931TIP3    H217758   6.750   5.288   2.057
 5932TIP3   OH217759   4.078   6.257   4.851
 5932TIP3    H117760   4.091   6.163   4.863
 5932TIP3    H217761   4.164   6.291   4.827
 5933TIP3   OH217762   3.284   0.608   5.602
 5933TIP3    H117763   3.321   0.684   5.646
 5933TIP3    H217764   3.207   0.641   5.556
 5934TIP3   OH217765   0.501   0.172   1.320
 5934TIP3    H117766   0.566   0.106   1.344
 5934TIP3    H217767   0.418   0.137   1.354
 5935TIP3   OH217768   4.552   6.768   4.389
 5935TIP3    H117769   4.632   6.791   4.343
 5935TIP3    H217770   4.551   6.826   4.466
 5936TIP3   OH217771   1.817   2.693   3.834
 5936TIP3    H117772   1.818   2.603   3.866
 5936TIP3    H217773   1.906   2.725   3.849
 5937TIP3   OH217774   5.500   2.540   2.491
 5937TIP3    H117775   5.561   2.613   2.484
 5937TIP3    H217776   5.530   2.476   2.427
 5938TIP3   OH217777   6.538   2.696   2.942
 5938TIP3    H117778   6.622   2.694   2.895
 5938TIP3    H217779   6.562   2.708   3.034
 5939TIP3   OH217780   0.768   4.386   2.033
 5939TIP3    H117781   0.705   4.319   2.007
 5939TIP3    H217782   0.785   4.436   1.953
 5940TIP3   OH217783   3.997   4.476   2.957
 5940TIP3    H117784   4.051   4.398   2.968
 5940TIP3    H217785   4.034   4.521   2.881
 5941TIP3   OH217786   6.494   1.880   3.733
 5941TIP3    H117787   6.401   1.871   3.752
 5941TIP3    H217788   6.530   1.792   3.746
 5942TIP3   OH217789   2.604   0.975   2.717
 5942TIP3    H117790   2.581   1.065   2.694
 5942TIP3    H217791   2.637   0.937   2.635
 5943TIP3   OH217792   6.572   3.087   4.463
 5943TIP3    H117793   6.617   3.172   4.463
 5943TIP3    H217794   6.481   3.108   4.486
 5944TIP3   OH217795   0.741   1.806   0.384
 5944TIP3    H117796   0.712   1.822   0.474
 5944TIP3    H217797   0.835   1.794   0.391
 5945TIP3   OH217798   4.895   4.391   3.550
 5945TIP3    H117799   4.902   4.431   3.464
 5945TIP3    H217800   4.818   4.334   3.544
 5946TIP3   OH217801   1.994   5.288   0.516
 5946TIP3    H117802   1.925   5.238   0.472
 5946TIP3    H217803   2.037   5.225   0.573
 5947TIP3   OH217804   1.191   2.376   1.932
 5947TIP3    H117805   1.142   2.293   1.929
 5947TIP3    H217806   1.195   2.405   1.841
 5948TIP3   OH217807   2.883   3.597   0.254
 5948TIP3    H117808   2.816   3.533   0.231
 5948TIP3    H217809   2.871   3.611   0.348
 5949TIP3   OH217810   4.628   0.562   5.474
 5949TIP3    H117811   4.686   0.633   5.446
 5949TIP3    H217812   4.596   0.523   5.393
 5950TIP3   OH217813   1.565   2.819   5.097
 5950TIP3    H117814   1.539   2.911   5.098
 5950TIP3    H217815   1.576   2.795   5.189
 5951TIP3   OH217816   0.175   6.131   1.988
 5951TIP3    H117817   0.158   6.204   1.928
 5951TIP3    H217818   0.234   6.074   1.939
 5952TIP3   OH217819   3.862   2.012   2.309
 5952TIP3    H117820   3.888   1.951   2.378
 5952TIP3    H217821   3.833   2.090   2.355
 5953TIP3   OH217822   3.510   3.512   4.114
 5953TIP3    H117823   3.466   3.597   4.113
 5953TIP3    H217824   3.457   3.458   4.173
 5954TIP3   OH217825   4.336   4.300   1.897
 5954TIP3    H117826   4.289   4.371   1.940
 5954TIP3    H217827   4.353   4.332   1.808
 5955TIP3   OH217828   0.006   2.385   1.628
 5955TIP3    H117829  -0.031   2.317   1.572
 5955TIP3    H217830  -0.002   2.350   1.717
 5956TIP3   OH217831   1.686   6.019   1.764
 5956TIP3    H117832   1.708   6.027   1.671
 5956TIP3    H217833   1.770   6.004   1.808
 5957TIP3   OH217834   4.563   0.998   1.969
 5957TIP3    H117835   4.568   0.928   2.034
 5957TIP3    H217836   4.511   1.066   2.011
 5958TIP3   OH217837   1.732   1.764   5.763
 5958TIP3    H117838   1.647   1.742   5.801
 5958TIP3    H217839   1.715   1.840   5.708
 5959TIP3   OH217840   7.057   0.657   3.041
 5959TIP3    H117841   7.047   0.724   2.974
 5959TIP3    H217842   7.001   0.585   3.012
 5960TIP3   OH217843   2.149   4.375   1.576
 5960TIP3    H117844   2.168   4.462   1.613
 5960TIP3    H217845   2.146   4.317   1.652
 5961TIP3   OH217846   6.185   1.037   0.263
 5961TIP3    H117847   6.262   0.981   0.265
 5961TIP3    H217848   6.169   1.061   0.354
 5962TIP3   OH217849   2.544   4.164   3.994
 5962TIP3    H117850   2.574   4.093   3.937
 5962TIP3    H217851   2.494   4.221   3.937
 5963TIP3   OH217852   4.776   2.132   1.045
 5963TIP3    H117853   4.810   2.043   1.045
 5963TIP3    H217854   4.844   2.184   1.002
 5964TIP3   OH217855   2.819   0.979   5.818
 5964TIP3    H117856   2.912   0.959   5.810
 5964TIP3    H217857   2.779   0.937   5.742
 5965TIP3   OH217858   3.403   3.587   3.105
 5965TIP3    H117859   3.448   3.671   3.118
 5965TIP3    H217860   3.328   3.608   3.050
 5966TIP3   OH217861   0.542   5.507   3.443
 5966TIP3    H117862   0.510   5.430   3.396
 5966TIP3    H217863   0.617   5.537   3.392
 5967TIP3   OH217864   2.815   1.731   2.812
 5967TIP3    H117865   2.736   1.774   2.778
 5967TIP3    H217866   2.865   1.708   2.733
 5968TIP3   OH217867   0.155   4.259   3.592
 5968TIP3    H117868   0.093   4.237   3.661
 5968TIP3    H217869   0.202   4.336   3.625
 5969TIP3   OH217870   3.106   6.272   3.408
 5969TIP3    H117871   3.099   6.325   3.329
 5969TIP3    H217872   3.026   6.218   3.408
 5970TIP3   OH217873   6.349   2.844   1.410
 5970TIP3    H117874   6.297   2.875   1.484
 5970TIP3    H217875   6.425   2.802   1.450
 5971TIP3   OH217876   3.010   2.396   1.942
 5971TIP3    H117877   3.084   2.368   1.888
 5971TIP3    H217878   3.040   2.477   1.984
 5972TIP3   OH217879   6.899   2.953   1.559
 5972TIP3    H117880   6.843   2.920   1.630
 5972TIP3    H217881   6.881   2.894   1.485
 5973TIP3   OH217882   0.126   5.131   3.953
 5973TIP3    H117883   0.216   5.105   3.973
 5973TIP3    H217884   0.116   5.111   3.860
 5974TIP3   OH217885   4.223   3.046   1.896
 5974TIP3    H117886   4.191   2.973   1.947
 5974TIP3    H217887   4.288   3.089   1.952
 5975TIP3   OH217888   0.896   1.157   5.250
 5975TIP3    H117889   0.848   1.240   5.246
 5975TIP3    H217890   0.867   1.109   5.171
 5976TIP3   OH217891   3.375   5.356   5.392
 5976TIP3    H117892   3.429   5.427   5.359
 5976TIP3    H217893   3.436   5.284   5.406
 5977TIP3   OH217894   1.809   4.426   3.242
 5977TIP3    H117895   1.882   4.424   3.181
 5977TIP3    H217896   1.789   4.519   3.253
 5978TIP3   OH217897   6.343   2.478   0.502
 5978TIP3    H117898   6.359   2.510   0.413
 5978TIP3    H217899   6.419   2.424   0.522
 5979TIP3   OH217900   4.089   6.302   3.186
 5979TIP3    H117901   4.137   6.350   3.254
 5979TIP3    H217902   4.008   6.273   3.229
 5980TIP3   OH217903   3.873   0.719   5.302
 5980TIP3    H117904   3.807   0.719   5.370
 5980TIP3    H217905   3.956   0.713   5.349
 5981TIP3   OH217906   0.033   1.008   1.557
 5981TIP3    H117907  -0.030   0.947   1.595
 5981TIP3    H217908   0.035   1.082   1.618
 5982TIP3   OH217909   2.129   5.144   2.354
 5982TIP3    H117910   2.193   5.078   2.380
 5982TIP3    H217911   2.064   5.096   2.304
 5983TIP3   OH217912   6.099   2.455   5.751
 5983TIP3    H117913   6.153   2.526   5.787
 5983TIP3    H217914   6.059   2.492   5.672
 5984TIP3   OH217915   2.299   4.161   3.466
 5984TIP3    H117916   2.249   4.237   3.495
 5984TIP3    H217917   2.304   4.105   3.544
 5985TIP3   OH217918   1.548   1.134   4.615
 5985TIP3    H117919   1.616   1.103   4.554
 5985TIP3    H217920   1.588   1.124   4.701
 5986TIP3   OH217921   1.973   5.119   4.176
 5986TIP3    H117922   1.927   5.078   4.103
 5986TIP3    H217923   1.909   5.177   4.216
 5987TIP3   OH217924   3.258   6.204   1.718
 5987TIP3    H117925   3.167   6.187   1.743
 5987TIP3    H217926   3.251   6.249   1.634
 5988TIP3   OH217927   4.150   3.610   0.221
 5988TIP3    H117928   4.061   3.576   0.220
 5988TIP3    H217929   4.205   3.533   0.235
 5989TIP3   OH217930   1.575   5.060   1.909
 5989TIP3    H117931   1.598   4.967   1.909
 5989TIP3    H217932   1.641   5.101   1.854
 5990TIP3   OH217933   4.368   5.709   5.020
 5990TIP3    H117934   4.295   5.649   5.006
 5990TIP3    H217935   4.399   5.730   4.932
 5991TIP3   OH217936   5.807   4.513   5.756
 5991TIP3    H117937   5.798   4.566   5.835
 5991TIP3    H217938   5.736   4.545   5.699
 5992TIP3   OH217939   4.199   5.011   4.667
 5992TIP3    H117940   4.140   5.055   4.606
 5992TIP3    H217941   4.278   5.065   4.666
 5993TIP3   OH217942   6.983   0.884   1.703
 5993TIP3    H117943   7.021   0.797   1.715
 5993TIP3    H217944   6.896   0.879   1.744
 5994TIP3   OH217945   4.835   0.267   5.176
 5994TIP3    H117946   4.746   0.238   5.152
 5994TIP3    H217947   4.837   0.261   5.271
 5995TIP3   OH217948   4.652   1.822   5.875
 5995TIP3    H117949   4.725   1.846   5.819
 5995TIP3    H217950   4.690   1.811   5.962
 5996TIP3   OH217951   6.560   3.158   2.476
 5996TIP3    H117952   6.473   3.195   2.464
 5996TIP3    H217953   6.607   3.182   2.396
 5997TIP3   OH217954   0.050   4.364   1.078
 5997TIP3    H117955   0.077   4.302   1.011
 5997TIP3    H217956   0.132   4.393   1.119
 5998TIP3   OH217957   5.229   4.075   1.203
 5998TIP3    H117958   5.143   4.074   1.245
 5998TIP3    H217959   5.214   4.037   1.116
 5999TIP3   OH217960   2.026   0.961   5.397
 5999TIP3    H117961   1.984   0.875   5.401
 5999TIP3    H217962   2.025   0.992   5.487
 6000TIP3   OH217963   3.628   5.922   3.309
 6000TIP3    H117964   3.700   5.920   3.372
 6000TIP3    H217965   3.568   5.853   3.339
 6001TIP3   OH217966   5.801   1.253   2.582
 6001TIP3    H117967   5.834   1.180   2.634
 6001TIP3    H217968   5.794   1.326   2.645
 6002TIP3   OH217969   0.427   0.626   1.195
 6002TIP3    H117970   0.466   0.713   1.204
 6002TIP3    H217971   0.412   0.596   1.285
 6003TIP3   OH217972   1.027   1.368   5.388
 6003TIP3    H117973   0.948   1.418   5.409
 6003TIP3    H217974   0.995   1.291   5.342
 6004TIP3   OH217975   4.411   0.227   2.037
 6004TIP3    H117976   4.370   0.274   2.110
 6004TIP3    H217977   4.457   0.295   1.988
 6005TIP3   OH217978   0.538   1.389   5.001
 6005TIP3    H117979   0.550   1.480   5.026
 6005TIP3    H217980   0.498   1.348   5.078
 6006TIP3   OH217981   4.580   2.565   0.597
 6006TIP3    H117982   4.538   2.485   0.566
 6006TIP3    H217983   4.509   2.614   0.639
 6007TIP3   OH217984   2.650   4.923   5.676
 6007TIP3    H117985   2.674   5.014   5.692
 6007TIP3    H217986   2.568   4.929   5.627
 6008TIP3   OH217987   4.294   4.672   5.339
 6008TIP3    H117988   4.235   4.656   5.265
 6008TIP3    H217989   4.379   4.689   5.299
 6009TIP3   OH217990   0.550   2.319   3.475
 6009TIP3    H117991   0.599   2.368   3.409
 6009TIP3    H217992   0.506   2.250   3.426
 6010TIP3   OH217993   5.014   5.722   0.916
 6010TIP3    H117994   4.932   5.752   0.954
 6010TIP3    H217995   5.043   5.652   0.975
 6011TIP3   OH217996   0.887   3.311   3.538
 6011TIP3    H117997   0.981   3.307   3.522
 6011TIP3    H217998   0.876   3.272   3.625
 6012TIP3   OH217999   7.024   4.975   5.395
 6012TIP3    H118000   6.966   5.025   5.453
 6012TIP3    H218001   7.091   5.039   5.368
 6013TIP3   OH218002   5.193   2.190   4.615
 6013TIP3    H118003   5.164   2.235   4.694
 6013TIP3    H218004   5.204   2.099   4.642
 6014TIP3   OH218005   6.201   1.041   4.890
 6014TIP3    H118006   6.242   0.973   4.836
 6014TIP3    H218007   6.137   1.083   4.832
 6015TIP3   OH218008   6.286   3.496   3.481
 6015TIP3    H118009   6.294   3.401   3.477
 6015TIP3    H218010   6.192   3.513   3.472
 6016TIP3   OH218011   4.560   0.983   1.305
 6016TIP3    H118012   4.514   1.057   1.344
 6016TIP3    H218013   4.646   1.019   1.281
 6017TIP3   OH218014   4.680   3.625   3.607
 6017TIP3    H118015   4.647   3.692   3.668
 6017TIP3    H218016   4.603   3.601   3.555
 6018TIP3   OH218017   4.128   6.503   3.395
 6018TIP3    H118018   4.048   6.550   3.372
 6018TIP3    H218019   4.164   6.549   3.470
 6019TIP3   OH218020   2.923   3.524   1.361
 6019TIP3    H118021   2.857   3.505   1.293
 6019TIP3    H218022   2.896   3.608   1.398
 6020TIP3   OH218023   6.083   5.378   2.684
 6020TIP3    H118024   6.010   5.316   2.689
 6020TIP3    H218025   6.110   5.390   2.775
 6021TIP3   OH218026   2.191   2.034   1.094
 6021TIP3    H118027   2.169   2.091   1.167
 6021TIP3    H218028   2.159   1.947   1.120
 6022TIP3   OH218029   4.161   6.638   3.674
 6022TIP3    H118030   4.088   6.616   3.732
 6022TIP3    H218031   4.126   6.706   3.617
 6023TIP3   OH218032   4.442   0.627   2.509
 6023TIP3    H118033   4.369   0.587   2.556
 6023TIP3    H218034   4.401   0.677   2.439
 6024TIP3   OH218035   0.522   0.850   4.332
 6024TIP3    H118036   0.564   0.828   4.249
 6024TIP3    H218037   0.564   0.792   4.396
 6025TIP3   OH218038   2.930   1.862   5.221
 6025TIP3    H118039   2.845   1.825   5.247
 6025TIP3    H218040   2.981   1.864   5.301
 6026TIP3   OH218041   0.937   2.685   1.388
 6026TIP3    H118042   1.020   2.667   1.345
 6026TIP3    H218043   0.879   2.616   1.358
 6027TIP3   OH218044   4.022   5.680   1.909
 6027TIP3    H118045   4.065   5.763   1.928
 6027TIP3    H218046   4.042   5.624   1.984
 6028TIP3   OH218047   4.803   1.207   2.742
 6028TIP3    H118048   4.831   1.118   2.764
 6028TIP3    H218049   4.707   1.204   2.751
 6029TIP3   OH218050   4.803   6.154   0.224
 6029TIP3    H118051   4.827   6.240   0.189
 6029TIP3    H218052   4.882   6.123   0.268
 6030TIP3   OH218053   6.904   3.506   5.268
 6030TIP3    H118054   6.838   3.556   5.220
 6030TIP3    H218055   6.884   3.521   5.360
 6031TIP3   OH218056   3.659   2.318   2.217
 6031TIP3    H118057   3.572   2.308   2.178
 6031TIP3    H218058   3.658   2.405   2.257
 6032TIP3   OH218059   5.495   4.798   1.907
 6032TIP3    H118060   5.514   4.751   1.826
 6032TIP3    H218061   5.434   4.741   1.954
 6033TIP3   OH218062   5.550   2.243   5.471
 6033TIP3    H118063   5.482   2.290   5.423
 6033TIP3    H218064   5.502   2.195   5.539
 6034TIP3   OH218065   1.618   3.486   4.190
 6034TIP3    H118066   1.557   3.418   4.220
 6034TIP3    H218067   1.588   3.566   4.233
 6035TIP3   OH218068   1.476   4.105   0.058
 6035TIP3    H118069   1.538   4.037   0.032
 6035TIP3    H218070   1.391   4.062   0.055
 6036TIP3   OH218071   4.956   5.103   5.497
 6036TIP3    H118072   4.978   5.022   5.451
 6036TIP3    H218073   4.957   5.171   5.429
 6037TIP3   OH218074   6.171   1.568   1.773
 6037TIP3    H118075   6.235   1.503   1.805
 6037TIP3    H218076   6.110   1.578   1.846
 6038TIP3   OH218077   5.688   1.516   3.377
 6038TIP3    H118078   5.593   1.514   3.394
 6038TIP3    H218079   5.709   1.427   3.348
 6039TIP3   OH218080   2.104   2.874   4.289
 6039TIP3    H118081   2.036   2.835   4.343
 6039TIP3    H218082   2.059   2.939   4.236
 6040TIP3   OH218083   5.360   6.362   1.015
 6040TIP3    H118084   5.400   6.446   1.034
 6040TIP3    H218085   5.433   6.304   0.996
 6041TIP3   OH218086   7.116   0.708   0.617
 6041TIP3    H118087   7.114   0.613   0.623
 6041TIP3    H218088   7.071   0.728   0.535
 6042TIP3   OH218089   6.060   3.635   4.797
 6042TIP3    H118090   6.125   3.575   4.760
 6042TIP3    H218091   6.112   3.708   4.830
 6043TIP3   OH218092   3.654   1.332   5.763
 6043TIP3    H118093   3.652   1.423   5.733
 6043TIP3    H218094   3.713   1.288   5.701
 6044TIP3   OH218095   6.473   5.271   0.837
 6044TIP3    H118096   6.383   5.247   0.859
 6044TIP3    H218097   6.499   5.209   0.769
 6045TIP3   OH218098   3.064   0.229   4.677
 6045TIP3    H118099   3.106   0.167   4.617
 6045TIP3    H218100   2.974   0.236   4.646
 6046TIP3   OH218101   2.787   1.619   0.853
 6046TIP3    H118102   2.878   1.602   0.828
 6046TIP3    H218103   2.735   1.589   0.779
 6047TIP3   OH218104   0.241   6.340   3.152
 6047TIP3    H118105   0.261   6.303   3.067
 6047TIP3    H218106   0.324   6.338   3.200
 6048TIP3   OH218107   4.098   3.168   4.607
 6048TIP3    H118108   4.137   3.243   4.652
 6048TIP3    H218109   4.091   3.195   4.516
 6049TIP3   OH218110   3.390   2.002   4.121
 6049TIP3    H118111   3.452   2.075   4.112
 6049TIP3    H218112   3.307   2.045   4.140
 6050TIP3   OH218113   5.950   3.581   4.516
 6050TIP3    H118114   6.013   3.547   4.580
 6050TIP3    H218115   5.907   3.653   4.562
 6051TIP3   OH218116   4.806   3.815   4.053
 6051TIP3    H118117   4.854   3.891   4.019
 6051TIP3    H218118   4.724   3.814   4.004
 6052TIP3   OH218119   2.385   2.412   5.173
 6052TIP3    H118120   2.415   2.403   5.263
 6052TIP3    H218121   2.292   2.388   5.176
 6053TIP3   OH218122   5.018   4.055   2.362
 6053TIP3    H118123   4.948   4.096   2.412
 6053TIP3    H218124   4.974   3.995   2.302
 6054TIP3   OH218125   6.291   1.874   0.667
 6054TIP3    H118126   6.373   1.917   0.643
 6054TIP3    H218127   6.312   1.781   0.671
 6055TIP3   OH218128   1.693   2.089   0.784
 6055TIP3    H118129   1.670   2.136   0.704
 6055TIP3    H218130   1.615   2.097   0.840
 6056TIP3   OH218131   3.525   4.062   4.912
 6056TIP3    H118132   3.525   4.125   4.840
 6056TIP3    H218133   3.454   4.090   4.969
 6057TIP3   OH218134   5.725   5.800   1.924
 6057TIP3    H118135   5.710   5.893   1.903
 6057TIP3    H218136   5.816   5.785   1.899
 6058TIP3   OH218137   5.361   2.600   1.824
 6058TIP3    H118138   5.402   2.629   1.742
 6058TIP3    H218139   5.415   2.639   1.893
 6059TIP3   OH218140   6.664   4.158   1.291
 6059TIP3    H118141   6.593   4.113   1.337
 6059TIP3    H218142   6.729   4.090   1.276
 6060TIP3   OH218143   5.057   2.457   1.360
 6060TIP3    H118144   5.079   2.409   1.439
 6060TIP3    H218145   5.062   2.549   1.385
 6061TIP3   OH218146   6.068   4.878   2.228
 6061TIP3    H118147   6.035   4.875   2.138
 6061TIP3    H218148   6.144   4.819   2.228
 6062TIP3   OH218149   3.467   3.332   5.668
 6062TIP3    H118150   3.493   3.393   5.598
 6062TIP3    H218151   3.380   3.362   5.694
 6063TIP3   OH218152   1.821   3.725   2.388
 6063TIP3    H118153   1.864   3.640   2.390
 6063TIP3    H218154   1.798   3.743   2.479
 6064TIP3   OH218155   2.655   4.842   1.424
 6064TIP3    H118156   2.645   4.894   1.504
 6064TIP3    H218157   2.623   4.900   1.354
 6065TIP3   OH218158   3.780   5.545   4.060
 6065TIP3    H118159   3.699   5.504   4.029
 6065TIP3    H218160   3.844   5.527   3.992
 6066TIP3   OH218161   6.172   5.717   5.118
 6066TIP3    H118162   6.182   5.763   5.035
 6066TIP3    H218163   6.087   5.674   5.112
 6067TIP3   OH218164   6.089   0.514   2.612
 6067TIP3    H118165   6.171   0.512   2.563
 6067TIP3    H218166   6.116   0.507   2.704
 6068TIP3   OH218167   2.741   2.265   4.779
 6068TIP3    H118168   2.739   2.304   4.866
 6068TIP3    H218169   2.665   2.302   4.734
 6069TIP3   OH218170   2.976   1.104   4.406
 6069TIP3    H118171   2.922   1.169   4.362
 6069TIP3    H218172   3.047   1.155   4.444
 6070TIP3   OH218173   6.898   2.334   1.408
 6070TIP3    H118174   6.896   2.429   1.395
 6070TIP3    H218175   6.806   2.309   1.416
 6071TIP3   OH218176   6.592   4.194   5.659
 6071TIP3    H118177   6.569   4.265   5.718
 6071TIP3    H218178   6.666   4.151   5.701
 6072TIP3   OH218179   1.177   2.787   4.423
 6072TIP3    H118180   1.171   2.812   4.515
 6072TIP3    H218181   1.088   2.799   4.389
 6073TIP3   OH218182   0.963   0.635   3.115
 6073TIP3    H118183   1.056   0.645   3.094
 6073TIP3    H218184   0.918   0.654   3.032
 6074TIP3   OH218185   6.423   5.242   4.469
 6074TIP3    H118186   6.477   5.174   4.428
 6074TIP3    H218187   6.484   5.288   4.527
 6075TIP3   OH218188   4.482   3.746   1.834
 6075TIP3    H118189   4.390   3.732   1.812
 6075TIP3    H218190   4.530   3.697   1.767
 6076TIP3   OH218191   3.770   6.091   1.519
 6076TIP3    H118192   3.720   6.013   1.492
 6076TIP3    H218193   3.719   6.164   1.485
 6077TIP3   OH218194   2.543   1.844   3.454
 6077TIP3    H118195   2.525   1.752   3.469
 6077TIP3    H218196   2.492   1.890   3.521
 6078TIP3   OH218197   4.765   3.049   1.589
 6078TIP3    H118198   4.750   3.115   1.656
 6078TIP3    H218199   4.807   3.096   1.517
 6079TIP3   OH218200   3.986   1.260   4.609
 6079TIP3    H118201   3.988   1.177   4.657
 6079TIP3    H218202   4.072   1.267   4.568
 6080TIP3   OH218203   6.675   3.997   2.117
 6080TIP3    H118204   6.744   3.935   2.141
 6080TIP3    H218205   6.674   3.995   2.021
 6081TIP3   OH218206   1.469   5.077   2.619
 6081TIP3    H118207   1.375   5.065   2.600
 6081TIP3    H218208   1.479   5.171   2.630
 6082TIP3   OH218209   2.802   3.393   5.392
 6082TIP3    H118210   2.845   3.319   5.349
 6082TIP3    H218211   2.807   3.465   5.329
 6083TIP3   OH218212   5.286   2.715   5.290
 6083TIP3    H118213   5.218   2.749   5.232
 6083TIP3    H218214   5.326   2.793   5.328
 6084TIP3   OH218215   6.520   1.423   2.960
 6084TIP3    H118216   6.456   1.458   2.898
 6084TIP3    H218217   6.514   1.481   3.036
 6085TIP3   OH218218   7.189   2.287   0.487
 6085TIP3    H118219   7.204   2.206   0.439
 6085TIP3    H218220   7.128   2.337   0.432
 6086TIP3   OH218221   6.464   2.302   0.844
 6086TIP3    H118222   6.554   2.335   0.851
 6086TIP3    H218223   6.461   2.257   0.760
 6087TIP3   OH218224   4.550   6.570   0.465
 6087TIP3    H118225   4.542   6.638   0.398
 6087TIP3    H218226   4.465   6.526   0.467
 6088TIP3   OH218227   4.849   1.867   1.120
 6088TIP3    H118228   4.945   1.870   1.128
 6088TIP3    H218229   4.820   1.816   1.196
 6089TIP3   OH218230   6.272   6.498   1.608
 6089TIP3    H118231   6.213   6.544   1.548
 6089TIP3    H218232   6.213   6.456   1.671
 6090TIP3   OH218233   4.249  -0.010   4.626
 6090TIP3    H118234   4.292   0.070   4.594
 6090TIP3    H218235   4.304  -0.039   4.699
 6091TIP3   OH218236   0.222   2.813   0.320
 6091TIP3    H118237   0.191   2.833   0.408
 6091TIP3    H218238   0.147   2.831   0.263
 6092TIP3   OH218239   1.608   0.347   2.597
 6092TIP3    H118240   1.689   0.306   2.566
 6092TIP3    H218241   1.591   0.307   2.682
 6093TIP3   OH218242   5.291   3.565   0.405
 6093TIP3    H118243   5.353   3.626   0.366
 6093TIP3    H218244   5.223   3.621   0.443
 6094TIP3   OH218245   1.627   4.010   5.506
 6094TIP3    H118246   1.533   3.990   5.513
 6094TIP3    H218247   1.629   4.097   5.467
 6095TIP3   OH218248   0.394   2.539   1.195
 6095TIP3    H118249   0.431   2.463   1.150
 6095TIP3    H218250   0.310   2.553   1.153
 6096TIP3   OH218251   0.871   0.194   1.047
 6096TIP3    H118252   0.856   0.178   0.954
 6096TIP3    H218253   0.804   0.142   1.091
 6097TIP3   OH218254   1.559   5.645   3.417
 6097TIP3    H118255   1.565   5.643   3.322
 6097TIP3    H218256   1.573   5.554   3.444
 6098TIP3   OH218257   3.567   3.243   1.988
 6098TIP3    H118258   3.592   3.276   1.902
 6098TIP3    H218259   3.476   3.271   2.000
 6099TIP3   OH218260   1.159   4.273   0.569
 6099TIP3    H118261   1.169   4.364   0.543
 6099TIP3    H218262   1.244   4.233   0.553
 6100TIP3   OH218263   1.977   6.373   2.079
 6100TIP3    H118264   1.980   6.362   2.174
 6100TIP3    H218265   2.036   6.447   2.063
 6101TIP3   OH218266   6.629   5.631   5.165
 6101TIP3    H118267   6.601   5.716   5.199
 6101TIP3    H218268   6.552   5.598   5.117
 6102TIP3   OH218269   3.722   5.801   5.780
 6102TIP3    H118270   3.685   5.759   5.703
 6102TIP3    H218271   3.690   5.748   5.854
 6103TIP3   OH218272   1.401   3.116   4.127
 6103TIP3    H118273   1.449   3.101   4.046
 6103TIP3    H218274   1.469   3.132   4.193
 6104TIP3   OH218275   2.834   6.667   2.461
 6104TIP3    H118276   2.792   6.751   2.477
 6104TIP3    H218277   2.764   6.611   2.428
 6105TIP3   OH218278   1.630   6.580   4.908
 6105TIP3    H118279   1.538   6.583   4.935
 6105TIP3    H218280   1.679   6.578   4.991
 6106TIP3   OH218281   1.219   3.649   4.357
 6106TIP3    H118282   1.148   3.705   4.325
 6106TIP3    H218283   1.240   3.592   4.282
 6107TIP3   OH218284   3.788   3.108   4.334
 6107TIP3    H118285   3.825   3.194   4.316
 6107TIP3    H218286   3.739   3.120   4.415
 6108TIP3   OH218287   5.276   4.489   2.838
 6108TIP3    H118288   5.246   4.450   2.920
 6108TIP3    H218289   5.281   4.583   2.856
 6109TIP3   OH218290   1.226   3.557   1.318
 6109TIP3    H118291   1.182   3.583   1.399
 6109TIP3    H218292   1.253   3.640   1.278
 6110TIP3   OH218293   3.534   4.420   3.295
 6110TIP3    H118294   3.520   4.486   3.363
 6110TIP3    H218295   3.560   4.342   3.343
 6111TIP3   OH218296   5.700   1.512   0.851
 6111TIP3    H118297   5.678   1.476   0.765
 6111TIP3    H218298   5.636   1.472   0.911
 6112TIP3   OH218299   2.612   2.427   5.370
 6112TIP3    H118300   2.669   2.387   5.304
 6112TIP3    H218301   2.572   2.352   5.415
 6113TIP3   OH218302   1.532   0.055   1.927
 6113TIP3    H118303   1.494   0.054   1.839
 6113TIP3    H218304   1.557   0.146   1.942
 6114TIP3   OH218305   0.146   2.998   1.602
 6114TIP3    H118306   0.123   3.071   1.660
 6114TIP3    H218307   0.199   2.939   1.656
 6115TIP3   OH218308   2.107   0.955   0.240
 6115TIP3    H118309   2.049   0.887   0.208
 6115TIP3    H218310   2.100   0.948   0.336
 6116TIP3   OH218311   4.115   4.159   4.177
 6116TIP3    H118312   4.176   4.113   4.119
 6116TIP3    H218313   4.167   4.229   4.215
 6117TIP3   OH218314   3.592   2.334   0.100
 6117TIP3    H118315   3.572   2.420   0.137
 6117TIP3    H218316   3.554   2.272   0.162
 6118TIP3   OH218317   2.142   1.892   2.943
 6118TIP3    H118318   2.220   1.878   2.889
 6118TIP3    H218319   2.176   1.910   3.031
 6119TIP3   OH218320   1.261   4.440   3.483
 6119TIP3    H118321   1.166   4.429   3.486
 6119TIP3    H218322   1.296   4.352   3.500
 6120TIP3   OH218323   5.199   3.153   3.484
 6120TIP3    H118324   5.112   3.186   3.507
 6120TIP3    H218325   5.257   3.228   3.495
 6121TIP3   OH218326   6.265   1.389   4.550
 6121TIP3    H118327   6.235   1.322   4.488
 6121TIP3    H218328   6.320   1.447   4.497
 6122TIP3   OH218329   2.502   5.096   5.105
 6122TIP3    H118330   2.490   5.185   5.138
 6122TIP3    H218331   2.480   5.040   5.180
 6123TIP3   OH218332   0.409   0.274   1.606
 6123TIP3    H118333   0.317   0.247   1.615
 6123TIP3    H218334   0.436   0.239   1.521
 6124TIP3   OH218335   2.870   5.155   2.402
 6124TIP3    H118336   2.785   5.197   2.414
 6124TIP3    H218337   2.849   5.067   2.370
 6125TIP3   OH218338   4.207   0.948   1.271
 6125TIP3    H118339   4.241   1.030   1.307
 6125TIP3    H218340   4.283   0.909   1.226
 6126TIP3   OH218341   0.517   5.882   4.450
 6126TIP3    H118342   0.513   5.837   4.365
 6126TIP3    H218343   0.523   5.811   4.514
 6127TIP3   OH218344   4.245   0.539   1.755
 6127TIP3    H118345   4.269   0.606   1.820
 6127TIP3    H218346   4.157   0.512   1.780
 6128TIP3   OH218347   0.835   4.782  -0.006
 6128TIP3    H118348   0.844   4.747   0.082
 6128TIP3    H218349   0.812   4.874   0.007
 6129TIP3   OH218350   6.073   5.026   3.243
 6129TIP3    H118351   6.152   5.030   3.297
 6129TIP3    H218352   6.105   5.033   3.153
 6130TIP3   OH218353   4.387   2.755   2.423
 6130TIP3    H118354   4.312   2.723   2.473
 6130TIP3    H218355   4.349   2.813   2.357
 6131TIP3   OH218356   6.276   1.741   4.333
 6131TIP3    H118357   6.312   1.656   4.359
 6131TIP3    H218358   6.339   1.804   4.367
 6132TIP3   OH218359   5.758   0.428   4.797
 6132TIP3    H118360   5.822   0.361   4.773
 6132TIP3    H218361   5.722   0.458   4.713
 6133TIP3   OH218362   5.920   1.415   5.099
 6133TIP3    H118363   5.864   1.400   5.175
 6133TIP3    H218364   5.981   1.341   5.099
 6134TIP3   OH218365   1.799   1.488   2.375
 6134TIP3    H118366   1.706   1.463   2.378
 6134TIP3    H218367   1.808   1.555   2.443
 6135TIP3   OH218368   6.489   6.334   0.146
 6135TIP3    H118369   6.460   6.330   0.055
 6135TIP3    H218370   6.448   6.414   0.181
 6136TIP3   OH218371   6.796   6.477   2.235
 6136TIP3    H118372   6.865   6.476   2.301
 6136TIP3    H218373   6.717   6.503   2.282
 6137TIP3   OH218374   0.491   0.217   3.000
 6137TIP3    H118375   0.542   0.150   3.045
 6137TIP3    H218376   0.539   0.298   3.016
 6138TIP3   OH218377   0.396   2.015   3.490
 6138TIP3    H118378   0.349   2.058   3.562
 6138TIP3    H218379   0.401   2.082   3.422
 6139TIP3   OH218380   4.225   0.754   3.147
 6139TIP3    H118381   4.178   0.716   3.222
 6139TIP3    H218382   4.314   0.718   3.155
 6140TIP3   OH218383   4.599   3.399   0.912
 6140TIP3    H118384   4.636   3.317   0.879
 6140TIP3    H218385   4.520   3.413   0.859
 6141TIP3   OH218386   4.334   5.236   0.451
 6141TIP3    H118387   4.280   5.314   0.440
 6141TIP3    H218388   4.423   5.264   0.431
 6142TIP3   OH218389   5.176   5.452   4.263
 6142TIP3    H118390   5.218   5.376   4.303
 6142TIP3    H218391   5.229   5.526   4.291
 6143TIP3   OH218392   4.064   2.179   0.735
 6143TIP3    H118393   3.972   2.190   0.712
 6143TIP3    H218394   4.111   2.238   0.676
 6144TIP3   OH218395   6.045   0.267   4.486
 6144TIP3    H118396   6.135   0.276   4.454
 6144TIP3    H218397   6.022   0.354   4.519
 6145TIP3   OH218398   6.314   6.467   4.147
 6145TIP3    H118399   6.303   6.501   4.236
 6145TIP3    H218400   6.399   6.501   4.119
 6146TIP3   OH218401   6.882   6.025   3.521
 6146TIP3    H118402   6.920   6.097   3.471
 6146TIP3    H218403   6.860   5.958   3.456
 6147TIP3   OH218404   5.827   0.970   4.655
 6147TIP3    H118405   5.752   0.990   4.599
 6147TIP3    H218406   5.869   1.054   4.671
 6148TIP3   OH218407   1.058   3.547   0.614
 6148TIP3    H118408   1.147   3.537   0.581
 6148TIP3    H218409   1.052   3.485   0.687
 6149TIP3   OH218410   5.282   0.063   1.105
 6149TIP3    H118411   5.296   0.121   1.030
 6149TIP3    H218412   5.369   0.050   1.142
 6150TIP3   OH218413   4.781   3.710   4.293
 6150TIP3    H118414   4.864   3.662   4.292
 6150TIP3    H218415   4.785   3.766   4.216
 6151TIP3   OH218416   6.758   3.600   3.688
 6151TIP3    H118417   6.801   3.642   3.763
 6151TIP3    H218418   6.674   3.645   3.680
 6152TIP3   OH218419   2.070   1.459   1.093
 6152TIP3    H118420   2.001   1.526   1.089
 6152TIP3    H218421   2.136   1.497   1.152
 6153TIP3   OH218422   0.691   6.331   5.198
 6153TIP3    H118423   0.782   6.302   5.193
 6153TIP3    H218424   0.691   6.417   5.156
 6154TIP3   OH218425   6.353   6.745   4.915
 6154TIP3    H118426   6.260   6.724   4.929
 6154TIP3    H218427   6.354   6.837   4.891
 6155TIP3   OH218428   5.397   2.048   5.623
 6155TIP3    H118429   5.411   1.993   5.546
 6155TIP3    H218430   5.302   2.053   5.632
 6156TIP3   OH218431   1.235   1.020   0.329
 6156TIP3    H118432   1.303   0.958   0.301
 6156TIP3    H218433   1.265   1.051   0.414
 6157TIP3   OH218434   1.962   0.078   4.944
 6157TIP3    H118435   2.053   0.067   4.915
 6157TIP3    H218436   1.924   0.137   4.879
 6158TIP3   OH218437   4.369   4.428   2.235
 6158TIP3    H118438   4.329   4.470   2.158
 6158TIP3    H218439   4.300   4.373   2.271
 6159TIP3   OH218440   2.452   4.788   4.123
 6159TIP3    H118441   2.420   4.745   4.044
 6159TIP3    H218442   2.392   4.759   4.192
 6160TIP3   OH218443   6.939   6.186   4.227
 6160TIP3    H118444   7.031   6.173   4.250
 6160TIP3    H218445   6.940   6.259   4.165
 6161TIP3   OH218446   0.698   0.590   2.695
 6161TIP3    H118447   0.618   0.637   2.668
 6161TIP3    H218448   0.723   0.539   2.618
 6162TIP3   OH218449   0.371   6.144   1.630
 6162TIP3    H118450   0.450   6.171   1.676
 6162TIP3    H218451   0.308   6.214   1.648
 6163TIP3   OH218452   2.272   4.663   5.329
 6163TIP3    H118453   2.324   4.685   5.406
 6163TIP3    H218454   2.196   4.617   5.364
 6164TIP3   OH218455   4.165   6.103   3.949
 6164TIP3    H118456   4.108   6.031   3.923
 6164TIP3    H218457   4.167   6.160   3.872
 6165TIP3   OH218458   1.739   4.164   3.040
 6165TIP3    H118459   1.823   4.206   3.057
 6165TIP3    H218460   1.761   4.073   3.020
 6166TIP3   OH218461   7.035   6.032   1.099
 6166TIP3    H118462   7.032   6.105   1.038
 6166TIP3    H218463   7.053   6.072   1.184
 6167TIP3   OH218464   0.213   5.550   5.136
 6167TIP3    H118465   0.265   5.535   5.215
 6167TIP3    H218466   0.122   5.539   5.163
 6168TIP3   OH218467   6.105   3.985   2.066
 6168TIP3    H118468   6.189   4.017   2.035
 6168TIP3    H218469   6.099   4.014   2.157
 6169TIP3   OH218470   3.671   0.927   5.470
 6169TIP3    H118471   3.690   0.918   5.563
 6169TIP3    H218472   3.576   0.928   5.465
 6170TIP3   OH218473   3.491   6.244   1.360
 6170TIP3    H118474   3.537   6.280   1.284
 6170TIP3    H218475   3.530   6.290   1.435
 6171TIP3   OH218476   0.352   4.139   3.919
 6171TIP3    H118477   0.426   4.121   3.978
 6171TIP3    H218478   0.306   4.056   3.913
 6172TIP3   OH218479   6.123   6.378   2.060
 6172TIP3    H118480   6.190   6.441   2.035
 6172TIP3    H218481   6.053   6.432   2.097
 6173TIP3   OH218482   3.504   2.065   2.514
 6173TIP3    H118483   3.595   2.055   2.539
 6173TIP3    H218484   3.455   2.020   2.582
 6174TIP3   OH218485   3.840   6.569   3.059
 6174TIP3    H118486   3.918   6.547   3.008
 6174TIP3    H218487   3.802   6.644   3.015
 6175TIP3   OH218488   5.831   0.134   3.032
 6175TIP3    H118489   5.742   0.165   3.052
 6175TIP3    H218490   5.861   0.190   2.961
 6176TIP3   OH218491   3.549   0.570   5.786
 6176TIP3    H118492   3.503   0.486   5.788
 6176TIP3    H218493   3.535   0.607   5.873
 6177TIP3   OH218494   3.832   1.215   0.142
 6177TIP3    H118495   3.824   1.164   0.222
 6177TIP3    H218496   3.923   1.246   0.142
 6178TIP3   OH218497   0.420   1.386   0.897
 6178TIP3    H118498   0.353   1.450   0.921
 6178TIP3    H218499   0.491   1.439   0.861
 6179TIP3   OH218500   5.704   2.678   4.519
 6179TIP3    H118501   5.681   2.602   4.573
 6179TIP3    H218502   5.784   2.652   4.474
 6180TIP3   OH218503   4.859   2.488   4.993
 6180TIP3    H118504   4.787   2.522   5.047
 6180TIP3    H218505   4.829   2.502   4.902
 6181TIP3   OH218506   3.213   4.280   0.704
 6181TIP3    H118507   3.166   4.298   0.623
 6181TIP3    H218508   3.256   4.363   0.726
 6182TIP3   OH218509   1.959   0.141   0.735
 6182TIP3    H118510   1.907   0.220   0.754
 6182TIP3    H218511   2.022   0.137   0.807
 6183TIP3   OH218512   3.853   1.289   3.469
 6183TIP3    H118513   3.761   1.264   3.466
 6183TIP3    H218514   3.878   1.275   3.560
 6184TIP3   OH218515   5.665   2.871   3.896
 6184TIP3    H118516   5.592   2.924   3.863
 6184TIP3    H218517   5.744   2.918   3.868
 6185TIP3   OH218518   2.630   5.233   0.502
 6185TIP3    H118519   2.666   5.305   0.451
 6185TIP3    H218520   2.554   5.271   0.547
 6186TIP3   OH218521   5.205   0.699   0.375
 6186TIP3    H118522   5.242   0.786   0.360
 6186TIP3    H218523   5.152   0.708   0.454
 6187TIP3   OH218524   2.979   4.162   2.236
 6187TIP3    H118525   2.921   4.090   2.261
 6187TIP3    H218526   2.941   4.239   2.276
 6188TIP3   OH218527   6.610   5.974   2.585
 6188TIP3    H118528   6.682   6.028   2.553
 6188TIP3    H218529   6.626   5.888   2.548
 6189TIP3   OH218530   0.780   6.190   3.112
 6189TIP3    H118531   0.837   6.113   3.113
 6189TIP3    H218532   0.792   6.229   3.198
 6190TIP3   OH218533   4.135   5.027   0.939
 6190TIP3    H118534   4.128   5.122   0.948
 6190TIP3    H218535   4.229   5.010   0.937
 6191TIP3   OH218536   4.635   6.609   5.247
 6191TIP3    H118537   4.718   6.621   5.202
 6191TIP3    H218538   4.578   6.678   5.211
 6192TIP3   OH218539   5.064   2.200   0.223
 6192TIP3    H118540   5.126   2.274   0.220
 6192TIP3    H218541   5.022   2.202   0.137
 6193TIP3   OH218542   5.697   6.256   2.825
 6193TIP3    H118543   5.755   6.180   2.831
 6193TIP3    H218544   5.730   6.317   2.891
 6194TIP3   OH218545   4.118   1.846   5.587
 6194TIP3    H118546   4.205   1.831   5.624
 6194TIP3    H218547   4.059   1.842   5.663
 6195TIP3   OH218548   3.320   5.907   2.006
 6195TIP3    H118549   3.315   5.811   2.008
 6195TIP3    H218550   3.301   5.930   1.915
 6196TIP3   OH218551   2.966   6.672   2.121
 6196TIP3    H118552   3.033   6.629   2.068
 6196TIP3    H218553   2.963   6.622   2.202
 6197TIP3   OH218554   1.312   4.005   1.946
 6197TIP3    H118555   1.281   4.055   2.021
 6197TIP3    H218556   1.362   3.932   1.983
 6198TIP3   OH218557   4.682   3.094   1.130
 6198TIP3    H118558   4.587   3.099   1.142
 6198TIP3    H218559   4.694   3.086   1.035
 6199TIP3   OH218560   2.197   5.081   1.088
 6199TIP3    H118561   2.267   5.106   1.149
 6199TIP3    H218562   2.117   5.114   1.128
 6200TIP3   OH218563   4.218   2.420   2.161
 6200TIP3    H118564   4.310   2.442   2.168
 6200TIP3    H218565   4.191   2.454   2.075
 6201TIP3   OH218566   3.292   1.852   2.090
 6201TIP3    H118567   3.315   1.893   2.173
 6201TIP3    H218568   3.363   1.877   2.031
 6202TIP3   OH218569   0.383   3.117   5.786
 6202TIP3    H118570   0.347   3.184   5.845
 6202TIP3    H218571   0.459   3.159   5.747
 6203TIP3   OH218572   3.718   6.840   0.359
 6203TIP3    H118573   3.642   6.849   0.417
 6203TIP3    H218574   3.712   6.751   0.325
 6204TIP3   OH218575   4.141   5.001   3.534
 6204TIP3    H118576   4.089   4.924   3.557
 6204TIP3    H218577   4.131   5.060   3.608
 6205TIP3   OH218578   4.035   3.466   2.712
 6205TIP3    H118579   4.043   3.558   2.739
 6205TIP3    H218580   4.093   3.459   2.636
 6206TIP3   OH218581   1.851   6.656   0.573
 6206TIP3    H118582   1.781   6.713   0.541
 6206TIP3    H218583   1.842   6.657   0.668
 6207TIP3   OH218584   0.764   3.485   5.054
 6207TIP3    H118585   0.773   3.444   4.968
 6207TIP3    H218586   0.850   3.524   5.072
 6208TIP3   OH218587   0.310   3.570   3.245
 6208TIP3    H118588   0.337   3.602   3.332
 6208TIP3    H218589   0.325   3.476   3.248
 6209TIP3   OH218590   0.049   3.937   4.495
 6209TIP3    H118591   0.022   3.865   4.552
 6209TIP3    H218592   0.014   4.015   4.538
 6210TIP3   OH218593   0.422   3.587   3.517
 6210TIP3    H118594   0.475   3.655   3.560
 6210TIP3    H218595   0.472   3.506   3.531
 6211TIP3   OH218596   4.760   1.320   5.571
 6211TIP3    H118597   4.827   1.256   5.544
 6211TIP3    H218598   4.710   1.275   5.639
 6212TIP3   OH218599   3.691   0.863   0.866
 6212TIP3    H118600   3.597   0.871   0.852
 6212TIP3    H218601   3.724   0.953   0.858
 6213TIP3   OH218602   2.974   1.134   0.245
 6213TIP3    H118603   3.025   1.212   0.222
 6213TIP3    H218604   2.886   1.167   0.264
 6214TIP3   OH218605   1.149   4.533   2.188
 6214TIP3    H118606   1.084   4.602   2.201
 6214TIP3    H218607   1.124   4.465   2.252
 6215TIP3   OH218608   4.075   1.180   0.977
 6215TIP3    H118609   4.057   1.115   1.045
 6215TIP3    H218610   4.139   1.239   1.017
 6216TIP3   OH218611   1.030   6.600   3.113
 6216TIP3    H118612   1.054   6.576   3.203
 6216TIP3    H218613   0.988   6.521   3.078
 6217TIP3   OH218614   3.386   1.183   1.738
 6217TIP3    H118615   3.352   1.236   1.666
 6217TIP3    H218616   3.481   1.189   1.729
 6218TIP3   OH218617   2.317   1.509   1.223
 6218TIP3    H118618   2.405   1.542   1.243
 6218TIP3    H218619   2.320   1.417   1.249
 6219TIP3   OH218620   6.636   6.090   5.052
 6219TIP3    H118621   6.660   6.183   5.049
 6219TIP3    H218622   6.657   6.063   5.141
 6220TIP3   OH218623   5.393   6.611   4.387
 6220TIP3    H118624   5.314   6.603   4.441
 6220TIP3    H218625   5.452   6.543   4.421
 6221TIP3   OH218626   0.150   6.517   2.933
 6221TIP3    H118627   0.170   6.444   2.991
 6221TIP3    H218628   0.218   6.582   2.952
 6222TIP3   OH218629   3.257   1.770   4.673
 6222TIP3    H118630   3.274   1.733   4.760
 6222TIP3    H218631   3.338   1.817   4.651
 6223TIP3   OH218632   4.149   5.927   4.276
 6223TIP3    H118633   4.237   5.953   4.303
 6223TIP3    H218634   4.097   6.007   4.284
 6224TIP3   OH218635   0.631   1.247   3.565
 6224TIP3    H118636   0.689   1.307   3.612
 6224TIP3    H218637   0.671   1.239   3.478
 6225TIP3   OH218638   5.350   5.515   1.378
 6225TIP3    H118639   5.293   5.495   1.453
 6225TIP3    H218640   5.436   5.529   1.417
 6226TIP3   OH218641   2.429   1.262   1.349
 6226TIP3    H118642   2.481   1.269   1.430
 6226TIP3    H218643   2.387   1.177   1.355
 6227TIP3   OH218644   0.874   0.349   3.134
 6227TIP3    H118645   0.942   0.352   3.067
 6227TIP3    H218646   0.795   0.379   3.089
 6228TIP3   OH218647   0.027   6.472   3.873
 6228TIP3    H118648   0.118   6.501   3.877
 6228TIP3    H218649  -0.010   6.519   3.798
 6229TIP3   OH218650   6.510   2.367   2.478
 6229TIP3    H118651   6.457   2.294   2.444
 6229TIP3    H218652   6.600   2.344   2.454
 6230TIP3   OH218653   1.254   5.103   0.823
 6230TIP3    H118654   1.262   5.048   0.901
 6230TIP3    H218655   1.182   5.162   0.844
 6231TIP3   OH218656   2.745   4.160   5.117
 6231TIP3    H118657   2.669   4.199   5.160
 6231TIP3    H218658   2.736   4.066   5.131
 6232TIP3   OH218659   6.069   6.021   2.244
 6232TIP3    H118660   6.059   5.939   2.195
 6232TIP3    H218661   6.027   6.003   2.328
 6233TIP3   OH218662   6.168   0.160   0.037
 6233TIP3    H118663   6.167   0.070   0.004
 6233TIP3    H218664   6.246   0.199  -0.001
 6234TIP3   OH218665   1.531   4.352   0.504
 6234TIP3    H118666   1.548   4.330   0.412
 6234TIP3    H218667   1.615   4.384   0.536
 6235TIP3   OH218668   1.682   0.529   3.622
 6235TIP3    H118669   1.686   0.579   3.703
 6235TIP3    H218670   1.680   0.438   3.650
 6236TIP3   OH218671   3.650   3.302   2.461
 6236TIP3    H118672   3.610   3.351   2.533
 6236TIP3    H218673   3.602   3.220   2.457
 6237TIP3   OH218674   4.238   1.129   4.820
 6237TIP3    H118675   4.330   1.148   4.799
 6237TIP3    H218676   4.240   1.097   4.910
 6238TIP3   OH218677   3.930   2.530   4.543
 6238TIP3    H118678   3.912   2.437   4.553
 6238TIP3    H218679   3.897   2.551   4.456
 6239TIP3   OH218680   1.240   6.048   2.186
 6239TIP3    H118681   1.326   6.017   2.214
 6239TIP3    H218682   1.213   6.108   2.256
 6240TIP3   OH218683   1.461   0.723   1.654
 6240TIP3    H118684   1.528   0.790   1.641
 6240TIP3    H218685   1.462   0.706   1.749
 6241TIP3   OH218686   2.911   5.023   1.342
 6241TIP3    H118687   2.829   5.027   1.391
 6241TIP3    H218688   2.886   5.043   1.252
 6242TIP3   OH218689   4.742   2.594   3.394
 6242TIP3    H118690   4.707   2.682   3.378
 6242TIP3    H218691   4.835   2.601   3.373
 6243TIP3   OH218692   0.096   5.075   1.394
 6243TIP3    H118693   0.043   5.144   1.355
 6243TIP3    H218694   0.153   5.120   1.456
 6244TIP3   OH218695   1.386   0.796   0.279
 6244TIP3    H118696   1.468   0.818   0.323
 6244TIP3    H218697   1.409   0.790   0.187
 6245TIP3   OH218698   3.258   5.058   3.318
 6245TIP3    H118699   3.310   5.036   3.395
 6245TIP3    H218700   3.236   5.151   3.329
 6246TIP3   OH218701   2.080   1.402   3.805
 6246TIP3    H118702   2.055   1.393   3.713
 6246TIP3    H218703   2.147   1.335   3.818
 6247TIP3   OH218704   2.528   3.563   0.929
 6247TIP3    H118705   2.499   3.633   0.872
 6247TIP3    H218706   2.452   3.505   0.939
 6248TIP3   OH218707   6.993   5.240   5.186
 6248TIP3    H118708   6.944   5.243   5.104
 6248TIP3    H218709   6.926   5.236   5.254
 6249TIP3   OH218710   4.573   3.774   5.290
 6249TIP3    H118711   4.651   3.747   5.241
 6249TIP3    H218712   4.577   3.723   5.371
 6250TIP3   OH218713  -0.005   3.870   4.213
 6250TIP3    H118714   0.058   3.900   4.279
 6250TIP3    H218715  -0.090   3.901   4.246
 6251TIP3   OH218716   0.554   1.800   1.675
 6251TIP3    H118717   0.522   1.830   1.760
 6251TIP3    H218718   0.602   1.874   1.640
 6252TIP3   OH218719   5.454   6.024   4.738
 6252TIP3    H118720   5.470   5.935   4.707
 6252TIP3    H218721   5.391   6.060   4.675
 6253TIP3   OH218722   2.678   5.639   1.836
 6253TIP3    H118723   2.745   5.707   1.832
 6253TIP3    H218724   2.639   5.639   1.749
 6254TIP3   OH218725   6.119   3.627   5.527
 6254TIP3    H118726   6.156   3.542   5.551
 6254TIP3    H218727   6.029   3.608   5.501
 6255TIP3   OH218728   5.452   4.099   0.075
 6255TIP3    H118729   5.404   4.050   0.009
 6255TIP3    H218730   5.439   4.191   0.051
 6256TIP3   OH218731   6.926   1.829   0.098
 6256TIP3    H118732   6.918   1.845   0.004
 6256TIP3    H218733   6.873   1.897   0.139
 6257TIP3   OH218734   4.868   0.160   0.072
 6257TIP3    H118735   4.811   0.179   0.146
 6257TIP3    H218736   4.955   0.184   0.101
 6258TIP3   OH218737   4.498   6.548   1.382
 6258TIP3    H118738   4.472   6.622   1.327
 6258TIP3    H218739   4.523   6.480   1.319
 6259TIP3   OH218740   2.247   6.286   3.846
 6259TIP3    H118741   2.167   6.252   3.884
 6259TIP3    H218742   2.241   6.265   3.753
 6260TIP3   OH218743   1.532   3.254   3.451
 6260TIP3    H118744   1.492   3.167   3.450
 6260TIP3    H218745   1.531   3.280   3.543
 6261TIP3   OH218746   1.033   0.227   1.253
 6261TIP3    H118747   1.013   0.321   1.252
 6261TIP3    H218748   0.979   0.191   1.183
 6262TIP3   OH218749   4.530   4.244   4.660
 6262TIP3    H118750   4.505   4.287   4.742
 6262TIP3    H218751   4.581   4.310   4.613
 6263TIP3   OH218752   4.228   6.575   1.085
 6263TIP3    H118753   4.167   6.614   1.022
 6263TIP3    H218754   4.274   6.508   1.035
 6264TIP3   OH218755   0.899   0.681   3.533
 6264TIP3    H118756   0.902   0.590   3.562
 6264TIP3    H218757   0.964   0.725   3.587
 6265TIP3   OH218758   5.633   2.664   4.804
 6265TIP3    H118759   5.560   2.602   4.809
 6265TIP3    H218760   5.672   2.663   4.891
 6266TIP3   OH218761   5.427   2.483   4.825
 6266TIP3    H118762   5.445   2.466   4.918
 6266TIP3    H218763   5.337   2.516   4.824
 6267TIP3   OH218764   4.572   6.350   5.729
 6267TIP3    H118765   4.588   6.400   5.649
 6267TIP3    H218766   4.487   6.308   5.714
 6268TIP3   OH218767   2.267   0.091   0.583
 6268TIP3    H118768   2.174   0.078   0.563
 6268TIP3    H218769   2.309   0.099   0.498
 6269TIP3   OH218770   5.463   6.705   3.943
 6269TIP3    H118771   5.463   6.610   3.955
 6269TIP3    H218772   5.531   6.721   3.877
 6270TIP3   OH218773   4.020   0.854   4.446
 6270TIP3    H118774   4.023   0.758   4.448
 6270TIP3    H218775   4.003   0.879   4.537
 6271TIP3   OH218776   3.376   2.742   0.716
 6271TIP3    H118777   3.281   2.737   0.720
 6271TIP3    H218778   3.395   2.814   0.657
 6272TIP3   OH218779   2.113   0.990   5.820
 6272TIP3    H118780   2.072   1.053   5.761
 6272TIP3    H218781   2.179   0.946   5.766
 6273TIP3   OH218782   1.274   0.895   4.834
 6273TIP3    H118783   1.294   0.988   4.841
 6273TIP3    H218784   1.294   0.872   4.743
 6274TIP3   OH218785   1.562   2.774   2.088
 6274TIP3    H118786   1.655   2.795   2.095
 6274TIP3    H218787   1.522   2.814   2.165
 6275TIP3   OH218788   4.842   2.443   2.931
 6275TIP3    H118789   4.775   2.427   2.864
 6275TIP3    H218790   4.817   2.386   3.004
 6276TIP3   OH218791   0.979   3.009   0.156
 6276TIP3    H118792   0.998   3.055   0.238
 6276TIP3    H218793   1.062   2.970   0.131
 6277TIP3   OH218794   1.721   4.212   1.740
 6277TIP3    H118795   1.738   4.264   1.819
 6277TIP3    H218796   1.799   4.223   1.687
 6278TIP3   OH218797   4.365   1.305   3.670
 6278TIP3    H118798   4.350   1.394   3.637
 6278TIP3    H218799   4.379   1.252   3.591
 6279TIP3   OH218800   1.657   6.078   5.107
 6279TIP3    H118801   1.568   6.047   5.125
 6279TIP3    H218802   1.699   6.079   5.193
 6280TIP3   OH218803   5.289   4.471   2.278
 6280TIP3    H118804   5.374   4.430   2.265
 6280TIP3    H218805   5.235   4.403   2.316
 6281TIP3   OH218806   4.249   0.726   2.311
 6281TIP3    H118807   4.163   0.743   2.350
 6281TIP3    H218808   4.280   0.812   2.283
 6282TIP3   OH218809   2.385   0.309   0.957
 6282TIP3    H118810   2.334   0.228   0.968
 6282TIP3    H218811   2.476   0.281   0.967
 6283TIP3   OH218812   3.170   1.827   3.069
 6283TIP3    H118813   3.127   1.912   3.077
 6283TIP3    H218814   3.100   1.768   3.041
 6284TIP3   OH218815   0.331   2.370   4.756
 6284TIP3    H118816   0.387   2.308   4.709
 6284TIP3    H218817   0.333   2.339   4.847
 6285TIP3   OH218818   5.545   0.986   5.494
 6285TIP3    H118819   5.569   0.941   5.413
 6285TIP3    H218820   5.599   1.065   5.495
 6286TIP3   OH218821   5.596   3.545   1.666
 6286TIP3    H118822   5.603   3.577   1.576
 6286TIP3    H218823   5.635   3.614   1.719
 6287TIP3   OH218824   1.404   2.348   2.482
 6287TIP3    H118825   1.313   2.329   2.461
 6287TIP3    H218826   1.454   2.301   2.414
 6288TIP3   OH218827   1.605   0.700   4.212
 6288TIP3    H118828   1.576   0.790   4.224
 6288TIP3    H218829   1.678   0.706   4.150
 6289TIP3   OH218830   3.620   3.423   0.308
 6289TIP3    H118831   3.604   3.514   0.331
 6289TIP3    H218832   3.601   3.419   0.214
 6290TIP3   OH218833   3.860   2.965   5.119
 6290TIP3    H118834   3.883   3.018   5.043
 6290TIP3    H218835   3.803   3.021   5.171
 6291TIP3   OH218836   5.152   3.061   4.199
 6291TIP3    H118837   5.241   3.096   4.193
 6291TIP3    H218838   5.107   3.096   4.123
 6292TIP3   OH218839   4.590   4.896   3.119
 6292TIP3    H118840   4.653   4.909   3.189
 6292TIP3    H218841   4.509   4.935   3.152
 6293TIP3   OH218842   5.842   6.403   0.563
 6293TIP3    H118843   5.761   6.353   0.565
 6293TIP3    H218844   5.835   6.463   0.637
 6294TIP3   OH218845   2.451   4.618   3.649
 6294TIP3    H118846   2.395   4.622   3.571
 6294TIP3    H218847   2.469   4.524   3.660
 6295TIP3   OH218848   6.977   2.300   5.146
 6295TIP3    H118849   6.922   2.259   5.212
 6295TIP3    H218850   6.914   2.338   5.083
 6296TIP3   OH218851   2.508   0.415   4.534
 6296TIP3    H118852   2.441   0.479   4.511
 6296TIP3    H218853   2.580   0.434   4.475
 6297TIP3   OH218854   5.542   4.652   1.671
 6297TIP3    H118855   5.490   4.659   1.591
 6297TIP3    H218856   5.590   4.570   1.662
 6298TIP3   OH218857   4.327   4.017   1.903
 6298TIP3    H118858   4.378   4.020   1.821
 6298TIP3    H218859   4.326   4.107   1.934
 6299TIP3   OH218860   6.922   1.439   1.895
 6299TIP3    H118861   6.946   1.347   1.910
 6299TIP3    H218862   6.964   1.461   1.812
 6300TIP3   OH218863   2.886   1.355   2.417
 6300TIP3    H118864   2.793   1.371   2.436
 6300TIP3    H218865   2.916   1.435   2.375
 6301TIP3   OH218866   5.578   6.084   3.352
 6301TIP3    H118867   5.514   6.014   3.347
 6301TIP3    H218868   5.657   6.043   3.386
 6302TIP3   OH218869   4.749   1.937   0.202
 6302TIP3    H118870   4.733   2.031   0.193
 6302TIP3    H218871   4.663   1.897   0.184
 6303TIP3   OH218872   1.990   0.804   1.193
 6303TIP3    H118873   2.076   0.767   1.215
 6303TIP3    H218874   1.927   0.740   1.227
 6304TIP3   OH218875   2.372   0.195   4.946
 6304TIP3    H118876   2.293   0.189   5.000
 6304TIP3    H218877   2.423   0.266   4.984
 6305TIP3   OH218878   5.035   4.573   0.236
 6305TIP3    H118879   5.071   4.484   0.231
 6305TIP3    H218880   4.962   4.572   0.174
 6306TIP3   OH218881   4.155   0.656   2.628
 6306TIP3    H118882   4.129   0.748   2.623
 6306TIP3    H218883   4.193   0.646   2.715
 6307TIP3   OH218884   1.422   4.653   3.302
 6307TIP3    H118885   1.381   4.607   3.375
 6307TIP3    H218886   1.441   4.584   3.238
 6308TIP3   OH218887   3.465   0.469   1.577
 6308TIP3    H118888   3.387   0.519   1.601
 6308TIP3    H218889   3.515   0.527   1.520
 6309TIP3   OH218890   5.775   2.808   0.592
 6309TIP3    H118891   5.849   2.756   0.562
 6309TIP3    H218892   5.813   2.869   0.656
 6310TIP3   OH218893   3.723   2.355   1.645
 6310TIP3    H118894   3.793   2.313   1.596
 6310TIP3    H218895   3.767   2.420   1.699
 6311TIP3   OH218896   6.054   4.899   4.076
 6311TIP3    H118897   6.047   4.938   4.163
 6311TIP3    H218898   6.136   4.933   4.041
 6312TIP3   OH218899   6.634   5.411   4.542
 6312TIP3    H118900   6.588   5.494   4.527
 6312TIP3    H218901   6.711   5.415   4.485
 6313TIP3   OH218902   3.447   2.493   3.888
 6313TIP3    H118903   3.518   2.507   3.825
 6313TIP3    H218904   3.372   2.540   3.850
 6314TIP3   OH218905   0.625   1.336   5.736
 6314TIP3    H118906   0.556   1.398   5.711
 6314TIP3    H218907   0.622   1.267   5.669
 6315TIP3   OH218908   3.207   6.216   2.044
 6315TIP3    H118909   3.222   6.198   2.136
 6315TIP3    H218910   3.290   6.195   2.001
 6316TIP3   OH218911   4.413   2.476   2.912
 6316TIP3    H118912   4.330   2.474   2.863
 6316TIP3    H218913   4.454   2.391   2.893
 6317TIP3   OH218914   1.791   1.760   2.363
 6317TIP3    H118915   1.799   1.812   2.443
 6317TIP3    H218916   1.746   1.817   2.302
 6318TIP3   OH218917   0.552   4.305   3.272
 6318TIP3    H118918   0.539   4.399   3.282
 6318TIP3    H218919   0.637   4.297   3.228
 6319TIP3   OH218920   7.150   4.051   3.214
 6319TIP3    H118921   7.118   4.021   3.299
 6319TIP3    H218922   7.233   4.095   3.233
 6320TIP3   OH218923   4.718   5.616   2.644
 6320TIP3    H118924   4.722   5.705   2.609
 6320TIP3    H218925   4.775   5.564   2.587
 6321TIP3   OH218926   4.438   3.542   4.035
 6321TIP3    H118927   4.417   3.620   4.086
 6321TIP3    H218928   4.525   3.559   4.000
 6322TIP3   OH218929   4.100   1.657   4.943
 6322TIP3    H118930   4.058   1.672   5.027
 6322TIP3    H218931   4.165   1.588   4.960
 6323TIP3   OH218932   1.449   2.729   2.375
 6323TIP3    H118933   1.481   2.657   2.429
 6323TIP3    H218934   1.513   2.800   2.390
 6324TIP3   OH218935   5.843   5.910   1.592
 6324TIP3    H118936   5.899   5.975   1.633
 6324TIP3    H218937   5.754   5.943   1.604
 6325TIP3   OH218938   3.608   0.692   2.066
 6325TIP3    H118939   3.665   0.719   1.994
 6325TIP3    H218940   3.658   0.712   2.145
 6326TIP3   OH218941   1.622   1.225   2.016
 6326TIP3    H118942   1.682   1.194   2.083
 6326TIP3    H218943   1.590   1.146   1.973
 6327TIP3   OH218944   6.306   4.421   4.945
 6327TIP3    H118945   6.301   4.508   4.905
 6327TIP3    H218946   6.352   4.367   4.880
 6328TIP3   OH218947   3.937   0.396   5.725
 6328TIP3    H118948   3.944   0.341   5.646
 6328TIP3    H218949   3.912   0.482   5.692
 6329TIP3   OH218950   1.772   4.428   5.073
 6329TIP3    H118951   1.680   4.425   5.097
 6329TIP3    H218952   1.816   4.370   5.135
 6330TIP3   OH218953   5.709   3.170   3.931
 6330TIP3    H118954   5.703   3.235   4.001
 6330TIP3    H218955   5.630   3.117   3.941
 6331TIP3   OH218956   6.095   0.185   1.074
 6331TIP3    H118957   6.187   0.206   1.054
 6331TIP3    H218958   6.099   0.099   1.116
 6332TIP3   OH218959   1.557   5.084   1.430
 6332TIP3    H118960   1.629   5.118   1.377
 6332TIP3    H218961   1.559   5.138   1.509
 6333TIP3   OH218962   0.934   0.503   4.567
 6333TIP3    H118963   0.956   0.555   4.489
 6333TIP3    H218964   0.843   0.475   4.552
 6334TIP3   OH218965   5.212   2.186   2.475
 6334TIP3    H118966   5.296   2.144   2.453
 6334TIP3    H218967   5.231   2.235   2.555
 6335TIP3   OH218968   1.726   2.294   0.066
 6335TIP3    H118969   1.753   2.284  -0.025
 6335TIP3    H218970   1.795   2.251   0.117
 6336TIP3   OH218971   0.536   2.548   0.754
 6336TIP3    H118972   0.489   2.620   0.795
 6336TIP3    H218973   0.551   2.577   0.664
 6337TIP3   OH218974   6.838   1.255   5.888
 6337TIP3    H118975   6.878   1.324   5.836
 6337TIP3    H218976   6.744   1.264   5.872
 6338TIP3   OH218977   5.063   1.082   0.960
 6338TIP3    H118978   4.997   1.135   0.915
 6338TIP3    H218979   5.034   0.992   0.947
 6339TIP3   OH218980   6.226   6.588   1.013
 6339TIP3    H118981   6.280   6.565   0.938
 6339TIP3    H218982   6.161   6.518   1.019
 6340TIP3   OH218983   1.701   3.126   2.250
 6340TIP3    H118984   1.763   3.200   2.248
 6340TIP3    H218985   1.668   3.121   2.161
 6341TIP3   OH218986   4.825   1.269   0.985
 6341TIP3    H118987   4.751   1.330   0.991
 6341TIP3    H218988   4.901   1.322   1.007
 6342TIP3   OH218989   4.825   3.378   4.952
 6342TIP3    H118990   4.881   3.454   4.967
 6342TIP3    H218991   4.763   3.408   4.885
 6343TIP3   OH218992   0.642   3.413   3.344
 6343TIP3    H118993   0.717   3.414   3.404
 6343TIP3    H218994   0.615   3.321   3.341
 6344TIP3   OH218995   5.495   4.158   3.680
 6344TIP3    H118996   5.537   4.198   3.604
 6344TIP3    H218997   5.566   4.112   3.725
 6345TIP3   OH218998   4.029   2.623   1.095
 6345TIP3    H118999   3.976   2.566   1.039
 6345TIP3    H219000   3.999   2.712   1.075
 6346TIP3   OH219001   3.484   3.645   1.790
 6346TIP3    H119002   3.574   3.612   1.795
 6346TIP3    H219003   3.457   3.655   1.881
 6347TIP3   OH219004   5.146   1.831   1.164
 6347TIP3    H119005   5.222   1.877   1.200
 6347TIP3    H219006   5.149   1.744   1.203
 6348TIP3   OH219007   2.730   0.769   0.693
 6348TIP3    H119008   2.745   0.850   0.742
 6348TIP3    H219009   2.651   0.786   0.641
 6349TIP3   OH219010   1.841   6.019   2.804
 6349TIP3    H119011   1.809   6.091   2.858
 6349TIP3    H219012   1.933   6.041   2.786
 6350TIP3   OH219013   5.554   0.884   2.788
 6350TIP3    H119014   5.559   0.920   2.876
 6350TIP3    H219015   5.508   0.951   2.737
 6351TIP3   OH219016   3.827   0.403   1.439
 6351TIP3    H119017   3.911   0.365   1.465
 6351TIP3    H219018   3.767   0.328   1.435
 6352TIP3   OH219019   5.606   0.377   0.942
 6352TIP3    H119020   5.699   0.402   0.948
 6352TIP3    H219021   5.607   0.286   0.915
 6353TIP3   OH219022   1.672   3.576   3.273
 6353TIP3    H119023   1.667   3.481   3.264
 6353TIP3    H219024   1.582   3.604   3.286
 6354TIP3   OH219025   4.981   2.543   0.675
 6354TIP3    H119026   5.076   2.544   0.661
 6354TIP3    H219027   4.966   2.617   0.735
 6355TIP3   OH219028   6.221   3.203   0.644
 6355TIP3    H119029   6.311   3.193   0.613
 6355TIP3    H219030   6.173   3.238   0.569
 6356TIP3   OH219031   0.053   1.537   4.578
 6356TIP3    H119032   0.099   1.503   4.655
 6356TIP3    H219033   0.102   1.616   4.554
 6357TIP3   OH219034   2.139   6.555   0.858
 6357TIP3    H119035   2.131   6.576   0.765
 6357TIP3    H219036   2.229   6.525   0.869
 6358TIP3   OH219037   4.272   4.945   2.897
 6358TIP3    H119038   4.228   4.904   2.972
 6358TIP3    H219039   4.271   5.038   2.916
 6359TIP3   OH219040   5.556   2.945   1.997
 6359TIP3    H119041   5.542   2.860   2.039
 6359TIP3    H219042   5.482   2.954   1.937
 6360TIP3   OH219043   5.154   0.781   1.652
 6360TIP3    H119044   5.076   0.805   1.701
 6360TIP3    H219045   5.220   0.845   1.679
 6361TIP3   OH219046   3.066   4.244   4.147
 6361TIP3    H119047   3.072   4.290   4.064
 6361TIP3    H219048   2.988   4.188   4.138
 6362TIP3   OH219049   6.734   0.338   5.164
 6362TIP3    H119050   6.666   0.280   5.197
 6362TIP3    H219051   6.815   0.288   5.172
 6363TIP3   OH219052   1.071   6.624   5.440
 6363TIP3    H119053   1.040   6.693   5.498
 6363TIP3    H219054   1.047   6.653   5.352
 6364TIP3   OH219055   1.077   3.305   2.431
 6364TIP3    H119056   1.095   3.229   2.375
 6364TIP3    H219057   1.163   3.345   2.445
 6365TIP3   OH219058   6.872   3.326   3.385
 6365TIP3    H119059   6.933   3.397   3.364
 6365TIP3    H219060   6.868   3.325   3.480
 6366TIP3   OH219061   1.008   5.568   4.082
 6366TIP3    H119062   0.962   5.498   4.035
 6366TIP3    H219063   0.938   5.616   4.127
 6367TIP3   OH219064   2.969   6.335   4.568
 6367TIP3    H119065   2.955   6.395   4.641
 6367TIP3    H219066   2.937   6.251   4.599
 6368TIP3   OH219067   5.182   6.266   5.128
 6368TIP3    H119068   5.143   6.191   5.172
 6368TIP3    H219069   5.274   6.264   5.152
 6369TIP3   OH219070   1.354   2.883   4.820
 6369TIP3    H119071   1.383   2.927   4.899
 6369TIP3    H219072   1.309   2.952   4.770
 6370TIP3   OH219073   2.667   0.782   3.148
 6370TIP3    H119074   2.588   0.833   3.166
 6370TIP3    H219075   2.703   0.820   3.068
 6371TIP3   OH219076   2.392   5.211   1.291
 6371TIP3    H119077   2.322   5.206   1.356
 6371TIP3    H219078   2.454   5.275   1.327
 6372TIP3   OH219079   7.227   2.757   4.180
 6372TIP3    H119080   7.306   2.718   4.219
 6372TIP3    H219081   7.170   2.683   4.163
 6373TIP3   OH219082   2.377   6.652   1.883
 6373TIP3    H119083   2.392   6.704   1.961
 6373TIP3    H219084   2.464   6.637   1.846
 6374TIP3   OH219085   2.614   1.450   2.711
 6374TIP3    H119086   2.635   1.533   2.668
 6374TIP3    H219087   2.699   1.407   2.722
 6375TIP3   OH219088   1.503   3.675   1.495
 6375TIP3    H119089   1.414   3.708   1.477
 6375TIP3    H219090   1.551   3.692   1.414
 6376TIP3   OH219091   2.133   6.549   0.147
 6376TIP3    H119092   2.112   6.558   0.240
 6376TIP3    H219093   2.149   6.639   0.117
 6377TIP3   OH219094   6.525   3.420   0.635
 6377TIP3    H119095   6.577   3.499   0.619
 6377TIP3    H219096   6.471   3.442   0.710
 6378TIP3   OH219097   5.547   2.364   2.269
 6378TIP3    H119098   5.521   2.296   2.207
 6378TIP3    H219099   5.526   2.447   2.225
 6379TIP3   OH219100   2.895   6.407   2.034
 6379TIP3    H119101   2.853   6.484   2.072
 6379TIP3    H219102   2.858   6.401   1.946
 6380TIP3   OH219103   5.276   1.849   4.452
 6380TIP3    H119104   5.198   1.851   4.398
 6380TIP3    H219105   5.243   1.848   4.542
 6381TIP3   OH219106   4.452   5.207   2.806
 6381TIP3    H119107   4.472   5.301   2.807
 6381TIP3    H219108   4.365   5.200   2.844
 6382TIP3   OH219109   2.040   4.396   3.388
 6382TIP3    H119110   1.946   4.382   3.381
 6382TIP3    H219111   2.058   4.469   3.329
 6383TIP3   OH219112   5.157   3.545   2.285
 6383TIP3    H119113   5.247   3.514   2.289
 6383TIP3    H219114   5.149   3.584   2.198
 6384TIP3   OH219115   1.232   2.173   0.039
 6384TIP3    H119116   1.325   2.150   0.039
 6384TIP3    H219117   1.187   2.089   0.040
 6385TIP3   OH219118   4.414   1.523   5.591
 6385TIP3    H119119   4.349   1.504   5.658
 6385TIP3    H219120   4.498   1.524   5.638
 6386TIP3   OH219121   0.638   1.995   2.744
 6386TIP3    H119122   0.671   2.081   2.719
 6386TIP3    H219123   0.560   2.014   2.796
 6387TIP3   OH219124   4.586   0.343   0.242
 6387TIP3    H119125   4.577   0.381   0.329
 6387TIP3    H219126   4.655   0.394   0.201
 6388TIP3   OH219127   6.261   0.182   5.325
 6388TIP3    H119128   6.228   0.151   5.241
 6388TIP3    H219129   6.208   0.137   5.390
 6389TIP3   OH219130   3.542   3.384   4.972
 6389TIP3    H119131   3.509   3.327   4.903
 6389TIP3    H219132   3.610   3.436   4.929
 6390TIP3   OH219133   0.094   1.940   3.240
 6390TIP3    H119134   0.168   1.905   3.190
 6390TIP3    H219135   0.035   1.976   3.174
 6391TIP3   OH219136   0.477   2.176   4.331
 6391TIP3    H119137   0.493   2.148   4.241
 6391TIP3    H219138   0.486   2.272   4.328
 6392TIP3   OH219139   0.829   4.011   2.175
 6392TIP3    H119140   0.791   4.000   2.088
 6392TIP3    H219141   0.851   4.104   2.180
 6393TIP3   OH219142   5.714   5.208   2.047
 6393TIP3    H119143   5.725   5.303   2.047
 6393TIP3    H219144   5.774   5.176   2.114
 6394TIP3   OH219145   4.093   6.349   5.586
 6394TIP3    H119146   4.101   6.365   5.492
 6394TIP3    H219147   4.035   6.418   5.617
 6395TIP3   OH219148   0.717   5.420   4.409
 6395TIP3    H119149   0.720   5.357   4.481
 6395TIP3    H219150   0.771   5.379   4.341
 6396TIP3   OH219151   1.912   2.196   3.173
 6396TIP3    H119152   1.881   2.107   3.187
 6396TIP3    H219153   1.905   2.238   3.259
 6397TIP3   OH219154   4.460   5.721   4.642
 6397TIP3    H119155   4.422   5.639   4.610
 6397TIP3    H219156   4.383   5.776   4.661
 6398TIP3   OH219157   0.612   1.010   3.308
 6398TIP3    H119158   0.536   1.064   3.329
 6398TIP3    H219159   0.664   1.009   3.388
 6399TIP3   OH219160   0.552   1.189   0.726
 6399TIP3    H119161   0.510   1.248   0.788
 6399TIP3    H219162   0.609   1.246   0.674
 6400TIP3   OH219163   2.290   1.645   5.540
 6400TIP3    H119164   2.307   1.566   5.489
 6400TIP3    H219165   2.211   1.682   5.502
 6401TIP3   OH219166   6.804   2.971   5.429
 6401TIP3    H119167   6.759   2.946   5.347
 6401TIP3    H219168   6.836   2.888   5.464
 6402TIP3   OH219169   6.289   4.456   4.087
 6402TIP3    H119170   6.272   4.372   4.043
 6402TIP3    H219171   6.225   4.516   4.048
 6403TIP3   OH219172   1.267   3.860   5.837
 6403TIP3    H119173   1.273   3.790   5.772
 6403TIP3    H219174   1.185   3.905   5.817
 6404TIP3   OH219175   2.386   5.268   5.817
 6404TIP3    H119176   2.397   5.334   5.886
 6404TIP3    H219177   2.292   5.266   5.801
 6405TIP3   OH219178   6.618   2.729   3.491
 6405TIP3    H119179   6.690   2.738   3.553
 6405TIP3    H219180   6.584   2.641   3.506
 6406TIP3   OH219181   4.539   1.913   2.416
 6406TIP3    H119182   4.480   1.867   2.356
 6406TIP3    H219183   4.557   1.997   2.374
 6407TIP3   OH219184   3.828   5.586   1.742
 6407TIP3    H119185   3.751   5.602   1.796
 6407TIP3    H219186   3.902   5.616   1.795
 6408TIP3   OH219187   2.569   0.026   3.464
 6408TIP3    H119188   2.559  -0.069   3.459
 6408TIP3    H219189   2.653   0.039   3.507
 6409TIP3   OH219190   5.596   3.929   4.657
 6409TIP3    H119191   5.535   3.905   4.727
 6409TIP3    H219192   5.542   3.934   4.579
 6410TIP3   OH219193   3.057   1.405   3.537
 6410TIP3    H119194   3.100   1.418   3.622
 6410TIP3    H219195   3.111   1.454   3.475
 6411TIP3   OH219196   0.845   5.999   2.453
 6411TIP3    H119197   0.832   6.085   2.413
 6411TIP3    H219198   0.820   5.937   2.384
 6412TIP3   OH219199   6.759   0.439   5.823
 6412TIP3    H119200   6.787   0.381   5.753
 6412TIP3    H219201   6.827   0.431   5.890
 6413TIP3   OH219202   1.286   0.652   2.059
 6413TIP3    H119203   1.358   0.623   2.003
 6413TIP3    H219204   1.313   0.627   2.147
 6414TIP3   OH219205   4.504   1.633   1.279
 6414TIP3    H119206   4.508   1.656   1.371
 6414TIP3    H219207   4.511   1.716   1.233
 6415TIP3   OH219208   0.685   6.460   2.563
 6415TIP3    H119209   0.758   6.419   2.610
 6415TIP3    H219210   0.632   6.386   2.533
 6416TIP3   OH219211   5.118   4.277   2.069
 6416TIP3    H119212   5.135   4.296   1.977
 6416TIP3    H219213   5.043   4.332   2.091
 6417TIP3   OH219214   2.039   6.728   4.023
 6417TIP3    H119215   2.019   6.770   3.940
 6417TIP3    H219216   1.961   6.677   4.044
 6418TIP3   OH219217   2.427   1.437   1.979
 6418TIP3    H119218   2.447   1.530   1.971
 6418TIP3    H219219   2.352   1.433   2.037
 6419TIP3   OH219220   6.703   0.056   4.340
 6419TIP3    H119221   6.784   0.014   4.371
 6419TIP3    H219222   6.646  -0.018   4.317
 6420TIP3   OH219223   6.576   6.715   0.752
 6420TIP3    H119224   6.613   6.740   0.668
 6420TIP3    H219225   6.651   6.699   0.808
 6421TIP3   OH219226   1.676   0.032   5.854
 6421TIP3    H119227   1.620   0.020   5.930
 6421TIP3    H219228   1.659   0.122   5.826
 6422TIP3   OH219229   0.818   4.841   1.209
 6422TIP3    H119230   0.766   4.816   1.286
 6422TIP3    H219231   0.873   4.765   1.191
 6423TIP3   OH219232   0.601   6.054   4.147
 6423TIP3    H119233   0.663   5.984   4.168
 6423TIP3    H219234   0.574   6.035   4.057
 6424TIP3   OH219235   2.214   0.439   3.537
 6424TIP3    H119236   2.260   0.364   3.498
 6424TIP3    H219237   2.128   0.439   3.493
 6425TIP3   OH219238   6.530   4.551   1.473
 6425TIP3    H119239   6.624   4.549   1.494
 6425TIP3    H219240   6.512   4.466   1.434
 6426TIP3   OH219241   2.578   0.410   3.980
 6426TIP3    H119242   2.625   0.469   3.921
 6426TIP3    H219243   2.511   0.369   3.925
 6427TIP3   OH219244   5.405   3.659   5.098
 6427TIP3    H119245   5.323   3.612   5.082
 6427TIP3    H219246   5.444   3.616   5.174
 6428TIP3   OH219247   1.120   5.844   5.064
 6428TIP3    H119248   1.102   5.751   5.074
 6428TIP3    H219249   1.186   5.849   4.995
 6429TIP3   OH219250   7.046   5.267   2.444
 6429TIP3    H119251   6.953   5.255   2.463
 6429TIP3    H219252   7.088   5.271   2.531
 6430TIP3   OH219253   5.302   2.604   0.675
 6430TIP3    H119254   5.302   2.510   0.691
 6430TIP3    H219255   5.394   2.628   0.672
 6431TIP3   OH219256   4.325   5.253   4.759
 6431TIP3    H119257   4.336   5.177   4.816
 6431TIP3    H219258   4.276   5.316   4.813
 6432TIP3   OH219259   1.926   2.001   0.622
 6432TIP3    H119260   1.956   2.091   0.612
 6432TIP3    H219261   1.843   2.009   0.669
 6433TIP3   OH219262   4.735   6.045   5.404
 6433TIP3    H119263   4.797   6.036   5.477
 6433TIP3    H219264   4.769   5.986   5.337
 6434TIP3   OH219265   0.782   2.199   1.221
 6434TIP3    H119266   0.782   2.138   1.147
 6434TIP3    H219267   0.861   2.177   1.271
 6435TIP3   OH219268   3.902   4.705   1.212
 6435TIP3    H119269   3.896   4.776   1.276
 6435TIP3    H219270   3.831   4.645   1.237
 6436TIP3   OH219271   1.045   1.374   4.947
 6436TIP3    H119272   0.956   1.339   4.960
 6436TIP3    H219273   1.058   1.432   5.022
 6437TIP3   OH219274   4.689   2.979   4.990
 6437TIP3    H119275   4.719   2.893   4.960
 6437TIP3    H219276   4.624   2.959   5.058
 6438TIP3   OH219277   3.344   0.434   4.470
 6438TIP3    H119278   3.276   0.415   4.405
 6438TIP3    H219279   3.377   0.348   4.496
 6439TIP3   OH219280   5.102   0.999   4.939
 6439TIP3    H119281   5.049   1.007   4.860
 6439TIP3    H219282   5.165   1.071   4.933
 6440TIP3   OH219283   0.380   0.311   2.403
 6440TIP3    H119284   0.366   0.222   2.370
 6440TIP3    H219285   0.342   0.367   2.335
 6441TIP3   OH219286   2.549   2.658   2.376
 6441TIP3    H119287   2.518   2.661   2.467
 6441TIP3    H219288   2.644   2.649   2.383
 6442TIP3   OH219289   4.869   5.167   1.661
 6442TIP3    H119290   4.944   5.158   1.602
 6442TIP3    H219291   4.892   5.242   1.717
 6443TIP3   OH219292   4.371   0.410   3.077
 6443TIP3    H119293   4.348   0.332   3.128
 6443TIP3    H219294   4.417   0.467   3.140
 6444TIP3   OH219295   2.672   1.048   0.572
 6444TIP3    H119296   2.603   1.020   0.513
 6444TIP3    H219297   2.634   1.121   0.621
 6445TIP3   OH219298   5.089   4.009   1.988
 6445TIP3    H119299   5.120   4.093   2.023
 6445TIP3    H219300   5.043   3.968   2.061
 6446TIP3   OH219301   1.494   0.384   1.626
 6446TIP3    H119302   1.553   0.446   1.584
 6446TIP3    H219303   1.411   0.394   1.579
 6447TIP3   OH219304   5.647   4.541   4.220
 6447TIP3    H119305   5.614   4.626   4.190
 6447TIP3    H219306   5.635   4.483   4.146
 6448TIP3   OH219307   7.092   2.012   5.231
 6448TIP3    H119308   7.070   1.928   5.191
 6448TIP3    H219309   7.008   2.051   5.253
 6449TIP3   OH219310   1.876   2.071   5.422
 6449TIP3    H119311   1.967   2.068   5.452
 6449TIP3    H219312   1.882   2.081   5.327
 6450TIP3   OH219313   4.074   3.558   4.190
 6450TIP3    H119314   4.108   3.623   4.129
 6450TIP3    H219315   3.984   3.543   4.162
 6451TIP3   OH219316   5.825   2.334   4.725
 6451TIP3    H119317   5.738   2.331   4.686
 6451TIP3    H219318   5.843   2.244   4.753
 6452TIP3   OH219319   4.373   5.338   5.478
 6452TIP3    H119320   4.380   5.331   5.382
 6452TIP3    H219321   4.357   5.248   5.507
 6453TIP3   OH219322   4.603   4.627   4.975
 6453TIP3    H119323   4.582   4.677   5.054
 6453TIP3    H219324   4.536   4.560   4.971
 6454TIP3   OH219325   0.790   4.532   0.954
 6454TIP3    H119326   0.851   4.500   0.888
 6454TIP3    H219327   0.762   4.617   0.921
 6455TIP3   OH219328   3.508   3.922   1.685
 6455TIP3    H119329   3.520   3.945   1.777
 6455TIP3    H219330   3.447   3.848   1.686
 6456TIP3   OH219331   5.983   2.901   5.089
 6456TIP3    H119332   5.982   2.874   4.997
 6456TIP3    H219333   5.983   2.997   5.086
 6457TIP3   OH219334   3.683   3.619   0.956
 6457TIP3    H119335   3.747   3.680   0.992
 6457TIP3    H219336   3.641   3.667   0.885
 6458TIP3   OH219337   6.314   4.598   0.372
 6458TIP3    H119338   6.239   4.640   0.413
 6458TIP3    H219339   6.279   4.518   0.333
 6459TIP3   OH219340   3.665   1.541   1.671
 6459TIP3    H119341   3.597   1.605   1.693
 6459TIP3    H219342   3.746   1.592   1.672
 6460TIP3   OH219343   4.721   3.577   4.739
 6460TIP3    H119344   4.662   3.518   4.693
 6460TIP3    H219345   4.662   3.639   4.783
 6461TIP3   OH219346   5.571   0.214   3.026
 6461TIP3    H119347   5.513   0.202   3.102
 6461TIP3    H219348   5.517   0.261   2.962
 6462TIP3   OH219349   2.002   4.196   1.145
 6462TIP3    H119350   2.096   4.194   1.125
 6462TIP3    H219351   1.994   4.257   1.218
 6463TIP3   OH219352   0.961   3.532   2.288
 6463TIP3    H119353   0.974   3.445   2.326
 6463TIP3    H219354   0.883   3.523   2.234
 6464TIP3   OH219355   3.824   3.216   0.146
 6464TIP3    H119356   3.732   3.234   0.126
 6464TIP3    H219357   3.854   3.293   0.193
 6465TIP3   OH219358   0.458   6.210   2.049
 6465TIP3    H119359   0.369   6.176   2.058
 6465TIP3    H219360   0.454   6.298   2.086
 6466TIP3   OH219361   6.730   0.125   1.618
 6466TIP3    H119362   6.659   0.147   1.559
 6466TIP3    H219363   6.739   0.030   1.611
 6467TIP3   OH219364   4.033   4.857   3.938
 6467TIP3    H119365   4.088   4.814   3.872
 6467TIP3    H219366   4.008   4.940   3.898
 6468TIP3   OH219367   5.956   2.966   5.781
 6468TIP3    H119368   6.049   2.988   5.786
 6468TIP3    H219369   5.926   3.008   5.701
 6469TIP3   OH219370   5.416   1.062   0.733
 6469TIP3    H119371   5.493   1.110   0.702
 6469TIP3    H219372   5.391   1.107   0.814
 6470TIP3   OH219373   1.438   0.682   5.020
 6470TIP3    H119374   1.403   0.706   5.106
 6470TIP3    H219375   1.461   0.766   4.980
 6471TIP3   OH219376   4.704  -0.005   2.104
 6471TIP3    H119377   4.652   0.071   2.079
 6471TIP3    H219378   4.702  -0.005   2.200
 6472TIP3   OH219379   4.336   5.690   1.663
 6472TIP3    H119380   4.352   5.599   1.688
 6472TIP3    H219381   4.319   5.686   1.569
 6473TIP3   OH219382   6.815   5.415   1.112
 6473TIP3    H119383   6.773   5.330   1.103
 6473TIP3    H219384   6.899   5.406   1.067
 6474TIP3   OH219385   1.292   6.433   4.600
 6474TIP3    H119386   1.228   6.429   4.671
 6474TIP3    H219387   1.377   6.438   4.644
 6475TIP3   OH219388   1.441   5.724   5.150
 6475TIP3    H119389   1.410   5.815   5.157
 6475TIP3    H219390   1.530   5.727   5.187
 6476TIP3   OH219391   6.885   1.704   0.615
 6476TIP3    H119392   6.917   1.760   0.544
 6476TIP3    H219393   6.856   1.624   0.572
 6477TIP3   OH219394   0.365   4.087   2.827
 6477TIP3    H119395   0.397   3.997   2.826
 6477TIP3    H219396   0.362   4.109   2.921
 6478TIP3   OH219397   3.227   0.440   0.147
 6478TIP3    H119398   3.203   0.527   0.179
 6478TIP3    H219399   3.320   0.448   0.125
 6479TIP3   OH219400   5.503   4.818   0.450
 6479TIP3    H119401   5.446   4.755   0.496
 6479TIP3    H219402   5.503   4.896   0.506
 6480TIP3   OH219403   6.804   2.645   4.337
 6480TIP3    H119404   6.724   2.665   4.386
 6480TIP3    H219405   6.797   2.552   4.317
 6481TIP3   OH219406   1.763   1.362   2.858
 6481TIP3    H119407   1.712   1.427   2.906
 6481TIP3    H219408   1.751   1.280   2.906
 6482TIP3   OH219409   3.309   4.452   4.887
 6482TIP3    H119410   3.399   4.423   4.872
 6482TIP3    H219411   3.256   4.395   4.831
 6483TIP3   OH219412   1.609   1.816   1.233
 6483TIP3    H119413   1.632   1.902   1.267
 6483TIP3    H219414   1.542   1.784   1.293
 6484TIP3   OH219415   5.672   1.884   2.678
 6484TIP3    H119416   5.619   1.963   2.673
 6484TIP3    H219417   5.647   1.833   2.601
 6485TIP3   OH219418   1.948   5.203   1.154
 6485TIP3    H119419   1.924   5.293   1.172
 6485TIP3    H219420   1.980   5.204   1.064
 6486TIP3   OH219421   6.013   1.619   2.001
 6486TIP3    H119422   6.094   1.654   2.036
 6486TIP3    H219423   5.989   1.549   2.062
 6487TIP3   OH219424   3.343   0.393   3.770
 6487TIP3    H119425   3.393   0.347   3.703
 6487TIP3    H219426   3.310   0.324   3.828
 6488TIP3   OH219427   1.848   2.262   4.908
 6488TIP3    H119428   1.890   2.323   4.969
 6488TIP3    H219429   1.854   2.306   4.823
 6489TIP3   OH219430   0.736   1.463   2.166
 6489TIP3    H119431   0.748   1.407   2.243
 6489TIP3    H219432   0.690   1.407   2.103
 6490TIP3   OH219433   1.901   4.936   1.569
 6490TIP3    H119434   1.878   4.921   1.477
 6490TIP3    H219435   1.821   4.971   1.608
 6491TIP3   OH219436   4.543   3.959   0.107
 6491TIP3    H119437   4.473   3.909   0.147
 6491TIP3    H219438   4.623   3.930   0.152
 6492TIP3   OH219439   5.734   0.257   1.249
 6492TIP3    H119440   5.732   0.280   1.342
 6492TIP3    H219441   5.681   0.178   1.243
 6493TIP3   OH219442   4.493   4.386   5.276
 6493TIP3    H119443   4.544   4.307   5.259
 6493TIP3    H219444   4.463   4.375   5.367
 6494TIP3   OH219445   5.436   3.330   1.097
 6494TIP3    H119446   5.384   3.300   1.171
 6494TIP3    H219447   5.431   3.259   1.034
 6495TIP3   OH219448   6.816   0.427   2.837
 6495TIP3    H119449   6.752   0.475   2.889
 6495TIP3    H219450   6.894   0.482   2.836
 6496TIP3   OH219451   4.918   4.352   3.888
 6496TIP3    H119452   4.847   4.410   3.914
 6496TIP3    H219453   4.876   4.281   3.840
 6497TIP3   OH219454   3.182   3.505   3.741
 6497TIP3    H119455   3.235   3.429   3.715
 6497TIP3    H219456   3.223   3.579   3.698
 6498TIP3   OH219457   6.790   1.895   3.770
 6498TIP3    H119458   6.809   1.817   3.823
 6498TIP3    H219459   6.696   1.909   3.780
 6499TIP3   OH219460   2.928   4.490   0.275
 6499TIP3    H119461   2.972   4.556   0.220
 6499TIP3    H219462   2.876   4.439   0.214
 6500TIP3   OH219463   4.710   3.505   3.244
 6500TIP3    H119464   4.634   3.515   3.187
 6500TIP3    H219465   4.736   3.595   3.264
 6501TIP3   OH219466   1.389   2.428   3.587
 6501TIP3    H119467   1.480   2.422   3.561
 6501TIP3    H219468   1.339   2.413   3.507
 6502TIP3   OH219469   2.089   5.065   0.699
 6502TIP3    H119470   2.015   5.008   0.677
 6502TIP3    H219471   2.156   5.004   0.732
 6503TIP3   OH219472   2.373   4.048   5.088
 6503TIP3    H119473   2.417   4.081   5.010
 6503TIP3    H219474   2.398   4.109   5.157
 6504TIP3   OH219475   4.487   3.144   4.889
 6504TIP3    H119476   4.424   3.076   4.865
 6504TIP3    H219477   4.571   3.099   4.891
 6505TIP3   OH219478   4.688   4.457   4.200
 6505TIP3    H119479   4.777   4.434   4.227
 6505TIP3    H219480   4.638   4.460   4.282
 6506TIP3   OH219481   2.758   2.874   2.255
 6506TIP3    H119482   2.757   2.919   2.339
 6506TIP3    H219483   2.741   2.782   2.275
 6507TIP3   OH219484   3.660   6.323   1.160
 6507TIP3    H119485   3.734   6.383   1.159
 6507TIP3    H219486   3.697   6.238   1.139
 6508TIP3   OH219487   4.127   4.192   3.543
 6508TIP3    H119488   4.186   4.187   3.468
 6508TIP3    H219489   4.088   4.279   3.537
 6509TIP3   OH219490   1.879   5.389   3.937
 6509TIP3    H119491   1.876   5.299   3.906
 6509TIP3    H219492   1.955   5.427   3.892
 6510TIP3   OH219493   5.976   5.528   5.810
 6510TIP3    H119494   5.919   5.595   5.846
 6510TIP3    H219495   6.024   5.493   5.885
 6511TIP3   OH219496   6.999   5.031   2.727
 6511TIP3    H119497   6.955   5.007   2.645
 6511TIP3    H219498   6.933   5.080   2.776
 6512TIP3   OH219499   5.767   6.061   4.824
 6512TIP3    H119500   5.675   6.076   4.846
 6512TIP3    H219501   5.783   5.970   4.848
 6513TIP3   OH219502   3.594   1.492   5.407
 6513TIP3    H119503   3.610   1.464   5.317
 6513TIP3    H219504   3.502   1.517   5.409
 6514TIP3   OH219505   3.406   0.925   5.406
 6514TIP3    H119506   3.437   0.844   5.366
 6514TIP3    H219507   3.382   0.981   5.332
 6515TIP3   OH219508   2.867   5.828   4.549
 6515TIP3    H119509   2.949   5.783   4.569
 6515TIP3    H219510   2.838   5.789   4.466
 6516TIP3   OH219511   2.337   2.484   1.695
 6516TIP3    H119512   2.414   2.526   1.657
 6516TIP3    H219513   2.269   2.493   1.628
 6517TIP3   OH219514   6.880   0.414   0.326
 6517TIP3    H119515   6.809   0.363   0.365
 6517TIP3    H219516   6.836   0.486   0.281
 6518TIP3   OH219517   1.692   2.417   1.838
 6518TIP3    H119518   1.683   2.323   1.852
 6518TIP3    H219519   1.772   2.426   1.786
 6519TIP3   OH219520   3.052   6.663   3.348
 6519TIP3    H119521   3.130   6.698   3.303
 6519TIP3    H219522   3.048   6.713   3.430
 6520TIP3   OH219523   4.197   5.792   3.062
 6520TIP3    H119524   4.175   5.884   3.046
 6520TIP3    H219525   4.246   5.792   3.144
 6521TIP3   OH219526   3.435   0.695   5.243
 6521TIP3    H119527   3.428   0.703   5.148
 6521TIP3    H219528   3.350   0.661   5.271
 6522TIP3   OH219529   4.821   1.118   1.643
 6522TIP3    H119530   4.824   1.207   1.607
 6522TIP3    H219531   4.894   1.115   1.704
 6523TIP3   OH219532   0.462   4.070   0.539
 6523TIP3    H119533   0.505   4.111   0.615
 6523TIP3    H219534   0.429   3.986   0.573
 6524TIP3   OH219535   4.118   4.755   1.730
 6524TIP3    H119536   4.104   4.759   1.635
 6524TIP3    H219537   4.049   4.698   1.762
 6525TIP3   OH219538   6.183   3.197   3.683
 6525TIP3    H119539   6.199   3.179   3.591
 6525TIP3    H219540   6.217   3.121   3.730
 6526TIP3   OH219541   1.388   5.588   0.923
 6526TIP3    H119542   1.371   5.532   0.847
 6526TIP3    H219543   1.320   5.655   0.919
 6527TIP3   OH219544   3.564   5.959   4.579
 6527TIP3    H119545   3.549   5.993   4.491
 6527TIP3    H219546   3.499   5.889   4.589
 6528TIP3   OH219547   4.030   5.082   0.148
 6528TIP3    H119548   3.994   5.167   0.123
 6528TIP3    H219549   4.120   5.101   0.174
 6529TIP3   OH219550   0.655   2.869   4.512
 6529TIP3    H119551   0.650   2.858   4.417
 6529TIP3    H219552   0.738   2.915   4.526
 6530TIP3   OH219553   4.612   2.405   5.698
 6530TIP3    H119554   4.558   2.481   5.721
 6530TIP3    H219555   4.607   2.400   5.603
 6531TIP3   OH219556   4.881   0.220   2.608
 6531TIP3    H119557   4.884   0.128   2.633
 6531TIP3    H219558   4.825   0.262   2.673
 6532TIP3   OH219559   5.781   1.553   5.290
 6532TIP3    H119560   5.731   1.554   5.371
 6532TIP3    H219561   5.855   1.612   5.307
 6533TIP3   OH219562   2.765   2.578   4.684
 6533TIP3    H119563   2.808   2.618   4.608
 6533TIP3    H219564   2.780   2.484   4.674
 6534TIP3   OH219565   3.185   0.856   1.910
 6534TIP3    H119566   3.134   0.908   1.847
 6534TIP3    H219567   3.120   0.799   1.951
 6535TIP3   OH219568   2.538   5.299   4.697
 6535TIP3    H119569   2.515   5.335   4.611
 6535TIP3    H219570   2.628   5.270   4.688
 6536TIP3   OH219571   5.810   2.037   1.323
 6536TIP3    H119572   5.725   2.078   1.311
 6536TIP3    H219573   5.873   2.101   1.290
 6537TIP3   OH219574   6.189   1.900   3.650
 6537TIP3    H119575   6.109   1.851   3.666
 6537TIP3    H219576   6.174   1.945   3.567
 6538TIP3   OH219577   0.773   2.579   5.235
 6538TIP3    H119578   0.686   2.618   5.225
 6538TIP3    H219579   0.790   2.582   5.329
 6539TIP3   OH219580   3.344   0.202   4.070
 6539TIP3    H119581   3.281   0.149   4.021
 6539TIP3    H219582   3.427   0.186   4.026
 6540TIP3   OH219583   4.039   2.896   2.409
 6540TIP3    H119584   4.059   2.814   2.454
 6540TIP3    H219585   4.054   2.964   2.475
 6541TIP3   OH219586   7.127   1.268   3.547
 6541TIP3    H119587   7.112   1.351   3.501
 6541TIP3    H219588   7.109   1.289   3.639
 6542TIP3   OH219589   2.980   2.221   5.046
 6542TIP3    H119590   2.941   2.209   5.133
 6542TIP3    H219591   3.043   2.292   5.058
 6543TIP3   OH219592   0.167   5.436   3.509
 6543TIP3    H119593   0.200   5.394   3.589
 6543TIP3    H219594   0.132   5.363   3.456
 6544TIP3   OH219595   2.339   1.965   2.642
 6544TIP3    H119596   2.350   2.027   2.715
 6544TIP3    H219597   2.386   2.005   2.569
 6545TIP3   OH219598   6.558   3.394   1.496
 6545TIP3    H119599   6.503   3.470   1.515
 6545TIP3    H219600   6.502   3.319   1.516
 6546TIP3   OH219601   0.009   2.375   5.447
 6546TIP3    H119602   0.019   2.280   5.450
 6546TIP3    H219603   0.036   2.400   5.359
 6547TIP3   OH219604   7.081   4.711   5.356
 6547TIP3    H119605   7.144   4.684   5.423
 6547TIP3    H219606   7.062   4.803   5.377
 6548TIP3   OH219607   2.626   6.429   3.726
 6548TIP3    H119608   2.702   6.446   3.781
 6548TIP3    H219609   2.609   6.512   3.682
 6549TIP3   OH219610   3.993   3.582   0.526
 6549TIP3    H119611   3.920   3.526   0.554
 6549TIP3    H219612   3.981   3.663   0.575
 6550TIP3   OH219613   6.418   4.422   0.051
 6550TIP3    H119614   6.435   4.407   0.144
 6550TIP3    H219615   6.348   4.361   0.029
 6551TIP3   OH219616   6.943   1.803   1.788
 6551TIP3    H119617   7.017   1.776   1.841
 6551TIP3    H219618   6.929   1.895   1.810
 6552TIP3   OH219619   1.232   0.593   4.844
 6552TIP3    H119620   1.276   0.632   4.919
 6552TIP3    H219621   1.287   0.617   4.769
 6553TIP3   OH219622   2.484   4.279   1.881
 6553TIP3    H119623   2.427   4.355   1.876
 6553TIP3    H219624   2.539   4.285   1.803
 6554TIP3   OH219625   5.213   3.379   5.365
 6554TIP3    H119626   5.140   3.322   5.341
 6554TIP3    H219627   5.176   3.467   5.364
 6555TIP3   OH219628   2.990   0.134   2.369
 6555TIP3    H119629   3.028   0.205   2.422
 6555TIP3    H219630   2.899   0.129   2.398
 6556TIP3   OH219631   2.272   4.160   1.165
 6556TIP3    H119632   2.322   4.089   1.125
 6556TIP3    H219633   2.314   4.174   1.250
 6557TIP3   OH219634   1.446   4.163   2.942
 6557TIP3    H119635   1.537   4.182   2.966
 6557TIP3    H219636   1.451   4.130   2.852
 6558TIP3   OH219637   0.156   0.923   2.126
 6558TIP3    H119638   0.177   0.887   2.212
 6558TIP3    H219639   0.077   0.875   2.098
 6559TIP3   OH219640   0.121   4.659   3.407
 6559TIP3    H119641   0.167   4.618   3.480
 6559TIP3    H219642   0.187   4.717   3.367
 6560TIP3   OH219643   1.806   1.519   0.174
 6560TIP3    H119644   1.872   1.497   0.240
 6560TIP3    H219645   1.725   1.528   0.225
 6561TIP3   OH219646   1.995   4.212   0.150
 6561TIP3    H119647   1.949   4.163   0.219
 6561TIP3    H219648   2.072   4.159   0.131
 6562TIP3   OH219649   6.035   2.817   3.095
 6562TIP3    H119650   6.091   2.849   3.025
 6562TIP3    H219651   6.010   2.895   3.145
 6563TIP3   OH219652   0.769   1.379   5.209
 6563TIP3    H119653   0.831   1.436   5.165
 6563TIP3    H219654   0.700   1.438   5.240
 6564TIP3   OH219655   2.557   4.999   1.225
 6564TIP3    H119656   2.612   5.025   1.152
 6564TIP3    H219657   2.506   5.078   1.246
 6565TIP3   OH219658   1.381   2.123   3.305
 6565TIP3    H119659   1.310   2.181   3.278
 6565TIP3    H219660   1.436   2.177   3.362
 6566TIP3   OH219661   4.253   5.971   1.166
 6566TIP3    H119662   4.282   6.059   1.190
 6566TIP3    H219663   4.174   5.958   1.218
 6567TIP3   OH219664   0.315   4.882   3.735
 6567TIP3    H119665   0.345   4.815   3.797
 6567TIP3    H219666   0.235   4.916   3.773
 6568TIP3   OH219667   0.251   2.249   3.030
 6568TIP3    H119668   0.156   2.240   3.040
 6568TIP3    H219669   0.262   2.330   2.980
 6569TIP3   OH219670   2.393   0.327   2.248
 6569TIP3    H119671   2.417   0.284   2.165
 6569TIP3    H219672   2.406   0.421   2.231
 6570TIP3   OH219673   4.104   5.060   4.913
 6570TIP3    H119674   4.109   5.156   4.913
 6570TIP3    H219675   4.116   5.035   4.822
 6571TIP3   OH219676   7.065   5.737   0.273
 6571TIP3    H119677   7.023   5.652   0.257
 6571TIP3    H219678   7.156   5.724   0.246
 6572TIP3   OH219679   4.806   2.808   5.267
 6572TIP3    H119680   4.762   2.752   5.204
 6572TIP3    H219681   4.790   2.766   5.352
 6573TIP3   OH219682   2.474   5.030   3.297
 6573TIP3    H119683   2.402   4.968   3.310
 6573TIP3    H219684   2.553   4.976   3.301
 6574TIP3   OH219685   3.726   5.401   4.916
 6574TIP3    H119686   3.633   5.388   4.901
 6574TIP3    H219687   3.731   5.475   4.977
 6575TIP3   OH219688   6.495   5.486   0.303
 6575TIP3    H119689   6.476   5.416   0.365
 6575TIP3    H219690   6.550   5.548   0.352
 6576TIP3   OH219691   0.793   0.980   0.304
 6576TIP3    H119692   0.704   1.016   0.302
 6576TIP3    H219693   0.781   0.888   0.278
 6577TIP3   OH219694   2.886   2.697   3.522
 6577TIP3    H119695   2.908   2.790   3.529
 6577TIP3    H219696   2.970   2.652   3.530
 6578TIP3   OH219697   2.308   4.645   0.992
 6578TIP3    H119698   2.296   4.553   0.969
 6578TIP3    H219699   2.353   4.643   1.077
 6579TIP3   OH219700   3.357   1.306   2.678
 6579TIP3    H119701   3.290   1.343   2.620
 6579TIP3    H219702   3.369   1.372   2.746
 6580TIP3   OH219703   1.512   6.453   0.370
 6580TIP3    H119704   1.593   6.403   0.376
 6580TIP3    H219705   1.446   6.398   0.412
 6581TIP3   OH219706   3.529   5.449   3.947
 6581TIP3    H119707   3.481   5.477   3.869
 6581TIP3    H219708   3.521   5.353   3.946
 6582TIP3   OH219709   5.907   2.810   4.817
 6582TIP3    H119710   5.951   2.725   4.815
 6582TIP3    H219711   5.920   2.846   4.730
 6583TIP3   OH219712   1.591   0.098   0.758
 6583TIP3    H119713   1.669   0.044   0.749
 6583TIP3    H219714   1.616   0.164   0.824
 6584TIP3   OH219715   4.945   4.218   3.201
 6584TIP3    H119716   4.885   4.291   3.213
 6584TIP3    H219717   4.918   4.153   3.266
 6585TIP3   OH219718   3.429   5.541   3.639
 6585TIP3    H119719   3.423   5.624   3.685
 6585TIP3    H219720   3.419   5.563   3.546
 6586TIP3   OH219721   0.355   2.111   1.365
 6586TIP3    H119722   0.430   2.119   1.307
 6586TIP3    H219723   0.311   2.196   1.360
 6587TIP3   OH219724   1.721   2.548   3.631
 6587TIP3    H119725   1.761   2.604   3.697
 6587TIP3    H219726   1.693   2.470   3.680
 6588TIP3   OH219727   1.887   2.718   4.392
 6588TIP3    H119728   1.960   2.656   4.390
 6588TIP3    H219729   1.810   2.666   4.373
 6589TIP3   OH219730   0.524   5.404   1.748
 6589TIP3    H119731   0.431   5.424   1.762
 6589TIP3    H219732   0.556   5.378   1.835
 6590TIP3   OH219733   5.053   2.491   5.217
 6590TIP3    H119734   5.032   2.559   5.281
 6590TIP3    H219735   5.015   2.523   5.135
 6591TIP3   OH219736   0.675   5.934   1.719
 6591TIP3    H119737   0.734   5.876   1.767
 6591TIP3    H219738   0.642   5.994   1.786
 6592TIP3   OH219739   4.859   6.724   0.938
 6592TIP3    H119740   4.885   6.802   0.888
 6592TIP3    H219741   4.842   6.756   1.026
 6593TIP3   OH219742   2.004   3.484   2.458
 6593TIP3    H119743   1.938   3.415   2.468
 6593TIP3    H219744   2.032   3.504   2.547
 6594TIP3   OH219745   1.984   1.694   4.861
 6594TIP3    H119746   2.072   1.664   4.883
 6594TIP3    H219747   1.941   1.618   4.822
 6595TIP3   OH219748   5.724   1.462   1.990
 6595TIP3    H119749   5.729   1.557   1.985
 6595TIP3    H219750   5.633   1.441   1.966
 6596TIP3   OH219751   3.274   2.626   5.347
 6596TIP3    H119752   3.357   2.613   5.301
 6596TIP3    H219753   3.290   2.591   5.435
 6597TIP3   OH219754   6.146   2.179   0.162
 6597TIP3    H119755   6.147   2.172   0.066
 6597TIP3    H219756   6.083   2.249   0.180
 6598TIP3   OH219757   5.013   4.680   4.816
 6598TIP3    H119758   5.034   4.592   4.850
 6598TIP3    H219759   5.097   4.715   4.786
 6599TIP3   OH219760   0.959   2.029   1.334
 6599TIP3    H119761   0.960   1.939   1.303
 6599TIP3    H219762   1.004   2.026   1.419
 6600TIP3   OH219763   4.841   4.519   3.292
 6600TIP3    H119764   4.798   4.555   3.214
 6600TIP3    H219765   4.793   4.559   3.365
 6601TIP3   OH219766   3.886   5.495   1.384
 6601TIP3    H119767   3.955   5.534   1.330
 6601TIP3    H219768   3.809   5.550   1.366
 6602TIP3   OH219769   5.346   4.039   0.696
 6602TIP3    H119770   5.373   4.081   0.778
 6602TIP3    H219771   5.375   3.949   0.705
 6603TIP3   OH219772   1.302   0.358   4.169
 6603TIP3    H119773   1.239   0.416   4.210
 6603TIP3    H219774   1.353   0.322   4.242
 6604TIP3   OH219775   0.397   4.465   2.207
 6604TIP3    H119776   0.451   4.496   2.134
 6604TIP3    H219777   0.325   4.529   2.213
 6605TIP3   OH219778   6.830   4.366   1.396
 6605TIP3    H119779   6.782   4.283   1.390
 6605TIP3    H219780   6.829   4.401   1.307
 6606TIP3   OH219781   1.975   4.314   3.052
 6606TIP3    H119782   2.039   4.264   3.103
 6606TIP3    H219783   2.008   4.312   2.963
 6607TIP3   OH219784   4.004   5.379   5.724
 6607TIP3    H119785   4.084   5.430   5.739
 6607TIP3    H219786   4.034   5.302   5.675
 6608TIP3   OH219787   5.031   0.431   3.727
 6608TIP3    H119788   5.003   0.379   3.802
 6608TIP3    H219789   5.114   0.469   3.754
 6609TIP3   OH219790   3.279   3.202   4.865
 6609TIP3    H119791   3.232   3.135   4.816
 6609TIP3    H219792   3.222   3.279   4.862
 6610TIP3   OH219793   1.089   3.117   2.248
 6610TIP3    H119794   1.109   3.028   2.278
 6610TIP3    H219795   0.994   3.118   2.237
 6611TIP3   OH219796   5.833   4.316   5.358
 6611TIP3    H119797   5.752   4.267   5.343
 6611TIP3    H219798   5.827   4.344   5.449
 6612TIP3   OH219799   4.455   5.344   5.184
 6612TIP3    H119800   4.536   5.293   5.178
 6612TIP3    H219801   4.484   5.429   5.219
 6613TIP3   OH219802   0.793   6.398  -0.015
 6613TIP3    H119803   0.736   6.398   0.062
 6613TIP3    H219804   0.867   6.453   0.011
 6614TIP3   OH219805   4.639   1.828   3.304
 6614TIP3    H119806   4.628   1.908   3.355
 6614TIP3    H219807   4.642   1.858   3.213
 6615TIP3   OH219808   4.091   5.433   2.102
 6615TIP3    H119809   4.003   5.396   2.112
 6615TIP3    H219810   4.143   5.362   2.066
 6616TIP3   OH219811   5.941   1.615   0.946
 6616TIP3    H119812   5.855   1.633   0.909
 6616TIP3    H219813   5.991   1.576   0.874
 6617TIP3   OH219814   7.136   0.798   5.018
 6617TIP3    H119815   7.201   0.729   5.028
 6617TIP3    H219816   7.167   0.869   5.074
 6618TIP3   OH219817   0.279   2.517   5.162
 6618TIP3    H119818   0.185   2.496   5.163
 6618TIP3    H219819   0.321   2.443   5.206
 6619TIP3   OH219820   5.682   5.273   0.333
 6619TIP3    H119821   5.659   5.255   0.242
 6619TIP3    H219822   5.764   5.225   0.347
 6620TIP3   OH219823   0.683   4.228   0.399
 6620TIP3    H119824   0.633   4.306   0.376
 6620TIP3    H219825   0.622   4.177   0.453
 6621TIP3   OH219826   6.353   5.012   3.957
 6621TIP3    H119827   6.321   5.020   3.868
 6621TIP3    H219828   6.383   5.100   3.980
 6622TIP3   OH219829   4.764   2.133   4.277
 6622TIP3    H119830   4.754   2.227   4.286
 6622TIP3    H219831   4.824   2.121   4.204
 6623TIP3   OH219832   2.169   3.191   0.856
 6623TIP3    H119833   2.082   3.225   0.836
 6623TIP3    H219834   2.224   3.268   0.864
 6624TIP3   OH219835   1.938   2.087   5.141
 6624TIP3    H119836   1.884   2.008   5.139
 6624TIP3    H219837   1.955   2.107   5.049
 6625TIP3   OH219838   2.355   4.722   5.055
 6625TIP3    H119839   2.355   4.671   5.136
 6625TIP3    H219840   2.270   4.766   5.054
 6626TIP3   OH219841   4.182   4.345   0.200
 6626TIP3    H119842   4.153   4.398   0.125
 6626TIP3    H219843   4.256   4.295   0.167
 6627TIP3   OH219844   6.721   4.784   3.022
 6627TIP3    H119845   6.749   4.769   3.113
 6627TIP3    H219846   6.626   4.797   3.029
 6628TIP3   OH219847   4.407   3.611   3.145
 6628TIP3    H119848   4.335   3.672   3.125
 6628TIP3    H219849   4.412   3.555   3.068
 6629TIP3   OH219850   2.340   4.161   4.192
 6629TIP3    H119851   2.431   4.145   4.168
 6629TIP3    H219852   2.295   4.173   4.108
 6630TIP3   OH219853   6.070   1.454   0.477
 6630TIP3    H119854   6.063   1.432   0.570
 6630TIP3    H219855   6.098   1.545   0.476
 6631TIP3   OH219856   1.738   0.757   0.979
 6631TIP3    H119857   1.693   0.676   0.955
 6631TIP3    H219858   1.674   0.805   1.032
 6632TIP3   OH219859   0.452   3.290   2.829
 6632TIP3    H119860   0.529   3.309   2.775
 6632TIP3    H219861   0.383   3.269   2.767
 6633TIP3   OH219862   3.999   4.428   0.657
 6633TIP3    H119863   4.087   4.442   0.621
 6633TIP3    H219864   3.998   4.335   0.681
 6634TIP3   OH219865   6.115   5.695   0.825
 6634TIP3    H119866   6.051   5.732   0.764
 6634TIP3    H219867   6.199   5.731   0.797
 6635TIP3   OH219868   3.413   6.749   0.706
 6635TIP3    H119869   3.386   6.749   0.615
 6635TIP3    H219870   3.377   6.668   0.743
 6636TIP3   OH219871   1.409   1.329   3.464
 6636TIP3    H119872   1.495   1.314   3.505
 6636TIP3    H219873   1.346   1.314   3.534
 6637TIP3   OH219874   6.834   3.896   1.285
 6637TIP3    H119875   6.771   3.834   1.322
 6637TIP3    H219876   6.879   3.846   1.217
 6638TIP3   OH219877   0.712   2.516   5.496
 6638TIP3    H119878   0.666   2.437   5.526
 6638TIP3    H219879   0.644   2.584   5.494
 6639TIP3   OH219880   5.791   6.653   2.536
 6639TIP3    H119881   5.872   6.666   2.488
 6639TIP3    H219882   5.783   6.558   2.545
 6640TIP3   OH219883   4.823   6.376   2.844
 6640TIP3    H119884   4.841   6.356   2.752
 6640TIP3    H219885   4.886   6.323   2.893
 6641TIP3   OH219886   6.929   4.448   5.535
 6641TIP3    H119887   6.929   4.385   5.462
 6641TIP3    H219888   7.017   4.485   5.534
 6642TIP3   OH219889   4.337   0.443   4.320
 6642TIP3    H119890   4.270   0.407   4.262
 6642TIP3    H219891   4.412   0.459   4.262
 6643TIP3   OH219892   4.279   1.206   5.517
 6643TIP3    H119893   4.206   1.217   5.578
 6643TIP3    H219894   4.268   1.278   5.455
 6644TIP3   OH219895   5.671   4.778   3.365
 6644TIP3    H119896   5.699   4.860   3.323
 6644TIP3    H219897   5.697   4.787   3.456
 6645TIP3   OH219898   2.327   4.872   2.077
 6645TIP3    H119899   2.351   4.823   2.155
 6645TIP3    H219900   2.240   4.840   2.054
 6646TIP3   OH219901   3.980   3.315   0.373
 6646TIP3    H119902   4.029   3.277   0.446
 6646TIP3    H219903   3.973   3.408   0.395
 6647TIP3   OH219904   4.248   1.257   0.754
 6647TIP3    H119905   4.327   1.255   0.807
 6647TIP3    H219906   4.182   1.212   0.807
 6648TIP3   OH219907   6.008   3.995   4.354
 6648TIP3    H119908   5.970   4.039   4.278
 6648TIP3    H219909   6.025   3.906   4.325
 6649TIP3   OH219910   1.163   5.912   4.217
 6649TIP3    H119911   1.238   5.967   4.196
 6649TIP3    H219912   1.168   5.839   4.156
 6650TIP3   OH219913   4.828   5.865   5.228
 6650TIP3    H119914   4.901   5.915   5.192
 6650TIP3    H219915   4.869   5.787   5.267
 6651TIP3   OH219916   6.524   2.622   0.730
 6651TIP3    H119917   6.586   2.635   0.801
 6651TIP3    H219918   6.571   2.571   0.665
 6652TIP3   OH219919   4.557   4.158   2.034
 6652TIP3    H119920   4.495   4.146   2.106
 6652TIP3    H219921   4.515   4.222   1.977
 6653TIP3   OH219922   0.359   4.146   1.484
 6653TIP3    H119923   0.398   4.059   1.470
 6653TIP3    H219924   0.279   4.128   1.534
 6654TIP3   OH219925   1.925   6.724   3.281
 6654TIP3    H119926   1.980   6.666   3.228
 6654TIP3    H219927   1.912   6.677   3.363
 6655TIP3   OH219928   0.515   0.342   2.617
 6655TIP3    H119929   0.587   0.394   2.581
 6655TIP3    H219930   0.462   0.319   2.542
 6656TIP3   OH219931   2.445   2.256   4.955
 6656TIP3    H119932   2.406   2.291   5.036
 6656TIP3    H219933   2.527   2.306   4.945
 6657TIP3   OH219934   1.122   3.577   1.911
 6657TIP3    H119935   1.031   3.563   1.884
 6657TIP3    H219936   1.144   3.498   1.961
 6658TIP3   OH219937   3.962   1.000   1.164
 6658TIP3    H119938   4.027   0.981   1.231
 6658TIP3    H219939   3.909   0.921   1.158
 6659TIP3   OH219940   5.215   2.771   2.385
 6659TIP3    H119941   5.232   2.742   2.295
 6659TIP3    H219942   5.124   2.745   2.402
 6660TIP3   OH219943   2.231   1.108   2.514
 6660TIP3    H119944   2.226   1.190   2.464
 6660TIP3    H219945   2.292   1.128   2.585
 6661TIP3   OH219946   5.799   0.672   5.368
 6661TIP3    H119947   5.881   0.637   5.334
 6661TIP3    H219948   5.732   0.611   5.338
 6662TIP3   OH219949   6.412   4.013   3.921
 6662TIP3    H119950   6.451   4.046   3.840
 6662TIP3    H219951   6.478   4.030   3.988
 6663TIP3   OH219952   6.956   1.872   5.599
 6663TIP3    H119953   6.896   1.850   5.669
 6663TIP3    H219954   6.996   1.789   5.574
 6664TIP3   OH219955   1.334   2.077   1.321
 6664TIP3    H119956   1.243   2.085   1.350
 6664TIP3    H219957   1.381   2.049   1.399
 6665TIP3   OH219958   6.256   2.715   0.720
 6665TIP3    H119959   6.272   2.802   0.754
 6665TIP3    H219960   6.337   2.667   0.736
 6666TIP3   OH219961   0.227   6.184   3.930
 6666TIP3    H119962   0.180   6.194   4.013
 6666TIP3    H219963   0.267   6.269   3.915
 6667TIP3   OH219964   0.455   1.462   4.276
 6667TIP3    H119965   0.454   1.541   4.221
 6667TIP3    H219966   0.467   1.495   4.365
 6668TIP3   OH219967   0.765   1.660   1.977
 6668TIP3    H119968   0.803   1.618   1.900
 6668TIP3    H219969   0.736   1.587   2.032
 6669TIP3   OH219970   4.833   4.236   5.901
 6669TIP3    H119971   4.921   4.264   5.878
 6669TIP3    H219972   4.782   4.317   5.908
 6670TIP3   OH219973   0.971   2.608   2.511
 6670TIP3    H119974   1.048   2.645   2.468
 6670TIP3    H219975   0.908   2.681   2.514
 6671TIP3   OH219976   0.601   0.032   3.184
 6671TIP3    H119977   0.616  -0.061   3.199
 6671TIP3    H219978   0.660   0.076   3.245
 6672TIP3   OH219979   4.343   4.614   3.934
 6672TIP3    H119980   4.318   4.582   3.848
 6672TIP3    H219981   4.416   4.675   3.917
 6673TIP3   OH219982   2.583   5.540   0.834
 6673TIP3    H119983   2.570   5.550   0.928
 6673TIP3    H219984   2.613   5.449   0.824
 6674TIP3   OH219985   4.618   4.871   5.721
 6674TIP3    H119986   4.703   4.849   5.681
 6674TIP3    H219987   4.562   4.797   5.702
 6675TIP3   OH219988   3.099   2.593   0.432
 6675TIP3    H119989   3.026   2.642   0.393
 6675TIP3    H219990   3.170   2.600   0.369
 6676TIP3   OH219991   3.949   2.777   5.293
 6676TIP3    H119992   3.917   2.823   5.216
 6676TIP3    H219993   3.882   2.711   5.312
 6677TIP3   OH219994   5.738   5.170   5.699
 6677TIP3    H119995   5.787   5.248   5.725
 6677TIP3    H219996   5.660   5.204   5.655
 6678TIP3   OH219997   4.298   5.445   1.358
 6678TIP3    H119998   4.255   5.522   1.396
 6678TIP3    H219999   4.231   5.404   1.304
 6679TIP3   OH220000   7.115   5.758   3.738
 6679TIP3    H120001   7.202   5.773   3.774
 6679TIP3    H220002   7.128   5.753   3.644
 6680TIP3   OH220003   4.087   1.336   4.221
 6680TIP3    H120004   3.992   1.343   4.228
 6680TIP3    H220005   4.121   1.400   4.283
 6681TIP3   OH220006   5.616   1.747   3.532
 6681TIP3    H120007   5.572   1.678   3.582
 6681TIP3    H220008   5.666   1.700   3.466
 6682TIP3   OH220009   0.810   2.531   0.739
 6682TIP3    H120010   0.857   2.613   0.744
 6682TIP3    H220011   0.718   2.556   0.727
 6683TIP3   OH220012   0.225   4.107   4.759
 6683TIP3    H120013   0.218   4.146   4.672
 6683TIP3    H220014   0.197   4.016   4.747
 6684TIP3   OH220015   0.746   5.674   4.506
 6684TIP3    H120016   0.691   5.685   4.584
 6684TIP3    H220017   0.739   5.581   4.485
 6685TIP3   OH220018   0.346   4.113   4.522
 6685TIP3    H120019   0.390   4.043   4.572
 6685TIP3    H220020   0.398   4.191   4.540
 6686TIP3   OH220021   2.759   3.893   0.370
 6686TIP3    H120022   2.725   3.940   0.446
 6686TIP3    H220023   2.809   3.820   0.407
 6687TIP3   OH220024   2.452   4.440   3.228
 6687TIP3    H120025   2.465   4.353   3.265
 6687TIP3    H220026   2.430   4.424   3.136
 6688TIP3   OH220027   5.987   2.007   2.010
 6688TIP3    H120028   5.907   2.001   1.959
 6688TIP3    H220029   6.057   2.010   1.945
 6689TIP3   OH220030   3.874   2.113   0.319
 6689TIP3    H120031   3.797   2.146   0.364
 6689TIP3    H220032   3.948   2.139   0.375
 6690TIP3   OH220033   4.880   6.524   0.722
 6690TIP3    H120034   4.950   6.464   0.746
 6690TIP3    H220035   4.835   6.543   0.805
 6691TIP3   OH220036   6.700   5.128   0.674
 6691TIP3    H120037   6.737   5.208   0.638
 6691TIP3    H220038   6.744   5.058   0.626
 6692TIP3   OH220039   3.222   2.163   2.083
 6692TIP3    H120040   3.288   2.105   2.122
 6692TIP3    H220041   3.265   2.249   2.080
 6693TIP3   OH220042   1.050   6.210   0.343
 6693TIP3    H120043   0.992   6.204   0.267
 6693TIP3    H220044   0.997   6.178   0.416
 6694TIP3   OH220045   2.317   1.917   3.631
 6694TIP3    H120046   2.312   1.939   3.724
 6694TIP3    H220047   2.228   1.932   3.598
 6695TIP3   OH220048   6.058   4.249   1.707
 6695TIP3    H120049   6.012   4.329   1.680
 6695TIP3    H220050   6.109   4.224   1.630
 6696TIP3   OH220051   0.924   0.615   0.687
 6696TIP3    H120052   0.976   0.666   0.626
 6696TIP3    H220053   0.966   0.529   0.688
 6697TIP3   OH220054   7.020   0.213   2.081
 6697TIP3    H120055   7.086   0.165   2.131
 6697TIP3    H220056   6.951   0.232   2.144
 6698TIP3   OH220057   3.910   2.066   3.782
 6698TIP3    H120058   3.967   2.104   3.848
 6698TIP3    H220059   3.949   2.092   3.699
 6699TIP3   OH220060   1.828   2.881   2.982
 6699TIP3    H120061   1.896   2.919   3.038
 6699TIP3    H220062   1.747   2.924   3.011
 6700TIP3   OH220063   2.998   6.252   0.085
 6700TIP3    H120064   2.936   6.191   0.126
 6700TIP3    H220065   3.003   6.325   0.146
 6701TIP3   OH220066   3.356   1.417   1.554
 6701TIP3    H120067   3.286   1.468   1.513
 6701TIP3    H220068   3.429   1.423   1.493
 6702TIP3   OH220069   3.564   5.586   1.885
 6702TIP3    H120070   3.542   5.578   1.978
 6702TIP3    H220071   3.514   5.518   1.842
 6703TIP3   OH220072   2.945   0.837   3.958
 6703TIP3    H120073   2.974   0.852   4.048
 6703TIP3    H220074   2.933   0.742   3.952
 6704TIP3   OH220075   2.000   6.673   1.046
 6704TIP3    H120076   2.065   6.631   0.989
 6704TIP3    H220077   2.024   6.766   1.045
 6705TIP3   OH220078   1.731   0.859   3.184
 6705TIP3    H120079   1.786   0.935   3.163
 6705TIP3    H220080   1.679   0.845   3.105
 6706TIP3   OH220081   5.139   1.109   2.838
 6706TIP3    H120082   5.079   1.063   2.779
 6706TIP3    H220083   5.157   1.047   2.908
 6707TIP3   OH220084   2.239   3.033   1.950
 6707TIP3    H120085   2.289   2.951   1.950
 6707TIP3    H220086   2.163   3.014   2.005
 6708TIP3   OH220087   7.174   5.907   2.511
 6708TIP3    H120088   7.124   5.833   2.546
 6708TIP3    H220089   7.116   5.946   2.446
 6709TIP3   OH220090   6.854   4.266   1.772
 6709TIP3    H120091   6.927   4.220   1.730
 6709TIP3    H220092   6.860   4.356   1.740
 6710TIP3   OH220093   0.955   4.470   2.738
 6710TIP3    H120094   1.027   4.523   2.773
 6710TIP3    H220095   0.949   4.395   2.798
 6711TIP3   OH220096   2.238   2.939   0.281
 6711TIP3    H120097   2.295   2.890   0.221
 6711TIP3    H220098   2.162   2.961   0.228
 6712TIP3   OH220099   6.806   1.506   3.448
 6712TIP3    H120100   6.789   1.439   3.514
 6712TIP3    H220101   6.898   1.492   3.424
 6713TIP3   OH220102   0.521   6.301   1.143
 6713TIP3    H120103   0.548   6.268   1.229
 6713TIP3    H220104   0.588   6.270   1.083
 6714TIP3   OH220105   3.522   4.379   1.938
 6714TIP3    H120106   3.481   4.465   1.940
 6714TIP3    H220107   3.465   4.324   1.992
 6715TIP3   OH220108   5.050   3.302   1.964
 6715TIP3    H120109   5.111   3.373   1.944
 6715TIP3    H220110   5.038   3.307   2.059
 6716TIP3   OH220111   6.086   1.895   4.590
 6716TIP3    H120112   6.017   1.850   4.638
 6716TIP3    H220113   6.149   1.827   4.569
 6717TIP3   OH220114   4.180   4.715   3.740
 6717TIP3    H120115   4.258   4.740   3.691
 6717TIP3    H220116   4.142   4.644   3.689
 6718TIP3   OH220117   5.603   6.043   4.157
 6718TIP3    H120118   5.668   6.112   4.141
 6718TIP3    H220119   5.596   6.038   4.252
 6719TIP3   OH220120   4.343   3.114   0.407
 6719TIP3    H120121   4.326   3.026   0.376
 6719TIP3    H220122   4.261   3.142   0.448
 6720TIP3   OH220123   4.328   1.558   4.036
 6720TIP3    H120124   4.399   1.503   4.004
 6720TIP3    H220125   4.367   1.644   4.050
 6721TIP3   OH220126   0.311   1.136   2.725
 6721TIP3    H120127   0.237   1.075   2.732
 6721TIP3    H220128   0.271   1.222   2.731
 6722TIP3   OH220129   2.523   4.482   5.194
 6722TIP3    H120130   2.490   4.530   5.270
 6722TIP3    H220131   2.617   4.501   5.194
 6723TIP3   OH220132   6.237   0.616   0.842
 6723TIP3    H120133   6.241   0.652   0.930
 6723TIP3    H220134   6.152   0.572   0.838
 6724TIP3   OH220135   5.735   1.950   0.868
 6724TIP3    H120136   5.642   1.927   0.873
 6724TIP3    H220137   5.767   1.943   0.958
 6725TIP3   OH220138   6.470   0.505   0.122
 6725TIP3    H120139   6.561   0.515   0.097
 6725TIP3    H220140   6.420   0.546   0.052
 6726TIP3   OH220141   5.636   1.293   3.255
 6726TIP3    H120142   5.664   1.239   3.182
 6726TIP3    H220143   5.558   1.339   3.221
 6727TIP3   OH220144   3.338   6.361   5.614
 6727TIP3    H120145   3.380   6.287   5.658
 6727TIP3    H220146   3.334   6.335   5.522
 6728TIP3   OH220147   6.233   0.306   3.975
 6728TIP3    H120148   6.276   0.291   4.059
 6728TIP3    H220149   6.243   0.223   3.928
 6729TIP3   OH220150   5.920   1.090   1.401
 6729TIP3    H120151   5.918   1.135   1.485
 6729TIP3    H220152   6.008   1.105   1.367
 6730TIP3   OH220153   0.380   2.810   1.286
 6730TIP3    H120154   0.428   2.736   1.250
 6730TIP3    H220155   0.435   2.841   1.359
 6731TIP3   OH220156   1.906   1.253   1.246
 6731TIP3    H120157   1.933   1.162   1.235
 6731TIP3    H220158   1.983   1.304   1.219
 6732TIP3   OH220159   3.324   6.059   3.969
 6732TIP3    H120160   3.395   5.996   3.985
 6732TIP3    H220161   3.362   6.123   3.908
 6733TIP3   OH220162   0.901   2.724   1.043
 6733TIP3    H120163   0.810   2.696   1.047
 6733TIP3    H220164   0.940   2.690   1.124
 6734TIP3   OH220165   0.657   0.988   2.575
 6734TIP3    H120166   0.572   0.998   2.534
 6734TIP3    H220167   0.679   1.075   2.608
 6735TIP3   OH220168   1.019   2.126   0.801
 6735TIP3    H120169   0.992   2.199   0.746
 6735TIP3    H220170   1.059   2.166   0.878
 6736TIP3   OH220171   3.388   1.289   5.127
 6736TIP3    H120172   3.367   1.195   5.128
 6736TIP3    H220173   3.319   1.327   5.073
 6737TIP3   OH220174   3.193   0.087   5.045
 6737TIP3    H120175   3.280   0.065   5.011
 6737TIP3    H220176   3.146   0.121   4.969
 6738TIP3   OH220177   0.909   1.424   0.327
 6738TIP3    H120178   0.920   1.344   0.277
 6738TIP3    H220179   0.992   1.436   0.374
 6739TIP3   OH220180   6.360   4.020   1.891
 6739TIP3    H120181   6.362   4.059   1.804
 6739TIP3    H220182   6.412   4.079   1.945
 6740TIP3   OH220183   4.842   1.915   2.246
 6740TIP3    H120184   4.876   1.839   2.293
 6740TIP3    H220185   4.804   1.970   2.314
 6741TIP3   OH220186   1.078   5.623   1.122
 6741TIP3    H120187   1.012   5.600   1.188
 6741TIP3    H220188   1.028   5.662   1.050
 6742TIP3   OH220189   1.462   1.587   3.968
 6742TIP3    H120190   1.409   1.660   4.000
 6742TIP3    H220191   1.457   1.521   4.037
 6743TIP3   OH220192   5.212   2.823   2.692
 6743TIP3    H120193   5.265   2.800   2.616
 6743TIP3    H220194   5.125   2.788   2.672
 6744TIP3   OH220195   6.443   6.704   2.596
 6744TIP3    H120196   6.365   6.749   2.564
 6744TIP3    H220197   6.417   6.670   2.681
 6745TIP3   OH220198   4.978   5.067   1.170
 6745TIP3    H120199   5.050   5.050   1.110
 6745TIP3    H220200   4.912   5.112   1.117
 6746TIP3   OH220201   1.595   0.497   0.399
 6746TIP3    H120202   1.523   0.526   0.343
 6746TIP3    H220203   1.576   0.406   0.419
 6747TIP3   OH220204   0.492   1.941   5.072
 6747TIP3    H120205   0.586   1.953   5.084
 6747TIP3    H220206   0.473   1.979   4.986
 6748TIP3   OH220207   1.271   1.500   4.687
 6748TIP3    H120208   1.266   1.408   4.713
 6748TIP3    H220209   1.353   1.531   4.726
 6749TIP3   OH220210   1.330   2.109   3.566
 6749TIP3    H120211   1.337   2.105   3.471
 6749TIP3    H220212   1.338   2.202   3.588
 6750TIP3   OH220213   3.884   6.561   0.210
 6750TIP3    H120214   3.795   6.528   0.203
 6750TIP3    H220215   3.927   6.530   0.130
 6751TIP3   OH220216   3.143   3.478   3.422
 6751TIP3    H120217   3.090   3.496   3.344
 6751TIP3    H220218   3.230   3.456   3.388
 6752TIP3   OH220219   1.651   0.611   5.330
 6752TIP3    H120220   1.604   0.651   5.403
 6752TIP3    H220221   1.628   0.518   5.335
 6753TIP3   OH220222   0.972   5.431   1.610
 6753TIP3    H120223   0.934   5.476   1.535
 6753TIP3    H220224   1.030   5.496   1.650
 6754TIP3   OH220225   3.937   5.362   2.901
 6754TIP3    H120226   3.959   5.444   2.945
 6754TIP3    H220227   3.877   5.318   2.961
 6755TIP3   OH220228   6.590   6.230   3.682
 6755TIP3    H120229   6.622   6.142   3.701
 6755TIP3    H220230   6.589   6.274   3.768
 6756TIP3   OH220231   4.262   4.006   3.999
 6756TIP3    H120232   4.190   4.036   3.944
 6756TIP3    H220233   4.247   3.912   4.009
 6757TIP3   OH220234   3.108   3.026   2.332
 6757TIP3    H120235   3.159   3.090   2.381
 6757TIP3    H220236   3.031   3.075   2.301
 6758TIP3   OH220237   1.177   4.869   1.970
 6758TIP3    H120238   1.238   4.804   2.005
 6758TIP3    H220239   1.232   4.934   1.928
 6759TIP3   OH220240   6.746   6.292   5.277
 6759TIP3    H120241   6.699   6.216   5.311
 6759TIP3    H220242   6.823   6.255   5.234
 6760TIP3   OH220243   7.046   5.749   3.441
 6760TIP3    H120244   7.097   5.802   3.380
 6760TIP3    H220245   6.958   5.786   3.438
 6761TIP3   OH220246   4.990   3.346   1.035
 6761TIP3    H120247   5.045   3.371   0.961
 6761TIP3    H220248   4.992   3.250   1.036
 6762TIP3   OH220249   4.597   2.836   1.517
 6762TIP3    H120250   4.663   2.903   1.537
 6762TIP3    H220251   4.520   2.863   1.567
 6763TIP3   OH220252   6.101   0.967   2.337
 6763TIP3    H120253   6.072   1.055   2.361
 6763TIP3    H220254   6.034   0.908   2.372
 6764TIP3   OH220255   5.827   2.377   2.680
 6764TIP3    H120256   5.792   2.356   2.593
 6764TIP3    H220257   5.763   2.339   2.741
 6765TIP3   OH220258   6.779   2.532   5.282
 6765TIP3    H120259   6.866   2.572   5.282
 6765TIP3    H220260   6.787   2.457   5.341
 6766TIP3   OH220261   0.302   5.509   4.879
 6766TIP3    H120262   0.218   5.523   4.835
 6766TIP3    H220263   0.285   5.530   4.970
 6767TIP3   OH220264   3.660   4.458   5.570
 6767TIP3    H120265   3.642   4.439   5.478
 6767TIP3    H220266   3.672   4.553   5.573
 6768TIP3   OH220267   2.719   4.318   3.864
 6768TIP3    H120268   2.812   4.334   3.851
 6768TIP3    H220269   2.709   4.223   3.856
 6769TIP3   OH220270   4.364   1.478   4.325
 6769TIP3    H120271   4.434   1.542   4.337
 6769TIP3    H220272   4.298   1.525   4.273
 6770TIP3   OH220273   3.461   0.723   4.911
 6770TIP3    H120274   3.494   0.676   4.835
 6770TIP3    H220275   3.450   0.813   4.880
 6771TIP3   OH220276   3.522   1.228   1.351
 6771TIP3    H120277   3.563   1.215   1.266
 6771TIP3    H220278   3.555   1.314   1.380
 6772TIP3   OH220279   4.698   6.575   5.855
 6772TIP3    H120280   4.685   6.617   5.770
 6772TIP3    H220281   4.639   6.500   5.853
 6773TIP3   OH220282   4.201   1.213   3.177
 6773TIP3    H120283   4.139   1.161   3.228
 6773TIP3    H220284   4.253   1.261   3.242
 6774TIP3   OH220285   3.917   1.969   4.991
 6774TIP3    H120286   3.922   2.063   4.977
 6774TIP3    H220287   4.009   1.940   4.994
 6775TIP3   OH220288   4.999   6.818   2.418
 6775TIP3    H120289   5.076   6.807   2.362
 6775TIP3    H220290   4.998   6.740   2.473
 6776TIP3   OH220291   5.713   1.840   5.474
 6776TIP3    H120292   5.758   1.757   5.493
 6776TIP3    H220293   5.770   1.907   5.512
 6777TIP3   OH220294   7.084   1.065   5.607
 6777TIP3    H120295   7.165   1.103   5.574
 6777TIP3    H220296   7.068   0.990   5.549
 6778TIP3   OH220297   0.482   3.462   1.586
 6778TIP3    H120298   0.533   3.391   1.547
 6778TIP3    H220299   0.535   3.541   1.571
 6779TIP3   OH220300   2.991   4.920   3.909
 6779TIP3    H120301   2.987   5.002   3.860
 6779TIP3    H220302   2.932   4.933   3.982
 6780TIP3   OH220303   1.013   1.689   4.469
 6780TIP3    H120304   0.988   1.679   4.378
 6780TIP3    H220305   1.105   1.662   4.472
 6781TIP3   OH220306   7.036   1.368   5.403
 6781TIP3    H120307   6.953   1.372   5.355
 6781TIP3    H220308   7.049   1.275   5.422
 6782TIP3   OH220309   4.841   4.016   0.284
 6782TIP3    H120310   4.810   3.927   0.301
 6782TIP3    H220311   4.900   4.007   0.209
 6783TIP3   OH220312   7.224   4.935   3.416
 6783TIP3    H120313   7.172   4.865   3.456
 6783TIP3    H220314   7.217   5.008   3.478
 6784TIP3   OH220315   5.847   3.598   3.973
 6784TIP3    H120316   5.787   3.648   4.027
 6784TIP3    H220317   5.808   3.511   3.967
 6785TIP3   OH220318   3.824   2.791   0.977
 6785TIP3    H120319   3.821   2.886   0.981
 6785TIP3    H220320   3.798   2.770   0.887
 6786TIP3   OH220321   2.020   3.815   2.043
 6786TIP3    H120322   1.977   3.813   1.957
 6786TIP3    H220323   2.111   3.838   2.023
 6787TIP3   OH220324   6.700   2.412   3.944
 6787TIP3    H120325   6.788   2.442   3.920
 6787TIP3    H220326   6.664   2.485   3.995
 6788TIP3   OH220327   0.248   2.501   3.673
 6788TIP3    H120328   0.174   2.477   3.728
 6788TIP3    H220329   0.299   2.420   3.664
 6789TIP3   OH220330   4.897   3.959   2.938
 6789TIP3    H120331   4.877   3.935   3.029
 6789TIP3    H220332   4.993   3.967   2.936
 6790TIP3   OH220333   4.731   1.226   4.960
 6790TIP3    H120334   4.762   1.153   5.013
 6790TIP3    H220335   4.650   1.254   5.003
 6791TIP3   OH220336   2.644   6.576   3.040
 6791TIP3    H120337   2.592   6.625   2.976
 6791TIP3    H220338   2.733   6.612   3.031
 6792TIP3   OH220339   6.646   4.780   4.320
 6792TIP3    H120340   6.563   4.735   4.307
 6792TIP3    H220341   6.672   4.808   4.232
 6793TIP3   OH220342   5.915   0.707   0.147
 6793TIP3    H120343   5.872   0.638   0.197
 6793TIP3    H220344   6.009   0.692   0.162
 6794TIP3   OH220345   0.473   4.769   0.987
 6794TIP3    H120346   0.531   4.753   0.913
 6794TIP3    H220347   0.528   4.754   1.064
 6795TIP3   OH220348   0.684   5.913   3.318
 6795TIP3    H120349   0.641   5.945   3.397
 6795TIP3    H220350   0.757   5.973   3.304
 6796TIP3   OH220351   1.536   4.010   5.797
 6796TIP3    H120352   1.449   3.970   5.800
 6796TIP3    H220353   1.560   4.008   5.704
 6797TIP3   OH220354   2.916   4.781   5.557
 6797TIP3    H120355   2.936   4.703   5.506
 6797TIP3    H220356   2.992   4.838   5.547
 6798TIP3   OH220357   6.484   4.200   2.162
 6798TIP3    H120358   6.543   4.125   2.171
 6798TIP3    H220359   6.512   4.243   2.081
 6799TIP3   OH220360   1.437   2.367   5.298
 6799TIP3    H120361   1.479   2.450   5.276
 6799TIP3    H220362   1.477   2.303   5.240
 6800TIP3   OH220363   5.388   4.540   4.396
 6800TIP3    H120364   5.305   4.535   4.349
 6800TIP3    H220365   5.455   4.536   4.328
 6801TIP3   OH220366   5.898   0.102   1.659
 6801TIP3    H120367   5.961   0.032   1.675
 6801TIP3    H220368   5.878   0.096   1.565
 6802TIP3   OH220369   1.149   6.326   4.369
 6802TIP3    H120370   1.146   6.233   4.392
 6802TIP3    H220371   1.218   6.362   4.425
 6803TIP3   OH220372   1.754   5.135   1.727
 6803TIP3    H120373   1.712   5.200   1.671
 6803TIP3    H220374   1.840   5.173   1.747
 6804TIP3   OH220375   3.803   1.809   0.326
 6804TIP3    H120376   3.832   1.892   0.363
 6804TIP3    H220377   3.883   1.757   0.319
 6805TIP3   OH220378   5.129   4.720   0.884
 6805TIP3    H120379   5.147   4.657   0.814
 6805TIP3    H220380   5.035   4.712   0.900
 6806TIP3   OH220381   1.218   3.582   3.214
 6806TIP3    H120382   1.161   3.656   3.196
 6806TIP3    H220383   1.194   3.516   3.149
 6807TIP3   OH220384   3.386   1.497   1.823
 6807TIP3    H120385   3.311   1.447   1.856
 6807TIP3    H220386   3.403   1.460   1.736
 6808TIP3   OH220387   6.442   0.568   4.539
 6808TIP3    H120388   6.532   0.557   4.569
 6808TIP3    H220389   6.448   0.564   4.444
 6809TIP3   OH220390   4.148   6.608   0.293
 6809TIP3    H120391   4.059   6.579   0.270
 6809TIP3    H220392   4.165   6.682   0.236
 6810TIP3   OH220393   2.722   1.507   1.094
 6810TIP3    H120394   2.728   1.556   1.012
 6810TIP3    H220395   2.685   1.422   1.069
 6811TIP3   OH220396   5.058   6.117   2.007
 6811TIP3    H120397   5.020   6.116   2.095
 6811TIP3    H220398   5.137   6.171   2.016
 6812TIP3   OH220399   5.948   2.645   4.006
 6812TIP3    H120400   5.987   2.651   3.919
 6812TIP3    H220401   6.004   2.699   4.061
 6813TIP3   OH220402   2.055   5.385   1.540
 6813TIP3    H120403   1.990   5.405   1.608
 6813TIP3    H220404   2.047   5.291   1.526
 6814TIP3   OH220405   4.350   3.457   1.306
 6814TIP3    H120406   4.337   3.369   1.340
 6814TIP3    H220407   4.441   3.458   1.275
 6815TIP3   OH220408   1.298   1.858   3.250
 6815TIP3    H120409   1.367   1.809   3.205
 6815TIP3    H220410   1.339   1.942   3.272
 6816TIP3   OH220411   5.312   0.611   4.112
 6816TIP3    H120412   5.324   0.524   4.074
 6816TIP3    H220413   5.355   0.671   4.050
 6817TIP3   OH220414   1.611   3.626   3.946
 6817TIP3    H120415   1.578   3.703   3.992
 6817TIP3    H220416   1.642   3.568   4.016
 6818TIP3   OH220417   2.478   0.978   0.890
 6818TIP3    H120418   2.439   1.039   0.827
 6818TIP3    H220419   2.425   0.899   0.881
 6819TIP3   OH220420   5.383   3.746   0.706
 6819TIP3    H120421   5.392   3.653   0.685
 6819TIP3    H220422   5.431   3.757   0.788
 6820TIP3   OH220423   4.255   0.477   5.411
 6820TIP3    H120424   4.210   0.561   5.406
 6820TIP3    H220425   4.268   0.462   5.505
 6821TIP3   OH220426   6.718   5.988   3.748
 6821TIP3    H120427   6.794   5.931   3.760
 6821TIP3    H220428   6.736   6.034   3.666
 6822TIP3   OH220429   0.380   5.893   0.493
 6822TIP3    H120430   0.355   5.840   0.569
 6822TIP3    H220431   0.365   5.836   0.418
 6823TIP3   OH220432   0.419   2.971   0.438
 6823TIP3    H120433   0.389   3.051   0.396
 6823TIP3    H220434   0.383   2.901   0.384
 6824TIP3   OH220435   0.259   6.115   0.378
 6824TIP3    H120436   0.294   6.034   0.414
 6824TIP3    H220437   0.321   6.182   0.405
 6825TIP3   OH220438   3.186   1.013   1.659
 6825TIP3    H120439   3.119   1.071   1.693
 6825TIP3    H220440   3.267   1.042   1.703
 6826TIP3   OH220441   6.455   5.900   2.282
 6826TIP3    H120442   6.410   5.984   2.273
 6826TIP3    H220443   6.512   5.895   2.206
 6827TIP3   OH220444   5.494   4.822   5.192
 6827TIP3    H120445   5.543   4.904   5.201
 6827TIP3    H220446   5.508   4.796   5.101
 6828TIP3   OH220447   3.435   3.985   1.313
 6828TIP3    H120448   3.496   3.950   1.248
 6828TIP3    H220449   3.394   3.907   1.351
 6829TIP3   OH220450   2.830   2.971   4.605
 6829TIP3    H120451   2.872   2.890   4.575
 6829TIP3    H220452   2.899   3.036   4.605
 6830TIP3   OH220453   4.579   5.458   2.804
 6830TIP3    H120454   4.615   5.515   2.735
 6830TIP3    H220455   4.548   5.519   2.871
 6831TIP3   OH220456   6.915   6.690   1.870
 6831TIP3    H120457   6.910   6.662   1.779
 6831TIP3    H220458   6.939   6.610   1.918
 6832TIP3   OH220459   6.656   5.203   1.069
 6832TIP3    H120460   6.583   5.223   1.011
 6832TIP3    H220461   6.710   5.141   1.019
 6833TIP3   OH220462   6.000   2.660   0.852
 6833TIP3    H120463   6.015   2.753   0.870
 6833TIP3    H220464   6.086   2.626   0.827
 6834TIP3   OH220465   6.115   0.306   0.252
 6834TIP3    H120466   6.138   0.277   0.163
 6834TIP3    H220467   6.115   0.226   0.304
 6835TIP3   OH220468   7.203   4.784   2.709
 6835TIP3    H120469   7.121   4.810   2.751
 6835TIP3    H220470   7.261   4.858   2.722
 6836TIP3   OH220471   3.707   5.264   4.251
 6836TIP3    H120472   3.787   5.244   4.202
 6836TIP3    H220473   3.738   5.297   4.335
 6837TIP3   OH220474   2.940   1.376   1.646
 6837TIP3    H120475   2.938   1.345   1.555
 6837TIP3    H220476   2.950   1.471   1.638
 6838TIP3   OH220477   0.177   6.521   2.626
 6838TIP3    H120478   0.139   6.607   2.608
 6838TIP3    H220479   0.178   6.516   2.722
 6839TIP3   OH220480   6.517   2.780   1.089
 6839TIP3    H120481   6.463   2.702   1.079
 6839TIP3    H220482   6.479   2.843   1.027
 6840TIP3   OH220483   2.056   6.040   3.102
 6840TIP3    H120484   1.997   5.965   3.102
 6840TIP3    H220485   2.012   6.105   3.156
 6841TIP3   OH220486   4.925   2.526   2.155
 6841TIP3    H120487   4.866   2.509   2.082
 6841TIP3    H220488   4.997   2.464   2.143
 6842TIP3   OH220489   6.565   2.139   5.412
 6842TIP3    H120490   6.556   2.223   5.458
 6842TIP3    H220491   6.581   2.075   5.481
 6843TIP3   OH220492   6.053   6.684   4.576
 6843TIP3    H120493   6.056   6.684   4.671
 6843TIP3    H220494   6.105   6.607   4.550
 6844TIP3   OH220495   5.600   5.740   0.966
 6844TIP3    H120496   5.617   5.811   1.027
 6844TIP3    H220497   5.665   5.751   0.897
 6845TIP3   OH220498   4.983   3.318   3.612
 6845TIP3    H120499   4.982   3.413   3.600
 6845TIP3    H220500   4.893   3.295   3.634
 6846TIP3   OH220501   5.249   6.302   2.110
 6846TIP3    H120502   5.279   6.369   2.049
 6846TIP3    H220503   5.326   6.246   2.124
 6847TIP3   OH220504   4.614   1.561   5.820
 6847TIP3    H120505   4.588   1.648   5.850
 6847TIP3    H220506   4.591   1.502   5.892
 6848TIP3   OH220507   6.492   4.047   3.095
 6848TIP3    H120508   6.472   4.122   3.039
 6848TIP3    H220509   6.501   3.974   3.035
 6849TIP3   OH220510   6.021   1.502   2.271
 6849TIP3    H120511   6.114   1.479   2.264
 6849TIP3    H220512   6.018   1.570   2.338
 6850TIP3   OH220513   6.887   5.886   2.816
 6850TIP3    H120514   6.868   5.974   2.784
 6850TIP3    H220515   6.973   5.865   2.778
 6851TIP3   OH220516   5.359   6.304   4.225
 6851TIP3    H120517   5.403   6.383   4.256
 6851TIP3    H220518   5.331   6.259   4.304
 6852TIP3   OH220519   3.316   2.369   4.384
 6852TIP3    H120520   3.337   2.331   4.469
 6852TIP3    H220521   3.243   2.429   4.403
 6853TIP3   OH220522   5.710   2.264   4.214
 6853TIP3    H120523   5.673   2.343   4.175
 6853TIP3    H220524   5.793   2.292   4.252
 6854TIP3   OH220525   5.070   1.895   3.036
 6854TIP3    H120526   5.027   1.880   2.952
 6854TIP3    H220527   4.998   1.911   3.097
 6855TIP3   OH220528   6.156   2.774   5.267
 6855TIP3    H120529   6.216   2.847   5.284
 6855TIP3    H220530   6.092   2.809   5.205
 6856TIP3   OH220531   0.776   6.074   5.895
 6856TIP3    H120532   0.807   6.114   5.814
 6856TIP3    H220533   0.808   5.984   5.891
 6857TIP3   OH220534   5.079   0.994   2.516
 6857TIP3    H120535   5.153   0.934   2.509
 6857TIP3    H220536   5.040   0.973   2.601
 6858TIP3   OH220537   1.938   2.741   2.419
 6858TIP3    H120538   2.033   2.751   2.422
 6858TIP3    H220539   1.922   2.657   2.462
 6859TIP3   OH220540   3.478   5.844   4.041
 6859TIP3    H120541   3.572   5.856   4.053
 6859TIP3    H220542   3.457   5.765   4.092
 6860TIP3   OH220543   6.125   3.882   4.634
 6860TIP3    H120544   6.175   3.846   4.561
 6860TIP3    H220545   6.034   3.865   4.612
 6861TIP3   OH220546   4.117   6.447   1.923
 6861TIP3    H120547   4.077   6.471   1.840
 6861TIP3    H220548   4.113   6.351   1.925
 6862TIP3   OH220549   0.842   6.179   3.371
 6862TIP3    H120550   0.842   6.253   3.433
 6862TIP3    H220551   0.910   6.120   3.404
 6863TIP3   OH220552   2.555   5.855   2.675
 6863TIP3    H120553   2.605   5.935   2.694
 6863TIP3    H220554   2.480   5.886   2.624
 6864TIP3   OH220555   2.045   6.327   2.349
 6864TIP3    H120556   2.022   6.398   2.409
 6864TIP3    H220557   2.122   6.286   2.388
 6865TIP3   OH220558   7.194   3.423   5.442
 6865TIP3    H120559   7.250   3.497   5.466
 6865TIP3    H220560   7.132   3.415   5.514
 6866TIP3   OH220561   4.350   6.254   4.182
 6866TIP3    H120562   4.355   6.340   4.141
 6866TIP3    H220563   4.441   6.229   4.198
 6867TIP3   OH220564   0.250   0.155   1.977
 6867TIP3    H120565   0.330   0.203   1.997
 6867TIP3    H220566   0.209   0.205   1.906
 6868TIP3   OH220567   6.099   1.921   3.914
 6868TIP3    H120568   6.047   2.001   3.912
 6868TIP3    H220569   6.150   1.923   3.833
 6869TIP3   OH220570   6.127   4.247   5.638
 6869TIP3    H120571   6.191   4.238   5.568
 6869TIP3    H220572   6.168   4.305   5.702
 6870TIP3   OH220573   2.344   5.333   1.574
 6870TIP3    H120574   2.255   5.331   1.539
 6870TIP3    H220575   2.353   5.422   1.610
 6871TIP3   OH220576   0.506   3.262   0.073
 6871TIP3    H120577   0.519   3.317  -0.004
 6871TIP3    H220578   0.583   3.279   0.127
 6872TIP3   OH220579   5.060   3.763   1.128
 6872TIP3    H120580   4.965   3.761   1.122
 6872TIP3    H220581   5.087   3.671   1.128
 6873TIP3   OH220582   3.345   2.496   5.617
 6873TIP3    H120583   3.370   2.451   5.698
 6873TIP3    H220584   3.410   2.566   5.607
 6874TIP3   OH220585   1.689   2.039   1.353
 6874TIP3    H120586   1.689   2.094   1.274
 6874TIP3    H220587   1.736   2.091   1.418
 6875TIP3   OH220588   6.898   3.268   1.796
 6875TIP3    H120589   6.929   3.179   1.779
 6875TIP3    H220590   6.961   3.304   1.858
 6876TIP3   OH220591   5.611   6.155   5.555
 6876TIP3    H120592   5.573   6.136   5.641
 6876TIP3    H220593   5.680   6.219   5.573
 6877TIP3   OH220594   3.588   3.810   0.782
 6877TIP3    H120595   3.649   3.881   0.762
 6877TIP3    H220596   3.513   3.853   0.822
 6878TIP3   OH220597   2.064   1.298   2.876
 6878TIP3    H120598   1.973   1.268   2.882
 6878TIP3    H220599   2.116   1.218   2.876
 6879TIP3   OH220600   2.955   5.150   2.684
 6879TIP3    H120601   2.980   5.140   2.592
 6879TIP3    H220602   3.010   5.087   2.731
 6880TIP3   OH220603   2.282   3.909   4.241
 6880TIP3    H120604   2.290   4.002   4.223
 6880TIP3    H220605   2.327   3.866   4.168
 6881TIP3   OH220606   0.718   3.345   2.997
 6881TIP3    H120607   0.681   3.401   2.929
 6881TIP3    H220608   0.673   3.372   3.077
 6882TIP3   OH220609   2.857   5.660   5.734
 6882TIP3    H120610   2.909   5.606   5.793
 6882TIP3    H220611   2.876   5.626   5.646
 6883TIP3   OH220612   2.061   2.445   4.155
 6883TIP3    H120613   1.996   2.448   4.085
 6883TIP3    H220614   2.009   2.445   4.236
 6884TIP3   OH220615   5.175   2.266   2.158
 6884TIP3    H120616   5.159   2.186   2.208
 6884TIP3    H220617   5.253   2.247   2.105
 6885TIP3   OH220618   6.448   1.934   4.464
 6885TIP3    H120619   6.506   1.990   4.413
 6885TIP3    H220620   6.484   1.937   4.553
 6886TIP3   OH220621   3.111   5.532   2.329
 6886TIP3    H120622   3.016   5.545   2.340
 6886TIP3    H220623   3.151   5.596   2.388
 6887TIP3   OH220624   4.889   1.950   3.884
 6887TIP3    H120625   4.948   1.882   3.915
 6887TIP3    H220626   4.927   2.032   3.918
 6888TIP3   OH220627   4.281   1.105   4.374
 6888TIP3    H120628   4.340   1.064   4.438
 6888TIP3    H220629   4.260   1.190   4.413
 6889TIP3   OH220630   0.271   0.619   5.772
 6889TIP3    H120631   0.181   0.603   5.800
 6889TIP3    H220632   0.322   0.550   5.814
 6890TIP3   OH220633   4.558   0.480   1.549
 6890TIP3    H120634   4.627   0.520   1.601
 6890TIP3    H220635   4.595   0.396   1.522
 6891TIP3   OH220636   2.372   0.272   4.362
 6891TIP3    H120637   2.454   0.301   4.401
 6891TIP3    H220638   2.398   0.205   4.299
 6892TIP3   OH220639   2.501   4.683  -0.002
 6892TIP3    H120640   2.452   4.628   0.060
 6892TIP3    H220641   2.593   4.659   0.013
 6893TIP3   OH220642   0.512   2.700   5.199
 6893TIP3    H120643   0.435   2.646   5.179
 6893TIP3    H220644   0.493   2.736   5.286
 6894TIP3   OH220645   5.637   4.614   3.164
 6894TIP3    H120646   5.549   4.642   3.138
 6894TIP3    H220647   5.654   4.663   3.245
 6895TIP3   OH220648   7.032   0.332   0.897
 6895TIP3    H120649   7.120   0.367   0.911
 6895TIP3    H220650   7.031   0.249   0.943
 6896TIP3   OH220651   3.977   5.196   4.158
 6896TIP3    H120652   4.020   5.113   4.176
 6896TIP3    H220653   4.034   5.262   4.198
 6897TIP3   OH220654   2.581   0.224   4.740
 6897TIP3    H120655   2.502   0.210   4.793
 6897TIP3    H220656   2.555   0.291   4.676
 6898TIP3   OH220657   4.276   6.404   0.403
 6898TIP3    H120658   4.245   6.490   0.375
 6898TIP3    H220659   4.215   6.342   0.363
 6899TIP3   OH220660   3.851   0.488   0.990
 6899TIP3    H120661   3.826   0.575   1.021
 6899TIP3    H220662   3.856   0.496   0.895
 6900TIP3   OH220663   4.457   0.828   5.246
 6900TIP3    H120664   4.447   0.836   5.341
 6900TIP3    H220665   4.547   0.798   5.234
 6901TIP3   OH220666   3.326   3.220   0.277
 6901TIP3    H120667   3.368   3.253   0.356
 6901TIP3    H220668   3.249   3.276   0.266
 6902TIP3   OH220669   6.151   4.189   3.653
 6902TIP3    H120670   6.208   4.216   3.581
 6902TIP3    H220671   6.121   4.102   3.628
 6903TIP3   OH220672   2.854   1.174   5.417
 6903TIP3    H120673   2.946   1.145   5.413
 6903TIP3    H220674   2.804   1.098   5.386
 6904TIP3   OH220675   7.189   5.178   0.731
 6904TIP3    H120676   7.275   5.207   0.701
 6904TIP3    H220677   7.131   5.197   0.658
 6905TIP3   OH220678   6.300   2.871   0.447
 6905TIP3    H120679   6.250   2.896   0.525
 6905TIP3    H220680   6.241   2.813   0.398
 6906TIP3   OH220681   7.198   4.537   3.716
 6906TIP3    H120682   7.215   4.631   3.723
 6906TIP3    H220683   7.285   4.496   3.722
 6907TIP3   OH220684   4.333   2.990   2.999
 6907TIP3    H120685   4.249   2.954   2.969
 6907TIP3    H220686   4.390   2.914   3.006
 6908TIP3   OH220687   4.690   3.504   3.913
 6908TIP3    H120688   4.781   3.529   3.897
 6908TIP3    H220689   4.640   3.550   3.845
 6909TIP3   OH220690   2.428   5.544   3.525
 6909TIP3    H120691   2.438   5.505   3.438
 6909TIP3    H220692   2.405   5.636   3.508
 6910TIP3   OH220693   4.912   4.184   5.350
 6910TIP3    H120694   4.955   4.222   5.274
 6910TIP3    H220695   4.982   4.139   5.398
 6911TIP3   OH220696   0.945   1.910   1.045
 6911TIP3    H120697   0.946   1.875   1.133
 6911TIP3    H220698   0.946   1.833   0.988
 6912TIP3   OH220699   3.386   4.602   1.988
 6912TIP3    H120700   3.456   4.642   2.039
 6912TIP3    H220701   3.305   4.640   2.023
 6913TIP3   OH220702   5.377   3.372   2.253
 6913TIP3    H120703   5.423   3.381   2.336
 6913TIP3    H220704   5.420   3.298   2.209
 6914TIP3   OH220705   2.134   4.602   0.702
 6914TIP3    H120706   2.181   4.680   0.731
 6914TIP3    H220707   2.107   4.621   0.612
 6915TIP3   OH220708   4.767   6.748   0.325
 6915TIP3    H120709   4.680   6.784   0.308
 6915TIP3    H220710   4.775   6.748   0.421
 6916TIP3   OH220711   1.621   6.275   1.958
 6916TIP3    H120712   1.599   6.256   2.049
 6916TIP3    H220713   1.587   6.201   1.908
 6917TIP3   OH220714   4.524   0.121   1.071
 6917TIP3    H120715   4.607   0.075   1.058
 6917TIP3    H220716   4.530   0.156   1.160
 6918TIP3   OH220717   1.709   2.817   0.623
 6918TIP3    H120718   1.623   2.804   0.583
 6918TIP3    H220719   1.761   2.860   0.555
 6919TIP3   OH220720   4.336   3.416   0.284
 6919TIP3    H120721   4.346   3.334   0.331
 6919TIP3    H220722   4.408   3.417   0.221
 6920TIP3   OH220723   2.900   4.450   2.136
 6920TIP3    H120724   2.842   4.523   2.112
 6920TIP3    H220725   2.872   4.426   2.225
 6921TIP3   OH220726   6.308   1.305   4.034
 6921TIP3    H120727   6.257   1.303   3.953
 6921TIP3    H220728   6.358   1.223   4.033
 6922TIP3   OH220729   2.546   3.165   3.748
 6922TIP3    H120730   2.565   3.088   3.802
 6922TIP3    H220731   2.631   3.194   3.715
 6923TIP3   OH220732   3.303   5.918   2.288
 6923TIP3    H120733   3.312   5.920   2.193
 6923TIP3    H220734   3.371   5.858   2.318
 6924TIP3   OH220735   5.820   1.318   2.193
 6924TIP3    H120736   5.890   1.370   2.233
 6924TIP3    H220737   5.812   1.351   2.104
 6925TIP3   OH220738   5.525   0.590   0.574
 6925TIP3    H120739   5.438   0.562   0.604
 6925TIP3    H220740   5.538   0.675   0.614
 6926TIP3   OH220741   6.461   5.220   5.865
 6926TIP3    H120742   6.401   5.146   5.863
 6926TIP3    H220743   6.459   5.255   5.776
 6927TIP3   OH220744   3.837   4.782   4.081
 6927TIP3    H120745   3.777   4.854   4.059
 6927TIP3    H220746   3.910   4.792   4.021
 6928TIP3   OH220747   1.081   4.322   1.497
 6928TIP3    H120748   1.082   4.226   1.495
 6928TIP3    H220749   1.021   4.347   1.427
 6929TIP3   OH220750   2.935   1.678   4.033
 6929TIP3    H120751   2.847   1.641   4.044
 6929TIP3    H220752   2.974   1.626   3.962
 6930TIP3   OH220753   1.754   4.452   0.634
 6930TIP3    H120754   1.752   4.513   0.708
 6930TIP3    H220755   1.798   4.375   0.668
 6931TIP3   OH220756   6.653   2.158   2.804
 6931TIP3    H120757   6.589   2.129   2.739
 6931TIP3    H220758   6.699   2.079   2.830
 6932TIP3   OH220759   5.364   4.558   4.096
 6932TIP3    H120760   5.347   4.648   4.067
 6932TIP3    H220761   5.366   4.507   4.015
 6933TIP3   OH220762   1.110   6.136   3.768
 6933TIP3    H120763   1.202   6.137   3.796
 6933TIP3    H220764   1.069   6.205   3.821
 6934TIP3   OH220765   3.565   5.880   3.056
 6934TIP3    H120766   3.615   5.909   3.133
 6934TIP3    H220767   3.485   5.842   3.092
 6935TIP3   OH220768   5.590   6.001   4.475
 6935TIP3    H120769   5.586   5.912   4.511
 6935TIP3    H220770   5.665   6.041   4.519
 6936TIP3   OH220771   4.663   6.156   0.465
 6936TIP3    H120772   4.694   6.230   0.518
 6936TIP3    H220773   4.703   6.170   0.380
 6937TIP3   OH220774   1.272   4.501   3.919
 6937TIP3    H120775   1.338   4.558   3.959
 6937TIP3    H220776   1.289   4.507   3.825
 6938TIP3   OH220777   3.938   6.608   5.548
 6938TIP3    H120778   3.915   6.615   5.456
 6938TIP3    H220779   3.976   6.693   5.571
 6939TIP3   OH220780   0.960   5.315   2.317
 6939TIP3    H120781   0.899   5.389   2.311
 6939TIP3    H220782   0.982   5.294   2.227
 6940TIP3   OH220783   6.622   3.289   3.254
 6940TIP3    H120784   6.620   3.321   3.165
 6940TIP3    H220785   6.712   3.304   3.284
 6941TIP3   OH220786   1.237   5.736   4.050
 6941TIP3    H120787   1.181   5.660   4.036
 6941TIP3    H220788   1.230   5.786   3.968
 6942TIP3   OH220789   6.935   1.261   4.978
 6942TIP3    H120790   6.933   1.170   5.007
 6942TIP3    H220791   7.024   1.274   4.945
 6943TIP3   OH220792   6.049   3.334   4.364
 6943TIP3    H120793   6.005   3.250   4.357
 6943TIP3    H220794   5.981   3.395   4.390
 6944TIP3   OH220795   4.392   5.948   5.122
 6944TIP3    H120796   4.451   5.953   5.198
 6944TIP3    H220797   4.387   5.855   5.101
 6945TIP3   OH220798   2.641   3.952   2.921
 6945TIP3    H120799   2.652   3.859   2.936
 6945TIP3    H220800   2.661   3.993   3.005
 6946TIP3   OH220801   1.371   0.685   2.338
 6946TIP3    H120802   1.383   0.625   2.412
 6946TIP3    H220803   1.332   0.763   2.378
 6947TIP3   OH220804   3.930   1.196   1.631
 6947TIP3    H120805   3.890   1.157   1.553
 6947TIP3    H220806   4.024   1.198   1.611
 6948TIP3   OH220807   6.496   1.053   5.786
 6948TIP3    H120808   6.562   0.984   5.779
 6948TIP3    H220809   6.413   1.006   5.789
 6949TIP3   OH220810   5.792   2.720   1.886
 6949TIP3    H120811   5.707   2.747   1.923
 6949TIP3    H220812   5.857   2.759   1.945
 6950TIP3   OH220813   4.874   2.763   4.893
 6950TIP3    H120814   4.871   2.714   4.811
 6950TIP3    H220815   4.933   2.836   4.875
 6951TIP3   OH220816   6.277   3.987   5.375
 6951TIP3    H120817   6.192   4.021   5.348
 6951TIP3    H220818   6.325   4.063   5.408
 6952TIP3   OH220819   6.347   0.821   0.193
 6952TIP3    H120820   6.287   0.749   0.171
 6952TIP3    H220821   6.380   0.851   0.108
 6953TIP3   OH220822   5.882   3.454   4.910
 6953TIP3    H120823   5.936   3.513   4.857
 6953TIP3    H220824   5.822   3.512   4.957
 6954TIP3   OH220825   0.435   6.081   1.360
 6954TIP3    H120826   0.381   6.095   1.283
 6954TIP3    H220827   0.388   6.126   1.431
 6955TIP3   OH220828   0.503   2.422   4.233
 6955TIP3    H120829   0.477   2.509   4.264
 6955TIP3    H220830   0.593   2.434   4.204
 6956TIP3   OH220831   6.013   5.077   0.635
 6956TIP3    H120832   6.097   5.048   0.672
 6956TIP3    H220833   5.990   5.154   0.687
 6957TIP3   OH220834   4.388   6.334   0.997
 6957TIP3    H120835   4.402   6.278   1.074
 6957TIP3    H220836   4.400   6.275   0.922
 6958TIP3   OH220837   3.277   0.933   1.143
 6958TIP3    H120838   3.277   0.904   1.234
 6958TIP3    H220839   3.331   0.867   1.097
 6959TIP3   OH220840   0.351   1.917   4.700
 6959TIP3    H120841   0.340   1.950   4.790
 6959TIP3    H220842   0.382   1.993   4.651
 6960TIP3   OH220843   1.813   3.232   4.267
 6960TIP3    H120844   1.828   3.243   4.174
 6960TIP3    H220845   1.751   3.160   4.274
 6961TIP3   OH220846   4.441   2.276   5.452
 6961TIP3    H120847   4.375   2.223   5.407
 6961TIP3    H220848   4.506   2.295   5.384
 6962TIP3   OH220849   2.596   4.547   2.873
 6962TIP3    H120850   2.545   4.608   2.926
 6962TIP3    H220851   2.531   4.487   2.836
 6963TIP3   OH220852   6.846   0.559   3.557
 6963TIP3    H120853   6.911   0.488   3.556
 6963TIP3    H220854   6.875   0.618   3.488
 6964TIP3   OH220855   6.079   0.777   2.998
 6964TIP3    H120856   6.059   0.684   3.013
 6964TIP3    H220857   6.057   0.791   2.906
 6965TIP3   OH220858   5.538   1.375   1.043
 6965TIP3    H120859   5.584   1.304   1.087
 6965TIP3    H220860   5.452   1.338   1.022
 6966TIP3   OH220861   6.861   3.482   0.201
 6966TIP3    H120862   6.835   3.414   0.264
 6966TIP3    H220863   6.956   3.483   0.206
 6967TIP3   OH220864   2.613   3.897   4.281
 6967TIP3    H120865   2.556   3.872   4.354
 6967TIP3    H220866   2.581   3.845   4.207
 6968TIP3   OH220867   1.693   6.628   0.270
 6968TIP3    H120868   1.620   6.583   0.313
 6968TIP3    H220869   1.650   6.687   0.207
 6969TIP3   OH220870   3.945   0.013   0.141
 6969TIP3    H120871   3.986   0.099   0.148
 6969TIP3    H220872   3.938  -0.004   0.047
 6970TIP3   OH220873   1.909   5.833   2.239
 6970TIP3    H120874   1.945   5.921   2.228
 6970TIP3    H220875   1.895   5.802   2.149
 6971TIP3   OH220876   3.858   5.911   0.215
 6971TIP3    H120877   3.874   6.003   0.194
 6971TIP3    H220878   3.938   5.866   0.187
 6972TIP3   OH220879   1.978   6.542   3.507
 6972TIP3    H120880   1.979   6.483   3.583
 6972TIP3    H220881   2.070   6.563   3.492
 6973TIP3   OH220882   1.687   5.780   5.280
 6973TIP3    H120883   1.694   5.854   5.339
 6973TIP3    H220884   1.736   5.710   5.322
 6974TIP3   OH220885   1.559   1.365   5.831
 6974TIP3    H120886   1.477   1.317   5.818
 6974TIP3    H220887   1.541   1.452   5.797
 6975TIP3   OH220888   6.712   3.842   1.887
 6975TIP3    H120889   6.752   3.855   1.800
 6975TIP3    H220890   6.628   3.801   1.868
 6976TIP3   OH220891   1.224   2.806   2.741
 6976TIP3    H120892   1.225   2.900   2.719
 6976TIP3    H220893   1.273   2.800   2.823
 6977TIP3   OH220894   2.864   3.634   5.241
 6977TIP3    H120895   2.801   3.680   5.296
 6977TIP3    H220896   2.830   3.643   5.152
 6978TIP3   OH220897   0.752   3.779   1.319
 6978TIP3    H120898   0.724   3.868   1.295
 6978TIP3    H220899   0.813   3.792   1.392
 6979TIP3   OH220900   2.368   3.365   0.173
 6979TIP3    H120901   2.303   3.434   0.186
 6979TIP3    H220902   2.368   3.349   0.078
 6980TIP3   OH220903   3.283   5.886   1.198
 6980TIP3    H120904   3.226   5.842   1.135
 6980TIP3    H220905   3.364   5.901   1.150
 6981TIP3   OH220906   3.770   2.004   0.081
 6981TIP3    H120907   3.845   2.043   0.037
 6981TIP3    H220908   3.786   2.019   0.174
 6982TIP3   OH220909   6.125   0.876   0.650
 6982TIP3    H120910   6.173   0.861   0.568
 6982TIP3    H220911   6.193   0.885   0.716
 6983TIP3   OH220912   1.751   5.276   4.738
 6983TIP3    H120913   1.838   5.300   4.768
 6983TIP3    H220914   1.751   5.180   4.738
 6984TIP3   OH220915   5.678   0.424   4.524
 6984TIP3    H120916   5.735   0.460   4.455
 6984TIP3    H220917   5.590   0.431   4.488
 6985TIP3   OH220918   0.507   6.189   2.633
 6985TIP3    H120919   0.562   6.207   2.709
 6985TIP3    H220920   0.507   6.093   2.625
 6986TIP3   OH220921   2.257   2.759   1.939
 6986TIP3    H120922   2.192   2.760   1.868
 6986TIP3    H220923   2.209   2.724   2.014
 6987TIP3   OH220924   3.263   1.504   3.317
 6987TIP3    H120925   3.315   1.559   3.257
 6987TIP3    H220926   3.310   1.421   3.320
 6988TIP3   OH220927   1.465   2.435   3.874
 6988TIP3    H120928   1.546   2.385   3.861
 6988TIP3    H220929   1.432   2.449   3.785
 6989TIP3   OH220930   4.901   2.115   2.061
 6989TIP3    H120931   4.881   2.155   2.146
 6989TIP3    H220932   4.882   2.022   2.073
 6990TIP3   OH220933   3.072   4.471   5.270
 6990TIP3    H120934   3.028   4.387   5.284
 6990TIP3    H220935   3.002   4.529   5.238
 6991TIP3   OH220936   3.771   4.476   0.047
 6991TIP3    H120937   3.787   4.486   0.141
 6991TIP3    H220938   3.734   4.560   0.019
 6992TIP3   OH220939   3.377   4.416   4.529
 6992TIP3    H120940   3.326   4.358   4.586
 6992TIP3    H220941   3.321   4.430   4.452
 6993TIP3   OH220942   3.755   5.936   1.125
 6993TIP3    H120943   3.805   5.886   1.061
 6993TIP3    H220944   3.793   6.024   1.122
 6994TIP3   OH220945   4.869   0.852   3.564
 6994TIP3    H120946   4.883   0.836   3.471
 6994TIP3    H220947   4.913   0.936   3.580
 6995TIP3   OH220948   7.073   6.676   0.961
 6995TIP3    H120949   7.141   6.610   0.945
 6995TIP3    H220950   7.069   6.683   1.057
 6996TIP3   OH220951   4.932   0.846   0.911
 6996TIP3    H120952   4.900   0.847   0.821
 6996TIP3    H220953   4.911   0.758   0.942
 6997TIP3   OH220954   4.358   4.558   5.082
 6997TIP3    H120955   4.286   4.515   5.036
 6997TIP3    H220956   4.376   4.501   5.156
 6998TIP3   OH220957   2.380   2.971   0.702
 6998TIP3    H120958   2.445   2.932   0.761
 6998TIP3    H220959   2.397   3.065   0.708
 6999TIP3   OH220960   3.107   0.248   1.833
 6999TIP3    H120961   3.014   0.228   1.839
 6999TIP3    H220962   3.119   0.280   1.743
 7000TIP3   OH220963   0.128   4.803   3.980
 7000TIP3    H120964   0.155   4.845   4.061
 7000TIP3    H220965   0.032   4.809   3.980
 7001TIP3   OH220966   0.043   5.572   1.417
 7001TIP3    H120967   0.088   5.488   1.416
 7001TIP3    H220968   0.060   5.608   1.504
 7002TIP3   OH220969   3.450   6.154   1.911
 7002TIP3    H120970   3.384   6.164   1.843
 7002TIP3    H220971   3.504   6.080   1.882
 7003TIP3   OH220972   0.222   1.692   4.805
 7003TIP3    H120973   0.267   1.769   4.770
 7003TIP3    H220974   0.132   1.721   4.818
 7004TIP3   OH220975   4.351   0.616   0.389
 7004TIP3    H120976   4.344   0.585   0.299
 7004TIP3    H220977   4.441   0.598   0.414
 7005TIP3   OH220978   2.984   3.939   5.308
 7005TIP3    H120979   2.956   3.859   5.353
 7005TIP3    H220980   2.937   3.936   5.224
 7006TIP3   OH220981   0.799   6.188   4.701
 7006TIP3    H120982   0.766   6.151   4.619
 7006TIP3    H220983   0.722   6.226   4.743
 7007TIP3   OH220984   0.140   3.997   2.233
 7007TIP3    H120985   0.128   3.902   2.229
 7007TIP3    H220986   0.057   4.033   2.202
 7008TIP3   OH220987   6.435   0.721   5.678
 7008TIP3    H120988   6.488   0.737   5.756
 7008TIP3    H220989   6.404   0.631   5.688
 7009TIP3   OH220990   4.493   0.538   5.246
 7009TIP3    H120991   4.476   0.533   5.152
 7009TIP3    H220992   4.408   0.553   5.286
 7010TIP3   OH220993   0.611   5.878   0.964
 7010TIP3    H120994   0.553   5.916   0.898
 7010TIP3    H220995   0.577   5.789   0.977
 7011TIP3   OH220996   4.250   4.247   2.391
 7011TIP3    H120997   4.265   4.275   2.482
 7011TIP3    H220998   4.176   4.186   2.397
 7012TIP3   OH220999   6.212   1.678   2.656
 7012TIP3    H121000   6.268   1.670   2.579
 7012TIP3    H221001   6.191   1.771   2.661
 7013TIP3   OH221002   4.886   3.596   2.679
 7013TIP3    H121003   4.934   3.622   2.600
 7013TIP3    H221004   4.954   3.580   2.744
 7014TIP3   OH221005   5.290   3.433   1.997
 7014TIP3    H121006   5.363   3.457   1.940
 7014TIP3    H221007   5.332   3.413   2.081
 7015TIP3   OH221008   2.851   6.187   2.193
 7015TIP3    H121009   2.775   6.218   2.242
 7015TIP3    H221010   2.889   6.266   2.156
 7016TIP3   OH221011   4.736   1.904   3.639
 7016TIP3    H121012   4.793   1.931   3.711
 7016TIP3    H221013   4.753   1.968   3.570
 7017TIP3   OH221014   2.669   1.510   1.779
 7017TIP3    H121015   2.588   1.485   1.823
 7017TIP3    H221016   2.701   1.586   1.828
 7018TIP3   OH221017   2.066   0.584   2.139
 7018TIP3    H121018   2.081   0.663   2.191
 7018TIP3    H221019   2.091   0.512   2.196
 7019TIP3   OH221020   4.743   1.349   3.017
 7019TIP3    H121021   4.704   1.313   2.937
 7019TIP3    H221022   4.811   1.286   3.041
 7020TIP3   OH221023   6.265   5.437   3.365
 7020TIP3    H121024   6.329   5.478   3.424
 7020TIP3    H221025   6.317   5.398   3.295
 7021TIP3   OH221026   3.494   5.117   1.115
 7021TIP3    H121027   3.588   5.128   1.131
 7021TIP3    H221028   3.488   5.046   1.051
 7022TIP3   OH221029   7.000   5.645   5.692
 7022TIP3    H121030   6.948   5.569   5.718
 7022TIP3    H221031   6.977   5.712   5.756
 7023TIP3   OH221032   2.731   1.303   5.794
 7023TIP3    H121033   2.658   1.279   5.850
 7023TIP3    H221034   2.756   1.222   5.751
 7024TIP3   OH221035   6.320   1.346   1.854
 7024TIP3    H121036   6.412   1.371   1.856
 7024TIP3    H221037   6.318   1.260   1.896
 7025TIP3   OH221038   0.418   0.071   2.254
 7025TIP3    H121039   0.467  -0.008   2.228
 7025TIP3    H221040   0.403   0.117   2.172
 7026TIP3   OH221041   2.066   0.456   0.561
 7026TIP3    H121042   1.994   0.456   0.624
 7026TIP3    H221043   2.145   0.454   0.615
 7027TIP3   OH221044   1.710   5.156   2.873
 7027TIP3    H121045   1.787   5.195   2.914
 7027TIP3    H221046   1.690   5.214   2.800
 7028TIP3   OH221047   5.408   1.332   5.783
 7028TIP3    H121048   5.385   1.241   5.804
 7028TIP3    H221049   5.503   1.336   5.794
 7029TIP3   OH221050   2.058   1.252   0.921
 7029TIP3    H121051   2.031   1.319   0.984
 7029TIP3    H221052   2.083   1.177   0.975
 7030TIP3   OH221053   4.361   0.224   3.271
 7030TIP3    H121054   4.348   0.131   3.253
 7030TIP3    H221055   4.434   0.226   3.333
 7031TIP3   OH221056   3.708   0.582   4.057
 7031TIP3    H121057   3.668   0.521   4.118
 7031TIP3    H221058   3.731   0.658   4.110
 7032TIP3   OH221059   1.055   4.725   0.734
 7032TIP3    H121060   1.068   4.752   0.825
 7032TIP3    H221061   1.138   4.685   0.709
 7033TIP3   OH221062   2.827   5.863   3.484
 7033TIP3    H121063   2.910   5.907   3.465
 7033TIP3    H221064   2.816   5.872   3.579
 7034TIP3   OH221065   5.866   0.336   1.014
 7034TIP3    H121066   5.831   0.309   1.099
 7034TIP3    H221067   5.930   0.268   0.992
 7035TIP3   OH221068   6.069   4.758   0.934
 7035TIP3    H121069   6.044   4.850   0.943
 7035TIP3    H221070   6.047   4.736   0.844
 7036TIP3   OH221071   3.432   6.016   4.277
 7036TIP3    H121072   3.387   5.965   4.209
 7036TIP3    H221073   3.477   6.085   4.229
 7037TIP3   OH221074   6.300   6.022   3.499
 7037TIP3    H121075   6.274   5.993   3.586
 7037TIP3    H221076   6.370   6.086   3.516
 7038TIP3   OH221077   3.793   0.742   1.097
 7038TIP3    H121078   3.732   0.789   1.041
 7038TIP3    H221079   3.743   0.726   1.178
 7039TIP3   OH221080   4.397   4.784   2.026
 7039TIP3    H121081   4.450   4.824   2.094
 7039TIP3    H221082   4.338   4.725   2.074
 7040TIP3   OH221083   1.865   4.639   4.491
 7040TIP3    H121084   1.938   4.638   4.552
 7040TIP3    H221085   1.899   4.594   4.413
 7041TIP3   OH221086   6.082   5.802   3.284
 7041TIP3    H121087   6.083   5.856   3.205
 7041TIP3    H221088   6.031   5.725   3.260
 7042TIP3   OH221089   5.254   5.386   5.616
 7042TIP3    H121090   5.246   5.410   5.523
 7042TIP3    H221091   5.328   5.438   5.647
 7043TIP3   OH221092   0.355   0.111   3.287
 7043TIP3    H121093   0.343   0.165   3.209
 7043TIP3    H221094   0.443   0.076   3.278
 7044TIP3   OH221095   6.184   6.113   1.196
 7044TIP3    H121096   6.256   6.051   1.195
 7044TIP3    H221097   6.213   6.183   1.254
 7045TIP3   OH221098   6.100   4.982   4.574
 7045TIP3    H121099   6.051   4.917   4.623
 7045TIP3    H221100   6.073   5.066   4.610
 7046TIP3   OH221101   5.847   4.130   4.158
 7046TIP3    H121102   5.805   4.079   4.088
 7046TIP3    H221103   5.875   4.211   4.115
 7047TIP3   OH221104   4.963   3.358   2.478
 7047TIP3    H121105   5.031   3.387   2.539
 7047TIP3    H221106   5.011   3.316   2.406
 7048TIP3   OH221107   3.354   0.396   5.441
 7048TIP3    H121108   3.261   0.384   5.423
 7048TIP3    H221109   3.357   0.465   5.507
 7049TIP3   OH221110   3.706   5.815   1.416
 7049TIP3    H121111   3.667   5.728   1.410
 7049TIP3    H221112   3.675   5.861   1.338
 7050TIP3   OH221113   4.598   4.450   5.783
 7050TIP3    H121114   4.592   4.399   5.702
 7050TIP3    H221115   4.687   4.487   5.780
 7051TIP3   OH221116   0.735   0.809   0.040
 7051TIP3    H121117   0.745   0.761  -0.042
 7051TIP3    H221118   0.712   0.742   0.104
 7052TIP3   OH221119   0.254   3.495   2.377
 7052TIP3    H121120   0.200   3.572   2.392
 7052TIP3    H221121   0.336   3.529   2.343
 7053TIP3   OH221122   0.616   0.805   4.066
 7053TIP3    H121123   0.664   0.729   4.034
 7053TIP3    H221124   0.533   0.803   4.018
 7054TIP3   OH221125   0.121   4.411   4.203
 7054TIP3    H121126   0.073   4.487   4.235
 7054TIP3    H221127   0.093   4.339   4.258
 7055TIP3   OH221128   0.539   1.244   2.145
 7055TIP3    H121129   0.492   1.203   2.072
 7055TIP3    H221130   0.589   1.173   2.184
 7056TIP3   OH221131   0.078   5.750   4.899
 7056TIP3    H121132   0.035   5.722   4.979
 7056TIP3    H221133   0.083   5.671   4.845
 7057TIP3   OH221134   1.539   5.980   2.739
 7057TIP3    H121135   1.469   5.915   2.745
 7057TIP3    H221136   1.619   5.928   2.735
 7058TIP3   OH221137   3.251   5.256   5.713
 7058TIP3    H121138   3.239   5.264   5.808
 7058TIP3    H221139   3.163   5.243   5.679
 7059TIP3   OH221140   3.338   5.461   1.142
 7059TIP3    H121141   3.372   5.372   1.127
 7059TIP3    H221142   3.398   5.518   1.093
 7060TIP3   OH221143   3.650   5.409   1.583
 7060TIP3    H121144   3.729   5.460   1.601
 7060TIP3    H221145   3.644   5.407   1.487
 7061TIP3   OH221146   3.646   0.079   2.748
 7061TIP3    H121147   3.741   0.077   2.748
 7061TIP3    H221148   3.621   0.035   2.830
 7062TIP3   OH221149   4.876   5.478   5.773
 7062TIP3    H121150   4.933   5.405   5.748
 7062TIP3    H221151   4.823   5.443   5.844
 7063TIP3   OH221152   1.939   2.510   3.175
 7063TIP3    H121153   1.982   2.452   3.237
 7063TIP3    H221154   1.953   2.598   3.209
 7064TIP3   OH221155   0.832   1.596   0.126
 7064TIP3    H121156   0.846   1.558   0.213
 7064TIP3    H221157   0.875   1.536   0.066
 7065TIP3   OH221158   3.445   0.971   0.766
 7065TIP3    H121159   3.383   0.928   0.825
 7065TIP3    H221160   3.408   0.957   0.679
 7066TIP3   OH221161   6.491   4.381   4.739
 7066TIP3    H121162   6.547   4.306   4.720
 7066TIP3    H221163   6.452   4.404   4.655
 7067TIP3   OH221164   4.680   0.813   4.589
 7067TIP3    H121165   4.750   0.775   4.536
 7067TIP3    H221166   4.703   0.790   4.679
 7068TIP3   OH221167   5.027   0.537   5.755
 7068TIP3    H121168   5.054   0.535   5.846
 7068TIP3    H221169   4.964   0.609   5.750
 7069TIP3   OH221170   1.405   3.741   2.763
 7069TIP3    H121171   1.330   3.795   2.789
 7069TIP3    H221172   1.373   3.690   2.688
 7070TIP3   OH221173   4.674   4.236   0.189
 7070TIP3    H121174   4.725   4.219   0.110
 7070TIP3    H221175   4.714   4.180   0.256
 7071TIP3   OH221176   5.212   5.484   3.322
 7071TIP3    H121177   5.157   5.537   3.380
 7071TIP3    H221178   5.152   5.453   3.254
 7072TIP3   OH221179   3.794   5.228   2.699
 7072TIP3    H121180   3.827   5.307   2.742
 7072TIP3    H221181   3.709   5.213   2.740
 7073TIP3   OH221182   4.774   5.909   2.072
 7073TIP3    H121183   4.841   5.858   2.026
 7073TIP3    H221184   4.755   5.982   2.012
 7074TIP3   OH221185   5.507   5.666   0.001
 7074TIP3    H121186   5.575   5.619   0.050
 7074TIP3    H221187   5.546   5.685  -0.084
 7075TIP3   OH221188   0.283   2.677   0.943
 7075TIP3    H121189   0.248   2.727   1.016
 7075TIP3    H221190   0.364   2.723   0.919
 7076TIP3   OH221191   0.390   0.051   0.891
 7076TIP3    H121192   0.327   0.081   0.957
 7076TIP3    H221193   0.362  -0.038   0.870
 7077TIP3   OH221194   0.989   3.992   5.032
 7077TIP3    H121195   0.911   3.965   5.079
 7077TIP3    H221196   0.982   4.087   5.027
 7078TIP3   OH221197   4.628   5.513   3.293
 7078TIP3    H121198   4.567   5.582   3.266
 7078TIP3    H221199   4.705   5.526   3.237
 7079TIP3   OH221200   5.423   6.729   5.025
 7079TIP3    H121201   5.474   6.808   5.012
 7079TIP3    H221202   5.378   6.743   5.109
 7080TIP3   OH221203   3.178   1.360   4.642
 7080TIP3    H121204   3.226   1.429   4.597
 7080TIP3    H221205   3.089   1.366   4.608
 7081TIP3   OH221206   5.488   0.131   3.810
 7081TIP3    H121207   5.496   0.212   3.860
 7081TIP3    H221208   5.394   0.116   3.804
 7082TIP3   OH221209   1.611   1.169   2.465
 7082TIP3    H121210   1.590   1.241   2.406
 7082TIP3    H221211   1.686   1.125   2.425
 7083TIP3   OH221212   2.146   2.714   1.278
 7083TIP3    H121213   2.229   2.758   1.292
 7083TIP3    H221214   2.083   2.785   1.261
 7084TIP3   OH221215   0.958   4.277   2.202
 7084TIP3    H121216   0.901   4.348   2.173
 7084TIP3    H221217   1.018   4.263   2.129
 7085TIP3   OH221218   3.410   1.307   0.040
 7085TIP3    H121219   3.437   1.394   0.070
 7085TIP3    H221220   3.445   1.247   0.106
 7086TIP3   OH221221   6.660   6.520   1.557
 7086TIP3    H121222   6.603   6.492   1.629
 7086TIP3    H221223   6.702   6.600   1.589
 7087TIP3   OH221224   0.313   5.648   2.004
 7087TIP3    H121225   0.336   5.740   1.996
 7087TIP3    H221226   0.265   5.642   2.087
 7088TIP3   OH221227   5.443   4.912   4.227
 7088TIP3    H121228   5.538   4.900   4.227
 7088TIP3    H221229   5.420   4.920   4.134
 7089TIP3   OH221230   1.488   2.099   1.566
 7089TIP3    H121231   1.555   2.076   1.501
 7089TIP3    H221232   1.510   2.047   1.643
 7090TIP3   OH221233   6.428   5.827   5.251
 7090TIP3    H121234   6.354   5.768   5.235
 7090TIP3    H221235   6.388   5.913   5.262
 7091TIP3   OH221236   1.087   2.657   2.994
 7091TIP3    H121237   0.993   2.642   2.984
 7091TIP3    H221238   1.097   2.679   3.087
 7092TIP3   OH221239   1.533   2.807   4.639
 7092TIP3    H121240   1.463   2.832   4.699
 7092TIP3    H221241   1.614   2.825   4.687
 7093TIP3   OH221242   6.760   0.411   1.953
 7093TIP3    H121243   6.790   0.431   1.865
 7093TIP3    H221244   6.733   0.495   1.990
 7094TIP3   OH221245   0.715   1.008   4.802
 7094TIP3    H121246   0.630   0.977   4.771
 7094TIP3    H221247   0.779   0.956   4.752
 7095TIP3   OH221248   3.368   6.687   5.187
 7095TIP3    H121249   3.294   6.639   5.225
 7095TIP3    H221250   3.440   6.624   5.187
 7096TIP3   OH221251   1.865   6.483   4.634
 7096TIP3    H121252   1.784   6.432   4.635
 7096TIP3    H221253   1.837   6.573   4.619
 7097TIP3   OH221254   2.911   4.913   0.828
 7097TIP3    H121255   2.937   4.984   0.887
 7097TIP3    H221256   2.837   4.948   0.779
 7098TIP3   OH221257   4.156   6.557   4.610
 7098TIP3    H121258   4.091   6.487   4.613
 7098TIP3    H221259   4.115   6.630   4.657
 7099TIP3   OH221260   0.310   0.297   5.160
 7099TIP3    H121261   0.343   0.313   5.072
 7099TIP3    H221262   0.365   0.226   5.194
 7100TIP3   OH221263   2.010   5.469   0.833
 7100TIP3    H121264   1.980   5.518   0.756
 7100TIP3    H221265   2.004   5.532   0.905
 7101TIP3   OH221266   5.284   2.902   3.446
 7101TIP3    H121267   5.258   2.988   3.481
 7101TIP3    H221268   5.207   2.847   3.458
 7102TIP3   OH221269   4.046   6.563   1.282
 7102TIP3    H121270   4.069   6.630   1.346
 7102TIP3    H221271   4.126   6.548   1.231
 7103TIP3   OH221272   3.869   5.092   1.757
 7103TIP3    H121273   3.906   5.166   1.709
 7103TIP3    H221274   3.942   5.056   1.806
 7104TIP3   OH221275   3.315   3.902   0.822
 7104TIP3    H121276   3.323   3.988   0.863
 7104TIP3    H221277   3.227   3.872   0.845
 7105TIP3   OH221278   3.689   1.743   0.579
 7105TIP3    H121279   3.721   1.727   0.490
 7105TIP3    H221280   3.597   1.717   0.577
 7106TIP3   OH221281   1.109   3.094   0.409
 7106TIP3    H121282   1.100   3.049   0.493
 7106TIP3    H221283   1.191   3.061   0.372
 7107TIP3   OH221284   5.169   4.045   0.342
 7107TIP3    H121285   5.262   4.037   0.361
 7107TIP3    H221286   5.141   3.957   0.317
 7108TIP3   OH221287   5.483   1.461   2.201
 7108TIP3    H121288   5.489   1.446   2.295
 7108TIP3    H221289   5.495   1.374   2.162
 7109TIP3   OH221290   0.620   1.955   2.183
 7109TIP3    H121291   0.650   2.016   2.250
 7109TIP3    H221292   0.539   1.994   2.150
 7110TIP3   OH221293   3.059   0.229   2.977
 7110TIP3    H121294   3.129   0.186   3.027
 7110TIP3    H221295   3.069   0.194   2.889
 7111TIP3   OH221296   6.745   1.875   0.922
 7111TIP3    H121297   6.676   1.900   0.860
 7111TIP3    H221298   6.825   1.909   0.883
 7112TIP3   OH221299   4.715   0.979   3.967
 7112TIP3    H121300   4.675   0.983   3.880
 7112TIP3    H221301   4.661   0.915   4.015
 7113TIP3   OH221302   0.678   3.980   2.671
 7113TIP3    H121303   0.664   4.068   2.636
 7113TIP3    H221304   0.706   3.994   2.762
 7114TIP3   OH221305   3.401   6.039   0.709
 7114TIP3    H121306   3.481   6.025   0.760
 7114TIP3    H221307   3.419   5.995   0.625
 7115TIP3   OH221308   2.419   1.310   5.042
 7115TIP3    H121309   2.476   1.385   5.025
 7115TIP3    H221310   2.402   1.313   5.136
 7116TIP3   OH221311   5.845   4.519   1.780
 7116TIP3    H121312   5.878   4.570   1.706
 7116TIP3    H221313   5.905   4.539   1.851
 7117TIP3   OH221314   2.494   2.409   3.340
 7117TIP3    H121315   2.525   2.472   3.275
 7117TIP3    H221316   2.533   2.440   3.422
 7118TIP3   OH221317   3.746   2.389   4.869
 7118TIP3    H121318   3.808   2.327   4.906
 7118TIP3    H221319   3.669   2.337   4.846
 7119TIP3   OH221320   0.281   5.170   2.802
 7119TIP3    H121321   0.339   5.100   2.771
 7119TIP3    H221322   0.194   5.129   2.806
 7120TIP3   OH221323   3.625   6.509   0.211
 7120TIP3    H121324   3.553   6.568   0.233
 7120TIP3    H221325   3.585   6.442   0.156
 7121TIP3   OH221326   5.913   4.257   3.463
 7121TIP3    H121327   5.884   4.348   3.458
 7121TIP3    H221328   5.857   4.218   3.531
 7122TIP3   OH221329   4.556   1.649   2.161
 7122TIP3    H121330   4.549   1.587   2.234
 7122TIP3    H221331   4.497   1.721   2.185
 7123TIP3   OH221332   2.669   6.085   0.752
 7123TIP3    H121333   2.764   6.086   0.767
 7123TIP3    H221334   2.642   5.998   0.779
 7124TIP3   OH221335   1.307   6.264   4.144
 7124TIP3    H121336   1.346   6.270   4.231
 7124TIP3    H221337   1.215   6.289   4.156
 7125TIP3   OH221338   2.796   5.962   0.037
 7125TIP3    H121339   2.784   5.952  -0.057
 7125TIP3    H221340   2.712   5.995   0.068
 7126TIP3   OH221341   1.845   5.614   5.424
 7126TIP3    H121342   1.940   5.621   5.434
 7126TIP3    H221343   1.818   5.558   5.496
 7127TIP3   OH221344   5.077   4.734   2.742
 7127TIP3    H121345   5.107   4.768   2.826
 7127TIP3    H221346   5.122   4.650   2.732
 7128TIP3   OH221347   1.417   2.862   2.933
 7128TIP3    H121348   1.461   2.805   2.996
 7128TIP3    H221349   1.468   2.851   2.852
 7129TIP3   OH221350   1.577   4.529   2.534
 7129TIP3    H121351   1.635   4.465   2.494
 7129TIP3    H221352   1.625   4.612   2.529
 7130TIP3   OH221353   3.458   2.074   3.806
 7130TIP3    H121354   3.439   2.117   3.723
 7130TIP3    H221355   3.393   2.004   3.813
 7131TIP3   OH221356   3.664   4.437   2.268
 7131TIP3    H121357   3.662   4.522   2.225
 7131TIP3    H221358   3.727   4.386   2.218
 7132TIP3   OH221359   4.407   5.200   4.031
 7132TIP3    H121360   4.401   5.291   4.001
 7132TIP3    H221361   4.359   5.200   4.114
 7133TIP3   OH221362   6.621   2.943   3.851
 7133TIP3    H121363   6.604   2.971   3.761
 7133TIP3    H221364   6.612   3.023   3.903
 7134TIP3   OH221365   5.404   3.268   4.145
 7134TIP3    H121366   5.488   3.309   4.126
 7134TIP3    H221367   5.339   3.336   4.125
 7135TIP3   OH221368   5.963   6.264   5.005
 7135TIP3    H121369   5.924   6.220   5.080
 7135TIP3    H221370   5.908   6.237   4.931
 7136TIP3   OH221371   4.992   5.928   3.065
 7136TIP3    H121372   5.070   5.890   3.024
 7136TIP3    H221373   4.989   6.018   3.032
 7137TIP3   OH221374   6.690   3.232   5.055
 7137TIP3    H121375   6.739   3.253   5.135
 7137TIP3    H221376   6.681   3.137   5.057
 7138TIP3   OH221377   5.909   6.175   2.049
 7138TIP3    H121378   5.951   6.093   2.074
 7138TIP3    H221379   5.982   6.237   2.038
 7139TIP3   OH221380   6.475   4.391   5.802
 7139TIP3    H121381   6.418   4.389   5.878
 7139TIP3    H221382   6.489   4.484   5.784
 7140TIP3   OH221383   6.443   6.371   5.400
 7140TIP3    H121384   6.520   6.324   5.433
 7140TIP3    H221385   6.372   6.344   5.457
 7141TIP3   OH221386   4.789   2.736   5.539
 7141TIP3    H121387   4.819   2.671   5.602
 7141TIP3    H221388   4.760   2.810   5.593
 7142TIP3   OH221389   3.730   5.292   1.896
 7142TIP3    H121390   3.791   5.363   1.916
 7142TIP3    H221391   3.786   5.215   1.886
 7143TIP3   OH221392   4.811   5.770   4.120
 7143TIP3    H121393   4.807   5.696   4.180
 7143TIP3    H221394   4.890   5.818   4.145
 7144TIP3   OH221395   3.130   3.887   5.791
 7144TIP3    H121396   3.147   3.948   5.719
 7144TIP3    H221397   3.184   3.918   5.863
 7145TIP3   OH221398   5.772   3.244   1.553
 7145TIP3    H121399   5.819   3.160   1.552
 7145TIP3    H221400   5.836   3.306   1.589
 7146TIP3   OH221401   4.830   1.262   5.894
 7146TIP3    H121402   4.861   1.241   5.983
 7146TIP3    H221403   4.909   1.291   5.848
 7147TIP3   OH221404   1.093   4.444   1.777
 7147TIP3    H121405   1.147   4.402   1.710
 7147TIP3    H221406   1.005   4.448   1.737
 7148TIP3   OH221407   1.492   2.695   5.367
 7148TIP3    H121408   1.584   2.690   5.392
 7148TIP3    H221409   1.445   2.671   5.447
 7149TIP3   OH221410   4.854   3.285   3.302
 7149TIP3    H121411   4.949   3.298   3.303
 7149TIP3    H221412   4.818   3.370   3.275
 7150TIP3   OH221413   5.367   3.608   3.924
 7150TIP3    H121414   5.381   3.623   4.018
 7150TIP3    H221415   5.289   3.551   3.921
 7151TIP3   OH221416   6.825   6.600   4.906
 7151TIP3    H121417   6.756   6.666   4.903
 7151TIP3    H221418   6.835   6.573   4.815
 7152TIP3   OH221419   6.181   2.540   4.323
 7152TIP3    H121420   6.218   2.558   4.410
 7152TIP3    H221421   6.243   2.480   4.282
 7153TIP3   OH221422   2.892   4.267   1.175
 7153TIP3    H121423   2.943   4.206   1.120
 7153TIP3    H221424   2.933   4.352   1.160
 7154TIP3   OH221425   6.532   0.141   2.616
 7154TIP3    H121426   6.437   0.150   2.607
 7154TIP3    H221427   6.568   0.192   2.544
 7155TIP3   OH221428   0.142   1.284   1.078
 7155TIP3    H121429   0.227   1.255   1.110
 7155TIP3    H221430   0.160   1.321   0.991
 7156TIP3   OH221431   1.635   3.920   1.804
 7156TIP3    H121432   1.560   3.958   1.849
 7156TIP3    H221433   1.673   3.992   1.754
 7157TIP3   OH221434   0.722   4.830   0.483
 7157TIP3    H121435   0.774   4.883   0.423
 7157TIP3    H221436   0.668   4.894   0.530
 7158TIP3   OH221437   5.673   6.317   2.032
 7158TIP3    H121438   5.761   6.282   2.023
 7158TIP3    H221439   5.664   6.335   2.126
 7159TIP3   OH221440   5.894   4.770   3.566
 7159TIP3    H121441   5.936   4.752   3.482
 7159TIP3    H221442   5.966   4.775   3.628
 7160TIP3   OH221443   0.809   3.603   5.519
 7160TIP3    H121444   0.722   3.643   5.523
 7160TIP3    H221445   0.812   3.545   5.595
 7161TIP3   OH221446   3.500   5.891   1.037
 7161TIP3    H121447   3.569   5.950   1.067
 7161TIP3    H221448   3.541   5.838   0.969
 7162TIP3   OH221449   5.964   6.515   3.763
 7162TIP3    H121450   6.041   6.475   3.802
 7162TIP3    H221451   5.997   6.596   3.723
 7163TIP3   OH221452   0.471   2.716   5.483
 7163TIP3    H121453   0.461   2.780   5.553
 7163TIP3    H221454   0.403   2.651   5.500
 7164TIP3   OH221455   1.956   0.535   3.497
 7164TIP3    H121456   1.936   0.599   3.429
 7164TIP3    H221457   1.870   0.507   3.529
 7165TIP3   OH221458   0.783   1.341   3.810
 7165TIP3    H121459   0.851   1.405   3.789
 7165TIP3    H221460   0.728   1.386   3.874
 7166TIP3   OH221461   5.060   6.182   0.314
 7166TIP3    H121462   5.114   6.186   0.234
 7166TIP3    H221463   5.092   6.104   0.360
 7167TIP3   OH221464   4.982   1.353   4.524
 7167TIP3    H121465   4.928   1.422   4.485
 7167TIP3    H221466   4.999   1.292   4.453
 7168TIP3   OH221467   3.204   0.336   4.266
 7168TIP3    H121468   3.119   0.357   4.228
 7168TIP3    H221469   3.257   0.306   4.192
 7169TIP3   OH221470   1.062   0.607   4.353
 7169TIP3    H121471   1.005   0.649   4.289
 7169TIP3    H221472   1.148   0.647   4.340
 7170TIP3   OH221473   2.641   0.620   1.931
 7170TIP3    H121474   2.719   0.676   1.927
 7170TIP3    H221475   2.660   0.548   1.871
 7171TIP3   OH221476   1.921   2.447   1.391
 7171TIP3    H121477   1.942   2.462   1.299
 7171TIP3    H221478   1.827   2.461   1.397
 7172TIP3   OH221479   5.609   0.570   3.747
 7172TIP3    H121480   5.649   0.646   3.705
 7172TIP3    H221481   5.522   0.599   3.772
 7173TIP3   OH221482   2.645   0.838   2.491
 7173TIP3    H121483   2.632   0.804   2.402
 7173TIP3    H221484   2.739   0.831   2.505
 7174TIP3   OH221485   0.255   2.532   2.587
 7174TIP3    H121486   0.307   2.453   2.569
 7174TIP3    H221487   0.303   2.602   2.543
 7175TIP3   OH221488   0.514   3.049   3.993
 7175TIP3    H121489   0.563   3.102   4.057
 7175TIP3    H221490   0.582   3.004   3.943
 7176TIP3   OH221491   2.083   1.802   4.598
 7176TIP3    H121492   2.085   1.894   4.572
 7176TIP3    H221493   2.164   1.790   4.649
 7177TIP3   OH221494   3.026   6.229   5.589
 7177TIP3    H121495   3.050   6.319   5.613
 7177TIP3    H221496   3.095   6.201   5.529
 7178TIP3   OH221497   4.011   6.417   2.929
 7178TIP3    H121498   4.050   6.395   3.014
 7178TIP3    H221499   3.981   6.333   2.895
 7179TIP3   OH221500   6.022   2.792   2.076
 7179TIP3    H121501   6.085   2.779   2.005
 7179TIP3    H221502   6.061   2.860   2.131
 7180TIP3   OH221503   0.581   2.998   1.182
 7180TIP3    H121504   0.552   3.028   1.268
 7180TIP3    H221505   0.503   3.002   1.128
 7181TIP3   OH221506   1.027   6.373   5.616
 7181TIP3    H121507   1.075   6.301   5.574
 7181TIP3    H221508   1.050   6.450   5.564
 7182TIP3   OH221509   5.505   4.078   4.984
 7182TIP3    H121510   5.558   3.998   4.976
 7182TIP3    H221511   5.429   4.062   4.928
 7183TIP3   OH221512   5.761   4.029   5.671
 7183TIP3    H121513   5.786   4.117   5.642
 7183TIP3    H221514   5.827   3.971   5.632
 7184TIP3   OH221515   4.614   4.667   1.328
 7184TIP3    H121516   4.531   4.707   1.303
 7184TIP3    H221517   4.618   4.678   1.423
 7185TIP3   OH221518   1.602   4.310   0.207
 7185TIP3    H121519   1.623   4.251   0.134
 7185TIP3    H221520   1.507   4.317   0.205
 7186TIP3   OH221521   2.662   4.921   2.940
 7186TIP3    H121522   2.653   5.016   2.936
 7186TIP3    H221523   2.747   4.907   2.981
 7187TIP3   OH221524   6.963   5.859   5.343
 7187TIP3    H121525   6.922   5.904   5.417
 7187TIP3    H221526   6.932   5.769   5.350
 7188TIP3   OH221527   3.163   2.307   5.608
 7188TIP3    H121528   3.134   2.283   5.520
 7188TIP3    H221529   3.225   2.378   5.594
 7189TIP3   OH221530   6.896   4.013   4.646
 7189TIP3    H121531   6.818   4.048   4.603
 7189TIP3    H221532   6.968   4.067   4.613
 7190TIP3   OH221533   6.070   5.244   3.582
 7190TIP3    H121534   6.138   5.231   3.516
 7190TIP3    H221535   6.085   5.332   3.615
 7191TIP3   OH221536   6.134   1.580   0.184
 7191TIP3    H121537   6.162   1.491   0.205
 7191TIP3    H221538   6.152   1.630   0.263
 7192TIP3   OH221539   3.365   2.385   2.090
 7192TIP3    H121540   3.330   2.455   2.144
 7192TIP3    H221541   3.418   2.430   2.024
 7193TIP3   OH221542   5.081   1.597   5.237
 7193TIP3    H121543   5.176   1.597   5.220
 7193TIP3    H221544   5.074   1.578   5.330
 7194TIP3   OH221545   1.730   1.831   3.834
 7194TIP3    H121546   1.658   1.770   3.817
 7194TIP3    H221547   1.691   1.901   3.886
 7195TIP3   OH221548   0.388   2.796   4.119
 7195TIP3    H121549   0.424   2.869   4.069
 7195TIP3    H221550   0.322   2.758   4.061
 7196TIP3   OH221551   6.838   0.364   2.552
 7196TIP3    H121552   6.827   0.367   2.647
 7196TIP3    H221553   6.750   0.374   2.516
 7197TIP3   OH221554   5.513   3.721   1.477
 7197TIP3    H121555   5.472   3.786   1.420
 7197TIP3    H221556   5.524   3.767   1.561
 7198TIP3   OH221557   6.160   0.614   4.928
 7198TIP3    H121558   6.166   0.696   4.880
 7198TIP3    H221559   6.159   0.546   4.860
 7199TIP3   OH221560   6.740   4.343   4.364
 7199TIP3    H121561   6.680   4.329   4.291
 7199TIP3    H221562   6.719   4.272   4.425
 7200TIP3   OH221563   0.955   3.851   4.786
 7200TIP3    H121564   0.911   3.933   4.763
 7200TIP3    H221565   1.000   3.871   4.869
 7201TIP3   OH221566   6.566   3.071   3.621
 7201TIP3    H121567   6.589   3.145   3.678
 7201TIP3    H221568   6.640   3.063   3.561
 7202TIP3   OH221569   4.771   4.885   0.240
 7202TIP3    H121570   4.764   4.977   0.217
 7202TIP3    H221571   4.835   4.883   0.312
 7203TIP3   OH221572   0.013   0.380   5.661
 7203TIP3    H121573   0.066   0.306   5.693
 7203TIP3    H221574   0.012   0.441   5.734
 7204TIP3   OH221575   2.534  -0.015   4.995
 7204TIP3    H121576   2.528  -0.011   5.090
 7204TIP3    H221577   2.483   0.061   4.965
 7205TIP3   OH221578   3.594   5.875   0.233
 7205TIP3    H121579   3.551   5.877   0.148
 7205TIP3    H221580   3.684   5.904   0.215
 7206TIP3   OH221581   2.555   2.448   1.377
 7206TIP3    H121582   2.602   2.437   1.295
 7206TIP3    H221583   2.462   2.446   1.352
 7207TIP3   OH221584   1.213   3.450   0.401
 7207TIP3    H121585   1.201   3.537   0.363
 7207TIP3    H221586   1.248   3.397   0.329
 7208TIP3   OH221587   0.979   2.706   2.154
 7208TIP3    H121588   1.046   2.686   2.219
 7208TIP3    H221589   0.935   2.623   2.139
 7209TIP3   OH221590   4.729   6.288   3.175
 7209TIP3    H121591   4.729   6.200   3.213
 7209TIP3    H221592   4.792   6.283   3.103
 7210TIP3   OH221593   6.594   1.078   1.267
 7210TIP3    H121594   6.654   1.129   1.213
 7210TIP3    H221595   6.651   1.029   1.326
 7211TIP3   OH221596   7.073   0.499   3.817
 7211TIP3    H121597   7.119   0.418   3.794
 7211TIP3    H221598   7.057   0.542   3.733
 7212TIP3   OH221599   5.110   0.419   3.221
 7212TIP3    H121600   5.045   0.350   3.235
 7212TIP3    H221601   5.077   0.468   3.146
 7213TIP3   OH221602   0.638   2.698   2.327
 7213TIP3    H121603   0.705   2.705   2.395
 7213TIP3    H221604   0.679   2.737   2.249
 7214TIP3   OH221605   5.643   5.291   4.139
 7214TIP3    H121606   5.603   5.336   4.213
 7214TIP3    H221607   5.726   5.258   4.172
 7215TIP3   OH221608   7.098   0.968   0.322
 7215TIP3    H121609   7.155   0.899   0.356
 7215TIP3    H221610   7.049   0.998   0.399
 7216TIP3   OH221611   6.006   3.240   0.432
 7216TIP3    H121612   6.001   3.200   0.345
 7216TIP3    H221613   5.914   3.249   0.459
 7217TIP3   OH221614   1.181   2.529   0.237
 7217TIP3    H121615   1.261   2.478   0.246
 7217TIP3    H221616   1.140   2.525   0.324
 7218TIP3   OH221617   6.510   0.261   0.631
 7218TIP3    H121618   6.540   0.326   0.567
 7218TIP3    H221619   6.457   0.199   0.581
 7219TIP3   OH221620   2.050   0.607   1.024
 7219TIP3    H121621   2.144   0.600   1.040
 7219TIP3    H221622   2.041   0.688   0.973
 7220TIP3   OH221623   3.677   1.593   4.656
 7220TIP3    H121624   3.766   1.597   4.691
 7220TIP3    H221625   3.632   1.529   4.711
 7221TIP3   OH221626   3.675   4.496   4.638
 7221TIP3    H121627   3.742   4.471   4.575
 7221TIP3    H221628   3.592   4.486   4.590
 7222TIP3   OH221629   0.321   6.435   3.913
 7222TIP3    H121630   0.415   6.432   3.928
 7222TIP3    H221631   0.287   6.494   3.980
 7223TIP3   OH221632   3.317   2.722   3.761
 7223TIP3    H121633   3.261   2.785   3.715
 7223TIP3    H221634   3.324   2.757   3.850
 7224TIP3   OH221635   6.911   0.284   1.378
 7224TIP3    H121636   6.877   0.293   1.289
 7224TIP3    H221637   6.940   0.192   1.383
 7225TIP3   OH221638   6.588   2.037   1.814
 7225TIP3    H121639   6.584   2.110   1.752
 7225TIP3    H221640   6.604   2.079   1.899
 7226TIP3   OH221641   1.238   4.139   4.771
 7226TIP3    H121642   1.143   4.135   4.787
 7226TIP3    H221643   1.249   4.215   4.713
 7227TIP3   OH221644   5.163   4.449   4.264
 7227TIP3    H121645   5.131   4.527   4.220
 7227TIP3    H221646   5.084   4.399   4.286
 7228TIP3   OH221647   3.235   6.666   4.910
 7228TIP3    H121648   3.309   6.724   4.890
 7228TIP3    H221649   3.274   6.592   4.956
 7229TIP3   OH221650   2.942   4.981   5.262
 7229TIP3    H121651   3.006   4.941   5.204
 7229TIP3    H221652   2.991   5.049   5.308
 7230TIP3   OH221653   3.446   5.715   2.501
 7230TIP3    H121654   3.489   5.632   2.521
 7230TIP3    H221655   3.355   5.702   2.530
 7231TIP3   OH221656   1.054   0.082   1.511
 7231TIP3    H121657   0.994   0.140   1.464
 7231TIP3    H221658   1.061   0.121   1.598
 7232TIP3   OH221659   6.887   3.565   3.194
 7232TIP3    H121660   6.831   3.578   3.118
 7232TIP3    H221661   6.826   3.552   3.267
 7233TIP3   OH221662   3.951   4.681   3.302
 7233TIP3    H121663   4.041   4.664   3.275
 7233TIP3    H221664   3.924   4.756   3.248
 7234TIP3   OH221665   1.640   0.531   4.430
 7234TIP3    H121666   1.705   0.582   4.479
 7234TIP3    H221667   1.619   0.586   4.354
 7235TIP3   OH221668   5.751   4.670   4.672
 7235TIP3    H121669   5.833   4.624   4.653
 7235TIP3    H221670   5.758   4.695   4.764
 7236TIP3   OH221671   2.350   2.499   2.299
 7236TIP3    H121672   2.430   2.541   2.328
 7236TIP3    H221673   2.334   2.431   2.365
 7237TIP3   OH221674   0.217   6.783   4.495
 7237TIP3    H121675   0.145   6.810   4.438
 7237TIP3    H221676   0.241   6.695   4.464
 7238TIP3   OH221677   0.438   1.021   1.526
 7238TIP3    H121678   0.417   1.114   1.518
 7238TIP3    H221679   0.438   0.988   1.436
 7239TIP3   OH221680   5.363   5.401   5.331
 7239TIP3    H121681   5.440   5.455   5.313
 7239TIP3    H221682   5.384   5.315   5.293
 7240TIP3   OH221683   3.770   0.624   5.647
 7240TIP3    H121684   3.700   0.600   5.708
 7240TIP3    H221685   3.733   0.609   5.560
 7241TIP3   OH221686   5.472   4.121   2.513
 7241TIP3    H121687   5.415   4.164   2.577
 7241TIP3    H221688   5.440   4.152   2.428
 7242TIP3   OH221689   5.014   6.296   1.814
 7242TIP3    H121690   4.986   6.251   1.893
 7242TIP3    H221691   5.096   6.253   1.790
 7243TIP3   OH221692   1.542   0.953   0.456
 7243TIP3    H121693   1.569   0.918   0.541
 7243TIP3    H221694   1.543   1.048   0.468
 7244TIP3   OH221695   2.752   0.058   0.783
 7244TIP3    H121696   2.805  -0.020   0.770
 7244TIP3    H221697   2.685   0.032   0.846
 7245TIP3   OH221698   5.660   6.640   2.770
 7245TIP3    H121699   5.727   6.660   2.704
 7245TIP3    H221700   5.707   6.592   2.838
 7246TIP3   OH221701   6.843   0.913   3.518
 7246TIP3    H121702   6.905   0.973   3.476
 7246TIP3    H221703   6.898   0.851   3.566
 7247TIP3   OH221704   0.730   5.445   2.303
 7247TIP3    H121705   0.669   5.494   2.248
 7247TIP3    H221706   0.674   5.388   2.356
 7248TIP3   OH221707   2.034   5.217   2.605
 7248TIP3    H121708   2.070   5.160   2.537
 7248TIP3    H221709   2.110   5.249   2.653
 7249TIP3   OH221710   4.360   0.725   1.201
 7249TIP3    H121711   4.424   0.734   1.272
 7249TIP3    H221712   4.413   0.701   1.125
 7250TIP3   OH221713   0.626   0.329   1.791
 7250TIP3    H121714   0.551   0.308   1.734
 7250TIP3    H221715   0.696   0.353   1.730
 7251TIP3   OH221716   0.476   5.309   3.247
 7251TIP3    H121717   0.532   5.231   3.242
 7251TIP3    H221718   0.395   5.282   3.203
 7252TIP3   OH221719   5.417   2.815   4.689
 7252TIP3    H121720   5.366   2.794   4.767
 7252TIP3    H221721   5.379   2.897   4.657
 7253TIP3   OH221722   6.812   3.825   2.802
 7253TIP3    H121723   6.846   3.871   2.725
 7253TIP3    H221724   6.721   3.852   2.808
 7254TIP3   OH221725   2.349   0.575   1.016
 7254TIP3    H121726   2.440   0.601   1.032
 7254TIP3    H221727   2.353   0.480   1.006
 7255TIP3   OH221728   1.421   6.300   2.459
 7255TIP3    H121729   1.328   6.285   2.446
 7255TIP3    H221730   1.438   6.269   2.548
 7256TIP3   OH221731   3.214   2.160   2.414
 7256TIP3    H121732   3.296   2.138   2.369
 7256TIP3    H221733   3.178   2.233   2.365
 7257TIP3   OH221734   3.346   0.834   4.491
 7257TIP3    H121735   3.269   0.804   4.442
 7257TIP3    H221736   3.320   0.917   4.531
 7258TIP3   OH221737   5.271   5.793   5.189
 7258TIP3    H121738   5.313   5.715   5.154
 7258TIP3    H221739   5.343   5.848   5.220
 7259TIP3   OH221740   5.531   5.046   0.224
 7259TIP3    H121741   5.545   4.952   0.230
 7259TIP3    H221742   5.573   5.083   0.302
 7260TIP3   OH221743   5.979   2.363   4.332
 7260TIP3    H121744   6.040   2.427   4.370
 7260TIP3    H221745   5.967   2.298   4.401
 7261TIP3   OH221746   1.960   6.670   1.314
 7261TIP3    H121747   2.045   6.710   1.331
 7261TIP3    H221748   1.960   6.655   1.219
 7262TIP3   OH221749   3.176   3.239   5.634
 7262TIP3    H121750   3.166   3.205   5.545
 7262TIP3    H221751   3.105   3.303   5.642
 7263TIP3   OH221752   6.089   0.411   5.528
 7263TIP3    H121753   6.071   0.499   5.562
 7263TIP3    H221754   6.005   0.383   5.489
 7264TIP3   OH221755   0.758   5.721   5.608
 7264TIP3    H121756   0.676   5.734   5.559
 7264TIP3    H221757   0.770   5.626   5.607
 7265TIP3   OH221758   1.253   3.891   5.018
 7265TIP3    H121759   1.165   3.925   5.035
 7265TIP3    H221760   1.239   3.807   4.975
 7266TIP3   OH221761   4.742   0.625   1.886
 7266TIP3    H121762   4.688   0.650   1.962
 7266TIP3    H221763   4.761   0.533   1.900
 7267TIP3   OH221764   6.105   5.494   3.661
 7267TIP3    H121765   6.060   5.579   3.668
 7267TIP3    H221766   6.183   5.513   3.610
 7268TIP3   OH221767   7.116   6.415   5.271
 7268TIP3    H121768   7.138   6.477   5.201
 7268TIP3    H221769   7.035   6.450   5.308
 7269TIP3   OH221770   1.073   3.798   0.505
 7269TIP3    H121771   1.024   3.834   0.432
 7269TIP3    H221772   1.020   3.723   0.535
 7270TIP3   OH221773   3.672   1.969   3.566
 7270TIP3    H121774   3.650   1.979   3.658
 7270TIP3    H221775   3.591   1.940   3.524
 7271TIP3   OH221776   4.540   1.635   0.763
 7271TIP3    H121777   4.634   1.633   0.747
 7271TIP3    H221778   4.504   1.567   0.707
 7272TIP3   OH221779   5.214   5.885   1.445
 7272TIP3    H121780   5.171   5.951   1.390
 7272TIP3    H221781   5.305   5.883   1.415
 7273TIP3   OH221782   5.630   2.926   5.147
 7273TIP3    H121783   5.716   2.932   5.187
 7273TIP3    H221784   5.573   2.895   5.217
 7274TIP3   OH221785   6.790   0.662   1.200
 7274TIP3    H121786   6.867   0.687   1.251
 7274TIP3    H221787   6.734   0.614   1.262
 7275TIP3   OH221788   2.374   0.680   3.749
 7275TIP3    H121789   2.414   0.745   3.808
 7275TIP3    H221790   2.280   0.692   3.762
 7276TIP3   OH221791   5.443   4.450   0.880
 7276TIP3    H121792   5.429   4.424   0.789
 7276TIP3    H221793   5.376   4.402   0.928
 7277TIP3   OH221794   6.319   3.351   4.357
 7277TIP3    H121795   6.229   3.327   4.332
 7277TIP3    H221796   6.340   3.425   4.300
 7278TIP3   OH221797   3.470   3.836   0.392
 7278TIP3    H121798   3.397   3.890   0.422
 7278TIP3    H221799   3.503   3.882   0.315
 7279TIP3   OH221800   2.721   0.997   3.887
 7279TIP3    H121801   2.787   0.936   3.923
 7279TIP3    H221802   2.753   1.017   3.799
 7280TIP3   OH221803   1.505   0.182   2.864
 7280TIP3    H121804   1.434   0.237   2.898
 7280TIP3    H221805   1.582   0.208   2.915
 7281TIP3   OH221806   1.329   6.714   3.275
 7281TIP3    H121807   1.253   6.677   3.320
 7281TIP3    H221808   1.367   6.775   3.339
 7282TIP3   OH221809   3.765   3.122   4.921
 7282TIP3    H121810   3.737   3.196   4.976
 7282TIP3    H221811   3.690   3.103   4.865
 7283TIP3   OH221812   7.159   4.619   1.556
 7283TIP3    H121813   7.109   4.696   1.528
 7283TIP3    H221814   7.115   4.545   1.514
 7284TIP3   OH221815   5.591   1.802   4.711
 7284TIP3    H121816   5.602   1.740   4.783
 7284TIP3    H221817   5.554   1.880   4.751
 7285TIP3   OH221818   6.302   4.426   2.567
 7285TIP3    H121819   6.380   4.414   2.621
 7285TIP3    H221820   6.335   4.424   2.477
 7286TIP3   OH221821   5.538   6.163   0.933
 7286TIP3    H121822   5.475   6.116   0.987
 7286TIP3    H221823   5.620   6.115   0.943
 7287TIP3   OH221824   0.796   6.727   4.185
 7287TIP3    H121825   0.865   6.756   4.125
 7287TIP3    H221826   0.824   6.757   4.271
 7288TIP3   OH221827   4.399   1.211   2.072
 7288TIP3    H121828   4.449   1.283   2.110
 7288TIP3    H221829   4.338   1.253   2.012
 7289TIP3   OH221830   4.200   6.203   4.432
 7289TIP3    H121831   4.152   6.269   4.483
 7289TIP3    H221832   4.256   6.254   4.374
 7290TIP3   OH221833   5.250   4.838   2.095
 7290TIP3    H121834   5.218   4.901   2.160
 7290TIP3    H221835   5.307   4.889   2.038
 7291TIP3   OH221836   4.585   1.458   4.595
 7291TIP3    H121837   4.594   1.504   4.512
 7291TIP3    H221838   4.548   1.523   4.655
 7292TIP3   OH221839   2.222   0.425   1.835
 7292TIP3    H121840   2.283   0.445   1.764
 7292TIP3    H221841   2.221   0.330   1.840
 7293TIP3   OH221842   5.667   1.741   2.404
 7293TIP3    H121843   5.745   1.790   2.377
 7293TIP3    H221844   5.686   1.651   2.380
 7294TIP3   OH221845   1.290   0.188   3.069
 7294TIP3    H121846   1.218   0.225   3.017
 7294TIP3    H221847   1.250   0.165   3.152
 7295TIP3   OH221848   6.260   0.208   4.849
 7295TIP3    H121849   6.208   0.220   4.770
 7295TIP3    H221850   6.349   0.232   4.823
 7296TIP3   OH221851   4.747   5.153   0.462
 7296TIP3    H121852   4.800   5.152   0.382
 7296TIP3    H221853   4.684   5.223   0.448
 7297TIP3   OH221854   1.529   4.458   1.775
 7297TIP3    H121855   1.616   4.450   1.812
 7297TIP3    H221856   1.534   4.534   1.717
 7298TIP3   OH221857   1.270   1.169   4.548
 7298TIP3    H121858   1.362   1.191   4.533
 7298TIP3    H221859   1.256   1.186   4.641
 7299TIP3   OH221860   2.234   3.672   1.455
 7299TIP3    H121861   2.185   3.620   1.519
 7299TIP3    H221862   2.306   3.615   1.428
 7300TIP3   OH221863   4.582   4.159   5.588
 7300TIP3    H121864   4.523   4.140   5.515
 7300TIP3    H221865   4.655   4.099   5.577
 7301TIP3   OH221866   2.058   2.978   3.098
 7301TIP3    H121867   2.061   3.054   3.040
 7301TIP3    H221868   2.148   2.944   3.098
 7302TIP3   OH221869   2.669   3.987   5.495
 7302TIP3    H121870   2.715   3.995   5.579
 7302TIP3    H221871   2.713   4.051   5.439
 7303TIP3   OH221872   0.044   5.612   2.137
 7303TIP3    H121873   0.117   5.644   2.192
 7303TIP3    H221874   0.022   5.527   2.174
 7304TIP3   OH221875   4.157   1.591   1.315
 7304TIP3    H121876   4.096   1.537   1.264
 7304TIP3    H221877   4.184   1.660   1.254
 7305TIP3   OH221878   3.052   4.163   0.315
 7305TIP3    H121879   3.013   4.225   0.376
 7305TIP3    H221880   3.134   4.205   0.288
 7306TIP3   OH221881   4.746   3.028   2.905
 7306TIP3    H121882   4.740   2.969   2.980
 7306TIP3    H221883   4.731   2.973   2.829
 7307TIP3   OH221884   5.158   2.114   1.127
 7307TIP3    H121885   5.181   2.022   1.113
 7307TIP3    H221886   5.097   2.113   1.201
 7308TIP3   OH221887   6.738   4.458   5.307
 7308TIP3    H121888   6.742   4.487   5.215
 7308TIP3    H221889   6.746   4.539   5.357
 7309TIP3   OH221890   7.183   5.276   0.331
 7309TIP3    H121891   7.133   5.252   0.409
 7309TIP3    H221892   7.193   5.194   0.282
 7310TIP3   OH221893   0.307   6.486   0.365
 7310TIP3    H121894   0.370   6.496   0.437
 7310TIP3    H221895   0.231   6.537   0.392
 7311TIP3   OH221896   0.713   4.790   0.800
 7311TIP3    H121897   0.666   4.853   0.746
 7311TIP3    H221898   0.803   4.821   0.800
 7312TIP3   OH221899   1.823   1.384   5.764
 7312TIP3    H121900   1.788   1.417   5.682
 7312TIP3    H221901   1.746   1.367   5.818
 7313TIP3   OH221902   2.290   0.793   2.485
 7313TIP3    H121903   2.271   0.787   2.392
 7313TIP3    H221904   2.320   0.883   2.498
 7314TIP3   OH221905   4.632   2.928   0.672
 7314TIP3    H121906   4.655   2.860   0.735
 7314TIP3    H221907   4.537   2.929   0.671
 7315TIP3   OH221908   1.437   4.700   4.023
 7315TIP3    H121909   1.520   4.663   4.056
 7315TIP3    H221910   1.397   4.741   4.100
 7316TIP3   OH221911   3.094   0.692   3.623
 7316TIP3    H121912   3.173   0.639   3.631
 7316TIP3    H221913   3.120   0.779   3.655
 7317TIP3   OH221914   3.161   2.759   1.285
 7317TIP3    H121915   3.189   2.746   1.375
 7317TIP3    H221916   3.221   2.824   1.250
 7318TIP3   OH221917   5.989   6.630   5.654
 7318TIP3    H121918   5.960   6.705   5.602
 7318TIP3    H221919   5.978   6.658   5.745
 7319TIP3   OH221920   4.584   2.723   0.326
 7319TIP3    H121921   4.554   2.692   0.411
 7319TIP3    H221922   4.641   2.797   0.346
 7320TIP3   OH221923   5.011  -0.034   4.611
 7320TIP3    H121924   5.046   0.044   4.654
 7320TIP3    H221925   5.009  -0.011   4.518
 7321TIP3   OH221926   5.772   1.179   1.957
 7321TIP3    H121927   5.833   1.177   2.031
 7321TIP3    H221928   5.801   1.254   1.904
 7322TIP3   OH221929   4.472   1.237   4.188
 7322TIP3    H121930   4.431   1.312   4.231
 7322TIP3    H221931   4.497   1.269   4.102
 7323TIP3   OH221932   6.768   5.566   2.602
 7323TIP3    H121933   6.771   5.624   2.525
 7323TIP3    H221934   6.681   5.580   2.639
 7324TIP3   OH221935   5.254   2.657   2.135
 7324TIP3    H121936   5.349   2.656   2.124
 7324TIP3    H221937   5.225   2.572   2.103
 7325TIP3   OH221938   0.913   5.359   0.061
 7325TIP3    H121939   0.885   5.305   0.135
 7325TIP3    H221940   0.896   5.449   0.090
 7326TIP3   OH221941   7.104   5.864   1.688
 7326TIP3    H121942   7.088   5.859   1.594
 7326TIP3    H221943   7.192   5.828   1.700
 7327TIP3   OH221944   3.683   6.462   0.746
 7327TIP3    H121945   3.753   6.526   0.734
 7327TIP3    H221946   3.669   6.426   0.659
 7328TIP3   OH221947   2.749   2.962   5.509
 7328TIP3    H121948   2.783   2.878   5.540
 7328TIP3    H221949   2.742   3.016   5.587
 7329TIP3   OH221950   1.140   2.306   2.306
 7329TIP3    H121951   1.199   2.351   2.246
 7329TIP3    H221952   1.166   2.214   2.301
 7330TIP3   OH221953   1.347   3.596   0.719
 7330TIP3    H121954   1.378   3.505   0.724
 7330TIP3    H221955   1.336   3.623   0.810
 7331TIP3   OH221956   4.915   5.926   5.593
 7331TIP3    H121957   4.865   5.848   5.618
 7331TIP3    H221958   4.917   5.979   5.673
 7332TIP3   OH221959   4.523   2.790   1.240
 7332TIP3    H121960   4.456   2.726   1.263
 7332TIP3    H221961   4.561   2.815   1.325
 7333TIP3   OH221962   1.536   5.012   4.216
 7333TIP3    H121963   1.440   5.007   4.219
 7333TIP3    H221964   1.565   4.946   4.279
 7334TIP3   OH221965   5.070   5.461   0.052
 7334TIP3    H121966   5.065   5.520  -0.024
 7334TIP3    H221967   5.033   5.512   0.124
 7335TIP3   OH221968   2.125   3.373   0.537
 7335TIP3    H121969   2.062   3.355   0.606
 7335TIP3    H221970   2.145   3.288   0.499
 7336TIP3   OH221971   3.554   6.519   1.805
 7336TIP3    H121972   3.480   6.571   1.837
 7336TIP3    H221973   3.607   6.581   1.755
 7337TIP3   OH221974   4.847   5.071   2.468
 7337TIP3    H121975   4.827   4.980   2.446
 7337TIP3    H221976   4.822   5.081   2.559
 7338TIP3   OH221977   3.804   0.750   4.252
 7338TIP3    H121978   3.767   0.809   4.317
 7338TIP3    H221979   3.848   0.682   4.303
 7339TIP3   OH221980   5.070   2.589   2.991
 7339TIP3    H121981   5.129   2.514   2.993
 7339TIP3    H221982   4.990   2.556   2.951
 7340TIP3   OH221983   3.827   3.807   1.123
 7340TIP3    H121984   3.874   3.836   1.045
 7340TIP3    H221985   3.840   3.877   1.186
 7341TIP3   OH221986   6.026   3.651   1.747
 7341TIP3    H121987   6.066   3.728   1.705
 7341TIP3    H221988   6.019   3.676   1.839
 7342TIP3   OH221989   1.936   4.841   0.265
 7342TIP3    H121990   2.010   4.896   0.240
 7342TIP3    H221991   1.934   4.772   0.198
 7343TIP3   OH221992   6.516   6.275   0.704
 7343TIP3    H121993   6.425   6.300   0.715
 7343TIP3    H221994   6.539   6.306   0.616
 7344TIP3   OH221995   0.121   3.814   1.367
 7344TIP3    H121996   0.031   3.806   1.336
 7344TIP3    H221997   0.157   3.726   1.360
 7345TIP3   OH221998   1.803   0.852   2.461
 7345TIP3    H121999   1.822   0.764   2.429
 7345TIP3    H222000   1.876   0.873   2.519
 7346TIP3   OH222001   6.562   3.801   1.144
 7346TIP3    H122002   6.585   3.790   1.236
 7346TIP3    H222003   6.503   3.729   1.124
 7347TIP3   OH222004   5.181   2.491   0.994
 7347TIP3    H122005   5.276   2.489   0.998
 7347TIP3    H222006   5.160   2.573   0.950
 7348TIP3   OH222007   0.780   2.898   3.002
 7348TIP3    H122008   0.696   2.943   3.017
 7348TIP3    H222009   0.846   2.966   3.013
 7349TIP3   OH222010   2.049   5.267   4.660
 7349TIP3    H122011   2.016   5.327   4.727
 7349TIP3    H222012   2.015   5.302   4.577
 7350TIP3   OH222013   3.209   0.690   0.252
 7350TIP3    H122014   3.162   0.767   0.285
 7350TIP3    H222015   3.281   0.726   0.200
 7351TIP3   OH222016   5.892   3.804   0.500
 7351TIP3    H122017   5.889   3.814   0.595
 7351TIP3    H222018   5.912   3.711   0.486
 7352TIP3   OH222019   6.688   3.446   1.775
 7352TIP3    H122020   6.758   3.386   1.801
 7352TIP3    H222021   6.653   3.408   1.694
 7353TIP3   OH222022   1.806   0.525   5.084
 7353TIP3    H122023   1.756   0.444   5.072
 7353TIP3    H222024   1.753   0.577   5.145
 7354TIP3   OH222025   4.236   3.689   1.741
 7354TIP3    H122026   4.211   3.673   1.649
 7354TIP3    H222027   4.152   3.701   1.786
 7355TIP3   OH222028   2.937   2.779   1.495
 7355TIP3    H122029   2.893   2.696   1.478
 7355TIP3    H222030   3.030   2.757   1.494
 7356TIP3   OH222031   6.072   3.063   2.226
 7356TIP3    H122032   6.062   3.011   2.306
 7356TIP3    H222033   6.000   3.127   2.231
 7357TIP3   OH222034   4.084   5.115   3.293
 7357TIP3    H122035   4.023   5.188   3.304
 7357TIP3    H222036   4.099   5.083   3.382
 7358TIP3   OH222037   6.123   4.782   3.761
 7358TIP3    H122038   6.216   4.763   3.755
 7358TIP3    H222039   6.118   4.877   3.774
 7359TIP3   OH222040   3.508   3.833   2.624
 7359TIP3    H122041   3.573   3.904   2.628
 7359TIP3    H222042   3.560   3.753   2.632
 7360TIP3   OH222043   3.708   6.311   1.901
 7360TIP3    H122044   3.724   6.362   1.981
 7360TIP3    H222045   3.622   6.341   1.871
 7361TIP3   OH222046   6.801   5.904   1.183
 7361TIP3    H122047   6.881   5.955   1.171
 7361TIP3    H222048   6.807   5.834   1.119
 7362TIP3   OH222049   4.842   1.009   1.963
 7362TIP3    H122050   4.866   1.005   2.055
 7362TIP3    H222051   4.746   1.009   1.963
 7363TIP3   OH222052   2.483   2.501   0.149
 7363TIP3    H122053   2.548   2.431   0.140
 7363TIP3    H222054   2.441   2.484   0.234
 7364TIP3   OH222055   3.395   1.760   5.244
 7364TIP3    H122056   3.464   1.825   5.259
 7364TIP3    H222057   3.412   1.692   5.309
 7365TIP3   OH222058   5.437   2.186   3.733
 7365TIP3    H122059   5.423   2.276   3.703
 7365TIP3    H222060   5.460   2.138   3.653
 7366TIP3   OH222061   2.912   4.906   5.818
 7366TIP3    H122062   2.852   4.871   5.753
 7366TIP3    H222063   2.950   4.828   5.860
 7367TIP3   OH222064   1.375   3.258   1.307
 7367TIP3    H122065   1.457   3.274   1.354
 7367TIP3    H222066   1.323   3.338   1.319
 7368TIP3   OH222067   0.018   0.119   2.240
 7368TIP3    H122068   0.090   0.118   2.177
 7368TIP3    H222069   0.056   0.084   2.320
 7369TIP3   OH222070   2.770   4.451   5.695
 7369TIP3    H122071   2.713   4.526   5.709
 7369TIP3    H222072   2.823   4.447   5.774
 7370TIP3   OH222073   4.735   6.807   3.149
 7370TIP3    H122074   4.672   6.807   3.076
 7370TIP3    H222075   4.714   6.728   3.198
 7371TIP3   OH222076   1.411   2.329   4.772
 7371TIP3    H122077   1.361   2.257   4.808
 7371TIP3    H222078   1.448   2.295   4.690
 7372TIP3   OH222079   6.312   3.597   1.131
 7372TIP3    H122080   6.217   3.588   1.122
 7372TIP3    H222081   6.323   3.653   1.208
 7373TIP3   OH222082   3.474   6.389   0.574
 7373TIP3    H122083   3.439   6.447   0.641
 7373TIP3    H222084   3.408   6.321   0.565
 7374TIP3   OH222085   3.826   0.998   2.100
 7374TIP3    H122086   3.817   0.920   2.155
 7374TIP3    H222087   3.836   0.963   2.011
 7375TIP3   OH222088   6.256   3.712   3.272
 7375TIP3    H122089   6.286   3.796   3.308
 7375TIP3    H222090   6.242   3.657   3.349
 7376TIP3   OH222091   5.962   3.066   2.824
 7376TIP3    H122092   5.988   3.140   2.769
 7376TIP3    H222093   5.902   3.103   2.888
 7377TIP3   OH222094   0.515   1.557   1.206
 7377TIP3    H122095   0.558   1.636   1.171
 7377TIP3    H222096   0.479   1.585   1.290
 7378TIP3   OH222097   6.316   3.190  -0.003
 7378TIP3    H122098   6.269   3.123   0.047
 7378TIP3    H222099   6.394   3.209   0.050
 7379TIP3   OH222100   1.368   6.306   0.948
 7379TIP3    H122101   1.307   6.303   1.022
 7379TIP3    H222102   1.350   6.227   0.898
 7380TIP3   OH222103   4.552   1.168   5.226
 7380TIP3    H122104   4.613   1.108   5.182
 7380TIP3    H222105   4.538   1.129   5.312
 7381TIP3   OH222106   5.771   3.515   2.563
 7381TIP3    H122107   5.758   3.421   2.553
 7381TIP3    H222108   5.864   3.524   2.586
 7382TIP3   OH222109   6.764   2.562   0.861
 7382TIP3    H122110   6.750   2.499   0.932
 7382TIP3    H222111   6.844   2.609   0.885
 7383TIP3   OH222112   2.843   4.573   3.369
 7383TIP3    H122113   2.836   4.646   3.431
 7383TIP3    H222114   2.890   4.609   3.294
 7384TIP3   OH222115   1.993   0.639   2.540
 7384TIP3    H122116   2.043   0.704   2.590
 7384TIP3    H222117   2.054   0.612   2.470
 7385TIP3   OH222118   1.645   6.316   1.089
 7385TIP3    H122119   1.584   6.317   1.015
 7385TIP3    H222120   1.724   6.357   1.056
 7386TIP3   OH222121   6.241   2.193   2.364
 7386TIP3    H122122   6.216   2.228   2.278
 7386TIP3    H222123   6.171   2.222   2.422
 7387TIP3   OH222124   6.243   4.198   2.376
 7387TIP3    H122125   6.183   4.271   2.392
 7387TIP3    H222126   6.296   4.227   2.301
 7388TIP3   OH222127   6.356   6.384   4.858
 7388TIP3    H122128   6.319   6.296   4.863
 7388TIP3    H222129   6.389   6.401   4.946
 7389TIP3   OH222130   1.275   0.219   3.957
 7389TIP3    H122131   1.355   0.185   3.995
 7389TIP3    H222132   1.235   0.271   4.026
 7390TIP3   OH222133   6.167   0.070   5.089
 7390TIP3    H122134   6.073   0.076   5.076
 7390TIP3    H222135   6.205   0.102   5.007
 7391TIP3   OH222136   5.484   6.433   3.974
 7391TIP3    H122137   5.440   6.373   4.035
 7391TIP3    H222138   5.463   6.399   3.887
 7392TIP3   OH222139   4.460   3.002   2.694
 7392TIP3    H122140   4.431   3.068   2.757
 7392TIP3    H222141   4.406   2.925   2.715
 7393TIP3   OH222142   5.387   6.032   5.679
 7393TIP3    H122143   5.441   6.009   5.755
 7393TIP3    H222144   5.371   5.948   5.635
 7394TIP3   OH222145   1.022   0.111   5.598
 7394TIP3    H122146   1.103   0.137   5.553
 7394TIP3    H222147   1.000   0.188   5.651
 7395TIP3   OH222148   6.496   0.966   1.809
 7395TIP3    H122149   6.475   0.886   1.857
 7395TIP3    H222150   6.426   0.974   1.744
 7396TIP3   OH222151   5.637   4.532   0.431
 7396TIP3    H122152   5.722   4.572   0.413
 7396TIP3    H222153   5.603   4.581   0.506
 7397TIP3   OH222154   0.650   3.552   4.342
 7397TIP3    H122155   0.559   3.579   4.353
 7397TIP3    H222156   0.662   3.545   4.247
 7398TIP3   OH222157   6.769   6.476   3.522
 7398TIP3    H122158   6.783   6.556   3.472
 7398TIP3    H222159   6.751   6.409   3.455
 7399TIP3   OH222160   3.928   3.288   4.775
 7399TIP3    H122161   3.976   3.245   4.705
 7399TIP3    H222162   3.890   3.215   4.826
 7400TIP3   OH222163   2.437   1.088   4.868
 7400TIP3    H122164   2.372   1.036   4.916
 7400TIP3    H222165   2.448   1.167   4.921
 7401TIP3   OH222166   6.952   6.156   2.766
 7401TIP3    H122167   6.917   6.162   2.677
 7401TIP3    H222168   7.046   6.175   2.756
 7402TIP3   OH222169   1.923   3.661   3.278
 7402TIP3    H122170   1.839   3.616   3.287
 7402TIP3    H222171   1.977   3.600   3.227
 7403TIP3   OH222172   5.042   0.189   4.994
 7403TIP3    H122173   5.115   0.149   5.041
 7403TIP3    H222174   4.967   0.178   5.053
 7404TIP3   OH222175   3.887   6.269   1.706
 7404TIP3    H122176   3.830   6.269   1.783
 7404TIP3    H222177   3.845   6.208   1.645
 7405TIP3   OH222178   2.438   1.796   5.350
 7405TIP3    H122179   2.403   1.751   5.427
 7405TIP3    H222180   2.384   1.875   5.341
 7406TIP3   OH222181   1.849   5.198   1.431
 7406TIP3    H122182   1.803   5.282   1.430
 7406TIP3    H222183   1.873   5.183   1.339
 7407TIP3   OH222184   6.790   5.489   0.004
 7407TIP3    H122185   6.882   5.466  -0.011
 7407TIP3    H222186   6.790   5.585   0.004
 7408TIP3   OH222187   3.955   5.953   3.892
 7408TIP3    H122188   4.015   5.879   3.883
 7408TIP3    H222189   3.883   5.918   3.945
 7409TIP3   OH222190   3.342   3.498   2.319
 7409TIP3    H122191   3.370   3.505   2.410
 7409TIP3    H222192   3.253   3.533   2.318
 7410TIP3   OH222193   5.223   3.474   4.640
 7410TIP3    H122194   5.262   3.441   4.559
 7410TIP3    H222195   5.137   3.432   4.645
 7411TIP3   OH222196   3.914   5.680   0.992
 7411TIP3    H122197   3.906   5.635   0.908
 7411TIP3    H222198   3.982   5.746   0.977
 7412TIP3   OH222199   2.213   4.400   2.306
 7412TIP3    H122200   2.262   4.338   2.360
 7412TIP3    H222201   2.195   4.353   2.224
 7413TIP3   OH222202   2.619   5.675   5.555
 7413TIP3    H122203   2.698   5.638   5.596
 7413TIP3    H222204   2.637   5.769   5.549
 7414TIP3   OH222205   0.803   2.946   5.209
 7414TIP3    H122206   0.884   2.910   5.174
 7414TIP3    H222207   0.813   2.940   5.304
 7415TIP3   OH222208   2.259   1.183   0.245
 7415TIP3    H122209   2.214   1.101   0.224
 7415TIP3    H222210   2.330   1.156   0.304
 7416TIP3   OH222211   3.566   3.126   4.135
 7416TIP3    H122212   3.631   3.176   4.184
 7416TIP3    H222213   3.592   3.034   4.147
 7417TIP3   OH222214   3.816   0.907   3.636
 7417TIP3    H122215   3.775   0.854   3.704
 7417TIP3    H222216   3.870   0.845   3.587
 7418TIP3   OH222217   1.543   5.389   1.908
 7418TIP3    H122218   1.453   5.422   1.911
 7418TIP3    H222219   1.578   5.406   1.996
 7419TIP3   OH222220   2.636   1.811   5.071
 7419TIP3    H122221   2.660   1.898   5.100
 7419TIP3    H222222   2.541   1.807   5.080
 7420TIP3   OH222223   0.054   5.062   5.579
 7420TIP3    H122224   0.095   5.134   5.627
 7420TIP3    H222225   0.062   5.087   5.487
 7421TIP3   OH222226   1.119   6.074   1.841
 7421TIP3    H122227   1.082   6.090   1.754
 7421TIP3    H222228   1.186   6.141   1.851
 7422TIP3   OH222229   3.876   1.776   1.675
 7422TIP3    H122230   3.864   1.802   1.584
 7422TIP3    H222231   3.933   1.699   1.672
 7423TIP3   OH222232   6.314   4.975   5.876
 7423TIP3    H122233   6.291   4.907   5.939
 7423TIP3    H222234   6.318   4.930   5.791
 7424TIP3   OH222235   5.811   6.216   4.098
 7424TIP3    H122236   5.837   6.307   4.081
 7424TIP3    H222237   5.879   6.182   4.157
 7425TIP3   OH222238   4.544   2.029   4.785
 7425TIP3    H122239   4.635   2.057   4.776
 7425TIP3    H222240   4.550   1.943   4.828
 7426TIP3   OH222241   7.055   2.391   0.276
 7426TIP3    H122242   6.960   2.384   0.281
 7426TIP3    H222243   7.072   2.485   0.273
 7427TIP3   OH222244   2.536   6.663   3.886
 7427TIP3    H122245   2.549   6.652   3.980
 7427TIP3    H222246   2.615   6.708   3.856
 7428TIP3   OH222247   4.033   3.237   2.229
 7428TIP3    H122248   3.992   3.265   2.311
 7428TIP3    H222249   4.127   3.249   2.244
 7429TIP3   OH222250   0.733   1.066   1.843
 7429TIP3    H122251   0.751   1.096   1.753
 7429TIP3    H222252   0.668   1.128   1.876
 7430TIP3   OH222253   6.123   5.055   3.775
 7430TIP3    H122254   6.114   5.110   3.697
 7430TIP3    H222255   6.058   5.089   3.837
 7431TIP3   OH222256   4.326   6.649   3.223
 7431TIP3    H122257   4.245   6.616   3.263
 7431TIP3    H222258   4.389   6.577   3.234
 7432TIP3   OH222259   0.791   6.775   2.306
 7432TIP3    H122260   0.729   6.703   2.307
 7432TIP3    H222261   0.737   6.854   2.319
 7433TIP3   OH222262   4.515   1.967   1.181
 7433TIP3    H122263   4.507   1.916   1.101
 7433TIP3    H222264   4.608   1.963   1.203
 7434TIP3   OH222265   2.777   3.449   1.685
 7434TIP3    H122266   2.689   3.410   1.679
 7434TIP3    H222267   2.763   3.531   1.732
 7435TIP3   OH222268   2.205   0.185   1.516
 7435TIP3    H122269   2.204   0.190   1.420
 7435TIP3    H222270   2.152   0.260   1.544
 7436TIP3   OH222271   2.915   0.865   5.113
 7436TIP3    H122272   2.892   0.786   5.065
 7436TIP3    H222273   2.936   0.929   5.045
 7437TIP3   OH222274   4.478   5.484   1.121
 7437TIP3    H122275   4.477   5.580   1.116
 7437TIP3    H222276   4.433   5.464   1.203
 7438TIP3   OH222277   2.589   1.632   4.690
 7438TIP3    H122278   2.671   1.670   4.659
 7438TIP3    H222279   2.578   1.553   4.637
 7439TIP3   OH222280   2.480   5.407   5.541
 7439TIP3    H122281   2.502   5.497   5.519
 7439TIP3    H222282   2.410   5.414   5.606
 7440TIP3   OH222283   1.253   0.463   1.519
 7440TIP3    H122284   1.239   0.549   1.558
 7440TIP3    H222285   1.186   0.408   1.560
 7441TIP3   OH222286   4.264   4.505   4.606
 7441TIP3    H122287   4.278   4.461   4.522
 7441TIP3    H222288   4.283   4.597   4.588
 7442TIP3   OH222289   4.374   6.529   1.859
 7442TIP3    H122290   4.396   6.580   1.938
 7442TIP3    H222291   4.288   6.492   1.878
 7443TIP3   OH222292   2.512   2.314   5.822
 7443TIP3    H122293   2.441   2.273   5.871
 7443TIP3    H222294   2.469   2.364   5.753
 7444TIP3   OH222295   1.676   6.311   1.535
 7444TIP3    H122296   1.633   6.387   1.574
 7444TIP3    H222297   1.613   6.240   1.546
 7445TIP3   OH222298   2.297   2.024   4.203
 7445TIP3    H122299   2.298   2.113   4.169
 7445TIP3    H222300   2.375   1.983   4.165
 7446TIP3   OH222301   0.036   1.671   2.026
 7446TIP3    H122302   0.063   1.704   2.112
 7446TIP3    H222303   0.036   1.748   1.969
 7447TIP3   OH222304   3.841   0.125   2.499
 7447TIP3    H122305   3.825   0.115   2.405
 7447TIP3    H222306   3.831   0.036   2.534
 7448TIP3   OH222307   0.257   0.624   4.202
 7448TIP3    H122308   0.304   0.578   4.271
 7448TIP3    H222309   0.219   0.555   4.148
 7449TIP3   OH222310   1.866   1.219   4.591
 7449TIP3    H122311   1.900   1.222   4.502
 7449TIP3    H222312   1.936   1.178   4.642
 7450TIP3   OH222313   6.649   5.056   2.271
 7450TIP3    H122314   6.674   5.123   2.335
 7450TIP3    H222315   6.663   5.097   2.186
 7451TIP3   OH222316   2.022   0.420   5.493
 7451TIP3    H122317   1.938   0.375   5.499
 7451TIP3    H222318   2.049   0.435   5.584
 7452TIP3   OH222319   0.125   6.062   0.148
 7452TIP3    H122320   0.128   6.133   0.085
 7452TIP3    H222321   0.166   6.098   0.227
 7453TIP3   OH222322   4.581   0.917   3.466
 7453TIP3    H122323   4.533   0.853   3.413
 7453TIP3    H222324   4.663   0.873   3.489
 7454TIP3   OH222325   2.848   0.590   3.099
 7454TIP3    H122326   2.782   0.635   3.152
 7454TIP3    H222327   2.866   0.651   3.027
 7455TIP3   OH222328   0.798   3.481   1.002
 7455TIP3    H122329   0.785   3.480   0.907
 7455TIP3    H222330   0.726   3.429   1.037
 7456TIP3   OH222331   1.995   6.242   4.974
 7456TIP3    H122332   2.042   6.293   4.908
 7456TIP3    H222333   2.056   6.236   5.048
 7457TIP3   OH222334   1.477   4.095   3.996
 7457TIP3    H122335   1.548   4.139   4.043
 7457TIP3    H222336   1.522   4.032   3.939
 7458TIP3   OH222337   6.245   2.178   3.061
 7458TIP3    H122338   6.268   2.235   2.988
 7458TIP3    H222339   6.261   2.089   3.029
 7459TIP3   OH222340   1.020   2.388   5.421
 7459TIP3    H122341   1.018   2.418   5.330
 7459TIP3    H222342   0.933   2.409   5.455
 7460TIP3   OH222343   1.814   2.814   4.084
 7460TIP3    H122344   1.827   2.748   4.016
 7460TIP3    H222345   1.771   2.766   4.155
 7461TIP3   OH222346   1.158   0.410   5.701
 7461TIP3    H122347   1.161   0.500   5.669
 7461TIP3    H222348   1.143   0.418   5.795
 7462TIP3   OH222349   1.326   2.679   5.042
 7462TIP3    H122350   1.318   2.698   4.948
 7462TIP3    H222351   1.411   2.712   5.067
 7463TIP3   OH222352   1.436   3.396   5.252
 7463TIP3    H122353   1.354   3.383   5.204
 7463TIP3    H222354   1.431   3.487   5.282
 7464TIP3   OH222355   5.883   2.325   1.748
 7464TIP3    H122356   5.843   2.280   1.674
 7464TIP3    H222357   5.810   2.362   1.797
 7465TIP3   OH222358   3.137   5.670   4.754
 7465TIP3    H122359   3.065   5.636   4.700
 7465TIP3    H222360   3.139   5.764   4.736
 7466TIP3   OH222361   6.603   5.948   2.861
 7466TIP3    H122362   6.576   5.976   2.774
 7466TIP3    H222363   6.692   5.914   2.849
 7467TIP3   OH222364   2.124   2.130   1.395
 7467TIP3    H122365   2.069   2.072   1.448
 7467TIP3    H222366   2.212   2.119   1.431
 7468TIP3   OH222367   0.923   2.851   2.749
 7468TIP3    H122368   1.005   2.800   2.746
 7468TIP3    H222369   0.909   2.867   2.842
 7469TIP3   OH222370   0.632   6.687   2.747
 7469TIP3    H122371   0.658   6.626   2.677
 7469TIP3    H222372   0.607   6.631   2.820
 7470TIP3   OH222373   5.575   0.454   4.190
 7470TIP3    H122374   5.504   0.452   4.254
 7470TIP3    H222375   5.628   0.530   4.216
 7471TIP3   OH222376   0.370   4.917   1.775
 7471TIP3    H122377   0.372   4.834   1.728
 7471TIP3    H222378   0.316   4.900   1.853
 7472TIP3   OH222379   4.249   0.530   0.994
 7472TIP3    H122380   4.217   0.613   1.029
 7472TIP3    H222381   4.343   0.530   1.015
 7473TIP3   OH222382   3.739   5.327   5.764
 7473TIP3    H122383   3.694   5.289   5.839
 7473TIP3    H222384   3.830   5.299   5.773
 7474TIP3   OH222385   0.922   1.992   2.592
 7474TIP3    H122386   0.859   2.021   2.526
 7474TIP3    H222387   0.976   1.928   2.546
 7475TIP3   OH222388   4.159   0.213   4.204
 7475TIP3    H122389   4.166   0.149   4.275
 7475TIP3    H222390   4.091   0.178   4.146
 7476TIP3   OH222391   3.903   5.658   5.027
 7476TIP3    H122392   3.934   5.707   5.103
 7476TIP3    H222393   3.809   5.646   5.042
 7477TIP3   OH222394   6.485   2.446   3.440
 7477TIP3    H122395   6.498   2.441   3.535
 7477TIP3    H222396   6.573   2.435   3.403
 7478TIP3   OH222397   2.367   0.795   2.187
 7478TIP3    H122398   2.452   0.836   2.204
 7478TIP3    H222399   2.389   0.704   2.167
 7479TIP3   OH222400   6.167   4.157   1.156
 7479TIP3    H122401   6.226   4.176   1.084
 7479TIP3    H222402   6.151   4.242   1.198
 7480TIP3   OH222403   3.222   3.521   5.500
 7480TIP3    H122404   3.180   3.582   5.439
 7480TIP3    H222405   3.290   3.478   5.448
 7481TIP3   OH222406   3.297   4.466   1.442
 7481TIP3    H122407   3.342   4.382   1.434
 7481TIP3    H222408   3.300   4.486   1.535
 7482TIP3   OH222409   0.564   2.885   1.461
 7482TIP3    H122410   0.567   2.966   1.511
 7482TIP3    H222411   0.614   2.822   1.514
 7483TIP3   OH222412   4.757   4.188   2.477
 7483TIP3    H122413   4.735   4.255   2.412
 7483TIP3    H222414   4.673   4.147   2.499
 7484TIP3   OH222415   1.556   0.907   2.588
 7484TIP3    H122416   1.637   0.878   2.547
 7484TIP3    H222417   1.533   0.987   2.542
 7485TIP3   OH222418   6.597   6.477   4.564
 7485TIP3    H122419   6.545   6.552   4.594
 7485TIP3    H222420   6.672   6.474   4.623
 7486TIP3   OH222421   6.383   5.993   0.874
 7486TIP3    H122422   6.462   6.037   0.903
 7486TIP3    H222423   6.414   5.921   0.819
 7487TIP3   OH222424   4.398   2.506   1.652
 7487TIP3    H122425   4.347   2.584   1.632
 7487TIP3    H222426   4.435   2.479   1.568
 7488TIP3   OH222427   0.773   5.571   2.042
 7488TIP3    H122428   0.685   5.585   2.077
 7488TIP3    H222429   0.778   5.477   2.027
 7489TIP3   OH222430   5.952   2.523   5.137
 7489TIP3    H122431   5.959   2.453   5.203
 7489TIP3    H222432   6.038   2.567   5.140
 7490TIP3   OH222433   2.158   0.093   4.121
 7490TIP3    H122434   2.134   0.011   4.078
 7490TIP3    H222435   2.165   0.156   4.049
 7491TIP3   OH222436   1.676   4.696   5.760
 7491TIP3    H122437   1.633   4.781   5.758
 7491TIP3    H222438   1.616   4.637   5.714
 7492TIP3   OH222439   6.170   6.554   1.360
 7492TIP3    H122440   6.146   6.472   1.318
 7492TIP3    H222441   6.183   6.615   1.288
 7493TIP3   OH222442   3.860   0.393   3.384
 7493TIP3    H122443   3.839   0.464   3.324
 7493TIP3    H222444   3.942   0.357   3.351
 7494TIP3   OH222445   0.515   5.758   5.521
 7494TIP3    H122446   0.463   5.694   5.473
 7494TIP3    H222447   0.452   5.802   5.578
 7495TIP3   OH222448   2.369   1.799   0.731
 7495TIP3    H122449   2.350   1.775   0.822
 7495TIP3    H222450   2.299   1.760   0.680
 7496TIP3   OH222451   2.144   4.327   0.743
 7496TIP3    H122452   2.095   4.297   0.666
 7496TIP3    H222453   2.150   4.422   0.732
 7497TIP3   OH222454   1.971   5.650   4.583
 7497TIP3    H122455   2.012   5.661   4.497
 7497TIP3    H222456   1.924   5.567   4.577
 7498TIP3   OH222457   2.842   2.689   5.537
 7498TIP3    H122458   2.839   2.668   5.444
 7498TIP3    H222459   2.870   2.608   5.579
 7499TIP3   OH222460   2.917   1.150   3.717
 7499TIP3    H122461   2.882   1.119   3.633
 7499TIP3    H222462   2.926   1.245   3.705
 7500TIP3   OH222463   1.283   6.206   0.150
 7500TIP3    H122464   1.264   6.300   0.152
 7500TIP3    H222465   1.249   6.174   0.234
 7501TIP3   OH222466   4.880   2.559   4.703
 7501TIP3    H122467   4.811   2.505   4.664
 7501TIP3    H222468   4.909   2.615   4.631
 7502TIP3   OH222469   5.801   2.302   1.455
 7502TIP3    H122470   5.859   2.336   1.387
 7502TIP3    H222471   5.811   2.207   1.449
 7503TIP3   OH222472   0.806   3.345   1.773
 7503TIP3    H122473   0.775   3.273   1.718
 7503TIP3    H222474   0.840   3.302   1.851
 7504TIP3   OH222475   3.077   5.681   1.090
 7504TIP3    H122476   3.086   5.624   1.167
 7504TIP3    H222477   3.018   5.751   1.118
 7505TIP3   OH222478   5.304   0.658   4.393
 7505TIP3    H122479   5.312   0.749   4.423
 7505TIP3    H222480   5.333   0.661   4.301
 7506TIP3   OH222481   5.554   3.468   1.944
 7506TIP3    H122482   5.623   3.430   1.998
 7506TIP3    H222483   5.582   3.452   1.854
 7507TIP3   OH222484   6.620   5.045   5.385
 7507TIP3    H122485   6.641   5.029   5.293
 7507TIP3    H222486   6.661   4.973   5.432
 7508TIP3   OH222487   6.527   1.627   2.107
 7508TIP3    H122488   6.484   1.697   2.156
 7508TIP3    H222489   6.597   1.672   2.059
 7509TIP3   OH222490   2.636   4.280   5.520
 7509TIP3    H122491   2.550   4.294   5.561
 7509TIP3    H222492   2.695   4.338   5.567
 7510TIP3   OH222493   3.694   0.299   4.987
 7510TIP3    H122494   3.702   0.340   5.073
 7510TIP3    H222495   3.610   0.332   4.953
 7511TIP3   OH222496   7.166   2.943   2.108
 7511TIP3    H122497   7.175   2.933   2.203
 7511TIP3    H222498   7.222   3.017   2.086
 7512TIP3   OH222499   1.599   3.130   0.064
 7512TIP3    H122500   1.535   3.155  -0.003
 7512TIP3    H222501   1.605   3.207   0.122
 7513TIP3   OH222502   0.821   2.893   4.885
 7513TIP3    H122503   0.766   2.824   4.848
 7513TIP3    H222504   0.909   2.855   4.887
 7514TIP3   OH222505   6.007   5.951   4.727
 7514TIP3    H122506   5.995   5.857   4.714
 7514TIP3    H222507   5.929   5.979   4.774
 7515TIP3   OH222508   6.477   1.654   4.678
 7515TIP3    H122509   6.513   1.634   4.765
 7515TIP3    H222510   6.475   1.750   4.675
 7516TIP3   OH222511   7.065   4.248   4.088
 7516TIP3    H122512   7.026   4.300   4.017
 7516TIP3    H222513   7.131   4.194   4.044
 7517TIP3   OH222514   1.898   1.184   0.494
 7517TIP3    H122515   1.906   1.176   0.399
 7517TIP3    H222516   1.978   1.231   0.521
 7518TIP3   OH222517   0.205   1.915   1.508
 7518TIP3    H122518   0.248   1.961   1.436
 7518TIP3    H222519   0.246   1.950   1.587
 7519TIP3   OH222520   6.700   1.401   4.657
 7519TIP3    H122521   6.788   1.422   4.625
 7519TIP3    H222522   6.697   1.437   4.745
 7520TIP3   OH222523   1.888   4.293   2.419
 7520TIP3    H122524   1.868   4.363   2.357
 7520TIP3    H222525   1.807   4.280   2.469
 7521TIP3   OH222526   3.174   4.712   0.839
 7521TIP3    H122527   3.226   4.789   0.816
 7521TIP3    H222528   3.145   4.728   0.929
 7522TIP3   OH222529   4.473   6.279   0.736
 7522TIP3    H122530   4.565   6.263   0.759
 7522TIP3    H222531   4.460   6.229   0.655
 7523TIP3   OH222532   1.663   2.941   1.348
 7523TIP3    H122533   1.625   2.961   1.433
 7523TIP3    H222534   1.711   3.021   1.325
 7524TIP3   OH222535   0.560   3.368   5.902
 7524TIP3    H122536   0.561   3.463   5.890
 7524TIP3    H222537   0.614   3.334   5.830
 7525TIP3   OH222538   4.135   6.173   1.427
 7525TIP3    H122539   4.203   6.239   1.440
 7525TIP3    H222540   4.145   6.114   1.501
 7526TIP3   OH222541   1.209   4.742   1.446
 7526TIP3    H122542   1.305   4.742   1.447
 7526TIP3    H222543   1.184   4.713   1.534
 7527TIP3   OH222544   2.997   3.033   0.489
 7527TIP3    H122545   3.020   3.067   0.576
 7527TIP3    H222546   2.918   3.081   0.464
 7528TIP3   OH222547   2.941   2.369   1.028
 7528TIP3    H122548   2.974   2.392   1.115
 7528TIP3    H222549   2.932   2.274   1.030
 7529TIP3   OH222550   6.042   5.115   1.539
 7529TIP3    H122551   6.081   5.197   1.508
 7529TIP3    H222552   5.981   5.090   1.469
 7530TIP3   OH222553   4.386   5.825   5.660
 7530TIP3    H122554   4.447   5.896   5.642
 7530TIP3    H222555   4.381   5.821   5.755
 7531TIP3   OH222556   1.899   2.405   4.381
 7531TIP3    H122557   1.816   2.403   4.427
 7531TIP3    H222558   1.942   2.323   4.405
 7532TIP3   OH222559   3.239   6.201   2.330
 7532TIP3    H122560   3.277   6.282   2.364
 7532TIP3    H222561   3.313   6.140   2.325
 7533TIP3   OH222562   3.162   0.904   3.793
 7533TIP3    H122563   3.235   0.911   3.855
 7533TIP3    H222564   3.085   0.890   3.849
 7534TIP3   OH222565   3.660   0.853   4.469
 7534TIP3    H122566   3.677   0.915   4.539
 7534TIP3    H222567   3.611   0.782   4.510
 7535TIP3   OH222568   1.102   3.262   4.835
 7535TIP3    H122569   1.058   3.187   4.875
 7535TIP3    H222570   1.049   3.283   4.759
 7536TIP3   OH222571   0.569   4.262   0.707
 7536TIP3    H122572   0.502   4.314   0.750
 7536TIP3    H222573   0.638   4.325   0.685
 7537TIP3   OH222574   6.324   6.169   5.828
 7537TIP3    H122575   6.352   6.227   5.899
 7537TIP3    H222576   6.228   6.171   5.831
 7538TIP3   OH222577   0.614   0.231   0.227
 7538TIP3    H122578   0.632   0.150   0.178
 7538TIP3    H222579   0.699   0.259   0.261
 7539TIP3   OH222580   5.240   5.266   0.965
 7539TIP3    H122581   5.253   5.177   0.999
 7539TIP3    H222582   5.167   5.301   1.016
 7540TIP3   OH222583   0.176   2.693   3.963
 7540TIP3    H122584   0.153   2.608   3.926
 7540TIP3    H222585   0.092   2.738   3.973
 7541TIP3   OH222586   6.815   0.390   1.693
 7541TIP3    H122587   6.848   0.436   1.616
 7541TIP3    H222588   6.784   0.306   1.659
 7542TIP3   OH222589   3.082   4.237   1.621
 7542TIP3    H122590   3.093   4.218   1.528
 7542TIP3    H222591   3.170   4.257   1.653
 7543TIP3   OH222592   1.584   4.383   2.265
 7543TIP3    H122593   1.611   4.292   2.272
 7543TIP3    H222594   1.492   4.383   2.290
 7544TIP3   OH222595   5.014   6.009   1.269
 7544TIP3    H122596   5.038   6.044   1.183
 7544TIP3    H222597   4.922   6.035   1.280
 7545TIP3   OH222598   2.748   6.045   4.352
 7545TIP3    H122599   2.694   6.023   4.428
 7545TIP3    H222600   2.701   6.007   4.277
 7546TIP3   OH222601   2.046   2.534   3.548
 7546TIP3    H122602   2.079   2.489   3.626
 7546TIP3    H222603   1.967   2.487   3.525
 7547TIP3   OH222604   6.467   3.184   4.777
 7547TIP3    H122605   6.503   3.249   4.717
 7547TIP3    H222606   6.456   3.231   4.860
 7548TIP3   OH222607   3.033   3.829   0.743
 7548TIP3    H122608   2.999   3.918   0.747
 7548TIP3    H222609   2.972   3.778   0.797
 7549TIP3   OH222610   6.720   2.954   2.571
 7549TIP3    H122611   6.658   2.894   2.613
 7549TIP3    H222612   6.667   3.029   2.545
 7550TIP3   OH222613   2.294   4.869   0.679
 7550TIP3    H122614   2.263   4.845   0.592
 7550TIP3    H222615   2.386   4.893   0.666
 7551TIP3   OH222616   1.139   3.282   3.603
 7551TIP3    H122617   1.199   3.209   3.589
 7551TIP3    H222618   1.161   3.315   3.690
 7552TIP3   OH222619   2.345   2.436   5.647
 7552TIP3    H122620   2.252   2.456   5.655
 7552TIP3    H222621   2.377   2.497   5.581
 7553TIP3   OH222622   6.469   5.320   5.610
 7553TIP3    H122623   6.543   5.352   5.558
 7553TIP3    H222624   6.400   5.303   5.546
 7554TIP3   OH222625   1.990   6.245   3.946
 7554TIP3    H122626   1.914   6.191   3.966
 7554TIP3    H222627   2.048   6.234   4.021
 7555TIP3   OH222628   5.699   5.732   3.395
 7555TIP3    H122629   5.733   5.821   3.410
 7555TIP3    H222630   5.613   5.732   3.435
 7556TIP3   OH222631   2.732   4.999   4.593
 7556TIP3    H122632   2.708   4.906   4.584
 7556TIP3    H222633   2.676   5.031   4.664
 7557TIP3   OH222634   5.784   0.986   1.079
 7557TIP3    H122635   5.731   1.050   1.126
 7557TIP3    H222636   5.802   0.917   1.143
 7558TIP3   OH222637   5.961   3.227   5.041
 7558TIP3    H122638   5.932   3.305   4.992
 7558TIP3    H222639   5.889   3.209   5.101
 7559TIP3   OH222640   3.573   5.513   4.609
 7559TIP3    H122641   3.524   5.595   4.617
 7559TIP3    H222642   3.510   5.445   4.632
 7560TIP3   OH222643   0.369   5.013   1.079
 7560TIP3    H122644   0.298   4.966   1.123
 7560TIP3    H222645   0.418   4.944   1.034
 7561TIP3   OH222646   6.170  -0.036   1.415
 7561TIP3    H122647   6.199  -0.078   1.334
 7561TIP3    H222648   6.117   0.038   1.386
 7562TIP3   OH222649   6.223   2.661   1.254
 7562TIP3    H122650   6.244   2.718   1.179
 7562TIP3    H222651   6.266   2.704   1.328
 7563TIP3   OH222652   5.906   1.085   0.275
 7563TIP3    H122653   5.849   1.009   0.286
 7563TIP3    H222654   5.981   1.067   0.333
 7564TIP3   OH222655   1.988   6.196   0.908
 7564TIP3    H122656   2.004   6.145   0.829
 7564TIP3    H222657   1.896   6.178   0.930
 7565TIP3   OH222658   6.799   5.967   5.530
 7565TIP3    H122659   6.745   6.027   5.581
 7565TIP3    H222660   6.822   5.897   5.591
 7566TIP3   OH222661   3.746   5.315   4.509
 7566TIP3    H122662   3.742   5.232   4.557
 7566TIP3    H222663   3.670   5.364   4.540
 7567TIP3   OH222664   5.278   5.108   0.274
 7567TIP3    H122665   5.362   5.084   0.235
 7567TIP3    H222666   5.258   5.035   0.332
 7568TIP3   OH222667   4.935   0.228   3.967
 7568TIP3    H122668   4.985   0.156   3.928
 7568TIP3    H222669   4.845   0.197   3.969
 7569TIP3   OH222670   2.163   2.620   4.396
 7569TIP3    H122671   2.168   2.714   4.375
 7569TIP3    H222672   2.187   2.576   4.315
 7570TIP3   OH222673   2.348   2.087   2.882
 7570TIP3    H122674   2.432   2.109   2.923
 7570TIP3    H222675   2.284   2.103   2.951
 7571TIP3   OH222676   6.459   5.288   3.897
 7571TIP3    H122677   6.368   5.316   3.909
 7571TIP3    H222678   6.499   5.358   3.846
 7572TIP3   OH222679   5.376   5.797   0.355
 7572TIP3    H122680   5.292   5.794   0.401
 7572TIP3    H222681   5.428   5.728   0.395
 7573TIP3   OH222682   6.167   5.499   0.492
 7573TIP3    H122683   6.083   5.524   0.530
 7573TIP3    H222684   6.146   5.432   0.428
 7574TIP3   OH222685   2.247   0.660   1.310
 7574TIP3    H122686   2.261   0.754   1.304
 7574TIP3    H222687   2.273   0.626   1.225
 7575TIP3   OH222688   4.550   0.742   1.424
 7575TIP3    H122689   4.631   0.731   1.475
 7575TIP3    H222690   4.556   0.830   1.387
 7576TIP3   OH222691   3.544   4.206   4.646
 7576TIP3    H122692   3.598   4.283   4.629
 7576TIP3    H222693   3.540   4.160   4.562
 7577TIP3   OH222694   3.244   3.854   5.131
 7577TIP3    H122695   3.279   3.924   5.186
 7577TIP3    H222696   3.191   3.801   5.190
 7578TIP3   OH222697   0.519   5.646   0.664
 7578TIP3    H122698   0.547   5.614   0.749
 7578TIP3    H222699   0.595   5.690   0.627
 7579TIP3   OH222700   2.937   1.780   0.549
 7579TIP3    H122701   3.027   1.798   0.576
 7579TIP3    H222702   2.884   1.847   0.593
 7580TIP3   OH222703   6.977   3.993   1.727
 7580TIP3    H122704   7.007   4.010   1.816
 7580TIP3    H222705   7.031   4.049   1.672
 7581TIP3   OH222706   5.293   0.741   0.920
 7581TIP3    H122707   5.206   0.707   0.940
 7581TIP3    H222708   5.320   0.787   0.999
 7582TIP3   OH222709   6.877   6.204   1.627
 7582TIP3    H122710   6.875   6.283   1.572
 7582TIP3    H222711   6.833   6.137   1.575
 7583TIP3   OH222712   4.049   4.638   2.712
 7583TIP3    H122713   4.077   4.689   2.787
 7583TIP3    H222714   3.956   4.658   2.702
 7584TIP3   OH222715   3.876   5.706   3.275
 7584TIP3    H122716   3.886   5.701   3.370
 7584TIP3    H222717   3.890   5.798   3.254
 7585TIP3   OH222718   3.665   3.941   2.931
 7585TIP3    H122719   3.719   3.955   3.009
 7585TIP3    H222720   3.665   3.846   2.919
 7586TIP3   OH222721   3.115   1.921   1.379
 7586TIP3    H122722   3.039   1.975   1.358
 7586TIP3    H222723   3.103   1.842   1.326
 7587TIP3   OH222724   3.997   4.473   0.923
 7587TIP3    H122725   4.020   4.483   0.831
 7587TIP3    H222726   3.942   4.395   0.926
 7588TIP3   OH222727   2.404   3.763   4.445
 7588TIP3    H122728   2.363   3.796   4.365
 7588TIP3    H222729   2.366   3.815   4.515
 7589TIP3   OH222730   3.998   1.291   0.440
 7589TIP3    H122731   4.054   1.298   0.518
 7589TIP3    H222732   4.056   1.317   0.368
 7590TIP3   OH222733   5.689   4.430   0.152
 7590TIP3    H122734   5.767   4.485   0.142
 7590TIP3    H222735   5.635   4.477   0.217
 7591TIP3   OH222736   4.748   4.913   1.525
 7591TIP3    H122737   4.746   4.974   1.598
 7591TIP3    H222738   4.841   4.893   1.513
 7592TIP3   OH222739   1.947   5.342   4.913
 7592TIP3    H122740   1.983   5.409   4.972
 7592TIP3    H222741   1.878   5.300   4.963
 7593TIP3   OH222742   3.787   4.162   4.507
 7593TIP3    H122743   3.845   4.238   4.504
 7593TIP3    H222744   3.805   4.115   4.426
 7594TIP3   OH222745   5.634   4.902   0.754
 7594TIP3    H122746   5.647   4.940   0.841
 7594TIP3    H222747   5.560   4.843   0.764
 7595TIP3   OH222748   5.389   4.828   3.244
 7595TIP3    H122749   5.343   4.896   3.292
 7595TIP3    H222750   5.473   4.819   3.289
 7596TIP3   OH222751   4.023   4.605   4.981
 7596TIP3    H122752   4.069   4.683   5.012
 7596TIP3    H222753   4.084   4.533   4.997
 7597TIP3   OH222754   3.461   3.284   3.944
 7597TIP3    H122755   3.454   3.365   3.995
 7597TIP3    H222756   3.503   3.222   4.003
 7598TIP3   OH222757   2.945   6.546   1.780
 7598TIP3    H122758   3.004   6.520   1.850
 7598TIP3    H222759   3.004   6.572   1.708
 7599TIP3   OH222760   6.335   2.897   3.410
 7599TIP3    H122761   6.426   2.921   3.427
 7599TIP3    H222762   6.341   2.827   3.345
 7600TIP3   OH222763   0.115   3.365   2.169
 7600TIP3    H122764   0.037   3.370   2.223
 7600TIP3    H222765   0.184   3.404   2.222
 7601TIP3   OH222766   6.194   6.174   3.780
 7601TIP3    H122767   6.195   6.264   3.812
 7601TIP3    H222768   6.265   6.131   3.827
 7602TIP3   OH222769   6.649   3.079   1.416
 7602TIP3    H122770   6.601   3.107   1.338
 7602TIP3    H222771   6.701   3.004   1.387
 7603TIP3   OH222772   0.990   1.584   2.336
 7603TIP3    H122773   0.930   1.510   2.332
 7603TIP3    H222774   1.077   1.544   2.335
 7604TIP3   OH222775   3.668   0.704   2.731
 7604TIP3    H122776   3.594   0.749   2.691
 7604TIP3    H222777   3.654   0.612   2.709
 7605TIP3   OH222778   0.725   2.591   4.260
 7605TIP3    H122779   0.657   2.654   4.285
 7605TIP3    H222780   0.756   2.623   4.175
 7606TIP3   OH222781   5.364   5.682   1.768
 7606TIP3    H122782   5.419   5.620   1.815
 7606TIP3    H222783   5.375   5.764   1.816
 7607TIP3   OH222784   4.920   5.625   1.526
 7607TIP3    H122785   4.918   5.718   1.546
 7607TIP3    H222786   5.006   5.596   1.558
 7608TIP3   OH222787   0.907   1.224   2.024
 7608TIP3    H122788   0.845   1.159   1.989
 7608TIP3    H222789   0.939   1.270   1.946
 7609TIP3   OH222790   1.999   4.301   0.496
 7609TIP3    H122791   1.960   4.380   0.536
 7609TIP3    H222792   1.970   4.304   0.405
 7610TIP3   OH222793   1.237   1.210   4.804
 7610TIP3    H122794   1.305   1.242   4.864
 7610TIP3    H222795   1.155   1.221   4.853
 7611TIP3   OH222796   3.272   6.680   2.769
 7611TIP3    H122797   3.252   6.675   2.863
 7611TIP3    H222798   3.332   6.607   2.754
 7612TIP3   OH222799   1.457   2.114   0.910
 7612TIP3    H122800   1.393   2.081   0.973
 7612TIP3    H222801   1.420   2.198   0.881
 7613TIP3   OH222802   6.404   3.529   2.490
 7613TIP3    H122803   6.331   3.589   2.505
 7613TIP3    H222804   6.482   3.585   2.493
 7614TIP3   OH222805   3.222   1.569   2.862
 7614TIP3    H122806   3.259   1.492   2.904
 7614TIP3    H222807   3.140   1.585   2.908
 7615TIP3   OH222808   2.263   6.199   2.935
 7615TIP3    H122809   2.181   6.224   2.978
 7615TIP3    H222810   2.236   6.173   2.847
 7616TIP3   OH222811   4.563   1.426   3.221
 7616TIP3    H122812   4.616   1.425   3.141
 7616TIP3    H222813   4.612   1.371   3.282
 7617TIP3   OH222814   1.795   6.047   4.702
 7617TIP3    H122815   1.767   6.119   4.758
 7617TIP3    H222816   1.805   5.973   4.761
 7618TIP3   OH222817   4.598   0.410   4.879
 7618TIP3    H122818   4.650   0.452   4.948
 7618TIP3    H222819   4.510   0.447   4.890
 7619TIP3   OH222820   6.906   2.031   4.985
 7619TIP3    H122821   6.962   1.955   4.968
 7619TIP3    H222822   6.938   2.098   4.925
 7620TIP3   OH222823   5.184   6.575   0.876
 7620TIP3    H122824   5.206   6.513   0.946
 7620TIP3    H222825   5.188   6.523   0.796
 7621TIP3   OH222826   3.220   5.172   1.738
 7621TIP3    H122827   3.287   5.175   1.805
 7621TIP3    H222828   3.144   5.134   1.782
 7622TIP3   OH222829   7.205   0.581   5.373
 7622TIP3    H122830   7.281   0.626   5.410
 7622TIP3    H222831   7.173   0.526   5.444
 7623TIP3   OH222832   0.719   2.244   0.543
 7623TIP3    H122833   0.811   2.234   0.517
 7623TIP3    H222834   0.709   2.338   0.560
 7624TIP3   OH222835  -0.005   3.621   4.320
 7624TIP3    H122836  -0.025   3.646   4.410
 7624TIP3    H222837   0.005   3.704   4.274
 7625TIP3   OH222838   3.689   3.921   4.063
 7625TIP3    H122839   3.616   3.947   4.007
 7625TIP3    H222840   3.725   4.003   4.096
 7626TIP3   OH222841   0.342   2.850   1.774
 7626TIP3    H122842   0.321   2.817   1.861
 7626TIP3    H222843   0.432   2.880   1.780
 7627TIP3   OH222844   0.184   1.652   2.820
 7627TIP3    H122845   0.088   1.653   2.816
 7627TIP3    H222846   0.209   1.744   2.809
 7628TIP3   OH222847   1.545   4.256   1.182
 7628TIP3    H122848   1.531   4.343   1.221
 7628TIP3    H222849   1.594   4.273   1.102
 7629TIP3   OH222850   0.572   5.858   0.239
 7629TIP3    H122851   0.535   5.772   0.257
 7629TIP3    H222852   0.666   5.844   0.239
 7630TIP3   OH222853   0.712   0.138   0.804
 7630TIP3    H122854   0.754   0.058   0.770
 7630TIP3    H222855   0.621   0.112   0.821
 7631TIP3   OH222856   0.418   0.657   2.155
 7631TIP3    H122857   0.335   0.610   2.169
 7631TIP3    H222858   0.468   0.600   2.096
 7632TIP3   OH222859   0.067   3.314   0.381
 7632TIP3    H122860   0.106   3.238   0.423
 7632TIP3    H222861   0.066   3.382   0.449
 7633TIP3   OH222862   4.597   2.936   4.303
 7633TIP3    H122863   4.534   2.991   4.257
 7633TIP3    H222864   4.574   2.847   4.276
 7634TIP3   OH222865   2.890   3.644   0.533
 7634TIP3    H122866   2.803   3.605   0.545
 7634TIP3    H222867   2.908   3.687   0.617
 7635TIP3   OH222868   0.492   5.120   3.802
 7635TIP3    H122869   0.464   5.030   3.784
 7635TIP3    H222870   0.544   5.144   3.725
 7636TIP3   OH222871   2.106   0.501   2.928
 7636TIP3    H122872   2.064   0.540   3.004
 7636TIP3    H222873   2.067   0.414   2.920
 7637TIP3   OH222874   4.796   5.336   3.005
 7637TIP3    H122875   4.767   5.407   2.948
 7637TIP3    H222876   4.757   5.258   2.967
 7638TIP3   OH222877   0.923   0.518   1.324
 7638TIP3    H122878   0.843   0.549   1.365
 7638TIP3    H222879   0.956   0.592   1.274
 7639TIP3   OH222880   2.130   2.420   3.800
 7639TIP3    H122881   2.224   2.400   3.796
 7639TIP3    H222882   2.091   2.344   3.842
 7640TIP3   OH222883   4.567   0.492   5.724
 7640TIP3    H122884   4.472   0.491   5.735
 7640TIP3    H222885   4.581   0.512   5.632
 7641TIP3   OH222886   2.707   4.617   2.381
 7641TIP3    H122887   2.721   4.592   2.472
 7641TIP3    H222888   2.650   4.549   2.345
 7642TIP3   OH222889   0.364   3.694   2.626
 7642TIP3    H122890   0.324   3.758   2.568
 7642TIP3    H222891   0.317   3.613   2.609
 7643TIP3   OH222892   6.891   3.152   5.619
 7643TIP3    H122893   6.949   3.105   5.678
 7643TIP3    H222894   6.864   3.086   5.554
 7644TIP3   OH222895   6.804   0.605   5.497
 7644TIP3    H122896   6.842   0.588   5.411
 7644TIP3    H222897   6.797   0.518   5.537
 7645TIP3   OH222898   1.887   3.799   1.769
 7645TIP3    H122899   1.932   3.850   1.701
 7645TIP3    H222900   1.816   3.856   1.798
 7646TIP3   OH222901   5.860   3.954   5.335
 7646TIP3    H122902   5.921   4.022   5.308
 7646TIP3    H222903   5.893   3.925   5.420
 7647TIP3   OH222904   3.319   5.776   3.163
 7647TIP3    H122905   3.269   5.743   3.088
 7647TIP3    H222906   3.257   5.831   3.211
 7648TIP3   OH222907   6.231   6.131   1.987
 7648TIP3    H122908   6.158   6.157   2.044
 7648TIP3    H222909   6.224   6.036   1.980
 7649TIP3   OH222910   2.123   3.903   1.658
 7649TIP3    H122911   2.191   3.966   1.681
 7649TIP3    H222912   2.171   3.829   1.620
 7650TIP3   OH222913   2.869   3.771   5.741
 7650TIP3    H122914   2.829   3.858   5.747
 7650TIP3    H222915   2.964   3.788   5.741
 7651TIP3   OH222916   3.619   5.320   5.178
 7651TIP3    H122917   3.635   5.234   5.138
 7651TIP3    H222918   3.703   5.343   5.217
 7652TIP3   OH222919   0.184   1.097   4.095
 7652TIP3    H122920   0.161   1.080   4.187
 7652TIP3    H222921   0.273   1.132   4.098
 7653TIP3   OH222922   2.957   5.495   5.137
 7653TIP3    H122923   2.930   5.502   5.046
 7653TIP3    H222924   3.047   5.464   5.134
 7654TIP3   OH222925   2.800   1.186   2.053
 7654TIP3    H122926   2.768   1.198   2.143
 7654TIP3    H222927   2.871   1.249   2.044
 7655TIP3   OH222928   6.738   2.863   1.784
 7655TIP3    H122929   6.747   2.859   1.879
 7655TIP3    H222930   6.647   2.891   1.769
 7656TIP3   OH222931   2.086   5.454   3.744
 7656TIP3    H122932   2.157   5.519   3.747
 7656TIP3    H222933   2.059   5.453   3.652
 7657TIP3   OH222934   5.554   5.072   3.994
 7657TIP3    H122935   5.581   5.149   4.043
 7657TIP3    H222936   5.633   5.046   3.945
 7658TIP3   OH222937   4.680   5.195   2.056
 7658TIP3    H122938   4.615   5.138   2.098
 7658TIP3    H222939   4.628   5.259   2.007
 7659TIP3   OH222940   2.103   2.125   5.602
 7659TIP3    H122941   2.043   2.199   5.614
 7659TIP3    H222942   2.123   2.096   5.691
 7660TIP3   OH222943   1.638   0.993   0.173
 7660TIP3    H122944   1.612   0.989   0.265
 7660TIP3    H222945   1.557   1.009   0.126
 7661TIP3   OH222946   7.037   5.673   2.615
 7661TIP3    H122947   7.043   5.606   2.547
 7661TIP3    H222948   6.968   5.640   2.674
 7662TIP3   OH222949   2.073   0.802   2.308
 7662TIP3    H122950   2.035   0.809   2.396
 7662TIP3    H222951   2.041   0.879   2.262
 7663TIP3   OH222952   5.684   6.633   0.043
 7663TIP3    H122953   5.673   6.541   0.018
 7663TIP3    H222954   5.688   6.680  -0.041
 7664TIP3   OH222955   1.539   3.837   2.067
 7664TIP3    H122956   1.476   3.767   2.080
 7664TIP3    H222957   1.569   3.859   2.155
 7665TIP3   OH222958   3.033   1.874   3.766
 7665TIP3    H122959   3.099   1.807   3.783
 7665TIP3    H222960   3.053   1.905   3.678
 7666TIP3   OH222961   6.144   1.816   1.646
 7666TIP3    H122962   6.075   1.809   1.580
 7666TIP3    H222963   6.137   1.736   1.698
 7667TIP3   OH222964   5.499   2.447   3.206
 7667TIP3    H122965   5.500   2.444   3.302
 7667TIP3    H222966   5.469   2.536   3.185
 7668TIP3   OH222967   3.167   2.518   0.895
 7668TIP3    H122968   3.230   2.446   0.897
 7668TIP3    H222969   3.129   2.518   0.983
 7669TIP3   OH222970   6.686   0.844   5.799
 7669TIP3    H122971   6.774   0.826   5.767
 7669TIP3    H222972   6.696   0.853   5.894
 7670TIP3   OH222973   5.473   6.577   3.293
 7670TIP3    H122974   5.541   6.510   3.283
 7670TIP3    H222975   5.486   6.611   3.382
 7671TIP3   OH222976   4.803   6.459   0.471
 7671TIP3    H122977   4.805   6.481   0.564
 7671TIP3    H222978   4.715   6.484   0.443
 7672TIP3   OH222979   6.933   4.472   3.120
 7672TIP3    H122980   6.893   4.544   3.170
 7672TIP3    H222981   6.884   4.471   3.038
 7673TIP3   OH222982   1.392   1.313   5.016
 7673TIP3    H122983   1.351   1.382   5.069
 7673TIP3    H222984   1.453   1.271   5.076
 7674TIP3   OH222985   3.787   1.943   0.983
 7674TIP3    H122986   3.820   1.872   0.928
 7674TIP3    H222987   3.745   2.003   0.921
 7675TIP3   OH222988   5.195   4.956   5.116
 7675TIP3    H122989   5.213   4.862   5.118
 7675TIP3    H222990   5.272   4.996   5.158
 7676TIP3   OH222991   0.176   4.576   2.041
 7676TIP3    H122992   0.261   4.555   2.001
 7676TIP3    H222993   0.124   4.612   1.969
 7677TIP3   OH222994   0.804   1.806   4.622
 7677TIP3    H122995   0.873   1.867   4.648
 7677TIP3    H222996   0.835   1.767   4.540
 7678TIP3   OH222997   5.468   3.931   5.594
 7678TIP3    H122998   5.464   3.950   5.688
 7678TIP3    H222999   5.539   3.868   5.585
 7679TIP3   OH223000   3.018   6.042   2.341
 7679TIP3    H123001   3.109   6.068   2.328
 7679TIP3    H223002   2.969   6.095   2.278
 7680TIP3   OH223003   4.756   3.968   5.510
 7680TIP3    H123004   4.809   4.003   5.438
 7680TIP3    H223005   4.692   3.911   5.467
 7681TIP3   OH223006   0.039   5.910   0.772
 7681TIP3    H123007   0.061   5.953   0.689
 7681TIP3    H223008  -0.051   5.937   0.790
 7682TIP3   OH223009   2.051   1.933   0.218
 7682TIP3    H123010   2.063   1.907   0.127
 7682TIP3    H223011   2.135   1.917   0.259
 7683TIP3   OH223012   1.743   5.492   1.745
 7683TIP3    H123013   1.664   5.525   1.702
 7683TIP3    H223014   1.712   5.460   1.830
 7684TIP3   OH223015   6.007   3.641   2.661
 7684TIP3    H123016   6.042   3.672   2.745
 7684TIP3    H223017   6.082   3.641   2.602
 7685TIP3   OH223018   3.163   4.649   4.241
 7685TIP3    H123019   3.117   4.681   4.163
 7685TIP3    H223020   3.234   4.711   4.254
 7686TIP3   OH223021   2.382   4.381   2.767
 7686TIP3    H123022   2.336   4.357   2.687
 7686TIP3    H223023   2.410   4.297   2.805
 7687TIP3   OH223024   3.930   5.050   2.892
 7687TIP3    H123025   3.859   5.104   2.856
 7687TIP3    H223026   3.992   5.040   2.820
 7688TIP3   OH223027   0.836   1.181   2.652
 7688TIP3    H123028   0.855   1.234   2.729
 7688TIP3    H223029   0.917   1.132   2.637
 7689TIP3   OH223030   6.953   3.906   3.009
 7689TIP3    H123031   6.900   3.982   3.034
 7689TIP3    H223032   6.916   3.877   2.926
 7690TIP3   OH223033   5.010   2.877   5.799
 7690TIP3    H123034   5.032   2.921   5.880
 7690TIP3    H223035   5.058   2.925   5.731
 7691TIP3   OH223036   3.391   6.689   4.681
 7691TIP3    H123037   3.343   6.745   4.620
 7691TIP3    H223038   3.479   6.725   4.683
 7692TIP3   OH223039   5.083   3.233   5.124
 7692TIP3    H123040   5.002   3.224   5.175
 7692TIP3    H223041   5.070   3.175   5.048
 7693TIP3   OH223042   4.708   4.741   3.439
 7693TIP3    H123043   4.777   4.808   3.445
 7693TIP3    H223044   4.712   4.695   3.522
 7694TIP3   OH223045   3.039   6.529   0.656
 7694TIP3    H123046   3.022   6.586   0.731
 7694TIP3    H223047   2.958   6.532   0.605
 7695TIP3   OH223048   2.925   6.028   3.156
 7695TIP3    H123049   2.906   6.055   3.246
 7695TIP3    H223050   2.973   5.946   3.165
 7696TIP3   OH223051   2.899   6.493   3.541
 7696TIP3    H123052   2.820   6.544   3.559
 7696TIP3    H223053   2.945   6.544   3.474
 7697TIP3   OH223054   3.357   6.079   0.290
 7697TIP3    H123055   3.404   6.007   0.334
 7697TIP3    H223056   3.323   6.133   0.362
 7698TIP3   OH223057   1.386   1.153   5.552
 7698TIP3    H123058   1.396   1.085   5.485
 7698TIP3    H223059   1.298   1.140   5.587
 7699TIP3   OH223060   2.993   0.992   2.794
 7699TIP3    H123061   2.954   1.066   2.747
 7699TIP3    H223062   2.918   0.939   2.822
 7700TIP3   OH223063   4.246   0.553   1.418
 7700TIP3    H123064   4.237   0.465   1.382
 7700TIP3    H223065   4.273   0.607   1.344
 7701TIP3   OH223066   6.872   4.814   0.148
 7701TIP3    H123067   6.798   4.847   0.198
 7701TIP3    H223068   6.886   4.725   0.181
 7702TIP3   OH223069   6.658   0.951   0.959
 7702TIP3    H123070   6.591   0.920   0.898
 7702TIP3    H223071   6.688   0.873   1.004
 7703TIP3   OH223072   4.407   4.415   0.817
 7703TIP3    H123073   4.485   4.435   0.766
 7703TIP3    H223074   4.401   4.319   0.815
 7704TIP3   OH223075   4.001   5.750   0.465
 7704TIP3    H123076   4.071   5.758   0.400
 7704TIP3    H223077   3.992   5.838   0.501
 7705TIP3   OH223078   4.405   4.501   2.929
 7705TIP3    H123079   4.340   4.440   2.963
 7705TIP3    H223080   4.417   4.565   2.999
 7706TIP3   OH223081   2.180   2.586   0.258
 7706TIP3    H123082   2.131   2.635   0.323
 7706TIP3    H223083   2.201   2.649   0.189
 7707TIP3   OH223084   6.636   3.616   2.205
 7707TIP3    H123085   6.567   3.566   2.162
 7707TIP3    H223086   6.717   3.584   2.166
 7708TIP3   OH223087   6.601   2.986   5.622
 7708TIP3    H123088   6.677   2.994   5.564
 7708TIP3    H223089   6.636   2.952   5.704
 7709TIP3   OH223090   1.310   2.272   0.686
 7709TIP3    H123091   1.222   2.310   0.681
 7709TIP3    H223092   1.297   2.178   0.669
 7710TIP3   OH223093   1.046   0.770   0.224
 7710TIP3    H123094   1.130   0.799   0.259
 7710TIP3    H223095   0.981   0.822   0.272
 7711TIP3   OH223096  -0.031   1.621   0.081
 7711TIP3    H123097  -0.010   1.700   0.032
 7711TIP3    H223098   0.053   1.587   0.111
 7712TIP3   OH223099   3.111   1.339   0.158
 7712TIP3    H123100   3.042   1.375   0.102
 7712TIP3    H223101   3.189   1.339   0.103
 7713TIP3   OH223102   1.073   1.074   5.846
 7713TIP3    H123103   1.105   1.109   5.930
 7713TIP3    H223104   1.015   1.142   5.812
 7714TIP3   OH223105   0.945   4.834   1.791
 7714TIP3    H123106   0.952   4.761   1.730
 7714TIP3    H223107   1.028   4.835   1.838
 7715TIP3   OH223108   0.104   6.470   2.106
 7715TIP3    H123109   0.086   6.430   2.191
 7715TIP3    H223110   0.199   6.459   2.094
 7716TIP3   OH223111   7.040   3.028   5.810
 7716TIP3    H123112   7.041   3.070   5.896
 7716TIP3    H223113   7.124   2.983   5.804
 7717TIP3   OH223114   2.524   1.300   3.229
 7717TIP3    H123115   2.455   1.235   3.213
 7717TIP3    H223116   2.606   1.251   3.220
 7718TIP3   OH223117   2.813   2.341   3.862
 7718TIP3    H123118   2.878   2.278   3.833
 7718TIP3    H223119   2.810   2.330   3.957
 7719TIP3   OH223120   2.995   6.353   5.145
 7719TIP3    H123121   2.980   6.309   5.061
 7719TIP3    H223122   2.975   6.286   5.211
 7720TIP3   OH223123   4.425   6.593   3.734
 7720TIP3    H123124   4.424   6.500   3.708
 7720TIP3    H223125   4.344   6.628   3.699
 7721TIP3   OH223126   1.621   4.424   4.119
 7721TIP3    H123127   1.607   4.355   4.184
 7721TIP3    H223128   1.564   4.400   4.046
 7722TIP3   OH223129   2.910   3.550   4.680
 7722TIP3    H123130   2.955   3.634   4.672
 7722TIP3    H223131   2.978   3.489   4.708
 7723TIP3   OH223132   0.472   4.963   5.534
 7723TIP3    H123133   0.402   4.904   5.560
 7723TIP3    H223134   0.503   5.001   5.616
 7724TIP3   OH223135   4.514   2.778   5.427
 7724TIP3    H123136   4.608   2.785   5.445
 7724TIP3    H223137   4.488   2.695   5.466
 7725TIP3   OH223138   1.936   3.743   3.537
 7725TIP3    H123139   2.003   3.712   3.597
 7725TIP3    H223140   1.942   3.685   3.461
 7726TIP3   OH223141   1.803   3.367   2.201
 7726TIP3    H123142   1.888   3.350   2.158
 7726TIP3    H223143   1.769   3.444   2.156
 7727TIP3   OH223144   3.204   3.221   5.366
 7727TIP3    H123145   3.128   3.180   5.325
 7727TIP3    H223146   3.247   3.268   5.294
 7728TIP3   OH223147   0.058   3.528   3.871
 7728TIP3    H123148   0.131   3.543   3.810
 7728TIP3    H223149   0.045   3.613   3.913
 7729TIP3   OH223150   6.254   1.198   3.024
 7729TIP3    H123151   6.192   1.130   3.050
 7729TIP3    H223152   6.332   1.180   3.077
 7730TIP3   OH223153   5.051   0.740   0.111
 7730TIP3    H123154   5.072   0.728   0.204
 7730TIP3    H223155   4.955   0.737   0.108
 7731TIP3   OH223156   0.273   2.486   1.954
 7731TIP3    H123157   0.311   2.520   2.035
 7731TIP3    H223158   0.184   2.462   1.977
 7732TIP3   OH223159   3.507   1.398   4.536
 7732TIP3    H123160   3.424   1.390   4.585
 7732TIP3    H223161   3.521   1.492   4.528
 7733TIP3   OH223162   3.753   2.381   3.844
 7733TIP3    H123163   3.715   2.414   3.762
 7733TIP3    H223164   3.839   2.348   3.818
 7734TIP3   OH223165   1.513   0.196   1.184
 7734TIP3    H123166   1.568   0.215   1.108
 7734TIP3    H223167   1.499   0.281   1.226
 7735TIP3   OH223168   2.311   5.613   1.052
 7735TIP3    H123169   2.289   5.674   0.981
 7735TIP3    H223170   2.228   5.590   1.092
 7736TIP3   OH223171   6.679   6.525   5.158
 7736TIP3    H123172   6.680   6.430   5.162
 7736TIP3    H223173   6.760   6.548   5.112
 7737TIP3   OH223174   2.353   6.540   4.231
 7737TIP3    H123175   2.315   6.612   4.280
 7737TIP3    H223176   2.420   6.580   4.176
 7738TIP3   OH223177   7.056   1.631   5.555
 7738TIP3    H123178   6.968   1.613   5.522
 7738TIP3    H223179   7.106   1.658   5.477
 7739TIP3   OH223180   5.177   2.612   4.791
 7739TIP3    H123181   5.195   2.656   4.874
 7739TIP3    H223182   5.082   2.620   4.780
 7740TIP3   OH223183   0.723   5.272   0.289
 7740TIP3    H123184   0.668   5.340   0.251
 7740TIP3    H223185   0.708   5.279   0.383
 7741TIP3   OH223186   1.486   0.041   4.019
 7741TIP3    H123187   1.565   0.005   4.059
 7741TIP3    H223188   1.417  -0.019   4.045
 7742TIP3   OH223189   1.502   5.105   2.167
 7742TIP3    H123190   1.558   5.182   2.173
 7742TIP3    H223191   1.508   5.077   2.076
 7743TIP3   OH223192   0.552   4.320   4.621
 7743TIP3    H123193   0.586   4.400   4.581
 7743TIP3    H223194   0.497   4.350   4.693
 7744TIP3   OH223195   1.733   6.309   2.429
 7744TIP3    H123196   1.819   6.284   2.397
 7744TIP3    H223197   1.710   6.387   2.377
 7745TIP3   OH223198   1.348   0.522   0.267
 7745TIP3    H123199   1.398   0.513   0.185
 7745TIP3    H223200   1.336   0.616   0.277
 7746TIP3   OH223201   4.383   3.116   4.248
 7746TIP3    H123202   4.408   3.133   4.339
 7746TIP3    H223203   4.289   3.099   4.252
 7747TIP3   OH223204   2.368   0.360   3.813
 7747TIP3    H123205   2.291   0.334   3.864
 7747TIP3    H223206   2.340   0.440   3.768
 7748TIP3   OH223207   6.087   2.878   4.131
 7748TIP3    H123208   6.014   2.928   4.167
 7748TIP3    H223209   6.156   2.885   4.197
 7749TIP3   OH223210   2.247   4.163   0.051
 7749TIP3    H123211   2.263   4.258   0.053
 7749TIP3    H223212   2.217   4.145  -0.038
 7750TIP3   OH223213   7.171   1.726   1.522
 7750TIP3    H123214   7.251   1.778   1.511
 7750TIP3    H223215   7.136   1.717   1.433
 7751TIP3   OH223216   2.761   2.975   2.505
 7751TIP3    H123217   2.781   3.065   2.532
 7751TIP3    H223218   2.699   2.943   2.570
 7752TIP3   OH223219   1.490   3.104   0.838
 7752TIP3    H123220   1.463   3.193   0.859
 7752TIP3    H223221   1.539   3.113   0.756
 7753TIP3   OH223222   5.162   4.833   3.624
 7753TIP3    H123223   5.161   4.877   3.709
 7753TIP3    H223224   5.142   4.742   3.643
 7754TIP3   OH223225   4.189   5.203   2.952
 7754TIP3    H123226   4.169   5.287   2.911
 7754TIP3    H223227   4.104   5.159   2.958
 7755TIP3   OH223228   3.036   6.690   0.884
 7755TIP3    H123229   3.076   6.704   0.970
 7755TIP3    H223230   3.017   6.779   0.853
 7756TIP3   OH223231   1.360   3.995   5.530
 7756TIP3    H123232   1.349   3.900   5.530
 7756TIP3    H223233   1.271   4.030   5.520
 7757TIP3   OH223234   6.136   3.711   2.889
 7757TIP3    H123235   6.198   3.644   2.917
 7757TIP3    H223236   6.056   3.692   2.938
 7758TIP3   OH223237   0.246   1.907   0.380
 7758TIP3    H123238   0.273   1.916   0.288
 7758TIP3    H223239   0.322   1.937   0.430
 7759TIP3   OH223240   2.594   1.412   2.423
 7759TIP3    H123241   2.504   1.440   2.402
 7759TIP3    H223242   2.588   1.376   2.511
 7760TIP3   OH223243   6.186   2.001   1.833
 7760TIP3    H123244   6.155   1.926   1.784
 7760TIP3    H223245   6.205   2.067   1.767
 7761TIP3   OH223246   4.312   3.676   2.718
 7761TIP3    H123247   4.373   3.750   2.717
 7761TIP3    H223248   4.227   3.716   2.734
 7762TIP3   OH223249   6.271   6.440   3.856
 7762TIP3    H123250   6.353   6.471   3.819
 7762TIP3    H223251   6.279   6.457   3.950
 7763TIP3   OH223252   3.454   5.347   1.787
 7763TIP3    H123253   3.492   5.264   1.815
 7763TIP3    H223254   3.494   5.365   1.702
 7764TIP3   OH223255   3.919   4.338   3.191
 7764TIP3    H123256   3.956   4.249   3.185
 7764TIP3    H223257   3.956   4.384   3.116
 7765TIP3   OH223258   0.398   1.360   1.760
 7765TIP3    H123259   0.353   1.435   1.722
 7765TIP3    H223260   0.418   1.304   1.684
 7766TIP3   OH223261   5.297   6.574   5.401
 7766TIP3    H123262   5.328   6.592   5.490
 7766TIP3    H223263   5.327   6.485   5.383
 7767TIP3   OH223264   4.304   0.986   2.234
 7767TIP3    H123265   4.386   0.971   2.283
 7767TIP3    H223266   4.333   1.021   2.150
 7768TIP3   OH223267   7.008   2.794   4.597
 7768TIP3    H123268   6.955   2.747   4.661
 7768TIP3    H223269   6.945   2.826   4.532
 7769TIP3   OH223270   1.295   1.713   2.215
 7769TIP3    H123271   1.204   1.739   2.199
 7769TIP3    H223272   1.289   1.637   2.272
 7770TIP3   OH223273   0.580   4.922   1.499
 7770TIP3    H123274   0.630   4.905   1.579
 7770TIP3    H223275   0.583   4.840   1.450
 7771TIP3   OH223276   0.581   4.253   2.810
 7771TIP3    H123277   0.497   4.209   2.819
 7771TIP3    H223278   0.582   4.285   2.720
 7772TIP3   OH223279   1.716   4.727   0.540
 7772TIP3    H123280   1.807   4.719   0.570
 7772TIP3    H223281   1.692   4.639   0.511
 7773TIP3   OH223282   4.968   0.731   4.452
 7773TIP3    H123283   4.942   0.820   4.428
 7773TIP3    H223284   4.988   0.688   4.369
 7774TIP3   OH223285   7.038   5.670   4.270
 7774TIP3    H123286   6.955   5.659   4.315
 7774TIP3    H223287   7.021   5.641   4.180
 7775TIP3   OH223288   5.793   2.052   4.845
 7775TIP3    H123289   5.697   2.048   4.841
 7775TIP3    H223290   5.822   1.973   4.801
 7776TIP3   OH223291   2.522   1.798   0.264
 7776TIP3    H123292   2.441   1.843   0.286
 7776TIP3    H223293   2.592   1.856   0.296
 7777TIP3   OH223294   1.410   0.489   3.680
 7777TIP3    H123295   1.463   0.413   3.704
 7777TIP3    H223296   1.473   0.557   3.657
 7778TIP3   OH223297   4.145   5.021   1.798
 7778TIP3    H123298   4.126   4.939   1.753
 7778TIP3    H223299   4.229   5.007   1.841
 7779TIP3   OH223300   2.969   2.501   4.260
 7779TIP3    H123301   3.028   2.483   4.187
 7779TIP3    H223302   2.998   2.584   4.295
 7780TIP3   OH223303   0.272   4.865   3.378
 7780TIP3    H123304   0.199   4.926   3.387
 7780TIP3    H223305   0.318   4.870   3.461
 7781TIP3   OH223306   0.715   6.064   4.464
 7781TIP3    H123307   0.651   5.994   4.473
 7781TIP3    H223308   0.738   6.065   4.371
 7782TIP3   OH223309   0.735   4.926   4.636
 7782TIP3    H123310   0.665   4.965   4.583
 7782TIP3    H223311   0.751   4.990   4.705
 7783TIP3   OH223312   5.880   0.806   2.359
 7783TIP3    H123313   5.828   0.786   2.281
 7783TIP3    H223314   5.862   0.899   2.377
 7784TIP3   OH223315   5.656   1.150   0.671
 7784TIP3    H123316   5.730   1.110   0.716
 7784TIP3    H223317   5.693   1.226   0.626
 7785TIP3   OH223318   5.093   0.192   5.459
 7785TIP3    H123319   5.023   0.244   5.497
 7785TIP3    H223320   5.111   0.233   5.374
 7786TIP3   OH223321   1.167   4.072   3.409
 7786TIP3    H123322   1.241   4.034   3.455
 7786TIP3    H223323   1.202   4.103   3.326
 7787TIP3   OH223324   5.064   5.616   3.534
 7787TIP3    H123325   4.972   5.627   3.513
 7787TIP3    H223326   5.099   5.705   3.538
 7788TIP3   OH223327   2.761   4.592   2.646
 7788TIP3    H123328   2.703   4.588   2.722
 7788TIP3    H223329   2.790   4.501   2.633
 7789TIP3   OH223330   5.404   2.776   1.101
 7789TIP3    H123331   5.415   2.685   1.076
 7789TIP3    H223332   5.478   2.821   1.061
 7790TIP3   OH223333   1.146   0.669   5.639
 7790TIP3    H123334   1.176   0.760   5.633
 7790TIP3    H223335   1.052   0.674   5.619
 7791TIP3   OH223336   7.078   2.222   3.926
 7791TIP3    H123337   6.992   2.247   3.891
 7791TIP3    H223338   7.058   2.158   3.994
 7792TIP3   OH223339   3.583   6.089   2.403
 7792TIP3    H123340   3.613   6.028   2.335
 7792TIP3    H223341   3.540   6.159   2.354
 7793TIP3   OH223342   0.641   5.199   1.359
 7793TIP3    H123343   0.592   5.121   1.385
 7793TIP3    H223344   0.685   5.227   1.440
 7794TIP3   OH223345   0.237   4.880   5.186
 7794TIP3    H123346   0.208   4.869   5.276
 7794TIP3    H223347   0.300   4.952   5.189
 7795TIP3   OH223348   4.774   3.468   0.268
 7795TIP3    H123349   4.732   3.394   0.311
 7795TIP3    H223350   4.806   3.522   0.340
 7796TIP3   OH223351   1.336   0.538   0.695
 7796TIP3    H123352   1.330   0.467   0.632
 7796TIP3    H223353   1.338   0.495   0.781
 7797TIP3   OH223354   5.152   1.322   0.351
 7797TIP3    H123355   5.083   1.328   0.416
 7797TIP3    H223356   5.233   1.319   0.402
 7798TIP3   OH223357   0.672   4.628   5.817
 7798TIP3    H123358   0.756   4.591   5.844
 7798TIP3    H223359   0.640   4.570   5.749
 7799TIP3   OH223360   7.068   1.066   4.283
 7799TIP3    H123361   7.162   1.051   4.297
 7799TIP3    H223362   7.026   0.988   4.319
 7800TIP3   OH223363   5.267   4.994   3.421
 7800TIP3    H123364   5.249   5.081   3.457
 7800TIP3    H223365   5.235   4.933   3.487
 7801TIP3   OH223366   0.641   1.795   1.164
 7801TIP3    H123367   0.731   1.773   1.188
 7801TIP3    H223368   0.625   1.879   1.208
 7802TIP3   OH223369   6.088   4.675   5.074
 7802TIP3    H123370   6.057   4.587   5.093
 7802TIP3    H223371   6.179   4.676   5.104
 7803TIP3   OH223372   2.228   4.493   4.750
 7803TIP3    H123373   2.302   4.528   4.801
 7803TIP3    H223374   2.171   4.569   4.736
 7804TIP3   OH223375   1.073   6.392   0.650
 7804TIP3    H123376   1.046   6.301   0.665
 7804TIP3    H223377   1.056   6.436   0.733
 7805TIP3   OH223378   5.605   4.938   1.405
 7805TIP3    H123379   5.558   5.021   1.412
 7805TIP3    H223380   5.548   4.874   1.449
 7806TIP3   OH223381   1.709   5.413   2.729
 7806TIP3    H123382   1.618   5.386   2.717
 7806TIP3    H223383   1.706   5.509   2.727
 7807TIP3   OH223384   4.084   3.110   4.972
 7807TIP3    H123385   4.094   3.090   4.879
 7807TIP3    H223386   4.108   3.202   4.981
 7808TIP3   OH223387   1.370   1.057   0.889
 7808TIP3    H123388   1.362   0.995   0.816
 7808TIP3    H223389   1.376   1.143   0.847
 7809TIP3   OH223390   1.029   3.032   0.657
 7809TIP3    H123391   0.990   2.946   0.676
 7809TIP3    H223392   1.029   3.077   0.742
 7810TIP3   OH223393   1.556   0.849   1.136
 7810TIP3    H123394   1.468   0.816   1.116
 7810TIP3    H223395   1.540   0.930   1.184
 7811TIP3   OH223396   5.776   4.162   3.696
 7811TIP3    H123397   5.817   4.166   3.782
 7811TIP3    H223398   5.801   4.076   3.662
 7812TIP3   OH223399   3.652   0.214   1.596
 7812TIP3    H123400   3.626   0.124   1.613
 7812TIP3    H223401   3.573   0.258   1.566
 7813TIP3   OH223402   5.466   0.377   2.852
 7813TIP3    H123403   5.455   0.472   2.851
 7813TIP3    H223404   5.448   0.350   2.761
 7814TIP3   OH223405   5.192   2.406   1.844
 7814TIP3    H123406   5.276   2.449   1.859
 7814TIP3    H223407   5.128   2.477   1.843
 7815TIP3   OH223408   1.811   0.883   1.570
 7815TIP3    H123409   1.793   0.973   1.544
 7815TIP3    H223410   1.903   0.870   1.546
 7816TIP3   OH223411   0.737   5.458   0.740
 7816TIP3    H123412   0.771   5.548   0.745
 7816TIP3    H223413   0.771   5.416   0.819
 7817TIP3   OH223414   5.574   6.744   0.598
 7817TIP3    H123415   5.648   6.788   0.555
 7817TIP3    H223416   5.518   6.716   0.525
 7818TIP3   OH223417   2.553   5.984   0.142
 7818TIP3    H123418   2.558   5.928   0.220
 7818TIP3    H223419   2.509   6.063   0.172
 7819TIP3   OH223420   1.584   3.138   1.998
 7819TIP3    H123421   1.630   3.097   1.925
 7819TIP3    H223422   1.492   3.116   1.984
 7820TIP3   OH223423   6.305   5.957   2.796
 7820TIP3    H123424   6.398   5.949   2.817
 7820TIP3    H223425   6.297   6.042   2.752
 7821TIP3   OH223426   0.609   4.615   3.755
 7821TIP3    H123427   0.670   4.557   3.800
 7821TIP3    H223428   0.550   4.646   3.824
 7822TIP3   OH223429   1.041   1.517   2.051
 7822TIP3    H123430   0.963   1.464   2.064
 7822TIP3    H223431   1.025   1.597   2.102
 7823TIP3   OH223432   2.599   3.186   4.669
 7823TIP3    H123433   2.622   3.250   4.737
 7823TIP3    H223434   2.656   3.207   4.595
 7824TIP3   OH223435   1.532   1.552   4.795
 7824TIP3    H123436   1.609   1.497   4.780
 7824TIP3    H223437   1.556   1.637   4.757
 7825TIP3   OH223438   0.888   5.616   0.155
 7825TIP3    H123439   0.806   5.602   0.108
 7825TIP3    H223440   0.896   5.712   0.160
 7826TIP3   OH223441   1.494   3.425   5.610
 7826TIP3    H123442   1.431   3.376   5.663
 7826TIP3    H223443   1.579   3.401   5.646
 7827TIP3   OH223444   2.214   1.450   2.165
 7827TIP3    H123445   2.252   1.457   2.253
 7827TIP3    H223446   2.127   1.489   2.173
 7828TIP3   OH223447   1.719   1.107   5.887
 7828TIP3    H123448   1.641   1.163   5.890
 7828TIP3    H223449   1.726   1.081   5.795
 7829TIP3   OH223450   2.005   3.235   3.245
 7829TIP3    H123451   1.916   3.208   3.267
 7829TIP3    H223452   2.061   3.165   3.279
 7830TIP3   OH223453   0.528   1.054   0.328
 7830TIP3    H123454   0.474   1.061   0.250
 7830TIP3    H223455   0.467   1.064   0.401
 7831TIP3   OH223456   6.532   3.432   2.039
 7831TIP3    H123457   6.590   3.474   1.975
 7831TIP3    H223458   6.457   3.402   1.988
 7832TIP3   OH223459   4.852   1.620   3.004
 7832TIP3    H123460   4.829   1.533   2.972
 7832TIP3    H223461   4.867   1.608   3.097
 7833TIP3   OH223462   5.630   5.210   3.529
 7833TIP3    H123463   5.704   5.225   3.470
 7833TIP3    H223464   5.660   5.140   3.587
 7834TIP3   OH223465   4.768   1.122   0.260
 7834TIP3    H123466   4.810   1.051   0.308
 7834TIP3    H223467   4.791   1.106   0.168
 7835TIP3   OH223468   1.208   3.903   2.867
 7835TIP3    H123469   1.198   3.981   2.812
 7835TIP3    H223470   1.119   3.884   2.897
 7836TIP3   OH223471   6.226   6.353   3.426
 7836TIP3    H123472   6.213   6.348   3.521
 7836TIP3    H223473   6.306   6.302   3.410
 7837TIP3   OH223474   4.749   6.782   0.603
 7837TIP3    H123475   4.755   6.855   0.665
 7837TIP3    H223476   4.784   6.707   0.651
 7838TIP3   OH223477   6.789   0.950   4.422
 7838TIP3    H123478   6.822   0.981   4.506
 7838TIP3    H223479   6.857   0.890   4.390
 7839TIP3   OH223480   0.914   6.591   1.667
 7839TIP3    H123481   0.954   6.545   1.593
 7839TIP3    H223482   0.829   6.620   1.633
 7840TIP3   OH223483   7.222   5.943   5.272
 7840TIP3    H123484   7.134   5.934   5.307
 7840TIP3    H223485   7.221   6.026   5.224
 7841TIP3   OH223486   3.346   5.661   2.115
 7841TIP3    H123487   3.333   5.585   2.058
 7841TIP3    H223488   3.265   5.667   2.166
 7842TIP3   OH223489   7.201   0.442   2.076
 7842TIP3    H123490   7.125   0.471   2.127
 7842TIP3    H223491   7.175   0.356   2.043
 7843TIP3   OH223492   5.134   1.333   3.049
 7843TIP3    H123493   5.125   1.259   2.989
 7843TIP3    H223494   5.119   1.410   2.995
 7844TIP3   OH223495   2.199   2.800   2.424
 7844TIP3    H123496   2.267   2.835   2.483
 7844TIP3    H223497   2.216   2.842   2.340
 7845TIP3   OH223498   6.249   5.624   1.851
 7845TIP3    H123499   6.202   5.542   1.837
 7845TIP3    H223500   6.303   5.635   1.773
 7846TIP3   OH223501   6.492   2.685   5.837
 7846TIP3    H123502   6.543   2.761   5.865
 7846TIP3    H223503   6.558   2.624   5.802
 7847TIP3   OH223504   0.045   0.849   4.037
 7847TIP3    H123505   0.102   0.924   4.020
 7847TIP3    H223506   0.085   0.777   3.989
 7848TIP3   OH223507   2.938   5.418   0.577
 7848TIP3    H123508   3.011   5.438   0.635
 7848TIP3    H223509   2.968   5.342   0.528
 7849TIP3   OH223510   0.011   2.634   2.579
 7849TIP3    H123511   0.015   2.725   2.607
 7849TIP3    H223512   0.100   2.601   2.594
 7850TIP3   OH223513   1.589   5.589   4.085
 7850TIP3    H123514   1.544   5.542   4.155
 7850TIP3    H223515   1.585   5.681   4.111
 7851TIP3   OH223516   0.761   0.100   2.747
 7851TIP3    H123517   0.800   0.013   2.756
 7851TIP3    H223518   0.806   0.138   2.671
 7852TIP3   OH223519   5.048   6.420   2.266
 7852TIP3    H123520   5.041   6.514   2.283
 7852TIP3    H223521   5.117   6.413   2.200
 7853TIP3   OH223522   5.154   5.035   2.869
 7853TIP3    H123523   5.096   5.020   2.943
 7853TIP3    H223524   5.239   5.054   2.908
 7854TIP3   OH223525   2.576   2.745   0.324
 7854TIP3    H123526   2.524   2.760   0.403
 7854TIP3    H223527   2.514   2.754   0.252
 7855TIP3   OH223528   3.685   6.517   4.927
 7855TIP3    H123529   3.634   6.547   5.002
 7855TIP3    H223530   3.653   6.428   4.911
 7856TIP3   OH223531   1.262   4.832   3.802
 7856TIP3    H123532   1.267   4.781   3.883
 7856TIP3    H223533   1.350   4.867   3.789
 7857TIP3   OH223534   1.059   2.826   5.188
 7857TIP3    H123535   1.139   2.860   5.228
 7857TIP3    H223536   1.089   2.777   5.111
 7858TIP3   OH223537   2.912   5.345   3.974
 7858TIP3    H123538   2.920   5.373   3.882
 7858TIP3    H223539   2.926   5.251   3.972
 7859TIP3   OH223540   1.888   6.305   5.482
 7859TIP3    H123541   1.899   6.290   5.576
 7859TIP3    H223542   1.889   6.400   5.473
 7860TIP3   OH223543   3.233   2.790   1.556
 7860TIP3    H123544   3.326   2.813   1.552
 7860TIP3    H223545   3.195   2.852   1.619
 7861TIP3   OH223546   0.798   0.422   5.873
 7861TIP3    H123547   0.720   0.369   5.891
 7861TIP3    H223548   0.769   0.485   5.807
 7862TIP3   OH223549   2.399   3.168   5.278
 7862TIP3    H123550   2.429   3.227   5.347
 7862TIP3    H223551   2.471   3.106   5.266
 7863TIP3   OH223552   6.484   4.106   5.040
 7863TIP3    H123553   6.458   4.022   5.078
 7863TIP3    H223554   6.418   4.123   4.973
 7864TIP3   OH223555   2.648   5.578   1.529
 7864TIP3    H123556   2.585   5.650   1.536
 7864TIP3    H223557   2.732   5.620   1.510
 7865TIP3   OH223558   4.604   4.666   1.864
 7865TIP3    H123559   4.516   4.631   1.849
 7865TIP3    H223560   4.591   4.736   1.928
 7866TIP3   OH223561   2.620   4.243   1.188
 7866TIP3    H123562   2.710   4.247   1.157
 7866TIP3    H223563   2.611   4.155   1.224
 7867TIP3   OH223564   6.508   2.483   1.324
 7867TIP3    H123565   6.499   2.555   1.386
 7867TIP3    H223566   6.434   2.493   1.264
 7868TIP3   OH223567   0.125   5.590   5.824
 7868TIP3    H123568   0.158   5.653   5.761
 7868TIP3    H223569   0.137   5.505   5.783
 7869TIP3   OH223570   6.143   3.069   5.446
 7869TIP3    H123571   6.127   2.990   5.496
 7869TIP3    H223572   6.229   3.055   5.406
 7870TIP3   OH223573   6.652   1.758   1.880
 7870TIP3    H123574   6.743   1.751   1.851
 7870TIP3    H223575   6.631   1.851   1.871
 7871TIP3   OH223576   5.659   0.630   2.768
 7871TIP3    H123577   5.597   0.702   2.777
 7871TIP3    H223578   5.628   0.580   2.693
 7872TIP3   OH223579   6.017   3.521   2.259
 7872TIP3    H123580   6.044   3.604   2.297
 7872TIP3    H223581   5.942   3.542   2.204
 7873TIP3   OH223582   2.296   5.984   2.590
 7873TIP3    H123583   2.210   5.942   2.592
 7873TIP3    H223584   2.288   6.058   2.651
 7874TIP3   OH223585   6.193   3.479   0.264
 7874TIP3    H123586   6.135   3.441   0.198
 7874TIP3    H223587   6.263   3.414   0.275
 7875TIP3   OH223588   4.204   1.376   1.112
 7875TIP3    H123589   4.252   1.449   1.073
 7875TIP3    H223590   4.257   1.351   1.188
 7876TIP3   OH223591   1.214   1.657   3.462
 7876TIP3    H123592   1.203   1.587   3.398
 7876TIP3    H223593   1.271   1.721   3.418
 7877TIP3   OH223594   2.752   1.835   4.283
 7877TIP3    H123595   2.821   1.863   4.223
 7877TIP3    H223596   2.782   1.862   4.370
 7878TIP3   OH223597   3.039   1.434   5.580
 7878TIP3    H123598   2.975   1.438   5.509
 7878TIP3    H223599   3.094   1.359   5.559
 7879TIP3   OH223600   7.101   5.806   1.415
 7879TIP3    H123601   7.155   5.881   1.391
 7879TIP3    H223602   7.139   5.733   1.366
 7880TIP3   OH223603   0.655   2.505   4.834
 7880TIP3    H123604   0.585   2.569   4.849
 7880TIP3    H223605   0.651   2.487   4.740
 7881TIP3   OH223606   1.257   2.258   1.607
 7881TIP3    H123607   1.309   2.180   1.587
 7881TIP3    H223608   1.317   2.314   1.656
 7882TIP3   OH223609   5.134   1.835   4.737
 7882TIP3    H123610   5.042   1.808   4.733
 7882TIP3    H223611   5.137   1.901   4.806
 7883TIP3   OH223612   3.302   6.556   4.312
 7883TIP3    H123613   3.324   6.552   4.405
 7883TIP3    H223614   3.207   6.543   4.310
 7884TIP3   OH223615   3.417   2.906   3.445
 7884TIP3    H123616   3.412   2.984   3.390
 7884TIP3    H223617   3.510   2.898   3.465
 7885TIP3   OH223618   6.298   2.056   1.573
 7885TIP3    H123619   6.390   2.029   1.584
 7885TIP3    H223620   6.249   1.973   1.575
 7886TIP3   OH223621   0.905   0.227   2.125
 7886TIP3    H123622   0.976   0.274   2.080
 7886TIP3    H223623   0.890   0.150   2.071
 7887TIP3   OH223624   5.242   4.332   1.016
 7887TIP3    H123625   5.212   4.241   1.017
 7887TIP3    H223626   5.210   4.368   1.098
 7888TIP3   OH223627   3.163   5.967   5.336
 7888TIP3    H123628   3.139   5.894   5.394
 7888TIP3    H223629   3.258   5.958   5.324
 7889TIP3   OH223630   2.602   3.287   3.369
 7889TIP3    H123631   2.601   3.370   3.417
 7889TIP3    H223632   2.545   3.302   3.293
 7890TIP3   OH223633   3.196   3.954   4.228
 7890TIP3    H123634   3.158   3.867   4.225
 7890TIP3    H223635   3.183   3.989   4.140
 7891TIP3   OH223636   2.524   4.212   5.258
 7891TIP3    H123637   2.496   4.304   5.260
 7891TIP3    H223638   2.574   4.200   5.338
 7892TIP3   OH223639   6.545   1.908   1.586
 7892TIP3    H123640   6.576   1.927   1.675
 7892TIP3    H223641   6.625   1.884   1.538
 7893TIP3   OH223642   5.852   5.555   2.608
 7893TIP3    H123643   5.944   5.528   2.612
 7893TIP3    H223644   5.804   5.483   2.649
 7894TIP3   OH223645   4.362   4.602   1.746
 7894TIP3    H123646   4.375   4.587   1.653
 7894TIP3    H223647   4.297   4.671   1.751
 7895TIP3   OH223648   4.894   3.063   3.481
 7895TIP3    H123649   4.892   3.134   3.545
 7895TIP3    H223650   4.842   3.095   3.408
 7896TIP3   OH223651   1.254   1.481   5.169
 7896TIP3    H123652   1.180   1.455   5.224
 7896TIP3    H223653   1.230   1.567   5.136
 7897TIP3   OH223654   3.835   4.773   2.861
 7897TIP3    H123655   3.823   4.867   2.850
 7897TIP3    H223656   3.765   4.746   2.920
 7898TIP3   OH223657   4.272   5.829   3.871
 7898TIP3    H123658   4.303   5.915   3.841
 7898TIP3    H223659   4.331   5.805   3.942
 7899TIP3   OH223660   6.918   3.681   4.292
 7899TIP3    H123661   6.957   3.647   4.211
 7899TIP3    H223662   6.952   3.624   4.361
 7900TIP3   OH223663   5.609   2.920   0.833
 7900TIP3    H123664   5.646   2.865   0.902
 7900TIP3    H223665   5.572   2.857   0.770
 7901TIP3   OH223666   2.577   0.651   0.477
 7901TIP3    H123667   2.525   0.657   0.557
 7901TIP3    H223668   2.512   0.644   0.407
 7902TIP3   OH223669   2.978   0.910   4.218
 7902TIP3    H123670   2.990   0.971   4.290
 7902TIP3    H223671   2.883   0.894   4.216
 7903TIP3   OH223672   6.732   4.660   5.617
 7903TIP3    H123673   6.791   4.585   5.624
 7903TIP3    H223674   6.661   4.641   5.679
 7904TIP3   OH223675   3.678   3.020   2.090
 7904TIP3    H123676   3.638   3.093   2.041
 7904TIP3    H223677   3.715   3.061   2.168
 7905TIP3   OH223678   6.426   6.807   2.170
 7905TIP3    H123679   6.438   6.713   2.186
 7905TIP3    H223680   6.398   6.812   2.079
 7906TIP3   OH223681   5.955   2.131   4.493
 7906TIP3    H123682   5.861   2.118   4.507
 7906TIP3    H223683   5.994   2.046   4.515
 7907TIP3   OH223684   1.626   6.050   2.505
 7907TIP3    H123685   1.573   6.049   2.584
 7907TIP3    H223686   1.654   6.141   2.497
 7908TIP3   OH223687   7.058   6.555   1.434
 7908TIP3    H123688   7.106   6.602   1.503
 7908TIP3    H223689   6.987   6.512   1.481
 7909TIP3   OH223690   3.284   4.122   5.281
 7909TIP3    H123691   3.271   4.205   5.235
 7909TIP3    H223692   3.366   4.133   5.328
 7910TIP3   OH223693   6.058   1.764   5.475
 7910TIP3    H123694   6.064   1.859   5.460
 7910TIP3    H223695   5.994   1.755   5.545
 7911TIP3   OH223696   4.878   4.302   0.948
 7911TIP3    H123697   4.968   4.275   0.932
 7911TIP3    H223698   4.824   4.228   0.917
 7912TIP3   OH223699   4.597   3.848   0.748
 7912TIP3    H123700   4.569   3.778   0.807
 7912TIP3    H223701   4.524   3.858   0.687
 7913TIP3   OH223702   2.507   1.557   4.955
 7913TIP3    H123703   2.591   1.564   5.001
 7913TIP3    H223704   2.528   1.577   4.863
 7914TIP3   OH223705   0.228   0.679   1.882
 7914TIP3    H123706   0.310   0.728   1.891
 7914TIP3    H223707   0.163   0.733   1.927
 7915TIP3   OH223708   3.207   0.078   5.310
 7915TIP3    H123709   3.192  -0.009   5.348
 7915TIP3    H223710   3.183   0.068   5.218
 7916TIP3   OH223711   1.159   1.625   1.814
 7916TIP3    H123712   1.127   1.715   1.821
 7916TIP3    H223713   1.121   1.581   1.890
 7917TIP3   OH223714   4.858   6.719   1.723
 7917TIP3    H123715   4.780   6.756   1.764
 7917TIP3    H223716   4.836   6.628   1.706
 7918TIP3   OH223717   5.903   3.121   5.549
 7918TIP3    H123718   5.996   3.132   5.526
 7918TIP3    H223719   5.872   3.052   5.490
 7919TIP3   OH223720   1.623   6.569   1.617
 7919TIP3    H123721   1.600   6.609   1.533
 7919TIP3    H223722   1.718   6.576   1.622
 7920TIP3   OH223723   0.103   1.472   5.590
 7920TIP3    H123724   0.018   1.495   5.552
 7920TIP3    H223725   0.101   1.510   5.677
 7921TIP3   OH223726   6.468   1.158   0.923
 7921TIP3    H123727   6.551   1.126   0.958
 7921TIP3    H223728   6.414   1.175   1.000
 7922TIP3   OH223729   2.649   5.592   4.314
 7922TIP3    H123730   2.608   5.557   4.235
 7922TIP3    H223731   2.592   5.563   4.386
 7923TIP3   OH223732   7.202   0.728   2.010
 7923TIP3    H123733   7.171   0.709   1.921
 7923TIP3    H223734   7.193   0.646   2.057
 7924TIP3   OH223735   4.102   0.378   3.268
 7924TIP3    H123736   4.093   0.393   3.174
 7924TIP3    H223737   4.190   0.341   3.278
 7925TIP3   OH223738   5.686   1.444   2.402
 7925TIP3    H123739   5.702   1.412   2.313
 7925TIP3    H223740   5.748   1.395   2.456
 7926TIP3   OH223741   0.401   3.807   0.686
 7926TIP3    H123742   0.369   3.872   0.749
 7926TIP3    H223743   0.445   3.741   0.740
 7927TIP3   OH223744   4.351   4.135   4.491
 7927TIP3    H123745   4.407   4.164   4.563
 7927TIP3    H223746   4.278   4.089   4.534
 7928TIP3   OH223747   6.532   0.176   5.262
 7928TIP3    H123748   6.438   0.176   5.245
 7928TIP3    H223749   6.553   0.085   5.281
 7929TIP3   OH223750   0.340   5.681   0.295
 7929TIP3    H123751   0.281   5.705   0.223
 7929TIP3    H223752   0.281   5.655   0.366
 7930TIP3   OH223753   4.832   4.703   2.157
 7930TIP3    H123754   4.921   4.674   2.137
 7930TIP3    H223755   4.830   4.796   2.134
 7931TIP3   OH223756   5.900   4.029   3.277
 7931TIP3    H123757   5.880   4.116   3.313
 7931TIP3    H223758   5.910   4.043   3.183
 7932TIP3   OH223759   0.781   0.742   2.194
 7932TIP3    H123760   0.825   0.700   2.267
 7932TIP3    H223761   0.704   0.784   2.232
 7933TIP3   OH223762   3.896   6.311   1.388
 7933TIP3    H123763   3.966   6.245   1.386
 7933TIP3    H223764   3.943   6.394   1.391
 7934TIP3   OH223765   2.835   5.482   2.442
 7934TIP3    H123766   2.772   5.441   2.383
 7934TIP3    H223767   2.794   5.566   2.465
 7935TIP3   OH223768   5.840   5.183   4.300
 7935TIP3    H123769   5.933   5.163   4.293
 7935TIP3    H223770   5.797   5.097   4.307
 7936TIP3   OH223771   0.653   6.702   5.786
 7936TIP3    H123772   0.592   6.680   5.716
 7936TIP3    H223773   0.697   6.620   5.808
 7937TIP3   OH223774   4.253   3.131   0.980
 7937TIP3    H123775   4.170   3.166   1.011
 7937TIP3    H223776   4.308   3.127   1.058
 7938TIP3   OH223777   3.023   5.008   1.867
 7938TIP3    H123778   2.931   4.988   1.852
 7938TIP3    H223779   3.069   4.929   1.838
 7939TIP3   OH223780   6.591   2.342   0.557
 7939TIP3    H123781   6.639   2.332   0.475
 7939TIP3    H223782   6.656   2.324   0.625
 7940TIP3   OH223783   1.055   2.373   0.622
 7940TIP3    H123784   1.025   2.358   0.533
 7940TIP3    H223785   1.001   2.446   0.653
 7941TIP3   OH223786   3.826   3.982   1.329
 7941TIP3    H123787   3.875   4.040   1.386
 7941TIP3    H223788   3.770   3.931   1.389
 7942TIP3   OH223789   3.371   3.743   1.367
 7942TIP3    H123790   3.314   3.667   1.379
 7942TIP3    H223791   3.445   3.710   1.317
 7943TIP3   OH223792   4.392   4.434   0.324
 7943TIP3    H123793   4.381   4.495   0.397
 7943TIP3    H223794   4.304   4.404   0.304
 7944TIP3   OH223795   5.943   5.546   5.123
 7944TIP3    H123796   5.870   5.607   5.112
 7944TIP3    H223797   5.919   5.469   5.071
 7945TIP3   OH223798   4.397   4.129   1.050
 7945TIP3    H123799   4.462   4.067   1.082
 7945TIP3    H223800   4.416   4.137   0.957
 7946TIP3   OH223801   5.417   4.049   3.338
 7946TIP3    H123802   5.344   3.987   3.349
 7946TIP3    H223803   5.380   4.134   3.360
 7947TIP3   OH223804   7.125   1.765   4.139
 7947TIP3    H123805   7.098   1.703   4.207
 7947TIP3    H223806   7.128   1.712   4.059
 7948TIP3   OH223807   0.655   1.747   3.972
 7948TIP3    H123808   0.584   1.706   4.022
 7948TIP3    H223809   0.613   1.822   3.929
 7949TIP3   OH223810   6.576   1.110   4.658
 7949TIP3    H123811   6.570   1.040   4.593
 7949TIP3    H223812   6.666   1.144   4.648
 7950TIP3   OH223813   6.751   4.308   2.619
 7950TIP3    H123814   6.705   4.266   2.547
 7950TIP3    H223815   6.817   4.364   2.577
 7951TIP3   OH223816   0.273   6.544   4.308
 7951TIP3    H123817   0.287   6.599   4.231
 7951TIP3    H223818   0.352   6.555   4.361
 7952TIP3   OH223819   6.897   4.956   0.489
 7952TIP3    H123820   6.828   4.935   0.426
 7952TIP3    H223821   6.942   4.873   0.504
 7953TIP3   OH223822   6.518   5.138   5.037
 7953TIP3    H123823   6.499   5.213   4.981
 7953TIP3    H223824   6.611   5.122   5.025
 7954TIP3   OH223825   6.664   5.607   2.115
 7954TIP3    H123826   6.574   5.586   2.094
 7954TIP3    H223827   6.658   5.679   2.177
 7955TIP3   OH223828   6.574   0.213   1.209
 7955TIP3    H123829   6.660   0.248   1.186
 7955TIP3    H223830   6.519   0.234   1.133
 7956TIP3   OH223831   1.998   4.616   0.457
 7956TIP3    H123832   1.981   4.702   0.419
 7956TIP3    H223833   1.988   4.556   0.383
 7957TIP3   OH223834   2.948   5.944   0.442
 7957TIP3    H123835   3.002   5.906   0.511
 7957TIP3    H223836   2.966   6.038   0.447
 7958TIP3   OH223837   5.811   3.322   2.017
 7958TIP3    H123838   5.855   3.387   1.962
 7958TIP3    H223839   5.794   3.249   1.958
 7959TIP3   OH223840   3.179   3.649   1.712
 7959TIP3    H123841   3.263   3.639   1.757
 7959TIP3    H223842   3.134   3.719   1.759
 7960TIP3   OH223843   4.469   5.897   2.923
 7960TIP3    H123844   4.518   5.960   2.870
 7960TIP3    H223845   4.416   5.952   2.981
 7961TIP3   OH223846   2.420   5.840   3.481
 7961TIP3    H123847   2.484   5.793   3.428
 7961TIP3    H223848   2.431   5.932   3.457
 7962TIP3   OH223849   4.171   1.658   1.935
 7962TIP3    H123850   4.152   1.752   1.932
 7962TIP3    H223851   4.141   1.625   1.850
 7963TIP3   OH223852   3.853   2.845   0.278
 7963TIP3    H123853   3.915   2.784   0.319
 7963TIP3    H223854   3.770   2.796   0.274
 7964TIP3   OH223855   6.823   1.324   2.383
 7964TIP3    H123856   6.776   1.371   2.314
 7964TIP3    H223857   6.898   1.285   2.338
 7965TIP3   OH223858   6.580   1.469   1.826
 7965TIP3    H123859   6.628   1.418   1.891
 7965TIP3    H223860   6.599   1.560   1.848
 7966TIP3   OH223861   6.352   5.532   5.054
 7966TIP3    H123862   6.286   5.600   5.039
 7966TIP3    H223863   6.303   5.458   5.090
 7967TIP3   OH223864   7.077   4.699   3.422
 7967TIP3    H123865   7.165   4.686   3.386
 7967TIP3    H223866   7.052   4.613   3.455
 7968TIP3   OH223867   0.429   1.514   3.556
 7968TIP3    H123868   0.454   1.422   3.553
 7968TIP3    H223869   0.362   1.519   3.623
 7969TIP3   OH223870   2.999   2.627   3.254
 7969TIP3    H123871   2.955   2.705   3.289
 7969TIP3    H223872   3.092   2.649   3.258
 7970TIP3   OH223873   5.323   3.151   1.289
 7970TIP3    H123874   5.327   3.171   1.382
 7970TIP3    H223875   5.236   3.113   1.276
 7971TIP3   OH223876   1.682   6.081   4.410
 7971TIP3    H123877   1.646   5.997   4.439
 7971TIP3    H223878   1.768   6.086   4.452
 7972TIP3   OH223879   6.168   5.315   5.174
 7972TIP3    H123880   6.149   5.250   5.107
 7972TIP3    H223881   6.087   5.322   5.225
 7973TIP3   OH223882   2.463   2.615   5.029
 7973TIP3    H123883   2.536   2.574   4.982
 7973TIP3    H223884   2.431   2.547   5.088
 7974TIP3   OH223885   5.231   0.620   2.397
 7974TIP3    H123886   5.243   0.560   2.324
 7974TIP3    H223887   5.203   0.563   2.470
 7975TIP3   OH223888   3.347   5.159   3.050
 7975TIP3    H123889   3.313   5.138   3.137
 7975TIP3    H223890   3.414   5.093   3.034
 7976TIP3   OH223891   5.380   0.599   1.301
 7976TIP3    H123892   5.407   0.613   1.392
 7976TIP3    H223893   5.422   0.517   1.275
 7977TIP3   OH223894   6.402   3.249   5.309
 7977TIP3    H123895   6.379   3.341   5.315
 7977TIP3    H223896   6.347   3.214   5.238
 7978TIP3   OH223897   5.875   1.895   2.256
 7978TIP3    H123898   5.930   1.891   2.177
 7978TIP3    H223899   5.927   1.943   2.319
 7979TIP3   OH223900   5.965   0.122   3.904
 7979TIP3    H123901   5.876   0.134   3.937
 7979TIP3    H223902   6.020   0.165   3.968
 7980TIP3   OH223903   0.657   1.476   0.796
 7980TIP3    H123904   0.679   1.442   0.882
 7980TIP3    H223905   0.739   1.514   0.764
 7981TIP3   OH223906   4.553   2.327   0.442
 7981TIP3    H123907   4.501   2.247   0.441
 7981TIP3    H223908   4.643   2.298   0.429
 7982TIP3   OH223909   1.017   4.172   3.932
 7982TIP3    H123910   1.082   4.103   3.921
 7982TIP3    H223911   1.059   4.236   3.989
 7983TIP3   OH223912   5.820   1.554   0.587
 7983TIP3    H123913   5.800   1.645   0.610
 7983TIP3    H223914   5.904   1.537   0.628
 7984TIP3   OH223915   1.022   0.113   3.664
 7984TIP3    H123916   1.094   0.174   3.676
 7984TIP3    H223917   1.040   0.071   3.580
 7985TIP3   OH223918   0.926   3.141   5.719
 7985TIP3    H123919   0.978   3.136   5.639
 7985TIP3    H223920   0.850   3.085   5.702
 7986TIP3   OH223921   4.915   0.956   0.440
 7986TIP3    H123922   4.862   0.917   0.509
 7986TIP3    H223923   4.996   0.983   0.483
 7987TIP3   OH223924   4.300   4.046   5.704
 7987TIP3    H123925   4.225   4.079   5.753
 7987TIP3    H223926   4.376   4.070   5.758
 7988TIP3   OH223927   5.962   2.367   2.932
 7988TIP3    H123928   5.888   2.337   2.985
 7988TIP3    H223929   5.934   2.352   2.842
 7989TIP3   OH223930   3.179   3.138   3.393
 7989TIP3    H123931   3.108   3.186   3.350
 7989TIP3    H223932   3.248   3.134   3.328
 7990TIP3   OH223933   4.759   4.063   0.869
 7990TIP3    H123934   4.677   4.015   0.880
 7990TIP3    H223935   4.806   4.015   0.802
 7991TIP3   OH223936   4.235   1.843   4.744
 7991TIP3    H123937   4.231   1.917   4.805
 7991TIP3    H223938   4.181   1.775   4.784
 7992TIP3   OH223939   5.311   5.030   2.337
 7992TIP3    H123940   5.273   4.974   2.406
 7992TIP3    H223941   5.252   5.104   2.332
 7993TIP3   OH223942   0.932   4.263   3.237
 7993TIP3    H123943   0.871   4.332   3.213
 7993TIP3    H223944   0.982   4.300   3.310
 7994TIP3   OH223945   3.845   0.640   3.221
 7994TIP3    H123946   3.749   0.648   3.221
 7994TIP3    H223947   3.869   0.642   3.128
 7995TIP3   OH223948   6.725   1.427   2.163
 7995TIP3    H123949   6.678   1.504   2.131
 7995TIP3    H223950   6.676   1.353   2.128
 7996TIP3   OH223951   4.357   4.398   3.609
 7996TIP3    H123952   4.344   4.309   3.575
 7996TIP3    H223953   4.291   4.451   3.565
 7997TIP3   OH223954   0.318   2.403   0.264
 7997TIP3    H123955   0.377   2.458   0.213
 7997TIP3    H223956   0.233   2.411   0.221
 7998TIP3   OH223957   3.518   5.627   4.218
 7998TIP3    H123958   3.490   5.536   4.205
 7998TIP3    H223959   3.594   5.621   4.276
 7999TIP3   OH223960   4.197   1.471   0.603
 7999TIP3    H123961   4.213   1.402   0.667
 7999TIP3    H223962   4.285   1.497   0.574
 8000TIP3   OH223963   2.655   4.896   4.285
 8000TIP3    H123964   2.598   4.867   4.215
 8000TIP3    H223965   2.642   4.831   4.355
 8001TIP3   OH223966   5.882   1.676   5.688
 8001TIP3    H123967   5.933   1.614   5.740
 8001TIP3    H223968   5.795   1.675   5.727
 8002TIP3   OH223969   0.021   5.137   5.274
 8002TIP3    H123970  -0.049   5.199   5.252
 8002TIP3    H223971   0.061   5.116   5.190
 8003TIP3   OH223972   1.086   2.350   4.240
 8003TIP3    H123973   0.996   2.334   4.213
 8003TIP3    H223974   1.107   2.437   4.206
 8004TIP3   OH223975   4.168   0.974   1.851
 8004TIP3    H123976   4.191   0.902   1.909
 8004TIP3    H223977   4.109   1.029   1.903
 8005TIP3   OH223978   2.852   2.217   0.190
 8005TIP3    H123979   2.762   2.234   0.163
 8005TIP3    H223980   2.843   2.156   0.264
 8006TIP3   OH223981   0.693   1.642   2.444
 8006TIP3    H123982   0.745   1.611   2.371
 8006TIP3    H223983   0.677   1.565   2.498
 8007TIP3   OH223984   0.430   0.338   4.918
 8007TIP3    H123985   0.500   0.401   4.901
 8007TIP3    H223986   0.457   0.259   4.870
 8008TIP3   OH223987   5.281   4.338   3.706
 8008TIP3    H123988   5.236   4.337   3.790
 8008TIP3    H223989   5.336   4.259   3.707
 8009TIP3   OH223990   3.408   1.762   4.358
 8009TIP3    H123991   3.450   1.795   4.437
 8009TIP3    H223992   3.364   1.838   4.321
 8010TIP3   OH223993   1.370   6.637   0.552
 8010TIP3    H123994   1.393   6.650   0.644
 8010TIP3    H223995   1.398   6.548   0.532
 8011TIP3   OH223996   1.710   1.297   0.825
 8011TIP3    H123997   1.677   1.229   0.883
 8011TIP3    H223998   1.792   1.326   0.866
 8012TIP3   OH223999   5.508   1.286   1.867
 8012TIP3    H124000   5.521   1.247   1.780
 8012TIP3    H224001   5.570   1.240   1.923
 8013TIP3   OH224002   0.701   0.787   1.877
 8013TIP3    H124003   0.611   0.798   1.908
 8013TIP3    H224004   0.731   0.877   1.861
 8014TIP3   OH224005   1.127   2.362   1.295
 8014TIP3    H124006   1.103   2.445   1.256
 8014TIP3    H224007   1.081   2.360   1.379
 8015TIP3   OH224008   1.445   4.824   5.480
 8015TIP3    H124009   1.442   4.833   5.575
 8015TIP3    H224010   1.426   4.732   5.464
 8016TIP3   OH224011   3.320   1.321   0.817
 8016TIP3    H124012   3.398   1.290   0.769
 8016TIP3    H224013   3.285   1.242   0.858
 8017TIP3   OH224014   5.015   1.615   0.690
 8017TIP3    H124015   5.059   1.667   0.622
 8017TIP3    H224016   4.931   1.660   0.704
 8018TIP3   OH224017   0.922   5.862   1.312
 8018TIP3    H124018   0.923   5.768   1.297
 8018TIP3    H224019   0.835   5.890   1.282
 8019TIP3   OH224020   5.024   2.459   2.675
 8019TIP3    H124021   4.985   2.546   2.689
 8019TIP3    H224022   5.063   2.465   2.588
 8020TIP3   OH224023   5.118   5.603   1.733
 8020TIP3    H124024   5.202   5.648   1.726
 8020TIP3    H224025   5.067   5.655   1.794
 8021TIP3   OH224026   0.690   5.230   1.924
 8021TIP3    H124027   0.783   5.235   1.945
 8021TIP3    H224028   0.661   5.149   1.964
 8022TIP3   OH224029   0.482   2.735   0.013
 8022TIP3    H124030   0.428   2.658  -0.005
 8022TIP3    H224031   0.489   2.738   0.108
 8023TIP3   OH224032   6.491   2.867   2.717
 8023TIP3    H124033   6.396   2.865   2.703
 8023TIP3    H224034   6.506   2.803   2.788
 8024TIP3   OH224035   0.022   4.567   5.185
 8024TIP3    H124036  -0.018   4.487   5.220
 8024TIP3    H224037  -0.014   4.637   5.239
 8025TIP3   OH224038   6.298   6.014   1.590
 8025TIP3    H124039   6.309   6.079   1.520
 8025TIP3    H224040   6.269   5.935   1.545
 8026TIP3   OH224041   1.580   4.900   3.750
 8026TIP3    H124042   1.604   4.814   3.715
 8026TIP3    H224043   1.626   4.906   3.834
 8027TIP3   OH224044   2.568   4.355   3.615
 8027TIP3    H124045   2.579   4.324   3.525
 8027TIP3    H224046   2.655   4.342   3.655
 8028TIP3   OH224047   0.540   2.124   4.038
 8028TIP3    H124048   0.493   2.091   3.961
 8028TIP3    H224049   0.630   2.136   4.007
 8029TIP3   OH224050   4.487   3.399   5.384
 8029TIP3    H124051   4.508   3.321   5.333
 8029TIP3    H224052   4.421   3.370   5.447
 8030TIP3   OH224053   1.161   5.347   1.175
 8030TIP3    H124054   1.196   5.347   1.264
 8030TIP3    H224055   1.144   5.439   1.156
 8031TIP3   OH224056   0.112   2.710   5.441
 8031TIP3    H124057   0.093   2.740   5.530
 8031TIP3    H224058   0.142   2.619   5.453
 8032TIP3   OH224059   7.014   2.631   0.963
 8032TIP3    H124060   7.089   2.574   0.976
 8032TIP3    H224061   7.027   2.704   1.023
 8033TIP3   OH224062   5.693   2.608   3.722
 8033TIP3    H124063   5.660   2.656   3.798
 8033TIP3    H224064   5.747   2.672   3.676
 8034TIP3   OH224065   1.210   3.253   3.865
 8034TIP3    H124066   1.257   3.188   3.918
 8034TIP3    H224067   1.248   3.337   3.890
 8035TIP3   OH224068   3.501   4.870   0.599
 8035TIP3    H124069   3.589   4.835   0.582
 8035TIP3    H224070   3.499   4.885   0.694
 8036TIP3   OH224071   1.014   3.736   5.435
 8036TIP3    H124072   0.957   3.669   5.473
 8036TIP3    H224073   1.103   3.708   5.455
 8037TIP3   OH224074   4.271   3.397   4.268
 8037TIP3    H124075   4.360   3.423   4.293
 8037TIP3    H224076   4.229   3.479   4.241
 8038TIP3   OH224077   3.969   2.468   5.362
 8038TIP3    H124078   3.986   2.526   5.437
 8038TIP3    H224079   4.012   2.386   5.386
 8039TIP3   OH224080   3.915   2.674   4.009
 8039TIP3    H124081   3.827   2.670   3.972
 8039TIP3    H224082   3.929   2.587   4.047
 8040TIP3   OH224083   4.470   6.268   2.058
 8040TIP3    H124084   4.499   6.344   2.109
 8040TIP3    H224085   4.476   6.194   2.119
 8041TIP3   OH224086   2.193   4.245   2.543
 8041TIP3    H124087   2.209   4.150   2.538
 8041TIP3    H224088   2.115   4.259   2.489
 8042TIP3   OH224089   5.043   1.444   0.900
 8042TIP3    H124090   5.037   1.522   0.845
 8042TIP3    H224091   5.090   1.474   0.978
 8043TIP3   OH224092   6.707   6.248   3.278
 8043TIP3    H124093   6.704   6.153   3.286
 8043TIP3    H224094   6.684   6.266   3.187
 8044TIP3   OH224095   6.814   6.613   0.854
 8044TIP3    H124096   6.813   6.540   0.793
 8044TIP3    H224097   6.907   6.637   0.862
 8045TIP3   OH224098   2.603   4.339   1.612
 8045TIP3    H124099   2.623   4.399   1.540
 8045TIP3    H224100   2.686   4.296   1.631
 8046TIP3   OH224101   5.572   2.921   5.610
 8046TIP3    H124102   5.571   2.826   5.598
 8046TIP3    H224103   5.584   2.934   5.704
 8047TIP3   OH224104   2.267   6.607   3.535
 8047TIP3    H124105   2.280   6.634   3.626
 8047TIP3    H224106   2.322   6.666   3.484
 8048TIP3   OH224107   2.869   2.136   4.322
 8048TIP3    H124108   2.882   2.089   4.239
 8048TIP3    H224109   2.844   2.068   4.384
 8049TIP3   OH224110   3.894   4.308   2.145
 8049TIP3    H124111   3.910   4.255   2.223
 8049TIP3    H224112   3.935   4.392   2.164
 8050TIP3   OH224113   1.990   6.488   2.605
 8050TIP3    H124114   2.000   6.550   2.533
 8050TIP3    H224115   1.896   6.479   2.617
 8051TIP3   OH224116   1.529   4.023   2.666
 8051TIP3    H124117   1.469   4.077   2.614
 8051TIP3    H224118   1.616   4.050   2.637
 8052TIP3   OH224119   5.281   0.877   2.218
 8052TIP3    H124120   5.190   0.852   2.202
 8052TIP3    H224121   5.314   0.811   2.278
 8053TIP3   OH224122   2.269   6.583   3.813
 8053TIP3    H124123   2.359   6.564   3.841
 8053TIP3    H224124   2.216   6.513   3.852
 8054TIP3   OH224125   3.359   4.137   3.579
 8054TIP3    H124126   3.354   4.219   3.629
 8054TIP3    H224127   3.285   4.140   3.519
 8055TIP3   OH224128   1.164   6.423   5.026
 8055TIP3    H124129   1.237   6.485   5.029
 8055TIP3    H224130   1.199   6.349   4.977
 8056TIP3   OH224131   6.961   1.208   0.202
 8056TIP3    H124132   7.019   1.264   0.151
 8056TIP3    H224133   7.012   1.129   0.218
 8057TIP3   OH224134   4.607   6.563   2.639
 8057TIP3    H124135   4.556   6.569   2.558
 8057TIP3    H224136   4.545   6.586   2.708
 8058TIP3   OH224137   7.165   2.610   4.446
 8058TIP3    H124138   7.121   2.679   4.496
 8058TIP3    H224139   7.207   2.555   4.512
 8059TIP3   OH224140   0.986   2.389   1.536
 8059TIP3    H124141   1.041   2.346   1.601
 8059TIP3    H224142   0.919   2.433   1.588
 8060TIP3   OH224143   6.080   4.507   5.339
 8060TIP3    H124144   6.043   4.462   5.263
 8060TIP3    H224145   6.170   4.474   5.345
 8061TIP3   OH224146   1.789  -0.010   4.333
 8061TIP3    H124147   1.736   0.050   4.385
 8061TIP3    H224148   1.877   0.028   4.332
 8062TIP3   OH224149   0.532   6.767   4.707
 8062TIP3    H124150   0.537   6.830   4.780
 8062TIP3    H224151   0.448   6.723   4.720
 8063TIP3   OH224152   1.571   3.004   2.663
 8063TIP3    H124153   1.615   3.009   2.748
 8063TIP3    H224154   1.639   2.970   2.604
 8064TIP3   OH224155   3.825   2.278   2.438
 8064TIP3    H124156   3.757   2.312   2.379
 8064TIP3    H224157   3.787   2.287   2.525
 8065TIP3   OH224158   6.237   5.003   0.753
 8065TIP3    H124159   6.218   5.073   0.816
 8065TIP3    H224160   6.304   4.950   0.795
 8066TIP3   OH224161   2.722   5.329   1.397
 8066TIP3    H124162   2.694   5.410   1.439
 8066TIP3    H224163   2.782   5.289   1.460
 8067TIP3   OH224164   4.378   4.364   4.128
 8067TIP3    H124165   4.458   4.312   4.128
 8067TIP3    H224166   4.354   4.372   4.035
 8068TIP3   OH224167   4.350   5.798   3.278
 8068TIP3    H124168   4.399   5.876   3.304
 8068TIP3    H224169   4.352   5.742   3.355
 8069TIP3   OH224170   5.985   2.317   0.943
 8069TIP3    H124171   5.909   2.282   0.896
 8069TIP3    H224172   6.034   2.364   0.876
 8070TIP3   OH224173   0.463   3.417   0.419
 8070TIP3    H124174   0.373   3.425   0.387
 8070TIP3    H224175   0.514   3.473   0.360
 8071TIP3   OH224176   2.025   0.947   3.388
 8071TIP3    H124177   1.952   0.893   3.418
 8071TIP3    H224178   2.002   0.972   3.299
 8072TIP3   OH224179   5.508   0.157   5.387
 8072TIP3    H124180   5.548   0.131   5.470
 8072TIP3    H224181   5.421   0.116   5.389
 8073TIP3   OH224182   4.448   5.070   2.516
 8073TIP3    H124183   4.410   5.141   2.464
 8073TIP3    H224184   4.462   5.108   2.602
 8074TIP3   OH224185   4.860   0.977   2.233
 8074TIP3    H124186   4.810   1.008   2.308
 8074TIP3    H224187   4.936   0.934   2.271
 8075TIP3   OH224188   4.312   6.675   3.989
 8075TIP3    H124189   4.265   6.592   3.995
 8075TIP3    H224190   4.375   6.662   3.919
 8076TIP3   OH224191   6.532   5.526   0.703
 8076TIP3    H124192   6.626   5.541   0.697
 8076TIP3    H224193   6.518   5.444   0.656
 8077TIP3   OH224194   0.319   0.562   5.040
 8077TIP3    H124195   0.375   0.545   5.115
 8077TIP3    H224196   0.329   0.485   4.985
 8078TIP3   OH224197   7.053   1.066   5.903
 8078TIP3    H124198   7.005   1.145   5.929
 8078TIP3    H224199   7.057   1.070   5.808
 8079TIP3   OH224200   0.868   6.203   2.292
 8079TIP3    H124201   0.872   6.152   2.211
 8079TIP3    H224202   0.783   6.248   2.289
 8080TIP3   OH224203   0.374   5.564   5.380
 8080TIP3    H124204   0.305   5.629   5.395
 8080TIP3    H224205   0.377   5.514   5.462
 8081TIP3   OH224206   3.476   3.077   2.504
 8081TIP3    H124207   3.476   2.993   2.458
 8081TIP3    H224208   3.470   3.053   2.597
 8082TIP3   OH224209   3.133   4.010   5.554
 8082TIP3    H124210   3.118   3.946   5.485
 8082TIP3    H224211   3.195   4.072   5.516
 8083TIP3   OH224212   5.268   6.266   2.978
 8083TIP3    H124213   5.262   6.344   3.033
 8083TIP3    H224214   5.361   6.242   2.980
 8084TIP3   OH224215   4.475   4.147   3.106
 8084TIP3    H124216   4.400   4.183   3.058
 8084TIP3    H224217   4.538   4.123   3.038
 8085TIP3   OH224218   5.717   2.965   0.355
 8085TIP3    H124219   5.698   2.904   0.284
 8085TIP3    H224220   5.719   2.911   0.434
 8086TIP3   OH224221   5.847   2.907   5.366
 8086TIP3    H124222   5.914   2.858   5.317
 8086TIP3    H224223   5.827   2.851   5.441
 8087TIP3   OH224224   2.758   5.981   2.047
 8087TIP3    H124225   2.810   6.049   2.089
 8087TIP3    H224226   2.821   5.931   1.996
 8088TIP3   OH224227   2.732   1.982   2.544
 8088TIP3    H124228   2.714   1.982   2.638
 8088TIP3    H224229   2.826   1.965   2.537
 8089TIP3   OH224230   2.552   1.653   0.014
 8089TIP3    H124231   2.565   1.716  -0.058
 8089TIP3    H224232   2.540   1.708   0.091
 8090TIP3   OH224233   1.723   4.840   1.872
 8090TIP3    H124234   1.810   4.812   1.844
 8090TIP3    H224235   1.720   4.819   1.966
 8091TIP3   OH224236   2.967   2.054   3.509
 8091TIP3    H124237   2.910   1.978   3.519
 8091TIP3    H224238   2.907   2.128   3.504
 8092TIP3   OH224239   0.037   6.770   4.702
 8092TIP3    H124240   0.053   6.707   4.631
 8092TIP3    H224241   0.101   6.839   4.688
 8093TIP3   OH224242   2.874   6.357   0.837
 8093TIP3    H124243   2.951   6.311   0.872
 8093TIP3    H224244   2.873   6.334   0.744
 8094TIP3   OH224245   3.204   4.035   1.838
 8094TIP3    H124246   3.238   4.087   1.766
 8094TIP3    H224247   3.133   3.983   1.799
 8095TIP3   OH224248   2.946   0.559   3.960
 8095TIP3    H124249   2.915   0.502   3.890
 8095TIP3    H224250   3.041   0.558   3.953
 8096TIP3   OH224251   6.990   0.183   2.902
 8096TIP3    H124252   6.942   0.101   2.917
 8096TIP3    H224253   6.923   0.251   2.913
 8097TIP3   OH224254   4.069   1.607   4.350
 8097TIP3    H124255   4.110   1.683   4.392
 8097TIP3    H224256   3.976   1.627   4.350
 8098TIP3   OH224257   2.875   6.078   4.679
 8098TIP3    H124258   2.783   6.083   4.706
 8098TIP3    H224259   2.875   6.013   4.608
 8099TIP3   OH224260   0.145   0.442   3.307
 8099TIP3    H124261   0.171   0.509   3.244
 8099TIP3    H224262   0.124   0.365   3.254
 8100TIP3   OH224263   5.139   0.416   1.183
 8100TIP3    H124264   5.220   0.444   1.226
 8100TIP3    H224265   5.069   0.444   1.242
 8101TIP3   OH224266   6.180   1.993   5.431
 8101TIP3    H124267   6.141   1.984   5.344
 8101TIP3    H224268   6.163   2.084   5.455
 8102TIP3   OH224269   1.148   1.099   3.552
 8102TIP3    H124270   1.233   1.056   3.564
 8102TIP3    H224271   1.134   1.146   3.634
 8103TIP3   OH224272   2.908   6.839   4.160
 8103TIP3    H124273   2.902   6.760   4.212
 8103TIP3    H224274   2.857   6.820   4.081
 8104TIP3   OH224275   6.537   1.999   0.632
 8104TIP3    H124276   6.523   2.032   0.544
 8104TIP3    H224277   6.629   2.015   0.650
 8105TIP3   OH224278   1.678   0.192   0.522
 8105TIP3    H124279   1.632   0.172   0.604
 8105TIP3    H224280   1.684   0.108   0.477
 8106TIP3   OH224281   2.911   4.721   1.350
 8106TIP3    H124282   2.819   4.740   1.368
 8106TIP3    H224283   2.959   4.789   1.398
 8107TIP3   OH224284   1.681   4.371   4.816
 8107TIP3    H124285   1.730   4.377   4.898
 8107TIP3    H224286   1.602   4.322   4.839
 8108TIP3   OH224287   2.818   0.231   4.555
 8108TIP3    H124288   2.821   0.218   4.460
 8108TIP3    H224289   2.740   0.183   4.583
 8109TIP3   OH224290   2.635   3.935   0.599
 8109TIP3    H124291   2.681   3.899   0.675
 8109TIP3    H224292   2.565   3.988   0.636
 8110TIP3   OH224293   1.738   6.251   4.888
 8110TIP3    H124294   1.830   6.263   4.913
 8110TIP3    H224295   1.701   6.197   4.958
 8111TIP3   OH224296   0.301   0.608   0.718
 8111TIP3    H124297   0.351   0.550   0.775
 8111TIP3    H224298   0.364   0.675   0.690
 8112TIP3   OH224299   1.872   6.187   3.239
 8112TIP3    H124300   1.827   6.269   3.259
 8112TIP3    H224301   1.818   6.119   3.279
 8113TIP3   OH224302   1.304   1.495   5.492
 8113TIP3    H124303   1.343   1.407   5.488
 8113TIP3    H224304   1.211   1.481   5.473
 8114TIP3   OH224305   2.163   0.901   0.528
 8114TIP3    H124306   2.104   0.886   0.602
 8114TIP3    H224307   2.250   0.889   0.565
 8115TIP3   OH224308   1.232   2.125   0.438
 8115TIP3    H124309   1.137   2.129   0.425
 8115TIP3    H224310   1.255   2.033   0.424
 8116TIP3   OH224311   0.277   0.104   2.753
 8116TIP3    H124312   0.260   0.016   2.787
 8116TIP3    H224313   0.195   0.151   2.766
 8117TIP3   OH224314   4.512   3.746   2.256
 8117TIP3    H124315   4.571   3.733   2.330
 8117TIP3    H224316   4.558   3.807   2.199
 8118TIP3   OH224317   5.110   0.691   3.353
 8118TIP3    H124318   5.026   0.646   3.347
 8118TIP3    H224319   5.143   0.692   3.263
 8119TIP3   OH224320   4.253   3.222   0.728
 8119TIP3    H124321   4.257   3.200   0.821
 8119TIP3    H224322   4.323   3.287   0.716
 8120TIP3   OH224323   3.227   1.572   0.317
 8120TIP3    H124324   3.186   1.489   0.292
 8120TIP3    H224325   3.266   1.605   0.236
 8121TIP3   OH224326   3.122   3.675   2.374
 8121TIP3    H124327   3.045   3.730   2.384
 8121TIP3    H224328   3.194   3.728   2.409
 8122TIP3   OH224329   3.185   5.173   0.599
 8122TIP3    H124330   3.245   5.122   0.544
 8122TIP3    H224331   3.103   5.172   0.551
 8123TIP3   OH224332   0.769   1.314   2.390
 8123TIP3    H124333   0.724   1.235   2.361
 8123TIP3    H224334   0.771   1.306   2.486
 8124TIP3   OH224335   5.382   5.725   5.837
 8124TIP3    H124336   5.405   5.646   5.787
 8124TIP3    H224337   5.315   5.695   5.899
 8125TIP3   OH224338   2.193   1.444   0.771
 8125TIP3    H124339   2.152   1.383   0.833
 8125TIP3    H224340   2.286   1.439   0.791
 8126TIP3   OH224341   3.906   2.382   1.317
 8126TIP3    H124342   3.815   2.352   1.325
 8126TIP3    H224343   3.904   2.471   1.354
 8127TIP3   OH224344   5.731   1.317   1.572
 8127TIP3    H124345   5.747   1.356   1.486
 8127TIP3    H224346   5.818   1.294   1.603
 8128TIP3   OH224347   5.221   1.261   0.043
 8128TIP3    H124348   5.218   1.267   0.139
 8128TIP3    H224349   5.315   1.252   0.023
 8129TIP3   OH224350   6.902   6.337   2.976
 8129TIP3    H124351   6.868   6.416   2.934
 8129TIP3    H224352   6.924   6.279   2.903
 8130TIP3   OH224353   7.139   1.543   2.852
 8130TIP3    H124354   7.088   1.463   2.844
 8130TIP3    H224355   7.108   1.583   2.933
 8131TIP3   OH224356   2.417   4.761   2.351
 8131TIP3    H124357   2.416   4.844   2.399
 8131TIP3    H224358   2.418   4.694   2.418
 8132TIP3   OH224359   2.883   1.917   3.180
 8132TIP3    H124360   2.915   1.948   3.096
 8132TIP3    H224361   2.946   1.850   3.207
 8133TIP3   OH224362   0.038   6.309   2.324
 8133TIP3    H124363   0.073   6.227   2.360
 8133TIP3    H224364  -0.040   6.326   2.377
 8134TIP3   OH224365   2.463   0.111   3.080
 8134TIP3    H124366   2.432   0.124   2.990
 8134TIP3    H224367   2.383   0.101   3.131
 8135TIP3   OH224368   5.935   2.777   0.054
 8135TIP3    H124369   5.896   2.864   0.044
 8135TIP3    H224370   5.894   2.724  -0.014
 8136TIP3   OH224371   4.644   2.608   5.127
 8136TIP3    H124372   4.575   2.553   5.165
 8136TIP3    H224373   4.600   2.656   5.057
 8137TIP3   OH224374   2.672   4.735   4.523
 8137TIP3    H124375   2.646   4.671   4.589
 8137TIP3    H224376   2.754   4.701   4.487
 8138TIP3   OH224377   4.286   5.664   0.293
 8138TIP3    H124378   4.364   5.691   0.341
 8138TIP3    H224379   4.248   5.593   0.346
 8139TIP3   OH224380   3.671   5.054   5.109
 8139TIP3    H124381   3.600   4.999   5.143
 8139TIP3    H224382   3.750   5.015   5.145
 8140TIP3   OH224383   3.903   4.173   0.493
 8140TIP3    H124384   3.904   4.263   0.461
 8140TIP3    H224385   3.813   4.144   0.479
 8141TIP3   OH224386   4.621   0.441   4.576
 8141TIP3    H124387   4.526   0.453   4.578
 8141TIP3    H224388   4.648   0.452   4.667
 8142TIP3   OH224389   2.158   2.970   1.493
 8142TIP3    H124390   2.139   3.063   1.502
 8142TIP3    H224391   2.105   2.941   1.419
 8143TIP3   OH224392   2.453   1.150   5.912
 8143TIP3    H124393   2.468   1.061   5.878
 8143TIP3    H224394   2.399   1.192   5.845
 8144TIP3   OH224395   0.421   0.716   3.225
 8144TIP3    H124396   0.428   0.705   3.130
 8144TIP3    H224397   0.504   0.755   3.251
 8145TIP3   OH224398   1.866   6.698   1.601
 8145TIP3    H124399   1.862   6.733   1.512
 8145TIP3    H224400   1.905   6.768   1.653
 8146TIP3   OH224401   0.683   4.223   2.541
 8146TIP3    H124402   0.646   4.219   2.453
 8146TIP3    H224403   0.771   4.259   2.529
 8147TIP3   OH224404   1.515   6.514   0.865
 8147TIP3    H124405   1.466   6.435   0.888
 8147TIP3    H224406   1.451   6.585   0.872
 8148TIP3   OH224407   2.782   4.683   0.469
 8148TIP3    H124408   2.814   4.611   0.415
 8148TIP3    H224409   2.852   4.699   0.532
 8149TIP3   OH224410   6.032   0.803   3.812
 8149TIP3    H124411   6.107   0.825   3.868
 8149TIP3    H224412   6.045   0.710   3.791
 8150TIP3   OH224413   3.293   2.830   2.669
 8150TIP3    H124414   3.206   2.826   2.628
 8150TIP3    H224415   3.350   2.779   2.611
 8151TIP3   OH224416   2.548   5.821   3.754
 8151TIP3    H124417   2.483   5.829   3.824
 8151TIP3    H224418   2.496   5.804   3.676
 8152TIP3   OH224419   4.288   4.035   5.420
 8152TIP3    H124420   4.276   4.054   5.513
 8152TIP3    H224421   4.243   3.951   5.407
 8153TIP3   OH224422   4.137   3.269   4.044
 8153TIP3    H124423   4.154   3.176   4.056
 8153TIP3    H224424   4.173   3.311   4.122
 8154TIP3   OH224425   4.194   5.009   5.420
 8154TIP3    H124426   4.255   5.054   5.479
 8154TIP3    H224427   4.157   4.938   5.473
 8155TIP3   OH224428   1.377   4.207   2.559
 8155TIP3    H124429   1.335   4.218   2.473
 8155TIP3    H224430   1.314   4.158   2.610
 8156TIP3   OH224431   2.493   4.723   4.834
 8156TIP3    H124432   2.494   4.808   4.788
 8156TIP3    H224433   2.429   4.735   4.905
 8157TIP3   OH224434   0.284   4.719   4.374
 8157TIP3    H124435   0.314   4.748   4.459
 8157TIP3    H224436   0.237   4.794   4.337
 8158TIP3   OH224437   6.429   2.152   3.650
 8158TIP3    H124438   6.483   2.090   3.698
 8158TIP3    H224439   6.377   2.196   3.717
 8159TIP3   OH224440   0.978   5.736   4.628
 8159TIP3    H124441   0.925   5.743   4.549
 8159TIP3    H224442   0.980   5.825   4.664
 8160TIP3   OH224443   3.116   6.421   2.631
 8160TIP3    H124444   3.060   6.465   2.695
 8160TIP3    H224445   3.058   6.360   2.587
 8161TIP3   OH224446   3.385   0.652   4.194
 8161TIP3    H124447   3.311   0.667   4.252
 8161TIP3    H224448   3.442   0.728   4.209
 8162TIP3   OH224449   2.934   0.762   4.740
 8162TIP3    H124450   3.022   0.771   4.776
 8162TIP3    H224451   2.887   0.710   4.805
 8163TIP3   OH224452   1.119   0.928   2.905
 8163TIP3    H124453   1.193   0.869   2.919
 8163TIP3    H224454   1.048   0.870   2.878
 8164TIP3   OH224455   4.894   3.540   1.693
 8164TIP3    H124456   4.960   3.498   1.639
 8164TIP3    H224457   4.943   3.584   1.762
 8165TIP3   OH224458   0.441   2.299   2.577
 8165TIP3    H124459   0.526   2.305   2.620
 8165TIP3    H224460   0.446   2.219   2.524
 8166TIP3   OH224461   1.591   5.185   0.935
 8166TIP3    H124462   1.552   5.164   0.850
 8166TIP3    H224463   1.684   5.199   0.915
 8167TIP3   OH224464   5.165   6.739   4.019
 8167TIP3    H124465   5.258   6.719   4.008
 8167TIP3    H224466   5.138   6.687   4.094
 8168TIP3   OH224467   7.035   0.839   3.863
 8168TIP3    H124468   7.116   0.829   3.912
 8168TIP3    H224469   7.060   0.831   3.771
 8169TIP3   OH224470   5.077   5.354   3.085
 8169TIP3    H124471   4.986   5.352   3.054
 8169TIP3    H224472   5.122   5.412   3.024
 8170TIP3   OH224473   5.030   2.296   4.411
 8170TIP3    H124474   5.080   2.277   4.490
 8170TIP3    H224475   5.083   2.359   4.363
 8171TIP3   OH224476   5.286   6.367   3.468
 8171TIP3    H124477   5.314   6.421   3.542
 8171TIP3    H224478   5.345   6.391   3.397
 8172TIP3   OH224479   3.907   0.933   2.763
 8172TIP3    H124480   3.981   0.924   2.823
 8172TIP3    H224481   3.943   0.911   2.677
 8173TIP3   OH224482   6.740   5.255   3.123
 8173TIP3    H124483   6.717   5.181   3.179
 8173TIP3    H224484   6.834   5.266   3.134
 8174TIP3   OH224485   1.846   2.729   1.854
 8174TIP3    H124486   1.903   2.684   1.917
 8174TIP3    H224487   1.857   2.680   1.773
 8175TIP3   OH224488   7.116   0.548   0.366
 8175TIP3    H124489   7.053   0.475   0.365
 8175TIP3    H224490   7.109   0.587   0.279
 8176TIP3   OH224491   5.841   4.509   2.481
 8176TIP3    H124492   5.910   4.452   2.448
 8176TIP3    H224493   5.762   4.455   2.480
 8177TIP3   OH224494   2.091   3.265   1.491
 8177TIP3    H124495   1.997   3.267   1.505
 8177TIP3    H224496   2.123   3.345   1.534
 8178TIP3   OH224497   2.503   5.062   3.689
 8178TIP3    H124498   2.538   5.001   3.754
 8178TIP3    H224499   2.420   5.023   3.662
 8179TIP3   OH224500   2.933   5.392   2.050
 8179TIP3    H124501   2.854   5.362   2.005
 8179TIP3    H224502   2.901   5.448   2.120
 8180TIP3   OH224503   6.413   2.310   0.117
 8180TIP3    H124504   6.503   2.339   0.131
 8180TIP3    H224505   6.419   2.215   0.110
 8181TIP3   OH224506   7.035   4.164   4.885
 8181TIP3    H124507   6.959   4.114   4.858
 8181TIP3    H224508   7.080   4.108   4.948
 8182TIP3   OH224509   6.135   5.396   1.730
 8182TIP3    H124510   6.126   5.324   1.792
 8182TIP3    H224511   6.187   5.359   1.658
 8183TIP3   OH224512   1.859   6.579   5.422
 8183TIP3    H124513   1.889   6.658   5.377
 8183TIP3    H224514   1.764   6.583   5.416
 8184TIP3   OH224515   1.754   4.785   2.463
 8184TIP3    H124516   1.786   4.872   2.485
 8184TIP3    H224517   1.662   4.798   2.441
 8185TIP3   OH224518   3.421   2.841   0.347
 8185TIP3    H124519   3.457   2.923   0.313
 8185TIP3    H224520   3.375   2.866   0.427
 8186TIP3   OH224521   1.134   1.430   2.723
 8186TIP3    H124522   1.193   1.360   2.694
 8186TIP3    H224523   1.048   1.388   2.730
 8187TIP3   OH224524   1.214   0.189   4.974
 8187TIP3    H124525   1.186   0.254   4.909
 8187TIP3    H224526   1.303   0.214   4.996
 8188TIP3   OH224527   3.297   4.213   4.725
 8188TIP3    H124528   3.257   4.132   4.757
 8188TIP3    H224529   3.381   4.186   4.689
 8189TIP3   OH224530   4.699   5.260   1.321
 8189TIP3    H124531   4.637   5.193   1.348
 8189TIP3    H224532   4.694   5.328   1.388
 8190TIP3   OH224533   5.404   1.891   1.201
 8190TIP3    H124534   5.494   1.921   1.189
 8190TIP3    H224535   5.400   1.867   1.294
 8191TIP3   OH224536   3.846   1.584   2.626
 8191TIP3    H124537   3.824   1.496   2.654
 8191TIP3    H224538   3.767   1.616   2.583
 8192TIP3   OH224539   4.753   1.070   1.167
 8192TIP3    H124540   4.805   1.116   1.102
 8192TIP3    H224541   4.713   0.997   1.119
 8193TIP3   OH224542   4.701   2.921   3.260
 8193TIP3    H124543   4.713   2.856   3.190
 8193TIP3    H224544   4.646   2.988   3.220
 8194TIP3   OH224545   0.458   6.773   5.327
 8194TIP3    H124546   0.481   6.860   5.359
 8194TIP3    H224547   0.504   6.713   5.386
 8195TIP3   OH224548   1.297   0.829   1.068
 8195TIP3    H124549   1.314   0.911   1.021
 8195TIP3    H224550   1.225   0.789   1.019
 8196TIP3   OH224551   0.555   4.952   1.981
 8196TIP3    H124552   0.461   4.932   1.976
 8196TIP3    H224553   0.587   4.938   1.892
 8197TIP3   OH224554   1.566   0.646   3.345
 8197TIP3    H124555   1.611   0.728   3.327
 8197TIP3    H224556   1.615   0.607   3.418
 8198TIP3   OH224557   2.199   2.488   1.444
 8198TIP3    H124558   2.126   2.427   1.429
 8198TIP3    H224559   2.176   2.566   1.393
 8199TIP3   OH224560   3.118   4.800   2.455
 8199TIP3    H124561   3.056   4.838   2.518
 8199TIP3    H224562   3.141   4.873   2.397
 8200TIP3   OH224563   3.851   5.340   5.324
 8200TIP3    H124564   3.890   5.413   5.371
 8200TIP3    H224565   3.921   5.308   5.267
 8201TIP3   OH224566   1.790   5.213   5.494
 8201TIP3    H124567   1.770   5.132   5.541
 8201TIP3    H224568   1.707   5.238   5.453
 8202TIP3   OH224569   0.921   0.407   5.119
 8202TIP3    H124570   0.838   0.360   5.130
 8202TIP3    H224571   0.934   0.412   5.025
 8203TIP3   OH224572   0.484   2.186   4.608
 8203TIP3    H124573   0.570   2.177   4.648
 8203TIP3    H224574   0.501   2.195   4.514
 8204TIP3   OH224575   2.496   2.766   3.629
 8204TIP3    H124576   2.422   2.826   3.625
 8204TIP3    H224577   2.507   2.748   3.722
 8205TIP3   OH224578   4.000   1.626   2.170
 8205TIP3    H124579   4.057   1.575   2.227
 8205TIP3    H224580   4.049   1.636   2.089
 8206TIP3   OH224581   0.522   5.414   4.091
 8206TIP3    H124582   0.592   5.349   4.087
 8206TIP3    H224583   0.441   5.362   4.089
 8207TIP3   OH224584   1.619   6.394   0.031
 8207TIP3    H124585   1.584   6.322   0.084
 8207TIP3    H224586   1.708   6.406   0.063
 8208TIP3   OH224587   0.850   2.950   1.301
 8208TIP3    H124588   0.761   2.921   1.279
 8208TIP3    H224589   0.900   2.869   1.311
 8209TIP3   OH224590   4.155   6.494   2.623
 8209TIP3    H124591   4.073   6.496   2.573
 8209TIP3    H224592   4.154   6.409   2.667
 8210TIP3   OH224593   4.174   4.767   1.474
 8210TIP3    H124594   4.192   4.765   1.380
 8210TIP3    H224595   4.245   4.819   1.511
 8211TIP3   OH224596   3.676   3.220   1.118
 8211TIP3    H124597   3.603   3.163   1.094
 8211TIP3    H224598   3.721   3.173   1.188
 8212TIP3   OH224599   2.665   4.463   1.371
 8212TIP3    H124600   2.645   4.389   1.314
 8212TIP3    H224601   2.724   4.518   1.320
 8213TIP3   OH224602   0.605   4.666   0.292
 8213TIP3    H124603   0.654   4.619   0.225
 8213TIP3    H224604   0.671   4.709   0.346
 8214TIP3   OH224605   0.241   0.131   4.153
 8214TIP3    H124606   0.259   0.080   4.074
 8214TIP3    H224607   0.147   0.121   4.167
 8215TIP3   OH224608   4.758   6.286   2.589
 8215TIP3    H124609   4.765   6.381   2.582
 8215TIP3    H224610   4.749   6.255   2.499
 8216TIP3   OH224611   5.258   5.733   4.022
 8216TIP3    H124612   5.323   5.663   4.012
 8216TIP3    H224613   5.259   5.753   4.116
 8217TIP3   OH224614   5.916   6.591   2.166
 8217TIP3    H124615   5.895   6.662   2.106
 8217TIP3    H224616   5.914   6.631   2.253
 8218TIP3   OH224617   1.528   2.067   5.247
 8218TIP3    H124618   1.533   2.081   5.153
 8218TIP3    H224619   1.581   1.988   5.262
 8219TIP3   OH224620   2.495   2.059   2.429
 8219TIP3    H124621   2.497   2.117   2.353
 8219TIP3    H224622   2.587   2.050   2.455
 8220TIP3   OH224623   6.084   5.394   5.562
 8220TIP3    H124624   6.107   5.415   5.652
 8220TIP3    H224625   6.136   5.455   5.509
 8221TIP3   OH224626   4.657   0.038   3.132
 8221TIP3    H124627   4.671   0.130   3.111
 8221TIP3    H224628   4.688   0.029   3.222
 8222TIP3   OH224629   6.556   2.294   3.135
 8222TIP3    H124630   6.633   2.342   3.104
 8222TIP3    H224631   6.565   2.294   3.230
 8223TIP3   OH224632   4.322   6.692   2.573
 8223TIP3    H124633   4.256   6.623   2.579
 8223TIP3    H224634   4.334   6.721   2.663
 8224TIP3   OH224635   4.672   5.439   5.475
 8224TIP3    H124636   4.579   5.441   5.451
 8224TIP3    H224637   4.691   5.347   5.490
 8225TIP3   OH224638   0.051   3.099   3.152
 8225TIP3    H124639  -0.044   3.110   3.154
 8225TIP3    H224640   0.076   3.089   3.243
 8226TIP3   OH224641   6.556   5.892   0.184
 8226TIP3    H124642   6.471   5.929   0.207
 8226TIP3    H224643   6.586   5.849   0.265
 8227TIP3   OH224644   5.515   6.391   0.221
 8227TIP3    H124645   5.562   6.463   0.263
 8227TIP3    H224646   5.551   6.386   0.133
 8228TIP3   OH224647   2.698   4.883   3.339
 8228TIP3    H124648   2.786   4.845   3.328
 8228TIP3    H224649   2.662   4.838   3.416
 8229TIP3   OH224650   0.032   0.127   1.312
 8229TIP3    H124651   0.089   0.141   1.388
 8229TIP3    H224652  -0.055   0.152   1.343
 8230TIP3   OH224653   4.227   2.138   2.540
 8230TIP3    H124654   4.238   2.128   2.445
 8230TIP3    H224655   4.312   2.167   2.571
 8231TIP3   OH224656   1.307   3.281   0.609
 8231TIP3    H124657   1.399   3.306   0.608
 8231TIP3    H224658   1.277   3.297   0.520
 8232TIP3   OH224659   5.772   2.634   3.061
 8232TIP3    H124660   5.705   2.612   2.997
 8232TIP3    H224661   5.839   2.681   3.011
 8233TIP3   OH224662   2.967   5.176   3.490
 8233TIP3    H124663   2.884   5.184   3.442
 8233TIP3    H224664   3.030   5.227   3.439
 8234TIP3   OH224665   4.296   4.822   4.346
 8234TIP3    H124666   4.204   4.843   4.328
 8234TIP3    H224667   4.310   4.738   4.304
 8235TIP3   OH224668   1.444   4.506   4.707
 8235TIP3    H124669   1.499   4.480   4.781
 8235TIP3    H224670   1.396   4.582   4.739
 8236TIP3   OH224671   6.602   5.465   3.749
 8236TIP3    H124672   6.602   5.560   3.762
 8236TIP3    H224673   6.691   5.438   3.771
 8237TIP3   OH224674   0.244   3.444   5.681
 8237TIP3    H124675   0.150   3.459   5.673
 8237TIP3    H224676   0.284   3.507   5.620
 8238TIP3   OH224677   4.546   1.608   3.417
 8238TIP3    H124678   4.562   1.692   3.374
 8238TIP3    H224679   4.566   1.542   3.350
 8239TIP3   OH224680   1.606   5.414   0.549
 8239TIP3    H124681   1.562   5.427   0.465
 8239TIP3    H224682   1.556   5.345   0.592
 8240TIP3   OH224683   4.543   2.428   2.408
 8240TIP3    H124684   4.543   2.485   2.332
 8240TIP3    H224685   4.574   2.484   2.480
 8241TIP3   OH224686   1.425   3.365   0.897
 8241TIP3    H124687   1.331   3.381   0.901
 8241TIP3    H224688   1.459   3.397   0.981
 8242TIP3   OH224689   0.909   2.555   4.991
 8242TIP3    H124690   0.877   2.583   5.077
 8242TIP3    H224691   0.833   2.516   4.948
 8243TIP3   OH224692   5.681   0.966   1.398
 8243TIP3    H124693   5.709   0.874   1.400
 8243TIP3    H224694   5.762   1.015   1.388
 8244TIP3   OH224695   0.146   2.922   5.733
 8244TIP3    H124696   0.190   2.999   5.699
 8244TIP3    H224697   0.204   2.889   5.801
 8245TIP3   OH224698   4.718   3.148   0.853
 8245TIP3    H124699   4.685   3.133   0.765
 8245TIP3    H224700   4.799   3.097   0.858
 8246TIP3   OH224701   5.902   2.999   3.218
 8246TIP3    H124702   5.874   3.073   3.164
 8246TIP3    H224703   5.821   2.969   3.260
 8247TIP3   OH224704   1.172   2.207   4.529
 8247TIP3    H124705   1.252   2.221   4.479
 8247TIP3    H224706   1.134   2.294   4.540
 8248TIP3   OH224707   6.943   5.419   4.650
 8248TIP3    H124708   6.918   5.484   4.716
 8248TIP3    H224709   6.913   5.455   4.567
 8249TIP3   OH224710   5.394   1.320   0.492
 8249TIP3    H124711   5.360   1.371   0.565
 8249TIP3    H224712   5.484   1.351   0.481
 8250TIP3   OH224713   6.128   4.475   5.811
 8250TIP3    H124714   6.046   4.456   5.857
 8250TIP3    H224715   6.178   4.529   5.871
 8251TIP3   OH224716   3.799   3.974   2.140
 8251TIP3    H124717   3.784   3.885   2.170
 8251TIP3    H224718   3.880   4.001   2.183
 8252TIP3   OH224719   3.183   1.116   0.966
 8252TIP3    H124720   3.224   1.056   1.028
 8252TIP3    H224721   3.147   1.186   1.020
 8253TIP3   OH224722   2.893   6.783   5.463
 8253TIP3    H124723   2.815   6.839   5.461
 8253TIP3    H224724   2.861   6.699   5.495
 8254TIP3   OH224725   2.551   3.184   2.120
 8254TIP3    H124726   2.550   3.102   2.071
 8254TIP3    H224727   2.626   3.232   2.085
 8255TIP3   OH224728   1.041   5.571   5.068
 8255TIP3    H124729   0.973   5.555   5.133
 8255TIP3    H224730   1.067   5.484   5.038
 8256TIP3   OH224731   4.717   1.605   3.993
 8256TIP3    H124732   4.726   1.639   3.904
 8256TIP3    H224733   4.702   1.683   4.047
 8257TIP3   OH224734   0.348   4.709   1.287
 8257TIP3    H124735   0.314   4.799   1.288
 8257TIP3    H224736   0.316   4.670   1.368
 8258TIP3   OH224737   5.016   5.366   1.081
 8258TIP3    H124738   5.002   5.454   1.046
 8258TIP3    H224739   5.036   5.380   1.174
 8259TIP3   OH224740   5.776   0.805   3.767
 8259TIP3    H124741   5.734   0.820   3.852
 8259TIP3    H224742   5.870   0.807   3.786
 8260TIP3   OH224743   5.404   5.028   5.837
 8260TIP3    H124744   5.440   5.109   5.873
 8260TIP3    H224745   5.348   4.994   5.907
 8261TIP3   OH224746   3.469   0.873   1.723
 8261TIP3    H124747   3.531   0.816   1.677
 8261TIP3    H224748   3.522   0.917   1.789
 8262TIP3   OH224749   4.948   6.378   4.365
 8262TIP3    H124750   4.914   6.464   4.342
 8262TIP3    H224751   4.889   6.346   4.433
 8263TIP3   OH224752   4.020   3.318   4.373
 8263TIP3    H124753   4.096   3.351   4.325
 8263TIP3    H224754   3.952   3.384   4.358
 8264TIP3   OH224755   4.560   3.124   5.403
 8264TIP3    H124756   4.580   3.112   5.310
 8264TIP3    H224757   4.627   3.072   5.448
 8265TIP3   OH224758   5.774   1.773   0.192
 8265TIP3    H124759   5.857   1.725   0.188
 8265TIP3    H224760   5.707   1.705   0.193
 8266TIP3   OH224761   3.053   5.162   4.935
 8266TIP3    H124762   2.960   5.142   4.945
 8266TIP3    H224763   3.058   5.210   4.853
 8267TIP3   OH224764   2.118   3.558   2.218
 8267TIP3    H124765   2.056   3.626   2.192
 8267TIP3    H224766   2.090   3.532   2.306
 8268TIP3   OH224767   0.220   2.763   4.589
 8268TIP3    H124768   0.293   2.823   4.605
 8268TIP3    H224769   0.148   2.800   4.640
 8269TIP3   OH224770   2.187   0.665   5.476
 8269TIP3    H124771   2.140   0.729   5.422
 8269TIP3    H224772   2.126   0.591   5.483
 8270TIP3   OH224773   5.358   2.243   0.938
 8270TIP3    H124774   5.315   2.234   1.023
 8270TIP3    H224775   5.434   2.299   0.955
 8271TIP3   OH224776   0.136   0.607   3.040
 8271TIP3    H124777   0.046   0.586   3.019
 8271TIP3    H224778   0.148   0.696   3.008
 8272TIP3   OH224779   6.920   4.450   2.016
 8272TIP3    H124780   6.987   4.462   2.083
 8272TIP3    H224781   6.850   4.402   2.061
 8273TIP3   OH224782   5.143   4.921   3.902
 8273TIP3    H124783   5.089   4.865   3.957
 8273TIP3    H224784   5.149   5.004   3.950
 8274TIP3   OH224785   0.234   5.003   0.268
 8274TIP3    H124786   0.297   4.944   0.309
 8274TIP3    H224787   0.192   5.048   0.342
 8275TIP3   OH224788   0.160   3.340   2.814
 8275TIP3    H124789   0.210   3.385   2.881
 8275TIP3    H224790   0.126   3.409   2.757
 8276TIP3   OH224791   7.065   3.068   1.776
 8276TIP3    H124792   7.091   2.979   1.754
 8276TIP3    H224793   7.147   3.115   1.787
 8277TIP3   OH224794   6.369   3.601   1.606
 8277TIP3    H124795   6.327   3.545   1.672
 8277TIP3    H224796   6.402   3.675   1.655
 8278TIP3   OH224797   1.629   4.654   3.626
 8278TIP3    H124798   1.707   4.628   3.675
 8278TIP3    H224799   1.660   4.663   3.536
 8279TIP3   OH224800   2.552   6.295   3.138
 8279TIP3    H124801   2.575   6.361   3.072
 8279TIP3    H224802   2.473   6.330   3.179
 8280TIP3   OH224803   1.082   6.444   0.922
 8280TIP3    H124804   0.994   6.463   0.954
 8280TIP3    H224805   1.118   6.383   0.986
 8281TIP3   OH224806   0.020   4.573   5.588
 8281TIP3    H124807   0.087   4.504   5.590
 8281TIP3    H224808   0.049   4.636   5.655
 8282TIP3   OH224809   4.268   1.557   0.227
 8282TIP3    H124810   4.326   1.585   0.298
 8282TIP3    H224811   4.197   1.621   0.227
 8283TIP3   OH224812   1.640   3.747   1.288
 8283TIP3    H124813   1.680   3.834   1.292
 8283TIP3    H224814   1.599   3.743   1.202
 8284TIP3   OH224815   2.990   5.926   2.609
 8284TIP3    H124816   2.971   5.967   2.525
 8284TIP3    H224817   3.040   5.993   2.658
 8285TIP3   OH224818   6.038   6.316   2.333
 8285TIP3    H124819   6.001   6.324   2.421
 8285TIP3    H224820   6.002   6.235   2.299
 8286TIP3   OH224821   3.043   2.812   5.735
 8286TIP3    H124822   2.981   2.840   5.802
 8286TIP3    H224823   2.989   2.778   5.664
 8287TIP3   OH224824   5.544   5.731   4.299
 8287TIP3    H124825   5.615   5.749   4.237
 8287TIP3    H224826   5.589   5.713   4.382
 8288TIP3   OH224827   4.205   3.100   3.447
 8288TIP3    H124828   4.276   3.096   3.510
 8288TIP3    H224829   4.248   3.116   3.363
 8289TIP3   OH224830   5.298   0.570   2.731
 8289TIP3    H124831   5.241   0.503   2.770
 8289TIP3    H224832   5.350   0.523   2.666
 8290TIP3   OH224833   5.706   1.224   1.224
 8290TIP3    H124834   5.787   1.273   1.215
 8290TIP3    H224835   5.704   1.197   1.316
 8291TIP3   OH224836   1.769   1.948   2.595
 8291TIP3    H124837   1.861   1.972   2.583
 8291TIP3    H224838   1.762   1.927   2.688
 8292TIP3   OH224839   1.137   6.275   2.369
 8292TIP3    H124840   1.052   6.247   2.334
 8292TIP3    H224841   1.119   6.361   2.408
 8293TIP3   OH224842   3.300   3.410   0.014
 8293TIP3    H124843   3.288   3.388  -0.078
 8293TIP3    H224844   3.213   3.434   0.045
 8294TIP3   OH224845   3.022   5.908   0.164
 8294TIP3    H124846   3.014   5.904   0.260
 8294TIP3    H224847   2.940   5.948   0.135
 8295TIP3   OH224848   6.151   6.734   5.169
 8295TIP3    H124849   6.162   6.639   5.158
 8295TIP3    H224850   6.240   6.769   5.157
 8296TIP3   OH224851   3.555   4.848   3.214
 8296TIP3    H124852   3.461   4.836   3.197
 8296TIP3    H224853   3.598   4.781   3.161
 8297TIP3   OH224854   1.526   5.701   1.968
 8297TIP3    H124855   1.527   5.760   1.893
 8297TIP3    H224856   1.442   5.716   2.010
 8298TIP3   OH224857   4.577   6.403   2.289
 8298TIP3    H124858   4.541   6.370   2.371
 8298TIP3    H224859   4.596   6.495   2.307
 8299TIP3   OH224860   3.558   4.333   5.215
 8299TIP3    H124861   3.617   4.386   5.161
 8299TIP3    H224862   3.470   4.352   5.180
 8300TIP3   OH224863   0.248   5.134   0.510
 8300TIP3    H124864   0.193   5.210   0.528
 8300TIP3    H224865   0.334   5.171   0.489
 8301TIP3   OH224866   0.497   4.404   0.290
 8301TIP3    H124867   0.524   4.397   0.198
 8301TIP3    H224868   0.527   4.491   0.317
 8302TIP3   OH224869   2.285   5.272   1.917
 8302TIP3    H124870   2.342   5.348   1.911
 8302TIP3    H224871   2.330   5.213   1.977
 8303TIP3   OH224872   5.661   1.684   5.865
 8303TIP3    H124873   5.598   1.705   5.797
 8303TIP3    H224874   5.704   1.768   5.884
 8304TIP3   OH224875   0.878   0.749   2.453
 8304TIP3    H124876   0.831   0.806   2.514
 8304TIP3    H224877   0.921   0.809   2.393
 8305TIP3   OH224878   1.342   4.648   0.769
 8305TIP3    H124879   1.363   4.557   0.788
 8305TIP3    H224880   1.403   4.672   0.699
 8306TIP3   OH224881   3.755   5.059   1.148
 8306TIP3    H124882   3.734   4.973   1.183
 8306TIP3    H224883   3.781   5.111   1.225
 8307TIP3   OH224884   6.345   2.084   2.071
 8307TIP3    H124885   6.311   2.112   1.986
 8307TIP3    H224886   6.273   2.100   2.132
 8308TIP3   OH224887   3.883   4.868   3.500
 8308TIP3    H124888   3.906   4.800   3.437
 8308TIP3    H224889   3.820   4.923   3.454
 8309TIP3   OH224890   5.091   0.202   0.231
 8309TIP3    H124891   5.059   0.124   0.276
 8309TIP3    H224892   5.102   0.267   0.300
 8310TIP3   OH224893   0.806   3.458   0.722
 8310TIP3    H124894   0.811   3.399   0.646
 8310TIP3    H224895   0.789   3.544   0.683
 8311TIP3   OH224896   3.568   6.216   4.113
 8311TIP3    H124897   3.651   6.240   4.073
 8311TIP3    H224898   3.514   6.296   4.108
 8312TIP3   OH224899   4.533   5.723   4.337
 8312TIP3    H124900   4.515   5.763   4.422
 8312TIP3    H224901   4.553   5.632   4.356
 8313TIP3   OH224902   6.912   0.174   4.609
 8313TIP3    H124903   6.929   0.249   4.666
 8313TIP3    H224904   6.818   0.176   4.594
 8314TIP3   OH224905   5.063   2.316   1.601
 8314TIP3    H124906   4.973   2.346   1.612
 8314TIP3    H224907   5.108   2.346   1.679
 8315TIP3   OH224908   1.673   3.731   2.647
 8315TIP3    H124909   1.621   3.662   2.607
 8315TIP3    H224910   1.611   3.801   2.666
 8316TIP3   OH224911   6.375   5.177   5.377
 8316TIP3    H124912   6.321   5.178   5.299
 8316TIP3    H224913   6.448   5.118   5.355
 8317TIP3   OH224914   5.418   1.825   3.173
 8317TIP3    H124915   5.406   1.770   3.096
 8317TIP3    H224916   5.509   1.853   3.169
 8318TIP3   OH224917   1.282   6.690   3.009
 8318TIP3    H124918   1.299   6.702   3.102
 8318TIP3    H224919   1.189   6.670   3.004
 8319TIP3   OH224920   5.352   3.886   2.185
 8319TIP3    H124921   5.342   3.857   2.276
 8319TIP3    H224922   5.329   3.979   2.187
 8320TIP3   OH224923   3.927   1.477   3.889
 8320TIP3    H124924   3.934   1.476   3.794
 8320TIP3    H224925   3.989   1.411   3.919
 8321TIP3   OH224926   2.253   5.054   4.137
 8321TIP3    H124927   2.240   5.072   4.044
 8321TIP3    H224928   2.166   5.068   4.176
 8322TIP3   OH224929   6.372   2.385   4.651
 8322TIP3    H124930   6.332   2.351   4.731
 8322TIP3    H224931   6.316   2.352   4.581
 8323TIP3   OH224932   3.911   2.113   1.573
 8323TIP3    H124933   3.945   2.148   1.656
 8323TIP3    H224934   3.988   2.075   1.530
 8324TIP3   OH224935   1.724   6.215   3.672
 8324TIP3    H124936   1.630   6.232   3.673
 8324TIP3    H224937   1.739   6.159   3.748
 8325TIP3   OH224938   0.909   1.694   0.892
 8325TIP3    H124939   0.919   1.617   0.949
 8325TIP3    H224940   0.976   1.684   0.825
 8326TIP3   OH224941   2.826   5.646   0.223
 8326TIP3    H124942   2.756   5.698   0.264
 8326TIP3    H224943   2.845   5.693   0.142
 8327TIP3   OH224944   5.567   1.080   0.415
 8327TIP3    H124945   5.502   1.147   0.395
 8327TIP3    H224946   5.588   1.094   0.508
 8328TIP3   OH224947   2.337   5.329   4.254
 8328TIP3    H124948   2.356   5.236   4.261
 8328TIP3    H224949   2.372   5.354   4.168
 8329TIP3   OH224950   1.988   4.842   2.872
 8329TIP3    H124951   2.009   4.914   2.812
 8329TIP3    H224952   2.067   4.832   2.926
 8330TIP3   OH224953   1.838   5.858   2.531
 8330TIP3    H124954   1.800   5.935   2.574
 8330TIP3    H224955   1.812   5.866   2.440
 8331TIP3   OH224956   4.267   5.221   5.835
 8331TIP3    H124957   4.327   5.146   5.829
 8331TIP3    H224958   4.181   5.182   5.849
 8332TIP3   OH224959   0.643   1.261   0.038
 8332TIP3    H124960   0.632   1.168   0.021
 8332TIP3    H224961   0.725   1.268   0.086
 8333TIP3   OH224962   7.198   2.855   1.416
 8333TIP3    H124963   7.262   2.884   1.481
 8333TIP3    H224964   7.144   2.791   1.463
 8334TIP3   OH224965   2.071   3.358   2.697
 8334TIP3    H124966   2.086   3.309   2.616
 8334TIP3    H224967   1.977   3.347   2.714
 8335TIP3   OH224968   1.141   4.519   0.369
 8335TIP3    H124969   1.158   4.600   0.322
 8335TIP3    H224970   1.060   4.536   0.417
 8336TIP3   OH224971   2.825   6.675   5.088
 8336TIP3    H124972   2.885   6.636   5.025
 8336TIP3    H224973   2.808   6.606   5.152
 8337TIP3   OH224974   3.645   2.306   1.280
 8337TIP3    H124975   3.593   2.383   1.256
 8337TIP3    H224976   3.636   2.247   1.206
 8338TIP3   OH224977   2.644   2.672   1.210
 8338TIP3    H124978   2.679   2.761   1.211
 8338TIP3    H224979   2.704   2.622   1.156
 8339TIP3   OH224980   3.360   1.601   0.795
 8339TIP3    H124981   3.345   1.636   0.883
 8339TIP3    H224982   3.342   1.507   0.803
 8340TIP3   OH224983   4.662   5.906   3.943
 8340TIP3    H124984   4.700   5.890   4.029
 8340TIP3    H224985   4.718   5.974   3.905
 8341TIP3   OH224986   2.627   6.532   2.372
 8341TIP3    H124987   2.574   6.538   2.292
 8341TIP3    H224988   2.641   6.438   2.384
 8342TIP3   OH224989   0.073   2.048   0.917
 8342TIP3    H124990   0.092   2.140   0.898
 8342TIP3    H224991   0.103   2.001   0.839
 8343TIP3   OH224992   3.431   5.305   0.924
 8343TIP3    H124993   3.505   5.314   0.863
 8343TIP3    H224994   3.458   5.234   0.983
 8344TIP3   OH224995   6.238   4.377   0.741
 8344TIP3    H124996   6.238   4.418   0.828
 8344TIP3    H224997   6.326   4.394   0.707
 8345TIP3   OH224998   0.181   4.834   1.541
 8345TIP3    H124999   0.098   4.789   1.553
 8345TIP3    H225000   0.156   4.924   1.518
 8346TIP3   OH225001   2.616   0.438   1.330
 8346TIP3    H125002   2.530   0.398   1.320
 8346TIP3    H225003   2.616   0.511   1.268
 8347TIP3   OH225004   3.781   3.688   0.316
 8347TIP3    H125005   3.861   3.737   0.295
 8347TIP3    H225006   3.780   3.682   0.411
 8348TIP3   OH225007   1.395   6.113   5.887
 8348TIP3    H125008   1.388   6.105   5.792
 8348TIP3    H225009   1.311   6.150   5.914
 8349TIP3   OH225010   6.515   0.893   2.511
 8349TIP3    H125011   6.459   0.839   2.456
 8349TIP3    H225012   6.538   0.968   2.456
 8350TIP3   OH225013   6.945   6.706   1.211
 8350TIP3    H125014   6.989   6.644   1.270
 8350TIP3    H225015   6.858   6.669   1.198
 8351TIP3   OH225016   3.803   4.576   5.192
 8351TIP3    H125017   3.864   4.599   5.122
 8351TIP3    H225018   3.854   4.583   5.272
 8352TIP3   OH225019   4.393   3.810   5.094
 8352TIP3    H125020   4.441   3.796   5.175
 8352TIP3    H225021   4.322   3.746   5.097
 8353TIP3   OH225022   6.525   3.626   4.975
 8353TIP3    H125023   6.460   3.681   4.931
 8353TIP3    H225024   6.525   3.656   5.066
 8354TIP3   OH225025   3.846   3.156   0.663
 8354TIP3    H125026   3.807   3.121   0.583
 8354TIP3    H225027   3.797   3.237   0.679
 8355TIP3   OH225028   6.985   4.753   2.887
 8355TIP3    H125029   6.939   4.756   2.971
 8355TIP3    H225030   7.014   4.662   2.880
 8356TIP3   OH225031   0.462   3.894   4.696
 8356TIP3    H125032   0.528   3.963   4.690
 8356TIP3    H225033   0.510   3.814   4.673
 8357TIP3   OH225034   4.289   3.886   1.298
 8357TIP3    H125035   4.270   3.976   1.326
 8357TIP3    H225036   4.275   3.834   1.377
 8358TIP3   OH225037   2.767   2.216   5.251
 8358TIP3    H125038   2.827   2.206   5.325
 8358TIP3    H225039   2.711   2.138   5.255
 8359TIP3   OH225040   7.044   1.062   0.592
 8359TIP3    H125041   6.974   1.114   0.551
 8359TIP3    H225042   7.004   0.977   0.607
 8360TIP3   OH225043   4.718   5.812   3.361
 8360TIP3    H125044   4.702   5.838   3.452
 8360TIP3    H225045   4.813   5.800   3.356
 8361TIP3   OH225046   5.195   5.746   4.651
 8361TIP3    H125047   5.124   5.712   4.598
 8361TIP3    H225048   5.152   5.795   4.721
 8362TIP3   OH225049   4.989   2.600   4.260
 8362TIP3    H125050   4.959   2.628   4.173
 8362TIP3    H225051   5.073   2.556   4.244
 8363TIP3   OH225052   1.447   4.002   4.447
 8363TIP3    H125053   1.374   3.974   4.392
 8363TIP3    H225054   1.437   3.953   4.529
 8364TIP3   OH225055   5.448   5.439   4.826
 8364TIP3    H125056   5.374   5.380   4.813
 8364TIP3    H225057   5.464   5.477   4.740
 8365TIP3   OH225058   2.942   5.909   4.093
 8365TIP3    H125059   2.848   5.926   4.102
 8365TIP3    H225060   2.983   5.995   4.091
 8366TIP3   OH225061   4.341   1.578   0.981
 8366TIP3    H125062   4.387   1.604   0.901
 8366TIP3    H225063   4.308   1.660   1.018
 8367TIP3   OH225064   6.822   6.123   2.476
 8367TIP3    H125065   6.873   6.057   2.428
 8367TIP3    H225066   6.786   6.179   2.408
 8368TIP3   OH225067   0.114   5.645   0.746
 8368TIP3    H125068   0.033   5.600   0.771
 8368TIP3    H225069   0.087   5.736   0.733
 8369TIP3   OH225070   6.683   1.688   5.059
 8369TIP3    H125071   6.616   1.654   5.000
 8369TIP3    H225072   6.763   1.643   5.033
 8370TIP3   OH225073   0.181   4.538   4.748
 8370TIP3    H125074   0.156   4.621   4.789
 8370TIP3    H225075   0.119   4.475   4.783
 8371TIP3   OH225076   1.398   5.066   5.322
 8371TIP3    H125077   1.471   5.028   5.272
 8371TIP3    H225078   1.368   4.995   5.379
 8372TIP3   OH225079   2.830   5.801   1.194
 8372TIP3    H125080   2.790   5.779   1.278
 8372TIP3    H225081   2.831   5.897   1.193
 8373TIP3   OH225082   7.012   5.105   4.149
 8373TIP3    H125083   6.922   5.101   4.118
 8373TIP3    H225084   7.010   5.068   4.237
 8374TIP3   OH225085   4.938   6.664   5.605
 8374TIP3    H125086   4.848   6.693   5.616
 8374TIP3    H225087   4.931   6.582   5.556
 8375TIP3   OH225088   5.251   0.915   0.034
 8375TIP3    H125089   5.173   0.867   0.063
 8375TIP3    H225090   5.281   0.960   0.113
 8376TIP3   OH225091   6.729   0.357   0.913
 8376TIP3    H125092   6.634   0.363   0.918
 8376TIP3    H225093   6.745   0.296   0.841
 8377TIP3   OH225094   5.142   1.475   2.790
 8377TIP3    H125095   5.064   1.437   2.749
 8377TIP3    H225096   5.157   1.556   2.743
 8378TIP3   OH225097   4.061   5.594   1.206
 8378TIP3    H125098   4.002   5.643   1.148
 8378TIP3    H225099   4.124   5.552   1.148
 8379TIP3   OH225100   3.888   6.475   1.047
 8379TIP3    H125101   3.928   6.535   0.984
 8379TIP3    H225102   3.930   6.498   1.131
 8380TIP3   OH225103   5.149   0.804   4.652
 8380TIP3    H125104   5.111   0.757   4.577
 8380TIP3    H225105   5.209   0.867   4.613
 8381TIP3   OH225106   2.514   2.513   0.689
 8381TIP3    H125107   2.567   2.506   0.610
 8381TIP3    H225108   2.424   2.516   0.657
 8382TIP3   OH225109   6.438   2.090   2.497
 8382TIP3    H125110   6.374   2.075   2.427
 8382TIP3    H225111   6.388   2.078   2.578
 8383TIP3   OH225112   4.583   4.336   4.969
 8383TIP3    H125113   4.510   4.380   4.926
 8383TIP3    H225114   4.584   4.372   5.058
 8384TIP3   OH225115   0.909   4.634   0.533
 8384TIP3    H125116   0.832   4.692   0.533
 8384TIP3    H225117   0.965   4.669   0.602
 8385TIP3   OH225118   6.785   5.410   5.726
 8385TIP3    H125119   6.866   5.397   5.678
 8385TIP3    H225120   6.760   5.323   5.756
 8386TIP3   OH225121   3.535   4.477   2.698
 8386TIP3    H125122   3.482   4.508   2.771
 8386TIP3    H225123   3.615   4.443   2.738
 8387TIP3   OH225124   3.396   4.153   3.169
 8387TIP3    H125125   3.443   4.186   3.246
 8387TIP3    H225126   3.370   4.064   3.192
 8388TIP3   OH225127   3.956   6.730   4.750
 8388TIP3    H125128   3.976   6.811   4.704
 8388TIP3    H225129   3.866   6.709   4.724
 8389TIP3   OH225130   4.770   1.008   5.121
 8389TIP3    H125131   4.739   0.918   5.113
 8389TIP3    H225132   4.865   1.000   5.132
 8390TIP3   OH225133   4.119   5.693   4.440
 8390TIP3    H125134   4.091   5.746   4.365
 8390TIP3    H225135   4.066   5.726   4.513
 8391TIP3   OH225136   5.445   6.825   4.215
 8391TIP3    H125137   5.421   6.740   4.254
 8391TIP3    H225138   5.467   6.804   4.124
 8392TIP3   OH225139   3.195   6.691   0.493
 8392TIP3    H125140   3.134   6.647   0.553
 8392TIP3    H225141   3.139   6.723   0.422
 8393TIP3   OH225142   5.314   4.396   4.775
 8393TIP3    H125143   5.233   4.400   4.725
 8393TIP3    H225144   5.374   4.345   4.720
 8394TIP3   OH225145   3.408   5.363   4.216
 8394TIP3    H125146   3.445   5.371   4.128
 8394TIP3    H225147   3.314   5.367   4.203
 8395TIP3   OH225148   0.462   5.769   5.133
 8395TIP3    H125149   0.536   5.829   5.121
 8395TIP3    H225150   0.435   5.745   5.044
 8396TIP3   OH225151   5.985   5.098   2.765
 8396TIP3    H125152   5.915   5.103   2.831
 8396TIP3    H225153   5.942   5.122   2.683
 8397TIP3   OH225154   6.233   3.374   2.136
 8397TIP3    H125155   6.274   3.338   2.215
 8397TIP3    H225156   6.167   3.435   2.169
 8398TIP3   OH225157   3.074   2.531   4.003
 8398TIP3    H125158   3.001   2.542   3.942
 8398TIP3    H225159   3.092   2.620   4.035
 8399TIP3   OH225160   4.790   5.879   3.637
 8399TIP3    H125161   4.796   5.945   3.706
 8399TIP3    H225162   4.847   5.808   3.666
 8400TIP3   OH225163   2.828   4.821   5.016
 8400TIP3    H125164   2.910   4.813   5.065
 8400TIP3    H225165   2.827   4.911   4.985
 8401TIP3   OH225166   7.227   3.055   0.544
 8401TIP3    H125167   7.175   3.089   0.471
 8401TIP3    H225168   7.238   3.131   0.602
 8402TIP3   OH225169   1.856   0.547   3.056
 8402TIP3    H125170   1.853   0.589   2.970
 8402TIP3    H225171   1.787   0.481   3.054
 8403TIP3   OH225172   3.715   6.302   4.559
 8403TIP3    H125173   3.701   6.241   4.486
 8403TIP3    H225174   3.628   6.340   4.575
 8404TIP3   OH225175   0.091   1.647   0.462
 8404TIP3    H125176   0.154   1.708   0.423
 8404TIP3    H225177   0.144   1.590   0.517
 8405TIP3   OH225178   0.943   1.326   0.857
 8405TIP3    H125179   0.995   1.390   0.905
 8405TIP3    H225180   0.916   1.371   0.778
 8406TIP3   OH225181   2.063   1.942   3.763
 8406TIP3    H125182   2.059   1.857   3.807
 8406TIP3    H225183   2.004   1.932   3.688
 8407TIP3   OH225184   5.229   5.962   2.940
 8407TIP3    H125185   5.233   6.056   2.960
 8407TIP3    H225186   5.296   5.950   2.872
 8408TIP3   OH225187   4.846   0.417   3.516
 8408TIP3    H125188   4.852   0.327   3.486
 8408TIP3    H225189   4.913   0.425   3.584
 8409TIP3   OH225190   2.796   0.242   1.232
 8409TIP3    H125191   2.749   0.321   1.259
 8409TIP3    H225192   2.885   0.271   1.215
 8410TIP3   OH225193   4.526   2.934   3.472
 8410TIP3    H125194   4.598   2.944   3.409
 8410TIP3    H225195   4.497   2.844   3.461
 8411TIP3   OH225196   3.603   6.507   5.563
 8411TIP3    H125197   3.557   6.425   5.545
 8411TIP3    H225198   3.645   6.530   5.481
 8412TIP3   OH225199   7.030   0.276   1.814
 8412TIP3    H125200   6.957   0.318   1.768
 8412TIP3    H225201   6.997   0.262   1.903
 8413TIP3   OH225202   4.081   4.758   0.883
 8413TIP3    H125203   4.114   4.744   0.795
 8413TIP3    H225204   4.099   4.850   0.902
 8414TIP3   OH225205   1.624   2.058   3.981
 8414TIP3    H125206   1.709   2.077   4.020
 8414TIP3    H225207   1.628   2.096   3.893
 8415TIP3   OH225208   1.657   6.394   5.345
 8415TIP3    H125209   1.620   6.397   5.433
 8415TIP3    H225210   1.725   6.327   5.350
 8416TIP3   OH225211   5.331   2.862   4.267
 8416TIP3    H125212   5.260   2.922   4.243
 8416TIP3    H225213   5.322   2.790   4.205
 8417TIP3   OH225214   4.880   6.466   5.045
 8417TIP3    H125215   4.859   6.389   5.098
 8417TIP3    H225216   4.883   6.434   4.955
 8418TIP3   OH225217   3.324   1.243   5.521
 8418TIP3    H125218   3.322   1.243   5.616
 8418TIP3    H225219   3.418   1.245   5.499
 8419TIP3   OH225220   5.364   3.142   4.993
 8419TIP3    H125221   5.443   3.195   4.991
 8419TIP3    H225222   5.343   3.134   5.086
 8420TIP3   OH225223   4.914   2.248   5.250
 8420TIP3    H125224   4.989   2.307   5.240
 8420TIP3    H225225   4.838   2.300   5.225
 8421TIP3   OH225226   0.395   6.445   2.214
 8421TIP3    H125227   0.457   6.504   2.172
 8421TIP3    H225228   0.386   6.479   2.303
 8422TIP3   OH225229   2.358   0.851   2.772
 8422TIP3    H125230   2.448   0.843   2.804
 8422TIP3    H225231   2.365   0.905   2.694
 8423TIP3   OH225232   5.637   3.778   1.781
 8423TIP3    H125233   5.656   3.779   1.875
 8423TIP3    H225234   5.701   3.837   1.743
 8424TIP3   OH225235   1.689   6.058   3.891
 8424TIP3    H125236   1.719   5.980   3.843
 8424TIP3    H225237   1.658   6.024   3.975
 8425TIP3   OH225238   5.506   0.214   1.638
 8425TIP3    H125239   5.453   0.187   1.562
 8425TIP3    H225240   5.442   0.251   1.699
 8426TIP3   OH225241   5.177   1.838   3.300
 8426TIP3    H125242   5.271   1.852   3.311
 8426TIP3    H225243   5.166   1.821   3.207
 8427TIP3   OH225244   2.654   0.367   4.291
 8427TIP3    H125245   2.727   0.368   4.229
 8427TIP3    H225246   2.602   0.444   4.269
 8428TIP3   OH225247   5.674   2.546   4.076
 8428TIP3    H125248   5.759   2.561   4.035
 8428TIP3    H225249   5.657   2.627   4.124
 8429TIP3   OH225250   5.282   0.408   3.440
 8429TIP3    H125251   5.239   0.439   3.360
 8429TIP3    H225252   5.230   0.332   3.467
 8430TIP3   OH225253   3.974   6.012   0.502
 8430TIP3    H125254   4.023   6.040   0.579
 8430TIP3    H225255   3.976   6.088   0.444
 8431TIP3   OH225256   2.662   4.094   0.861
 8431TIP3    H125257   2.670   4.189   0.871
 8431TIP3    H225258   2.577   4.082   0.819
 8432TIP3   OH225259   4.979   0.086   1.941
 8432TIP3    H125260   4.996   0.178   1.961
 8432TIP3    H225261   4.998   0.077   1.848
 8433TIP3   OH225262   0.176   5.189   1.012
 8433TIP3    H125263   0.125   5.116   0.977
 8433TIP3    H225264   0.257   5.148   1.044
 8434TIP3   OH225265   1.462   5.908   2.337
 8434TIP3    H125266   1.507   5.975   2.389
 8434TIP3    H225267   1.459   5.831   2.394
 8435TIP3   OH225268   0.050   5.327   3.274
 8435TIP3    H125269   0.137   5.300   3.244
 8435TIP3    H225270   0.032   5.408   3.227
 8436TIP3   OH225271   4.871   3.352   5.424
 8436TIP3    H125272   4.843   3.321   5.510
 8436TIP3    H225273   4.921   3.432   5.442
 8437TIP3   OH225274   3.565   0.156   3.908
 8437TIP3    H125275   3.579   0.083   3.848
 8437TIP3    H225276   3.610   0.230   3.867
 8438TIP3   OH225277   0.572   3.688   0.893
 8438TIP3    H125278   0.530   3.760   0.940
 8438TIP3    H225279   0.659   3.681   0.933
 8439TIP3   OH225280   3.107   4.177   1.365
 8439TIP3    H125281   3.196   4.178   1.330
 8439TIP3    H225282   3.052   4.197   1.290
 8440TIP3   OH225283   4.356   2.957   0.642
 8440TIP3    H125284   4.310   3.020   0.699
 8440TIP3    H225285   4.366   3.003   0.559
 8441TIP3   OH225286   5.708   0.146   5.144
 8441TIP3    H125287   5.727   0.053   5.158
 8441TIP3    H225288   5.649   0.170   5.216
 8442TIP3   OH225289   0.808   5.724   5.209
 8442TIP3    H125290   0.884   5.769   5.247
 8442TIP3    H225291   0.746   5.795   5.191
 8443TIP3   OH225292   1.702   5.640   2.289
 8443TIP3    H125293   1.776   5.698   2.267
 8443TIP3    H225294   1.627   5.679   2.245
 8444TIP3   OH225295   4.104   3.524   2.152
 8444TIP3    H125296   4.188   3.480   2.168
 8444TIP3    H225297   4.056   3.515   2.234
 8445TIP3   OH225298   2.001   4.748   3.503
 8445TIP3    H125299   1.915   4.712   3.526
 8445TIP3    H225300   2.056   4.727   3.578
 8446TIP3   OH225301   1.648   6.074   0.660
 8446TIP3    H125302   1.657   6.070   0.755
 8446TIP3    H225303   1.562   6.036   0.643
 8447TIP3   OH225304   0.791   1.235   4.946
 8447TIP3    H125305   0.700   1.248   4.971
 8447TIP3    H225306   0.794   1.148   4.907
 8448TIP3   OH225307   0.212   4.705   0.946
 8448TIP3    H125308   0.159   4.784   0.953
 8448TIP3    H225309   0.302   4.736   0.960
 8449TIP3   OH225310   1.998   2.856   0.837
 8449TIP3    H125311   1.984   2.948   0.815
 8449TIP3    H225312   1.929   2.835   0.899
 8450TIP3   OH225313   6.724   5.158   5.823
 8450TIP3    H125314   6.634   5.126   5.814
 8450TIP3    H225315   6.743   5.148   5.916
 8451TIP3   OH225316   6.686   6.171   0.090
 8451TIP3    H125317   6.615   6.226   0.123
 8451TIP3    H225318   6.670   6.085   0.129
 8452TIP3   OH225319   4.049   0.870   0.193
 8452TIP3    H125320   4.033   0.902   0.282
 8452TIP3    H225321   4.123   0.809   0.202
 8453TIP3   OH225322   6.627   2.248   1.368
 8453TIP3    H125323   6.556   2.313   1.361
 8453TIP3    H225324   6.597   2.174   1.315
 8454TIP3   OH225325   0.417   6.355   0.788
 8454TIP3    H125326   0.373   6.438   0.773
 8454TIP3    H225327   0.494   6.377   0.840
 8455TIP3   OH225328   0.042   3.305   3.539
 8455TIP3    H125329  -0.036   3.271   3.583
 8455TIP3    H225330   0.009   3.355   3.465
 8456TIP3   OH225331   3.569   5.390   2.109
 8456TIP3    H125332   3.505   5.319   2.120
 8456TIP3    H225333   3.628   5.358   2.041
 8457TIP3   OH225334   5.989   1.505   4.415
 8457TIP3    H125335   6.055   1.511   4.346
 8457TIP3    H225336   6.039   1.512   4.497
 8458TIP3   OH225337   3.156   3.067   2.016
 8458TIP3    H125338   3.086   3.044   2.077
 8458TIP3    H225339   3.134   3.156   1.987
 8459TIP3   OH225340   5.062   6.049   2.322
 8459TIP3    H125341   5.026   5.964   2.296
 8459TIP3    H225342   5.156   6.035   2.326
 8460TIP3   OH225343   2.771   1.156   1.391
 8460TIP3    H125344   2.712   1.206   1.447
 8460TIP3    H225345   2.837   1.220   1.363
 8461TIP3   OH225346   0.144   5.890   4.477
 8461TIP3    H125347   0.164   5.937   4.557
 8461TIP3    H225348   0.142   5.798   4.503
 8462TIP3   OH225349   0.601   0.095   1.078
 8462TIP3    H125350   0.564   0.167   1.129
 8462TIP3    H225351   0.539   0.082   1.006
 8463TIP3   OH225352   3.297   2.611   0.236
 8463TIP3    H125353   3.348   2.612   0.154
 8463TIP3    H225354   3.308   2.699   0.272
 8464TIP3   OH225355   5.719   1.195   5.455
 8464TIP3    H125356   5.691   1.186   5.364
 8464TIP3    H225357   5.815   1.195   5.451
 8465TIP3   OH225358   4.821   5.498   4.452
 8465TIP3    H125359   4.874   5.483   4.373
 8465TIP3    H225360   4.732   5.477   4.425
 8466TIP3   OH225361   6.237   4.115   0.840
 8466TIP3    H125362   6.231   4.205   0.810
 8466TIP3    H225363   6.289   4.070   0.773
 8467TIP3   OH225364   5.817   0.253   1.892
 8467TIP3    H125365   5.859   0.178   1.851
 8467TIP3    H225366   5.832   0.326   1.832
 8468TIP3   OH225367   1.818   6.067   1.518
 8468TIP3    H125368   1.901   6.036   1.483
 8468TIP3    H225369   1.825   6.162   1.516
 8469TIP3   OH225370   3.082   4.648   3.921
 8469TIP3    H125371   3.091   4.739   3.894
 8469TIP3    H225372   3.010   4.649   3.984
 8470TIP3   OH225373   4.707   5.254   5.051
 8470TIP3    H125374   4.760   5.332   5.070
 8470TIP3    H225375   4.682   5.264   4.959
 8471TIP3   OH225376   3.798   5.589   4.335
 8471TIP3    H125377   3.784   5.532   4.259
 8471TIP3    H225378   3.836   5.531   4.401
 8472TIP3   OH225379   1.685   5.779   4.259
 8472TIP3    H125380   1.770   5.800   4.219
 8472TIP3    H225381   1.705   5.767   4.352
 8473TIP3   OH225382   0.324   4.176   2.585
 8473TIP3    H125383   0.321   4.087   2.550
 8473TIP3    H225384   0.338   4.164   2.679
 8474TIP3   OH225385   4.838   2.467   2.406
 8474TIP3    H125386   4.864   2.477   2.315
 8474TIP3    H225387   4.919   2.478   2.456
 8475TIP3   OH225388   1.549   5.667   0.072
 8475TIP3    H125389   1.500   5.609   0.014
 8475TIP3    H225390   1.628   5.689   0.023
 8476TIP3   OH225391   3.396   5.210   3.564
 8476TIP3    H125392   3.474   5.259   3.591
 8476TIP3    H225393   3.415   5.119   3.588
 8477TIP3   OH225394   5.038   4.695   4.168
 8477TIP3    H125395   4.956   4.683   4.217
 8477TIP3    H225396   5.032   4.784   4.133
 8478TIP3   OH225397   2.472   3.105   2.951
 8478TIP3    H125398   2.489   3.169   2.882
 8478TIP3    H225399   2.558   3.086   2.989
 8479TIP3   OH225400   5.709   2.573   1.449
 8479TIP3    H125401   5.731   2.639   1.514
 8479TIP3    H225402   5.768   2.501   1.467
 8480TIP3   OH225403   4.858   3.760   5.174
 8480TIP3    H125404   4.938   3.798   5.210
 8480TIP3    H225405   4.815   3.833   5.129
 8481TIP3   OH225406   4.495   2.580   3.829
 8481TIP3    H125407   4.555   2.528   3.776
 8481TIP3    H225408   4.413   2.531   3.828
 8482TIP3   OH225409   5.364   1.363   4.010
 8482TIP3    H125410   5.433   1.342   4.074
 8482TIP3    H225411   5.381   1.303   3.937
 8483TIP3   OH225412   2.428   1.796   2.404
 8483TIP3    H125413   2.438   1.889   2.425
 8483TIP3    H225414   2.336   1.777   2.422
 8484TIP3   OH225415   3.632   1.706   3.797
 8484TIP3    H125416   3.567   1.748   3.853
 8484TIP3    H225417   3.585   1.684   3.717
 8485TIP3   OH225418   4.761   2.654   1.101
 8485TIP3    H125419   4.689   2.695   1.149
 8485TIP3    H225420   4.779   2.573   1.148
 8486TIP3   OH225421   5.454   0.767   3.913
 8486TIP3    H125422   5.399   0.845   3.912
 8486TIP3    H225423   5.529   0.791   3.967
 8487TIP3   OH225424   2.340   5.888   5.861
 8487TIP3    H125425   2.290   5.941   5.923
 8487TIP3    H225426   2.357   5.945   5.787
 8488TIP3   OH225427   2.891   5.513   4.222
 8488TIP3    H125428   2.818   5.568   4.251
 8488TIP3    H225429   2.854   5.457   4.155
 8489TIP3   OH225430   5.265   6.180   1.361
 8489TIP3    H125431   5.209   6.162   1.286
 8489TIP3    H225432   5.268   6.275   1.366
 8490TIP3   OH225433   1.672   6.496   2.258
 8490TIP3    H125434   1.722   6.573   2.284
 8490TIP3    H225435   1.655   6.509   2.165
 8491TIP3   OH225436   6.647   2.456   2.213
 8491TIP3    H125437   6.683   2.382   2.261
 8491TIP3    H225438   6.677   2.533   2.261
 8492TIP3   OH225439   5.262   2.405   3.047
 8492TIP3    H125440   5.321   2.403   3.122
 8492TIP3    H225441   5.237   2.313   3.033
 8493TIP3   OH225442   4.883   2.237   2.642
 8493TIP3    H125443   4.937   2.194   2.576
 8493TIP3    H225444   4.931   2.317   2.664
 8494TIP3   OH225445   4.678   1.193   3.321
 8494TIP3    H125446   4.753   1.191   3.381
 8494TIP3    H225447   4.631   1.111   3.339
 8495TIP3   OH225448   3.604   2.118   1.482
 8495TIP3    H125449   3.643   2.158   1.560
 8495TIP3    H225450   3.601   2.188   1.418
 8496TIP3   OH225451   0.181   3.405   4.486
 8496TIP3    H125452   0.176   3.427   4.579
 8496TIP3    H225453   0.114   3.338   4.473
 8497TIP3   OH225454   0.102   2.508   0.821
 8497TIP3    H125455   0.181   2.559   0.835
 8497TIP3    H225456   0.075   2.481   0.909
 8498TIP3   OH225457   3.777   3.962   3.184
 8498TIP3    H125458   3.765   3.973   3.278
 8498TIP3    H225459   3.864   3.999   3.166
 8499TIP3   OH225460   2.501   6.749   2.483
 8499TIP3    H125461   2.556   6.674   2.504
 8499TIP3    H225462   2.557   6.806   2.430
 8500TIP3   OH225463   2.169   2.276   5.084
 8500TIP3    H125464   2.166   2.207   5.018
 8500TIP3    H225465   2.082   2.316   5.081
 8501TIP3   OH225466   2.509   5.990   2.170
 8501TIP3    H125467   2.459   5.910   2.156
 8501TIP3    H225468   2.587   5.979   2.115
 8502TIP3   OH225469   0.026   0.581   3.565
 8502TIP3    H125470   0.095   0.528   3.604
 8502TIP3    H225471   0.035   0.566   3.470
 8503TIP3   OH225472   1.734   3.669   4.984
 8503TIP3    H125473   1.641   3.686   5.001
 8503TIP3    H225474   1.775   3.755   4.993
 8504TIP3   OH225475   5.850   6.472   1.878
 8504TIP3    H125476   5.790   6.416   1.928
 8504TIP3    H225477   5.854   6.553   1.928
 8505TIP3   OH225478   0.135   5.726   1.654
 8505TIP3    H125479   0.204   5.791   1.664
 8505TIP3    H225480   0.170   5.647   1.695
 8506TIP3   OH225481   6.065   4.700   0.470
 8506TIP3    H125482   5.987   4.693   0.416
 8506TIP3    H225483   6.038   4.751   0.546
 8507TIP3   OH225484   4.008   0.067   0.770
 8507TIP3    H125485   4.057  -0.008   0.804
 8507TIP3    H225486   4.005   0.052   0.675
 8508TIP3   OH225487   7.164   4.496   2.962
 8508TIP3    H125488   7.223   4.447   3.020
 8508TIP3    H225489   7.077   4.486   3.002
 8509TIP3   OH225490   2.386   6.244   1.075
 8509TIP3    H125491   2.299   6.204   1.077
 8509TIP3    H225492   2.383   6.306   1.002
 8510TIP3   OH225493   0.983   5.417   2.727
 8510TIP3    H125494   1.018   5.435   2.640
 8510TIP3    H225495   0.908   5.476   2.735
 8511TIP3   OH225496   3.943   6.180   2.846
 8511TIP3    H125497   3.910   6.171   2.756
 8511TIP3    H225498   3.870   6.152   2.901
 8512TIP3   OH225499   4.564   5.223   1.089
 8512TIP3    H125500   4.540   5.315   1.097
 8512TIP3    H225501   4.589   5.196   1.177
 8513TIP3   OH225502   2.366   5.831   3.961
 8513TIP3    H125503   2.293   5.882   3.925
 8513TIP3    H225504   2.324   5.753   3.997
 8514TIP3   OH225505   4.695   5.014   4.810
 8514TIP3    H125506   4.609   5.010   4.850
 8514TIP3    H225507   4.702   4.934   4.757
 8515TIP3   OH225508   5.490   5.492   0.983
 8515TIP3    H125509   5.399   5.484   1.012
 8515TIP3    H225510   5.506   5.587   0.980
 8516TIP3   OH225511   4.177   3.192   1.662
 8516TIP3    H125512   4.190   3.161   1.752
 8516TIP3    H225513   4.083   3.210   1.657
 8517TIP3   OH225514   3.365   4.959   4.632
 8517TIP3    H125515   3.452   4.919   4.630
 8517TIP3    H225516   3.374   5.037   4.577
 8518TIP3   OH225517   1.800   5.730   2.004
 8518TIP3    H125518   1.831   5.649   1.962
 8518TIP3    H225519   1.705   5.719   2.010
 8519TIP3   OH225520   5.702   4.369   2.934
 8519TIP3    H125521   5.701   4.301   2.866
 8519TIP3    H225522   5.730   4.448   2.887
 8520TIP3   OH225523   1.313   2.448   0.876
 8520TIP3    H125524   1.220   2.430   0.890
 8520TIP3    H225525   1.337   2.395   0.800
 8521TIP3   OH225526   4.759   4.602   5.381
 8521TIP3    H125527   4.818   4.606   5.306
 8521TIP3    H225528   4.774   4.515   5.418
 8522TIP3   OH225529   7.098   2.467   4.759
 8522TIP3    H125530   7.175   2.483   4.704
 8522TIP3    H225531   7.031   2.435   4.698
 8523TIP3   OH225532   7.161   4.394   4.801
 8523TIP3    H125533   7.113   4.423   4.723
 8523TIP3    H225534   7.111   4.319   4.834
 8524TIP3   OH225535   2.897   3.976   3.337
 8524TIP3    H125536   2.885   3.943   3.248
 8524TIP3    H225537   2.973   3.927   3.370
 8525TIP3   OH225538   3.169   2.992   4.741
 8525TIP3    H125539   3.237   2.926   4.748
 8525TIP3    H225540   3.090   2.949   4.773
 8526TIP3   OH225541   5.412   4.295   4.513
 8526TIP3    H125542   5.485   4.275   4.455
 8526TIP3    H225543   5.375   4.376   4.478
 8527TIP3   OH225544   2.541   3.839   0.228
 8527TIP3    H125545   2.477   3.869   0.293
 8527TIP3    H225546   2.624   3.836   0.275
 8528TIP3   OH225547   3.792   1.216   1.204
 8528TIP3    H125548   3.739   1.242   1.129
 8528TIP3    H225549   3.858   1.156   1.167
 8529TIP3   OH225550   2.001   1.048   0.733
 8529TIP3    H125551   1.962   1.093   0.658
 8529TIP3    H225552   2.027   1.118   0.793
 8530TIP3   OH225553   5.147   4.925   2.566
 8530TIP3    H125554   5.102   4.862   2.622
 8530TIP3    H225555   5.090   5.002   2.566
 8531TIP3   OH225556   4.099   5.827   0.152
 8531TIP3    H125557   4.145   5.910   0.147
 8531TIP3    H225558   4.160   5.767   0.195
 8532TIP3   OH225559   4.409   4.954   3.466
 8532TIP3    H125560   4.463   5.025   3.430
 8532TIP3    H225561   4.321   4.991   3.471
 8533TIP3   OH225562   2.475   1.210   1.833
 8533TIP3    H125563   2.384   1.196   1.808
 8533TIP3    H225564   2.471   1.266   1.910
 8534TIP3   OH225565   0.284   4.406   3.975
 8534TIP3    H125566   0.303   4.312   3.968
 8534TIP3    H225567   0.224   4.413   4.049
 8535TIP3   OH225568   6.675   4.442   4.116
 8535TIP3    H125569   6.618   4.498   4.169
 8535TIP3    H225570   6.743   4.500   4.084
 8536TIP3   OH225571   3.130   3.940   3.658
 8536TIP3    H125572   3.084   3.992   3.725
 8536TIP3    H225573   3.196   4.000   3.624
 8537TIP3   OH225574   0.796   4.539   4.178
 8537TIP3    H125575   0.882   4.535   4.135
 8537TIP3    H225576   0.811   4.589   4.258
 8538TIP3   OH225577   0.300   6.675   4.785
 8538TIP3    H125578   0.234   6.618   4.748
 8538TIP3    H225579   0.253   6.728   4.850
 8539TIP3   OH225580   0.376   2.645   4.380
 8539TIP3    H125581   0.316   2.684   4.443
 8539TIP3    H225582   0.385   2.711   4.311
 8540TIP3   OH225583   5.661   3.468   1.074
 8540TIP3    H125584   5.696   3.432   1.155
 8540TIP3    H225585   5.568   3.445   1.076
 8541TIP3   OH225586   3.156   4.826   5.130
 8541TIP3    H125587   3.229   4.869   5.087
 8541TIP3    H225588   3.194   4.785   5.207
 8542TIP3   OH225589   5.007   1.566   1.325
 8542TIP3    H125590   4.917   1.596   1.313
 8542TIP3    H225591   5.019   1.563   1.420
 8543TIP3   OH225592   2.840   1.981   1.302
 8543TIP3    H125593   2.808   1.990   1.392
 8543TIP3    H225594   2.771   1.935   1.256
 8544TIP3   OH225595   1.224   6.089   0.795
 8544TIP3    H125596   1.131   6.109   0.800
 8544TIP3    H225597   1.245   6.096   0.702
 8545TIP3   OH225598   5.881   4.590   0.292
 8545TIP3    H125599   5.943   4.517   0.287
 8545TIP3    H225600   5.884   4.630   0.205
 8546TIP3   OH225601   4.714   4.966   1.257
 8546TIP3    H125602   4.720   4.930   1.346
 8546TIP3    H225603   4.768   5.045   1.260
 8547TIP3   OH225604   4.894   3.893   2.171
 8547TIP3    H125605   4.879   3.803   2.203
 8547TIP3    H225606   4.814   3.914   2.122
 8548TIP3   OH225607   0.223   0.435   2.845
 8548TIP3    H125608   0.215   0.456   2.938
 8548TIP3    H225609   0.316   0.420   2.831
 8549TIP3   OH225610   0.557   2.946   3.404
 8549TIP3    H125611   0.647   2.924   3.426
 8549TIP3    H225612   0.511   2.862   3.402
 8550TIP3   OH225613   1.230   2.110   4.046
 8550TIP3    H125614   1.192   2.169   3.981
 8550TIP3    H225615   1.267   2.169   4.112
 8551TIP3   OH225616   2.399   4.638   3.368
 8551TIP3    H125617   2.457   4.570   3.335
 8551TIP3    H225618   2.316   4.622   3.322
 8552TIP3   OH225619   1.488   6.274   2.747
 8552TIP3    H125620   1.480   6.318   2.832
 8552TIP3    H225621   1.498   6.181   2.769
 8553TIP3   OH225622   3.421   3.775   4.121
 8553TIP3    H125623   3.364   3.850   4.103
 8553TIP3    H225624   3.510   3.807   4.104
 8554TIP3   OH225625   1.772   3.663   0.411
 8554TIP3    H125626   1.705   3.732   0.414
 8554TIP3    H225627   1.807   3.667   0.323
 8555TIP3   OH225628   6.927   3.951   4.037
 8555TIP3    H125629   6.912   4.030   4.089
 8555TIP3    H225630   7.015   3.922   4.061
 8556TIP3   OH225631   4.675   4.768   0.536
 8556TIP3    H125632   4.711   4.680   0.525
 8556TIP3    H225633   4.750   4.826   0.524
 8557TIP3   OH225634   3.150   5.770   5.524
 8557TIP3    H125635   3.143   5.676   5.539
 8557TIP3    H225636   3.101   5.810   5.596
 8558TIP3   OH225637   3.506   6.659   3.023
 8558TIP3    H125638   3.439   6.609   3.069
 8558TIP3    H225639   3.471   6.748   3.020
 8559TIP3   OH225640   2.116   5.103   1.493
 8559TIP3    H125641   2.166   5.082   1.572
 8559TIP3    H225642   2.028   5.069   1.510
 8560TIP3   OH225643   0.338   3.050   5.295
 8560TIP3    H125644   0.257   3.086   5.329
 8560TIP3    H225645   0.322   3.039   5.201
 8561TIP3   OH225646   1.455   5.432   1.346
 8561TIP3    H125647   1.449   5.486   1.267
 8561TIP3    H225648   1.379   5.457   1.397
 8562TIP3   OH225649   4.186   3.780   5.502
 8562TIP3    H125650   4.150   3.702   5.461
 8562TIP3    H225651   4.265   3.749   5.548
 8563TIP3   OH225652   0.263   1.677   4.474
 8563TIP3    H125653   0.346   1.636   4.499
 8563TIP3    H225654   0.284   1.770   4.463
 8564TIP3   OH225655   5.034   1.245   1.211
 8564TIP3    H125656   5.054   1.248   1.117
 8564TIP3    H225657   5.116   1.218   1.252
 8565TIP3   OH225658   0.453   4.622   4.625
 8565TIP3    H125659   0.366   4.590   4.649
 8565TIP3    H225660   0.477   4.682   4.695
 8566TIP3   OH225661   2.347   6.371   4.662
 8566TIP3    H125662   2.358   6.321   4.743
 8566TIP3    H225663   2.425   6.426   4.657
 8567TIP3   OH225664   4.061   3.999   5.215
 8567TIP3    H125665   4.144   4.042   5.196
 8567TIP3    H225666   3.999   4.070   5.226
 8568TIP3   OH225667   2.749   3.895   5.136
 8568TIP3    H125668   2.694   3.894   5.058
 8568TIP3    H225669   2.710   3.830   5.195
 8569TIP3   OH225670   2.914   4.944   0.455
 8569TIP3    H125671   2.842   4.959   0.517
 8569TIP3    H225672   2.972   4.882   0.500
 8570TIP3   OH225673   0.570   5.595   0.993
 8570TIP3    H125674   0.479   5.569   1.007
 8570TIP3    H225675   0.616   5.566   1.072
 8571TIP3   OH225676   6.517   2.880   0.641
 8571TIP3    H125677   6.505   2.791   0.674
 8571TIP3    H225678   6.443   2.894   0.583
 8572TIP3   OH225679   1.425   3.345   4.337
 8572TIP3    H125680   1.350   3.371   4.283
 8572TIP3    H225681   1.406   3.254   4.361
 8573TIP3   OH225682   6.666   4.219   3.245
 8573TIP3    H125683   6.605   4.152   3.215
 8573TIP3    H225684   6.722   4.236   3.170
 8574TIP3   OH225685   5.578   1.634   5.128
 8574TIP3    H125686   5.499   1.634   5.183
 8574TIP3    H225687   5.650   1.618   5.189
 8575TIP3   OH225688   1.221   0.907   2.483
 8575TIP3    H125689   1.277   0.984   2.495
 8575TIP3    H225690   1.142   0.942   2.442
 8576TIP3   OH225691   2.637   1.899   0.642
 8576TIP3    H125692   2.560   1.843   0.640
 8576TIP3    H225693   2.630   1.947   0.724
 8577TIP3   OH225694   3.696   4.545   1.288
 8577TIP3    H125695   3.603   4.560   1.305
 8577TIP3    H225696   3.716   4.464   1.335
 8578TIP3   OH225697   3.330   4.908   3.564
 8578TIP3    H125698   3.329   4.930   3.657
 8578TIP3    H225699   3.237   4.896   3.542
 8579TIP3   OH225700   6.547   4.465   3.866
 8579TIP3    H125701   6.551   4.557   3.891
 8579TIP3    H225702   6.567   4.418   3.946
 8580TIP3   OH225703   6.287   0.309   4.349
 8580TIP3    H125704   6.285   0.230   4.295
 8580TIP3    H225705   6.380   0.326   4.364
 8581TIP3   OH225706   3.816   0.142   2.228
 8581TIP3    H125707   3.792   0.051   2.209
 8581TIP3    H225708   3.745   0.194   2.191
 8582TIP3   OH225709   2.607   3.542   1.961
 8582TIP3    H125710   2.550   3.567   2.034
 8582TIP3    H225711   2.664   3.475   1.998
 8583TIP3   OH225712   5.301   3.160   0.188
 8583TIP3    H125713   5.306   3.194   0.099
 8583TIP3    H225714   5.240   3.086   0.182
 8584TIP3   OH225715   4.172   5.373   2.724
 8584TIP3    H125716   4.183   5.466   2.745
 8584TIP3    H225717   4.079   5.365   2.704
 8585TIP3   OH225718   6.557   1.999   3.076
 8585TIP3    H125719   6.489   2.024   3.138
 8585TIP3    H225720   6.588   2.082   3.038
 8586TIP3   OH225721   4.998   0.095   1.359
 8586TIP3    H125722   4.994   0.132   1.271
 8586TIP3    H225723   5.014   0.002   1.346
 8587TIP3   OH225724   3.250   5.381   2.661
 8587TIP3    H125725   3.167   5.426   2.674
 8587TIP3    H225726   3.247   5.352   2.570
 8588TIP3   OH225727   1.023   0.755   5.216
 8588TIP3    H125728   1.019   0.746   5.121
 8588TIP3    H225729   0.938   0.723   5.247
 8589TIP3   OH225730   0.537   3.008   3.021
 8589TIP3    H125731   0.464   2.953   3.047
 8589TIP3    H225732   0.508   3.051   2.940
 8590TIP3   OH225733   2.235   6.168   3.567
 8590TIP3    H125734   2.287   6.135   3.493
 8590TIP3    H225735   2.164   6.105   3.576
 8591TIP3   OH225736   5.027   3.079   5.599
 8591TIP3    H125737   5.106   3.128   5.576
 8591TIP3    H225738   4.983   3.065   5.515
 8592TIP3   OH225739   3.749   1.193   4.475
 8592TIP3    H125740   3.806   1.196   4.551
 8592TIP3    H225741   3.663   1.170   4.510
 8593TIP3   OH225742   1.883   2.910   0.432
 8593TIP3    H125743   1.896   2.904   0.337
 8593TIP3    H225744   1.915   2.998   0.455
 8594TIP3   OH225745   1.333   4.125   3.215
 8594TIP3    H125746   1.385   4.113   3.136
 8594TIP3    H225747   1.398   4.129   3.286
 8595TIP3   OH225748   5.386   3.440   2.871
 8595TIP3    H125749   5.346   3.359   2.840
 8595TIP3    H225750   5.312   3.494   2.900
 8596TIP3   OH225751   6.917   0.801   4.232
 8596TIP3    H125752   7.008   0.801   4.203
 8596TIP3    H225753   6.889   0.710   4.223
 8597TIP3   OH225754   1.932   0.239   3.697
 8597TIP3    H125755   1.861   0.239   3.633
 8597TIP3    H225756   2.011   0.223   3.644
 8598TIP3   OH225757   6.734   4.206   3.531
 8598TIP3    H125758   6.717   4.281   3.587
 8598TIP3    H225759   6.727   4.241   3.442
 8599TIP3   OH225760   3.839   3.056   2.310
 8599TIP3    H125761   3.907   3.094   2.254
 8599TIP3    H225762   3.884   2.988   2.360
 8600TIP3   OH225763   1.177   5.791   1.852
 8600TIP3    H125764   1.264   5.830   1.840
 8600TIP3    H225765   1.118   5.867   1.857
 8601TIP3   OH225766   5.003   3.703   1.870
 8601TIP3    H125767   4.956   3.785   1.883
 8601TIP3    H225768   5.082   3.712   1.924
 8602TIP3   OH225769   1.913   3.541   5.829
 8602TIP3    H125770   1.855   3.526   5.754
 8602TIP3    H225771   2.000   3.547   5.789
 8603TIP3   OH225772   4.178   0.841   3.676
 8603TIP3    H125773   4.237   0.765   3.675
 8603TIP3    H225774   4.096   0.808   3.638
 8604TIP3   OH225775   3.577   3.319   1.455
 8604TIP3    H125776   3.526   3.256   1.404
 8604TIP3    H225777   3.615   3.378   1.390
 8605TIP3   OH225778   2.073   1.662   3.498
 8605TIP3    H125779   2.139   1.725   3.468
 8605TIP3    H225780   2.050   1.691   3.586
 8606TIP3   OH225781   3.482   4.051   4.425
 8606TIP3    H125782   3.406   3.993   4.432
 8606TIP3    H225783   3.474   4.092   4.339
 8607TIP3   OH225784   1.979   5.775   0.311
 8607TIP3    H125785   1.896   5.823   0.302
 8607TIP3    H225786   1.962   5.712   0.381
 8608TIP3   OH225787   1.234   6.669   1.113
 8608TIP3    H125788   1.269   6.611   1.045
 8608TIP3    H225789   1.166   6.719   1.068
 8609TIP3   OH225790   6.357   0.072   5.681
 8609TIP3    H125791   6.334   0.050   5.771
 8609TIP3    H225792   6.280   0.116   5.646
 8610TIP3   OH225793   2.388   0.430   1.622
 8610TIP3    H125794   2.406   0.377   1.545
 8610TIP3    H225795   2.429   0.514   1.603
 8611TIP3   OH225796   5.940   2.465   2.007
 8611TIP3    H125797   5.861   2.481   1.955
 8611TIP3    H225798   5.925   2.380   2.048
 8612TIP3   OH225799   5.890   5.585   1.207
 8612TIP3    H125800   5.948   5.653   1.173
 8612TIP3    H225801   5.869   5.612   1.296
 8613TIP3   OH225802   2.982   1.328   1.385
 8613TIP3    H125803   2.994   1.363   1.297
 8613TIP3    H225804   3.059   1.274   1.401
 8614TIP3   OH225805   5.331   1.210   4.251
 8614TIP3    H125806   5.266   1.201   4.321
 8614TIP3    H225807   5.294   1.277   4.193
 8615TIP3   OH225808   2.256   1.173   3.286
 8615TIP3    H125809   2.170   1.208   3.267
 8615TIP3    H225810   2.282   1.215   3.368
 8616TIP3   OH225811   4.411   1.520   1.968
 8616TIP3    H125812   4.326   1.564   1.962
 8616TIP3    H225813   4.458   1.570   2.036
 8617TIP3   OH225814   0.655   0.441   3.361
 8617TIP3    H125815   0.671   0.350   3.383
 8617TIP3    H225816   0.567   0.459   3.395
 8618TIP3   OH225817   0.634   0.529   2.028
 8618TIP3    H125818   0.689   0.604   2.054
 8618TIP3    H225819   0.661   0.510   1.938
 8619TIP3   OH225820   5.406   1.203   2.266
 8619TIP3    H125821   5.443   1.114   2.260
 8619TIP3    H225822   5.317   1.190   2.297
 8620TIP3   OH225823   0.947   4.755   5.722
 8620TIP3    H125824   0.945   4.660   5.723
 8620TIP3    H225825   0.881   4.780   5.657
 8621TIP3   OH225826   6.057   0.055   5.653
 8621TIP3    H125827   6.054  -0.034   5.616
 8621TIP3    H225828   6.011   0.048   5.736
 8622TIP3   OH225829   2.577   5.914   1.710
 8622TIP3    H125830   2.517   5.846   1.739
 8622TIP3    H225831   2.624   5.940   1.789
 8623TIP3   OH225832   5.458   5.783   4.623
 8623TIP3    H125833   5.486   5.693   4.607
 8623TIP3    H225834   5.363   5.777   4.633
 8624TIP3   OH225835   6.900   1.572   1.478
 8624TIP3    H125836   6.893   1.476   1.483
 8624TIP3    H225837   6.968   1.593   1.542
 8625TIP3   OH225838   0.161   3.112   2.083
 8625TIP3    H125839   0.251   3.085   2.104
 8625TIP3    H225840   0.147   3.190   2.137
 8626TIP3   OH225841   5.626   1.199   5.198
 8626TIP3    H125842   5.590   1.118   5.163
 8626TIP3    H225843   5.635   1.257   5.123
 8627TIP3   OH225844   2.251   3.956   5.376
 8627TIP3    H125845   2.327   3.930   5.324
 8627TIP3    H225846   2.187   3.984   5.311
 8628TIP3   OH225847   6.580   6.201   4.445
 8628TIP3    H125848   6.529   6.124   4.471
 8628TIP3    H225849   6.551   6.270   4.504
 8629TIP3   OH225850   0.451   4.549   1.950
 8629TIP3    H125851   0.449   4.458   1.923
 8629TIP3    H225852   0.505   4.593   1.884
 8630TIP3   OH225853   1.353   6.447   3.947
 8630TIP3    H125854   1.296   6.509   3.991
 8630TIP3    H225855   1.372   6.380   4.012
 8631TIP3   OH225856   1.066   4.604   4.329
 8631TIP3    H125857   1.062   4.612   4.424
 8631TIP3    H225858   1.146   4.554   4.313
 8632TIP3   OH225859   7.119   3.420   1.070
 8632TIP3    H125860   7.024   3.432   1.073
 8632TIP3    H225861   7.130   3.325   1.059
 8633TIP3   OH225862   6.800   4.590   1.549
 8633TIP3    H125863   6.852   4.592   1.629
 8633TIP3    H225864   6.819   4.505   1.510
 8634TIP3   OH225865   0.893   4.655   0.209
 8634TIP3    H125866   0.979   4.670   0.169
 8634TIP3    H225867   0.895   4.564   0.237
 8635TIP3   OH225868   0.338   1.047   3.682
 8635TIP3    H125869   0.321   1.140   3.699
 8635TIP3    H225870   0.432   1.038   3.694
 8636TIP3   OH225871   5.802   4.071   4.770
 8636TIP3    H125872   5.733   4.008   4.748
 8636TIP3    H225873   5.801   4.133   4.697
 8637TIP3   OH225874   6.478   4.321   0.915
 8637TIP3    H125875   6.415   4.253   0.942
 8637TIP3    H225876   6.515   4.288   0.833
 8638TIP3   OH225877   0.437   1.244   3.164
 8638TIP3    H125878   0.374   1.184   3.206
 8638TIP3    H225879   0.481   1.189   3.099
 8639TIP3   OH225880   5.268   0.145   1.477
 8639TIP3    H125881   5.316   0.065   1.454
 8639TIP3    H225882   5.180   0.131   1.443
 8640TIP3   OH225883   5.109   3.453   1.482
 8640TIP3    H125884   5.165   3.375   1.482
 8640TIP3    H225885   5.166   3.523   1.450
 8641TIP3   OH225886   4.097   2.646   2.981
 8641TIP3    H125887   4.013   2.599   2.982
 8641TIP3    H225888   4.085   2.715   3.047
 8642TIP3   OH225889   1.226   5.623   4.648
 8642TIP3    H125890   1.143   5.670   4.651
 8642TIP3    H225891   1.251   5.624   4.555
 8643TIP3   OH225892   4.067   3.519   1.245
 8643TIP3    H125893   4.032   3.579   1.310
 8643TIP3    H225894   4.162   3.531   1.249
 8644TIP3   OH225895   6.769   3.029   0.550
 8644TIP3    H125896   6.831   3.056   0.618
 8644TIP3    H225897   6.718   2.959   0.592
 8645TIP3   OH225898   1.003   3.629   3.793
 8645TIP3    H125899   0.968   3.710   3.829
 8645TIP3    H225900   1.015   3.572   3.869
 8646TIP3   OH225901   4.769   0.743   5.095
 8646TIP3    H125902   4.773   0.736   5.190
 8646TIP3    H225903   4.800   0.659   5.063
 8647TIP3   OH225904   4.518   4.833   2.841
 8647TIP3    H125905   4.430   4.869   2.845
 8647TIP3    H225906   4.550   4.836   2.932
 8648TIP3   OH225907   2.021   3.367   3.514
 8648TIP3    H125908   1.984   3.299   3.458
 8648TIP3    H225909   2.114   3.368   3.493
 8649TIP3   OH225910   4.327   2.434   4.627
 8649TIP3    H125911   4.292   2.358   4.675
 8649TIP3    H225912   4.343   2.499   4.695
 8650TIP3   OH225913   3.752   5.145   1.415
 8650TIP3    H125914   3.771   5.195   1.494
 8650TIP3    H225915   3.663   5.170   1.391
 8651TIP3   OH225916   0.925   3.380   0.449
 8651TIP3    H125917   0.970   3.302   0.416
 8651TIP3    H225918   0.993   3.427   0.499
 8652TIP3   OH225919   7.099   0.812   3.598
 8652TIP3    H125920   7.148   0.870   3.539
 8652TIP3    H225921   7.145   0.728   3.592
 8653TIP3   OH225922   4.896   0.988   4.405
 8653TIP3    H125923   4.808   1.021   4.390
 8653TIP3    H225924   4.951   1.041   4.347
 8654TIP3   OH225925   4.165   1.110   3.539
 8654TIP3    H125926   4.107   1.096   3.464
 8654TIP3    H225927   4.205   1.025   3.556
 8655TIP3   OH225928   4.880   4.775   1.062
 8655TIP3    H125929   4.802   4.723   1.046
 8655TIP3    H225930   4.848   4.862   1.085
 8656TIP3   OH225931   1.456   2.773   3.427
 8656TIP3    H125932   1.530   2.712   3.427
 8656TIP3    H225933   1.379   2.719   3.409
 8657TIP3   OH225934   4.591   2.631   4.396
 8657TIP3    H125935   4.657   2.562   4.392
 8657TIP3    H225936   4.523   2.602   4.334
 8658TIP3   OH225937   2.749   1.946   3.769
 8658TIP3    H125938   2.844   1.951   3.774
 8658TIP3    H225939   2.726   1.869   3.821
 8659TIP3   OH225940   2.571   4.560   0.636
 8659TIP3    H125941   2.570   4.619   0.712
 8659TIP3    H225942   2.643   4.591   0.582
 8660TIP3   OH225943   2.319   6.304   4.369
 8660TIP3    H125944   2.312   6.396   4.343
 8660TIP3    H225945   2.333   6.306   4.463
 8661TIP3   OH225946   6.725   5.063   0.056
 8661TIP3    H125947   6.779   5.027   0.126
 8661TIP3    H225948   6.688   5.143   0.094
 8662TIP3   OH225949   3.603   0.141   5.435
 8662TIP3    H125950   3.544   0.169   5.365
 8662TIP3    H225951   3.581   0.196   5.510
 8663TIP3   OH225952   0.922   1.492   5.866
 8663TIP3    H125953   0.931   1.427   5.796
 8663TIP3    H225954   0.857   1.553   5.833
 8664TIP3   OH225955   3.513   3.652   4.380
 8664TIP3    H125956   3.479   3.582   4.436
 8664TIP3    H225957   3.435   3.693   4.342
 8665TIP3   OH225958   0.173   1.381   2.760
 8665TIP3    H125959   0.168   1.474   2.783
 8665TIP3    H225960   0.163   1.334   2.842
 8666TIP3   OH225961   6.744   2.647   5.030
 8666TIP3    H125962   6.713   2.730   5.065
 8666TIP3    H225963   6.779   2.601   5.106
 8667TIP3   OH225964   6.683   0.593   2.995
 8667TIP3    H125965   6.665   0.682   2.967
 8667TIP3    H225966   6.667   0.594   3.090
 8668TIP3   OH225967   0.392   1.556   2.986
 8668TIP3    H125968   0.330   1.591   2.923
 8668TIP3    H225969   0.369   1.598   3.069
 8669TIP3   OH225970   5.504   5.475   2.153
 8669TIP3    H125971   5.412   5.452   2.138
 8669TIP3    H225972   5.531   5.419   2.226
 8670TIP3   OH225973   5.875   6.768   0.909
 8670TIP3    H125974   5.968   6.745   0.914
 8670TIP3    H225975   5.850   6.787   0.999
 8671TIP3   OH225976   5.342   1.705   5.253
 8671TIP3    H125977   5.381   1.770   5.313
 8671TIP3    H225978   5.329   1.753   5.172
 8672TIP3   OH225979   3.282   6.508   0.776
 8672TIP3    H125980   3.256   6.531   0.865
 8672TIP3    H225981   3.203   6.473   0.735
 8673TIP3   OH225982   2.223   1.615   4.986
 8673TIP3    H125983   2.309   1.574   4.971
 8673TIP3    H225984   2.194   1.578   5.070
 8674TIP3   OH225985   2.543   5.620   1.163
 8674TIP3    H125986   2.530   5.666   1.246
 8674TIP3    H225987   2.454   5.602   1.132
 8675TIP3   OH225988   3.454   0.638   4.628
 8675TIP3    H125989   3.418   0.566   4.577
 8675TIP3    H225990   3.423   0.717   4.584
 8676TIP3   OH225991   1.209   1.300   0.125
 8676TIP3    H125992   1.137   1.287   0.186
 8676TIP3    H225993   1.166   1.322   0.042
 8677TIP3   OH225994   1.383   2.497   4.129
 8677TIP3    H125995   1.301   2.545   4.114
 8677TIP3    H225996   1.411   2.470   4.042
 8678TIP3   OH225997   0.570   3.446   2.325
 8678TIP3    H125998   0.563   3.356   2.294
 8678TIP3    H225999   0.633   3.487   2.265
 8679TIP3   OH226000   4.595   1.943   3.069
 8679TIP3    H126001   4.661   1.934   3.000
 8679TIP3    H226002   4.595   2.036   3.090
 8680TIP3   OH226003   2.180   2.796   5.694
 8680TIP3    H126004   2.231   2.859   5.643
 8680TIP3    H226005   2.205   2.812   5.785
 8681TIP3   OH226006   0.178   0.165   3.477
 8681TIP3    H126007   0.242   0.154   3.407
 8681TIP3    H226008   0.159   0.259   3.478
 8682TIP3   OH226009   6.810   2.035   0.333
 8682TIP3    H126010   6.744   2.020   0.265
 8682TIP3    H226011   6.813   2.130   0.342
 8683TIP3   OH226012   2.153   3.627   5.759
 8683TIP3    H126013   2.127   3.697   5.699
 8683TIP3    H226014   2.239   3.600   5.727
 8684TIP3   OH226015   1.285   1.404   2.070
 8684TIP3    H126016   1.204   1.448   2.046
 8684TIP3    H226017   1.347   1.427   2.000
 8685TIP3   OH226018   5.955   0.544   3.303
 8685TIP3    H126019   5.924   0.487   3.373
 8685TIP3    H226020   6.032   0.587   3.339
 8686TIP3   OH226021   6.447   3.453   4.577
 8686TIP3    H126022   6.390   3.403   4.519
 8686TIP3    H226023   6.533   3.411   4.569
 8687TIP3   OH226024   3.538   1.050   0.133
 8687TIP3    H126025   3.592   1.031   0.209
 8687TIP3    H226026   3.485   0.971   0.119
 8688TIP3   OH226027   6.248   5.458   3.904
 8688TIP3    H126028   6.224   5.543   3.942
 8688TIP3    H226029   6.222   5.465   3.812
 8689TIP3   OH226030   5.174   3.924   3.500
 8689TIP3    H126031   5.186   3.882   3.586
 8689TIP3    H226032   5.141   4.011   3.521
 8690TIP3   OH226033   6.032   6.225   1.527
 8690TIP3    H126034   5.971   6.284   1.483
 8690TIP3    H226035   6.119   6.259   1.505
 8691TIP3   OH226036   2.657   5.936   5.532
 8691TIP3    H126037   2.641   5.995   5.458
 8691TIP3    H226038   2.694   5.994   5.599
 8692TIP3   OH226039   2.465   3.976   1.076
 8692TIP3    H126040   2.549   3.981   1.030
 8692TIP3    H226041   2.470   3.895   1.126
 8693TIP3   OH226042   6.542   6.515   3.723
 8693TIP3    H126043   6.571   6.474   3.804
 8693TIP3    H226044   6.599   6.478   3.655
 8694TIP3   OH226045   0.601   6.397   3.871
 8694TIP3    H126046   0.622   6.412   3.779
 8694TIP3    H226047   0.627   6.306   3.887
 8695TIP3   OH226048   5.598   0.132   3.517
 8695TIP3    H126049   5.554   0.087   3.589
 8695TIP3    H226050   5.584   0.225   3.536
 8696TIP3   OH226051   2.063   5.777   2.791
 8696TIP3    H126052   2.127   5.730   2.737
 8696TIP3    H226053   1.986   5.786   2.736
 8697TIP3   OH226054   0.896   0.783   4.636
 8697TIP3    H126055   0.931   0.810   4.552
 8697TIP3    H226056   0.927   0.694   4.648
 8698TIP3   OH226057   4.711   2.906   4.566
 8698TIP3    H126058   4.675   2.916   4.477
 8698TIP3    H226059   4.799   2.873   4.553
 8699TIP3   OH226060   6.626   1.522   0.663
 8699TIP3    H126061   6.631   1.431   0.635
 8699TIP3    H226062   6.611   1.571   0.581
 8700TIP3   OH226063   2.645   6.474   0.925
 8700TIP3    H126064   2.660   6.469   1.019
 8700TIP3    H226065   2.716   6.424   0.886
 8701TIP3   OH226066   0.998   6.784   2.915
 8701TIP3    H126067   0.973   6.746   2.999
 8701TIP3    H226068   0.992   6.712   2.853
 8702TIP3   OH226069   3.357   4.658   5.254
 8702TIP3    H126070   3.406   4.671   5.173
 8702TIP3    H226071   3.301   4.582   5.237
 8703TIP3   OH226072   5.494   6.625   0.985
 8703TIP3    H126073   5.487   6.718   1.006
 8703TIP3    H226074   5.436   6.613   0.911
 8704TIP3   OH226075   1.698   6.543   3.073
 8704TIP3    H126076   1.730   6.522   3.161
 8704TIP3    H226077   1.776   6.576   3.028
 8705TIP3   OH226078   2.862   3.935   1.011
 8705TIP3    H126079   2.795   3.986   0.966
 8705TIP3    H226080   2.937   3.994   1.017
 8706TIP3   OH226081   1.683   2.405   3.168
 8706TIP3    H126082   1.777   2.415   3.153
 8706TIP3    H226083   1.642   2.435   3.087
 8707TIP3   OH226084   4.308   2.877   4.547
 8707TIP3    H126085   4.380   2.817   4.525
 8707TIP3    H226086   4.230   2.832   4.517
 8708TIP3   OH226087   1.536   5.170   3.896
 8708TIP3    H126088   1.570   5.136   3.814
 8708TIP3    H226089   1.580   5.119   3.964
 8709TIP3   OH226090   1.626   1.504   3.760
 8709TIP3    H126091   1.624   1.585   3.709
 8709TIP3    H226092   1.559   1.516   3.827
 8710TIP3   OH226093   1.105   6.548   2.380
 8710TIP3    H126094   1.114   6.594   2.297
 8710TIP3    H226095   1.140   6.608   2.445
 8711TIP3   OH226096   1.957   1.437   1.600
 8711TIP3    H126097   2.034   1.458   1.547
 8711TIP3    H226098   1.991   1.387   1.674
 8712TIP3   OH226099   7.235   5.773   5.638
 8712TIP3    H126100   7.154   5.723   5.650
 8712TIP3    H226101   7.253   5.809   5.725
 8713TIP3   OH226102   5.562   4.287   3.434
 8713TIP3    H126103   5.632   4.353   3.435
 8713TIP3    H226104   5.551   4.265   3.341
 8714TIP3   OH226105   1.586   3.525   2.515
 8714TIP3    H126106   1.520   3.505   2.449
 8714TIP3    H226107   1.654   3.460   2.500
 8715TIP3   OH226108   0.491   5.985   4.863
 8715TIP3    H126109   0.511   5.956   4.775
 8715TIP3    H226110   0.548   5.933   4.920
 8716TIP3   OH226111   4.560   2.705   4.649
 8716TIP3    H126112   4.611   2.783   4.628
 8716TIP3    H226113   4.574   2.646   4.575
 8717TIP3   OH226114   4.579   0.505   0.453
 8717TIP3    H126115   4.669   0.537   0.444
 8717TIP3    H226116   4.559   0.513   0.546
 8718TIP3   OH226117   5.050   4.477   5.540
 8718TIP3    H126118   4.967   4.520   5.561
 8718TIP3    H226119   5.054   4.404   5.602
 8719TIP3   OH226120   0.680   1.890   0.622
 8719TIP3    H126121   0.757   1.934   0.660
 8719TIP3    H226122   0.632   1.855   0.696
 8720TIP3   OH226123   6.076   0.954   5.604
 8720TIP3    H126124   6.117   0.919   5.526
 8720TIP3    H226125   6.050   1.043   5.579
 8721TIP3   OH226126   2.707   6.741   0.053
 8721TIP3    H126127   2.799   6.759   0.035
 8721TIP3    H226128   2.660   6.781  -0.020
 8722TIP3   OH226129   4.336   4.936   5.828
 8722TIP3    H126130   4.281   4.943   5.905
 8722TIP3    H226131   4.389   4.858   5.843
 8723TIP3   OH226132   0.416   5.765   2.645
 8723TIP3    H126133   0.385   5.689   2.695
 8723TIP3    H226134   0.337   5.799   2.603
 8724TIP3   OH226135   2.293   5.928   5.368
 8724TIP3    H126136   2.340   6.007   5.395
 8724TIP3    H226137   2.200   5.951   5.377
 8725TIP3   OH226138   6.775   2.943   4.539
 8725TIP3    H126139   6.733   2.951   4.625
 8725TIP3    H226140   6.704   2.956   4.477
 8726TIP3   OH226141   7.039   0.881   5.412
 8726TIP3    H126142   7.058   0.932   5.333
 8726TIP3    H226143   7.070   0.793   5.392
 8727TIP3   OH226144   5.854   5.955   3.497
 8727TIP3    H126145   5.870   6.003   3.578
 8727TIP3    H226146   5.908   5.876   3.504
 8728TIP3   OH226147   6.654   3.023   3.182
 8728TIP3    H126148   6.570   2.987   3.153
 8728TIP3    H226149   6.640   3.118   3.187
 8729TIP3   OH226150   6.980   2.890   5.111
 8729TIP3    H126151   7.004   2.934   5.030
 8729TIP3    H226152   6.885   2.902   5.118
 8730TIP3   OH226153   5.108   1.808   0.537
 8730TIP3    H126154   5.187   1.849   0.573
 8730TIP3    H226155   5.107   1.835   0.445
 8731TIP3   OH226156   6.521   2.640   5.545
 8731TIP3    H126157   6.494   2.721   5.589
 8731TIP3    H226158   6.522   2.663   5.452
 8732TIP3   OH226159   3.304   1.504   3.945
 8732TIP3    H126160   3.340   1.506   4.034
 8732TIP3    H226161   3.373   1.465   3.892
 8733TIP3   OH226162   1.721   2.107   4.599
 8733TIP3    H126163   1.786   2.154   4.547
 8733TIP3    H226164   1.772   2.057   4.663
 8734TIP3   OH226165   6.112   2.191   4.155
 8734TIP3    H126166   6.064   2.235   4.225
 8734TIP3    H226167   6.103   2.098   4.175
 8735TIP3   OH226168   2.764   6.083   3.982
 8735TIP3    H126169   2.675   6.058   4.005
 8735TIP3    H226170   2.773   6.174   4.011
 8736TIP3   OH226171   5.315   3.580   1.091
 8736TIP3    H126172   5.337   3.562   1.183
 8736TIP3    H226173   5.300   3.493   1.053
 8737TIP3   OH226174   2.383   6.815   1.021
 8737TIP3    H126175   2.459   6.873   1.027
 8737TIP3    H226176   2.416   6.728   1.042
 8738TIP3   OH226177   5.822   1.926   4.136
 8738TIP3    H126178   5.906   1.957   4.170
 8738TIP3    H226179   5.817   1.834   4.163
 8739TIP3   OH226180   6.711   4.957   0.888
 8739TIP3    H126181   6.668   4.997   0.812
 8739TIP3    H226182   6.723   4.865   0.864
 8740TIP3   OH226183   2.694   1.384   3.705
 8740TIP3    H126184   2.605   1.410   3.729
 8740TIP3    H226185   2.748   1.461   3.725
 8741TIP3   OH226186   1.493   6.566   3.719
 8741TIP3    H126187   1.417   6.618   3.695
 8741TIP3    H226188   1.457   6.495   3.772
 8742TIP3   OH226189   6.356   4.043   4.220
 8742TIP3    H126190   6.436   4.074   4.177
 8742TIP3    H226191   6.347   3.952   4.191
 8743TIP3   OH226192   1.469   6.638   4.242
 8743TIP3    H126193   1.378   6.639   4.270
 8743TIP3    H226194   1.518   6.614   4.320
 8744TIP3   OH226195   6.798   2.048   0.614
 8744TIP3    H126196   6.804   2.042   0.519
 8744TIP3    H226197   6.885   2.022   0.645
 8745TIP3   OH226198   4.423   5.706   2.626
 8745TIP3    H126199   4.510   5.678   2.595
 8745TIP3    H226200   4.439   5.790   2.668
 8746TIP3   OH226201   7.106   3.239   0.154
 8746TIP3    H126202   7.081   3.215   0.243
 8746TIP3    H226203   7.132   3.331   0.159
 8747TIP3   OH226204   5.513   6.152   3.059
 8747TIP3    H126205   5.542   6.107   3.138
 8747TIP3    H226206   5.530   6.089   2.989
 8748TIP3   OH226207   2.708   2.380   5.007
 8748TIP3    H126208   2.750   2.334   5.079
 8748TIP3    H226209   2.734   2.472   5.019
 8749TIP3   OH226210   4.727   6.147   1.951
 8749TIP3    H126211   4.644   6.194   1.939
 8749TIP3    H226212   4.777   6.202   2.012
 8750TIP3   OH226213   6.004   3.667   1.467
 8750TIP3    H126214   5.947   3.742   1.451
 8750TIP3    H226215   5.992   3.646   1.559
 8751TIP3   OH226216   2.172   6.135   5.614
 8751TIP3    H126217   2.169   6.196   5.687
 8751TIP3    H226218   2.105   6.069   5.634
 8752TIP3   OH226219   0.857   6.428   2.966
 8752TIP3    H126220   0.783   6.481   2.994
 8752TIP3    H226221   0.848   6.346   3.013
 8753TIP3   OH226222   1.099   0.186   1.792
 8753TIP3    H126223   1.136   0.225   1.871
 8753TIP3    H226224   1.046   0.255   1.753
 8754TIP3   OH226225   3.235   3.991   3.950
 8754TIP3    H126226   3.196   3.907   3.925
 8754TIP3    H226227   3.173   4.056   3.919
 8755TIP3   OH226228   2.823   6.524   3.871
 8755TIP3    H126229   2.916   6.546   3.877
 8755TIP3    H226230   2.779   6.603   3.902
 8756TIP3   OH226231   5.975   1.518   3.621
 8756TIP3    H126232   6.054   1.481   3.583
 8756TIP3    H226233   5.973   1.608   3.588
 8757TIP3   OH226234   3.869   0.327   4.545
 8757TIP3    H126235   3.816   0.377   4.607
 8757TIP3    H226236   3.807   0.272   4.498
 8758TIP3   OH226237   3.737   5.191   2.439
 8758TIP3    H126238   3.643   5.175   2.450
 8758TIP3    H226239   3.766   5.219   2.526
 8759TIP3   OH226240   1.926   0.978   1.826
 8759TIP3    H126241   2.021   0.970   1.816
 8759TIP3    H226242   1.890   0.927   1.753
 8760TIP3   OH226243   5.702   6.274   4.672
 8760TIP3    H126244   5.752   6.304   4.597
 8760TIP3    H226245   5.747   6.195   4.702
 8761TIP3   OH226246   6.682   3.606   2.495
 8761TIP3    H126247   6.703   3.642   2.409
 8761TIP3    H226248   6.705   3.514   2.489
 8762TIP3   OH226249   4.007   5.884   1.273
 8762TIP3    H126250   3.944   5.866   1.342
 8762TIP3    H226251   3.961   5.943   1.213
 8763TIP3   OH226252   4.006   2.021   4.104
 8763TIP3    H126253   4.040   1.931   4.109
 8763TIP3    H226254   3.920   2.016   4.146
 8764TIP3   OH226255   0.166   3.696   0.106
 8764TIP3    H126256   0.213   3.680   0.024
 8764TIP3    H226257   0.222   3.658   0.174
 8765TIP3   OH226258   7.133   4.384   0.779
 8765TIP3    H126259   7.151   4.356   0.869
 8765TIP3    H226260   7.212   4.432   0.752
 8766TIP3   OH226261   4.212   1.817   1.045
 8766TIP3    H126262   4.229   1.888   0.984
 8766TIP3    H226263   4.134   1.844   1.093
 8767TIP3   OH226264   0.528   0.245   2.041
 8767TIP3    H126265   0.539   0.265   1.948
 8767TIP3    H226266   0.560   0.323   2.086
 8768TIP3   OH226267   0.576   1.941   3.218
 8768TIP3    H126268   0.586   1.860   3.267
 8768TIP3    H226269   0.636   1.931   3.143
 8769TIP3   OH226270   6.879   2.546   1.239
 8769TIP3    H126271   6.829   2.502   1.170
 8769TIP3    H226272   6.936   2.607   1.192
 8770TIP3   OH226273   0.748   0.444   2.473
 8770TIP3    H126274   0.738   0.349   2.466
 8770TIP3    H226275   0.819   0.465   2.413
 8771TIP3   OH226276   3.809   4.716   4.768
 8771TIP3    H126277   3.904   4.719   4.772
 8771TIP3    H226278   3.789   4.635   4.722
 8772TIP3   OH226279   0.068   5.053   4.939
 8772TIP3    H126280   0.006   4.979   4.941
 8772TIP3    H226281   0.153   5.012   4.923
 8773TIP3   OH226282   4.095   1.691   0.751
 8773TIP3    H126283   4.080   1.754   0.680
 8773TIP3    H226284   4.125   1.612   0.706
 8774TIP3   OH226285   4.925   1.784   0.019
 8774TIP3    H126286   4.839   1.802   0.057
 8774TIP3    H226287   4.932   1.689   0.021
 8775TIP3   OH226288   2.086   1.514   3.078
 8775TIP3    H126289   2.102   1.457   3.004
 8775TIP3    H226290   2.168   1.513   3.127
 8776TIP3   OH226291   2.285   1.321   3.513
 8776TIP3    H126292   2.194   1.350   3.508
 8776TIP3    H226293   2.309   1.331   3.605
 8777TIP3   OH226294   3.348   4.516   0.721
 8777TIP3    H126295   3.314   4.591   0.769
 8777TIP3    H226296   3.356   4.547   0.630
 8778TIP3   OH226297   6.786   1.041   2.686
 8778TIP3    H126298   6.702   0.997   2.677
 8778TIP3    H226299   6.763   1.134   2.697
 8779TIP3   OH226300   0.835   0.410   0.350
 8779TIP3    H126301   0.929   0.394   0.360
 8779TIP3    H226302   0.805   0.434   0.437
 8780TIP3   OH226303   2.670   5.132   0.079
 8780TIP3    H126304   2.585   5.090   0.062
 8780TIP3    H226305   2.649   5.225   0.086
 8781TIP3   OH226306   1.783   4.343   3.757
 8781TIP3    H126307   1.824   4.258   3.741
 8781TIP3    H226308   1.691   4.323   3.774
 8782TIP3   OH226309  -0.030   0.032   3.607
 8782TIP3    H126310   0.029   0.059   3.538
 8782TIP3    H226311   0.026   0.024   3.685
 8783TIP3   OH226312   4.044   0.186   1.789
 8783TIP3    H126313   4.009   0.103   1.821
 8783TIP3    H226314   4.080   0.228   1.866
 8784TIP3   OH226315   1.658   3.295   1.127
 8784TIP3    H126316   1.694   3.272   1.213
 8784TIP3    H226317   1.670   3.216   1.074
 8785TIP3   OH226318   2.747   6.335   4.072
 8785TIP3    H126319   2.797   6.405   4.031
 8785TIP3    H226320   2.752   6.353   4.166
 8786TIP3   OH226321   4.206   0.955   5.410
 8786TIP3    H126322   4.122   0.998   5.394
 8786TIP3    H226323   4.267   1.026   5.429
 8787TIP3   OH226324   0.753   3.921   0.621
 8787TIP3    H126325   0.767   3.903   0.714
 8787TIP3    H226326   0.777   4.013   0.611
 8788TIP3   OH226327   6.533   2.688   5.274
 8788TIP3    H126328   6.604   2.624   5.278
 8788TIP3    H226329   6.575   2.769   5.245
 8789TIP3   OH226330   5.214   2.451   4.304
 8789TIP3    H126331   5.264   2.501   4.368
 8789TIP3    H226332   5.280   2.411   4.248
 8790TIP3   OH226333   5.568   4.788   2.910
 8790TIP3    H126334   5.530   4.736   2.839
 8790TIP3    H226335   5.662   4.787   2.893
 8791TIP3   OH226336   0.607   2.601   4.549
 8791TIP3    H126337   0.529   2.595   4.493
 8791TIP3    H226338   0.611   2.692   4.576
 8792TIP3   OH226339   5.574   5.508   1.553
 8792TIP3    H126340   5.534   5.508   1.640
 8792TIP3    H226341   5.647   5.447   1.561
 8793TIP3   OH226342   6.023   3.834   3.422
 8793TIP3    H126343   5.985   3.907   3.372
 8793TIP3    H226344   5.997   3.756   3.372
 8794TIP3   OH226345   2.022   1.793   0.863
 8794TIP3    H126346   2.103   1.783   0.914
 8794TIP3    H226347   2.035   1.874   0.813
 8795TIP3   OH226348   1.542   1.668   1.748
 8795TIP3    H126349   1.597   1.673   1.669
 8795TIP3    H226350   1.573   1.590   1.794
 8796TIP3   OH226351   1.943   3.275   5.086
 8796TIP3    H126352   2.010   3.244   5.025
 8796TIP3    H226353   1.962   3.368   5.097
 8797TIP3   OH226354   5.326   0.797   5.854
 8797TIP3    H126355   5.331   0.781   5.948
 8797TIP3    H226356   5.349   0.713   5.814
 8798TIP3   OH226357   1.773   2.798   2.724
 8798TIP3    H126358   1.769   2.789   2.819
 8798TIP3    H226359   1.851   2.851   2.708
 8799TIP3   OH226360   5.847   3.889   0.757
 8799TIP3    H126361   5.798   3.842   0.825
 8799TIP3    H226362   5.808   3.976   0.755
 8800TIP3   OH226363   1.288   3.354   4.661
 8800TIP3    H126364   1.318   3.269   4.628
 8800TIP3    H226365   1.226   3.333   4.731
 8801TIP3   OH226366   7.021   6.766   3.195
 8801TIP3    H126367   7.027   6.725   3.281
 8801TIP3    H226368   6.927   6.775   3.180
 8802TIP3   OH226369   6.024   4.935   1.733
 8802TIP3    H126370   5.938   4.894   1.746
 8802TIP3    H226371   6.009   5.000   1.664
 8803TIP3   OH226372   2.539   4.845   0.467
 8803TIP3    H126373   2.598   4.770   0.464
 8803TIP3    H226374   2.596   4.921   0.481
 8804TIP3   OH226375   1.212   2.852   0.115
 8804TIP3    H126376   1.172   2.780   0.164
 8804TIP3    H226377   1.243   2.811   0.034
 8805TIP3   OH226378   6.745   2.483   1.973
 8805TIP3    H126379   6.802   2.560   1.972
 8805TIP3    H226380   6.705   2.484   2.060
 8806TIP3   OH226381   6.171   5.838   5.409
 8806TIP3    H126382   6.077   5.818   5.404
 8806TIP3    H226383   6.197   5.852   5.319
 8807TIP3   OH226384   1.663   3.374   5.045
 8807TIP3    H126385   1.737   3.434   5.040
 8807TIP3    H226386   1.604   3.415   5.109
 8808TIP3   OH226387   0.223   6.202   2.562
 8808TIP3    H126388   0.314   6.224   2.582
 8808TIP3    H226389   0.178   6.287   2.558
 8809TIP3   OH226390   3.016   4.504   4.583
 8809TIP3    H126391   3.086   4.563   4.612
 8809TIP3    H226392   3.009   4.439   4.652
 8810TIP3   OH226393   1.097   1.810   2.427
 8810TIP3    H126394   1.056   1.731   2.392
 8810TIP3    H226395   1.177   1.779   2.469
 8811TIP3   OH226396   2.538   2.955   1.550
 8811TIP3    H126397   2.541   2.868   1.512
 8811TIP3    H226398   2.527   3.014   1.475
 8812TIP3   OH226399   3.775   0.182   0.864
 8812TIP3    H126400   3.772   0.247   0.794
 8812TIP3    H226401   3.860   0.139   0.854
 8813TIP3   OH226402   0.596   4.264   2.259
 8813TIP3    H126403   0.647   4.274   2.179
 8813TIP3    H226404   0.539   4.340   2.261
 8814TIP3   OH226405   0.074   1.443   1.894
 8814TIP3    H126406   0.051   1.509   1.960
 8814TIP3    H226407   0.067   1.360   1.940
 8815TIP3   OH226408   0.288   0.851   4.909
 8815TIP3    H126409   0.283   0.925   4.969
 8815TIP3    H226410   0.274   0.774   4.964
 8816TIP3   OH226411   5.964   4.739   2.491
 8816TIP3    H126412   5.914   4.659   2.506
 8816TIP3    H226413   5.970   4.745   2.396
 8817TIP3   OH226414   0.402   6.138   4.497
 8817TIP3    H126415   0.393   6.058   4.446
 8817TIP3    H226416   0.495   6.162   4.489
 8818TIP3   OH226417   6.526   0.385   4.065
 8818TIP3    H126418   6.562   0.297   4.071
 8818TIP3    H226419   6.574   0.435   4.132
 8819TIP3   OH226420   1.447   5.372   2.682
 8819TIP3    H126421   1.367   5.345   2.727
 8819TIP3    H226422   1.416   5.427   2.610
 8820TIP3   OH226423   5.297   6.536   3.692
 8820TIP3    H126424   5.261   6.616   3.654
 8820TIP3    H226425   5.227   6.502   3.748
 8821TIP3   OH226426   5.430   0.577   4.654
 8821TIP3    H126427   5.380   0.592   4.574
 8821TIP3    H226428   5.456   0.665   4.683
 8822TIP3   OH226429   5.986   4.393   5.103
 8822TIP3    H126430   6.069   4.356   5.070
 8822TIP3    H226431   5.930   4.317   5.118
 8823TIP3   OH226432   4.401   2.473   5.114
 8823TIP3    H126433   4.367   2.465   5.025
 8823TIP3    H226434   4.331   2.517   5.162
 8824TIP3   OH226435   1.494   5.446   0.275
 8824TIP3    H126436   1.429   5.410   0.215
 8824TIP3    H226437   1.508   5.535   0.244
 8825TIP3   OH226438   6.772   4.066   5.432
 8825TIP3    H126439   6.797   4.011   5.358
 8825TIP3    H226440   6.714   4.132   5.394
 8826TIP3   OH226441   6.868   1.021   5.077
 8826TIP3    H126442   6.798   0.990   5.135
 8826TIP3    H226443   6.923   0.944   5.064
 8827TIP3   OH226444   4.343   3.142   3.206
 8827TIP3    H126445   4.435   3.166   3.219
 8827TIP3    H226446   4.343   3.086   3.129
 8828TIP3   OH226447   3.456   4.723   2.541
 8828TIP3    H126448   3.489   4.643   2.582
 8828TIP3    H226449   3.365   4.704   2.521
 8829TIP3   OH226450   1.173   0.946   5.642
 8829TIP3    H126451   1.136   0.980   5.723
 8829TIP3    H226452   1.098   0.936   5.584
 8830TIP3   OH226453   3.350   2.464   1.178
 8830TIP3    H126454   3.256   2.470   1.192
 8830TIP3    H226455   3.388   2.523   1.244
 8831TIP3   OH226456   0.072   5.046   3.685
 8831TIP3    H126457   0.002   5.086   3.634
 8831TIP3    H226458   0.152   5.066   3.637
 8832TIP3   OH226459   0.334   5.115   4.498
 8832TIP3    H126460   0.283   5.149   4.425
 8832TIP3    H226461   0.283   5.137   4.576
 8833TIP3   OH226462   0.285   5.730   2.284
 8833TIP3    H126463   0.283   5.656   2.346
 8833TIP3    H226464   0.259   5.806   2.337
 8834TIP3   OH226465   4.189   1.863   3.307
 8834TIP3    H126466   4.172   1.951   3.275
 8834TIP3    H226467   4.166   1.867   3.400
 8835TIP3   OH226468   0.799   0.121   4.945
 8835TIP3    H126469   0.867   0.075   4.896
 8835TIP3    H226470   0.834   0.129   5.034
 8836TIP3   OH226471   1.068   0.687   2.625
 8836TIP3    H126472   0.994   0.698   2.565
 8836TIP3    H226473   1.130   0.755   2.599
 8837TIP3   OH226474   2.546   6.443   5.341
 8837TIP3    H126475   2.637   6.470   5.330
 8837TIP3    H226476   2.513   6.498   5.412
 8838TIP3   OH226477   1.279   1.966   4.334
 8838TIP3    H126478   1.340   1.928   4.397
 8838TIP3    H226479   1.313   2.054   4.318
 8839TIP3   OH226480   2.685   0.164   4.061
 8839TIP3    H126481   2.666   0.245   4.013
 8839TIP3    H226482   2.601   0.141   4.101
 8840TIP3   OH226483   2.437   2.907   5.641
 8840TIP3    H126484   2.475   2.829   5.599
 8840TIP3    H226485   2.510   2.968   5.648
 8841TIP3   OH226486   2.556   4.208   4.524
 8841TIP3    H126487   2.573   4.302   4.526
 8841TIP3    H226488   2.641   4.168   4.505
 8842TIP3   OH226489   5.347   1.085   2.627
 8842TIP3    H126490   5.329   1.126   2.712
 8842TIP3    H226491   5.289   1.009   2.625
 8843TIP3   OH226492   2.825   4.675   0.924
 8843TIP3    H126493   2.735   4.670   0.891
 8843TIP3    H226494   2.859   4.757   0.887
 8844TIP3   OH226495   1.004   3.658   5.131
 8844TIP3    H126496   0.989   3.740   5.084
 8844TIP3    H226497   1.008   3.682   5.223
 8845TIP3   OH226498   0.870   1.169   0.518
 8845TIP3    H126499   0.798   1.231   0.515
 8845TIP3    H226500   0.846   1.102   0.454
 8846TIP3   OH226501   5.131   5.970   5.420
 8846TIP3    H126502   5.188   5.899   5.451
 8846TIP3    H226503   5.053   5.963   5.476
 8847TIP3   OH226504   6.320   3.279   2.401
 8847TIP3    H126505   6.351   3.364   2.433
 8847TIP3    H226506   6.240   3.263   2.450
 8848TIP3   OH226507   2.203   3.991   0.699
 8848TIP3    H126508   2.298   3.999   0.706
 8848TIP3    H226509   2.171   4.081   0.695
 8849TIP3   OH226510   3.211   5.375   3.431
 8849TIP3    H126511   3.200   5.460   3.475
 8849TIP3    H226512   3.292   5.340   3.468
 8850TIP3   OH226513   6.311   3.521   5.309
 8850TIP3    H126514   6.232   3.490   5.265
 8850TIP3    H226515   6.286   3.604   5.349
 8851TIP3   OH226516   1.741   1.445   3.462
 8851TIP3    H126517   1.708   1.525   3.503
 8851TIP3    H226518   1.700   1.444   3.376
 8852TIP3   OH226519   4.714   3.594   2.906
 8852TIP3    H126520   4.716   3.680   2.865
 8852TIP3    H226521   4.688   3.534   2.836
 8853TIP3   OH226522   0.726   3.476   2.123
 8853TIP3    H126523   0.660   3.498   2.056
 8853TIP3    H226524   0.783   3.413   2.079
 8854TIP3   OH226525   5.347   3.950   1.865
 8854TIP3    H126526   5.262   3.972   1.901
 8854TIP3    H226527   5.387   3.892   1.931
 8855TIP3   OH226528   6.239   0.936   5.832
 8855TIP3    H126529   6.172   0.937   5.764
 8855TIP3    H226530   6.256   0.843   5.847
 8856TIP3   OH226531   1.508   0.282   4.359
 8856TIP3    H126532   1.560   0.361   4.373
 8856TIP3    H226533   1.500   0.243   4.446
 8857TIP3   OH226534   3.760   0.695   3.824
 8857TIP3    H126535   3.850   0.725   3.832
 8857TIP3    H226536   3.736   0.667   3.912
 8858TIP3   OH226537   0.952   3.985   5.809
 8858TIP3    H126538   0.912   3.900   5.830
 8858TIP3    H226539   0.966   4.027   5.893
 8859TIP3   OH226540   7.001   3.165   3.190
 8859TIP3    H126541   6.938   3.166   3.261
 8859TIP3    H226542   6.963   3.222   3.123
 8860TIP3   OH226543   2.256   5.166   5.450
 8860TIP3    H126544   2.316   5.216   5.395
 8860TIP3    H226545   2.173   5.214   5.446
 8861TIP3   OH226546   2.106   4.689   2.285
 8861TIP3    H126547   2.067   4.694   2.198
 8861TIP3    H226548   2.157   4.608   2.283
 8862TIP3   OH226549   1.382   5.183   3.179
 8862TIP3    H126550   1.411   5.096   3.206
 8862TIP3    H226551   1.366   5.174   3.085
 8863TIP3   OH226552   4.840   1.622   3.358
 8863TIP3    H126553   4.902   1.660   3.421
 8863TIP3    H226554   4.777   1.691   3.340
 8864TIP3   OH226555   5.383   4.485   0.289
 8864TIP3    H126556   5.464   4.442   0.316
 8864TIP3    H226557   5.332   4.417   0.247
 8865TIP3   OH226558   6.918   4.367   1.130
 8865TIP3    H126559   6.881   4.394   1.046
 8865TIP3    H226560   6.929   4.273   1.123
 8866TIP3   OH226561   7.079   0.324   5.447
 8866TIP3    H126562   7.138   0.334   5.522
 8866TIP3    H226563   7.133   0.285   5.378
 8867TIP3   OH226564   0.566   0.777   5.845
 8867TIP3    H126565   0.542   0.718   5.916
 8867TIP3    H226566   0.577   0.721   5.768
 8868TIP3   OH226567   6.757   5.287   5.340
 8868TIP3    H126568   6.732   5.321   5.254
 8868TIP3    H226569   6.693   5.218   5.358
 8869TIP3   OH226570   4.849   3.585   2.111
 8869TIP3    H126571   4.771   3.558   2.061
 8869TIP3    H226572   4.917   3.597   2.044
 8870TIP3   OH226573   0.215   5.947   2.430
 8870TIP3    H126574   0.120   5.959   2.439
 8870TIP3    H226575   0.253   6.017   2.483
 8871TIP3   OH226576   1.335   1.478   1.077
 8871TIP3    H126577   1.259   1.535   1.065
 8871TIP3    H226578   1.408   1.538   1.089
 8872TIP3   OH226579   5.080   2.117   1.834
 8872TIP3    H126580   5.013   2.131   1.901
 8872TIP3    H226581   5.134   2.197   1.838
 8873TIP3   OH226582   4.197   0.249   2.823
 8873TIP3    H126583   4.169   0.158   2.812
 8873TIP3    H226584   4.286   0.251   2.789
 8874TIP3   OH226585   3.698   4.834   2.333
 8874TIP3    H126586   3.781   4.823   2.379
 8874TIP3    H226587   3.666   4.921   2.360
 8875TIP3   OH226588   6.074   6.737   0.351
 8875TIP3    H126589   6.131   6.811   0.330
 8875TIP3    H226590   6.037   6.711   0.267
 8876TIP3   OH226591   3.162   1.650   3.766
 8876TIP3    H126592   3.224   1.630   3.696
 8876TIP3    H226593   3.198   1.606   3.843
 8877TIP3   OH226594   2.869   2.616   3.821
 8877TIP3    H126595   2.831   2.531   3.842
 8877TIP3    H226596   2.889   2.610   3.727
 8878TIP3   OH226597   1.820   0.252   5.599
 8878TIP3    H126598   1.737   0.265   5.646
 8878TIP3    H226599   1.880   0.219   5.665
 8879TIP3   OH226600   5.770   4.871   1.664
 8879TIP3    H126601   5.730   4.948   1.706
 8879TIP3    H226602   5.713   4.798   1.691
 8880TIP3   OH226603   2.014   5.267   1.830
 8880TIP3    H126604   2.010   5.171   1.836
 8880TIP3    H226605   2.107   5.288   1.832
 8881TIP3   OH226606   1.937   0.770   5.662
 8881TIP3    H126607   1.908   0.691   5.707
 8881TIP3    H226608   1.887   0.841   5.704
 8882TIP3   OH226609   1.266   6.069   0.461
 8882TIP3    H126610   1.299   5.983   0.486
 8882TIP3    H226611   1.185   6.050   0.413
 8883TIP3   OH226612   5.899   0.390   5.327
 8883TIP3    H126613   5.925   0.362   5.239
 8883TIP3    H226614   5.804   0.385   5.327
 8884TIP3   OH226615   2.545   0.628   5.051
 8884TIP3    H126616   2.481   0.677   5.102
 8884TIP3    H226617   2.526   0.652   4.960
 8885TIP3   OH226618   0.440   5.424   4.646
 8885TIP3    H126619   0.495   5.352   4.676
 8885TIP3    H226620   0.380   5.440   4.719
 8886TIP3   OH226621   1.764   3.537   1.045
 8886TIP3    H126622   1.787   3.516   0.954
 8886TIP3    H226623   1.744   3.453   1.085
 8887TIP3   OH226624   5.131   0.130   0.663
 8887TIP3    H126625   5.079   0.056   0.694
 8887TIP3    H226626   5.158   0.105   0.574
 8888TIP3   OH226627   3.949   6.078   0.812
 8888TIP3    H126628   3.984   6.013   0.873
 8888TIP3    H226629   3.975   6.162   0.849
 8889TIP3   OH226630   0.608   0.826   1.212
 8889TIP3    H126631   0.603   0.856   1.121
 8889TIP3    H226632   0.667   0.887   1.255
 8890TIP3   OH226633   3.452   0.986   4.230
 8890TIP3    H126634   3.475   0.951   4.316
 8890TIP3    H226635   3.463   1.081   4.239
 8891TIP3   OH226636   1.279   2.902   3.935
 8891TIP3    H126637   1.299   2.811   3.911
 8891TIP3    H226638   1.353   2.953   3.902
 8892TIP3   OH226639   4.645   4.284   3.576
 8892TIP3    H126640   4.601   4.277   3.492
 8892TIP3    H226641   4.584   4.245   3.639
 8893TIP3   OH226642   4.519   6.659   0.768
 8893TIP3    H126643   4.574   6.607   0.709
 8893TIP3    H226644   4.453   6.698   0.711
 8894TIP3   OH226645   0.749   4.973   2.673
 8894TIP3    H126646   0.801   5.009   2.601
 8894TIP3    H226647   0.802   4.901   2.707
 8895TIP3   OH226648   2.253   4.821   0.418
 8895TIP3    H126649   2.344   4.848   0.406
 8895TIP3    H226650   2.206   4.864   0.347
 8896TIP3   OH226651   0.132   2.171   4.701
 8896TIP3    H126652   0.197   2.156   4.769
 8896TIP3    H226653   0.121   2.266   4.698
 8897TIP3   OH226654   1.534   3.722   0.047
 8897TIP3    H126655   1.625   3.733   0.073
 8897TIP3    H226656   1.525   3.778  -0.031
 8898TIP3   OH226657   2.123   4.181   3.249
 8898TIP3    H126658   2.100   4.271   3.275
 8898TIP3    H226659   2.178   4.149   3.320
 8899TIP3   OH226660   1.404   6.649   5.034
 8899TIP3    H126661   1.394   6.685   5.122
 8899TIP3    H226662   1.378   6.720   4.975
 8900TIP3   OH226663   5.907   5.685   4.714
 8900TIP3    H126664   5.982   5.632   4.686
 8900TIP3    H226665   5.851   5.623   4.761
 8901TIP3   OH226666   2.624   0.548   3.737
 8901TIP3    H126667   2.530   0.560   3.731
 8901TIP3    H226668   2.646   0.492   3.663
 8902TIP3   OH226669   0.431   4.673   5.249
 8902TIP3    H126670   0.384   4.739   5.198
 8902TIP3    H226671   0.412   4.696   5.340
 8903TIP3   OH226672   2.890   3.338   0.383
 8903TIP3    H126673   2.815   3.350   0.440
 8903TIP3    H226674   2.870   3.259   0.332
 8904TIP3   OH226675   1.046  -0.022   5.167
 8904TIP3    H126676   1.136  -0.034   5.139
 8904TIP3    H226677   1.016   0.055   5.120
 8905TIP3   OH226678   2.733   6.281   1.808
 8905TIP3    H126679   2.709   6.289   1.900
 8905TIP3    H226680   2.653   6.304   1.760
 8906TIP3   OH226681   5.771   6.402   0.946
 8906TIP3    H126682   5.712   6.329   0.928
 8906TIP3    H226683   5.769   6.455   0.866
 8907TIP3   OH226684   5.310   5.747   0.806
 8907TIP3    H126685   5.375   5.768   0.873
 8907TIP3    H226686   5.228   5.781   0.840
 8908TIP3   OH226687   5.020   6.331   0.877
 8908TIP3    H126688   5.100   6.360   0.832
 8908TIP3    H226689   5.018   6.236   0.863
 8909TIP3   OH226690   0.882   0.607   1.754
 8909TIP3    H126691   0.840   0.676   1.805
 8909TIP3    H226692   0.842   0.614   1.667
 8910TIP3   OH226693   0.841   3.580   3.574
 8910TIP3    H126694   0.900   3.603   3.645
 8910TIP3    H226695   0.874   3.497   3.541
 8911TIP3   OH226696   5.832   2.934   4.267
 8911TIP3    H126697   5.878   2.855   4.295
 8911TIP3    H226698   5.755   2.902   4.221
 8912TIP3   OH226699   0.693   6.786   3.613
 8912TIP3    H126700   0.636   6.840   3.558
 8912TIP3    H226701   0.664   6.696   3.596
 8913TIP3   OH226702   5.276   0.804   2.592
 8913TIP3    H126703   5.298   0.742   2.522
 8913TIP3    H226704   5.246   0.750   2.664
 8914TIP3   OH226705   0.470   5.866   2.095
 8914TIP3    H126706   0.486   5.959   2.081
 8914TIP3    H226707   0.412   5.863   2.171
 8915TIP3   OH226708   0.771   2.794   2.544
 8915TIP3    H126709   0.812   2.810   2.628
 8915TIP3    H226710   0.718   2.872   2.528
 8916TIP3   OH226711   6.126   3.793   5.032
 8916TIP3    H126712   6.137   3.872   4.979
 8916TIP3    H226713   6.188   3.804   5.104
 8917TIP3   OH226714   4.121   5.939   1.814
 8917TIP3    H126715   4.210   5.911   1.834
 8917TIP3    H226716   4.126   6.035   1.811
 8918TIP3   OH226717   1.252   0.819   3.959
 8918TIP3    H126718   1.256   0.837   4.053
 8918TIP3    H226719   1.207   0.734   3.954
 8919TIP3   OH226720   3.148   4.109   2.472
 8919TIP3    H126721   3.087   4.043   2.504
 8919TIP3    H226722   3.107   4.145   2.394
 8920TIP3   OH226723   4.500   5.142   3.779
 8920TIP3    H126724   4.459   5.174   3.860
 8920TIP3    H226725   4.432   5.091   3.736
 8921TIP3   OH226726   6.427   0.398   0.863
 8921TIP3    H126727   6.446   0.351   0.781
 8921TIP3    H226728   6.364   0.465   0.837
 8922TIP3   OH226729   4.867   0.676   3.764
 8922TIP3    H126730   4.886   0.732   3.689
 8922TIP3    H226731   4.915   0.595   3.747
 8923TIP3   OH226732   6.236   4.862   2.458
 8923TIP3    H126733   6.153   4.883   2.415
 8923TIP3    H226734   6.269   4.785   2.410
 8924TIP3   OH226735   2.045   4.506   4.308
 8924TIP3    H126736   1.973   4.498   4.245
 8924TIP3    H226737   2.058   4.417   4.341
 8925TIP3   OH226738   2.892   1.156   4.072
 8925TIP3    H126739   2.985   1.134   4.079
 8925TIP3    H226740   2.868   1.130   3.983
 8926TIP3   OH226741   5.845   0.796   0.844
 8926TIP3    H126742   5.802   0.832   0.766
 8926TIP3    H226743   5.813   0.851   0.916
 8927TIP3   OH226744   6.331   2.687   3.234
 8927TIP3    H126745   6.287   2.686   3.149
 8927TIP3    H226746   6.348   2.594   3.253
 8928TIP3   OH226747   7.033   2.844   0.461
 8928TIP3    H126748   7.102   2.903   0.491
 8928TIP3    H226749   6.981   2.827   0.540
 8929TIP3   OH226750   6.892   4.344   0.593
 8929TIP3    H126751   6.830   4.316   0.525
 8929TIP3    H226752   6.974   4.361   0.545
 8930TIP3   OH226753   3.759   4.175   1.146
 8930TIP3    H126754   3.709   4.223   1.212
 8930TIP3    H226755   3.790   4.097   1.192
 8931TIP3   OH226756   3.473   1.097   2.459
 8931TIP3    H126757   3.442   1.034   2.394
 8931TIP3    H226758   3.445   1.182   2.426
 8932TIP3   OH226759   3.489   4.356   1.024
 8932TIP3    H126760   3.411   4.412   1.026
 8932TIP3    H226761   3.555   4.409   0.979
 8933TIP3   OH226762   6.106   1.921   4.218
 8933TIP3    H126763   6.148   1.856   4.274
 8933TIP3    H226764   6.162   1.926   4.141
 8934TIP3   OH226765   2.382   2.756   0.133
 8934TIP3    H126766   2.355   2.753   0.041
 8934TIP3    H226767   2.431   2.675   0.146
 8935TIP3   OH226768   3.521   2.685   5.734
 8935TIP3    H126769   3.600   2.636   5.708
 8935TIP3    H226770   3.553   2.771   5.759
 8936TIP3   OH226771   1.433   4.192   1.793
 8936TIP3    H126772   1.504   4.206   1.855
 8936TIP3    H226773   1.363   4.152   1.844
 8937TIP3   OH226774   6.267   4.274   5.181
 8937TIP3    H126775   6.330   4.258   5.251
 8937TIP3    H226776   6.312   4.334   5.122
 8938TIP3   OH226777   4.543   5.190   3.388
 8938TIP3    H126778   4.621   5.179   3.333
 8938TIP3    H226779   4.477   5.225   3.328
 8939TIP3   OH226780   5.835   5.073   0.416
 8939TIP3    H126781   5.858   5.008   0.349
 8939TIP3    H226782   5.901   5.060   0.484
 8940TIP3   OH226783   3.376   4.904   1.321
 8940TIP3    H126784   3.426   4.949   1.253
 8940TIP3    H226785   3.383   4.961   1.398
 8941TIP3   OH226786   4.729   3.770   0.269
 8941TIP3    H126787   4.731   3.726   0.355
 8941TIP3    H226788   4.743   3.699   0.206
 8942TIP3   OH226789   5.661   2.867   3.241
 8942TIP3    H126790   5.673   2.776   3.213
 8942TIP3    H226791   5.567   2.876   3.257
 8943TIP3   OH226792   0.222   4.283   1.300
 8943TIP3    H126793   0.282   4.226   1.347
 8943TIP3    H226794   0.144   4.230   1.286
 8944TIP3   OH226795   1.408   2.375   1.373
 8944TIP3    H126796   1.405   2.300   1.432
 8944TIP3    H226797   1.320   2.379   1.336
 8945TIP3   OH226798   0.656   2.619   1.067
 8945TIP3    H126799   0.566   2.648   1.079
 8945TIP3    H226800   0.682   2.586   1.153
 8946TIP3   OH226801   1.301   2.951   5.769
 8946TIP3    H126802   1.273   2.924   5.681
 8946TIP3    H226803   1.222   2.945   5.822
 8947TIP3   OH226804   0.420   5.355   2.628
 8947TIP3    H126805   0.387   5.285   2.684
 8947TIP3    H226806   0.429   5.431   2.687
 8948TIP3   OH226807   5.178   1.631   2.386
 8948TIP3    H126808   5.250   1.692   2.368
 8948TIP3    H226809   5.221   1.550   2.412
 8949TIP3   OH226810   3.783   0.675   0.067
 8949TIP3    H126811   3.707   0.727   0.094
 8949TIP3    H226812   3.853   0.703   0.126
 8950TIP3   OH226813   5.414   2.787   1.381
 8950TIP3    H126814   5.495   2.829   1.409
 8950TIP3    H226815   5.407   2.808   1.288
 8951TIP3   OH226816   6.409   3.173   5.575
 8951TIP3    H126817   6.425   3.177   5.481
 8951TIP3    H226818   6.462   3.098   5.605
 8952TIP3   OH226819   5.258   4.047   4.870
 8952TIP3    H126820   5.258   3.992   4.791
 8952TIP3    H226821   5.165   4.060   4.890
 8953TIP3   OH226822   3.230   5.456   1.995
 8953TIP3    H126823   3.265   5.372   1.966
 8953TIP3    H226824   3.136   5.441   2.007
 8954TIP3   OH226825   3.978   6.519   1.711
 8954TIP3    H126826   4.016   6.531   1.624
 8954TIP3    H226827   3.942   6.430   1.709
 8955TIP3   OH226828   2.092   2.442   4.803
 8955TIP3    H126829   2.030   2.500   4.848
 8955TIP3    H226830   2.145   2.501   4.749
 8956TIP3   OH226831   1.415   6.271   3.053
 8956TIP3    H126832   1.444   6.305   3.137
 8956TIP3    H226833   1.346   6.208   3.075
 8957TIP3   OH226834   2.748   0.407   5.710
 8957TIP3    H126835   2.788   0.337   5.762
 8957TIP3    H226836   2.662   0.372   5.685
 8958TIP3   OH226837   5.796   5.473   2.331
 8958TIP3    H126838   5.807   5.503   2.421
 8958TIP3    H226839   5.717   5.420   2.333
 8959TIP3   OH226840   2.724   2.470   1.698
 8959TIP3    H126841   2.774   2.512   1.768
 8959TIP3    H226842   2.674   2.401   1.743
 8960TIP3   OH226843   5.776   1.631   1.626
 8960TIP3    H126844   5.798   1.538   1.614
 8960TIP3    H226845   5.821   1.675   1.554
 8961TIP3   OH226846   4.508   6.243   2.739
 8961TIP3    H126847   4.500   6.310   2.806
 8961TIP3    H226848   4.588   6.266   2.692
 8962TIP3   OH226849   1.633   1.851   4.191
 8962TIP3    H126850   1.691   1.926   4.177
 8962TIP3    H226851   1.554   1.872   4.143
 8963TIP3   OH226852   1.072   4.852   0.994
 8963TIP3    H126853   1.003   4.918   1.004
 8963TIP3    H226854   1.056   4.790   1.065
 8964TIP3   OH226855   2.691   5.835   0.377
 8964TIP3    H126856   2.645   5.788   0.447
 8964TIP3    H226857   2.762   5.882   0.422
 8965TIP3   OH226858   1.857   5.057   0.398
 8965TIP3    H126859   1.869   4.967   0.369
 8965TIP3    H226860   1.800   5.097   0.332
 8966TIP3   OH226861   1.315   6.565   5.542
 8966TIP3    H126862   1.304   6.613   5.624
 8966TIP3    H226863   1.236   6.584   5.491
 8967TIP3   OH226864   1.746   4.343   5.553
 8967TIP3    H126865   1.781   4.326   5.466
 8967TIP3    H226866   1.651   4.351   5.539
 8968TIP3   OH226867   0.971   5.200   0.580
 8968TIP3    H126868   0.902   5.138   0.554
 8968TIP3    H226869   0.976   5.191   0.675
 8969TIP3   OH226870   2.419   0.029   1.616
 8969TIP3    H126871   2.493   0.039   1.556
 8969TIP3    H226872   2.350   0.084   1.578
 8970TIP3   OH226873   7.173   5.436   4.341
 8970TIP3    H126874   7.202   5.412   4.253
 8970TIP3    H226875   7.124   5.517   4.329
 8971TIP3   OH226876   5.089   1.583   1.862
 8971TIP3    H126877   5.054   1.658   1.909
 8971TIP3    H226878   5.142   1.536   1.927
 8972TIP3   OH226879   5.508   4.003   3.085
 8972TIP3    H126880   5.445   4.073   3.066
 8972TIP3    H226881   5.515   4.002   3.180
 8973TIP3   OH226882   2.557   6.522   4.510
 8973TIP3    H126883   2.470   6.546   4.479
 8973TIP3    H226884   2.573   6.580   4.584
 8974TIP3   OH226885   0.691   0.567   1.054
 8974TIP3    H126886   0.634   0.588   1.128
 8974TIP3    H226887   0.748   0.497   1.086
 8975TIP3   OH226888   1.423   4.416   2.023
 8975TIP3    H126889   1.485   4.361   2.072
 8975TIP3    H226890   1.454   4.413   1.933
 8976TIP3   OH226891   3.805   2.646   4.765
 8976TIP3    H126892   3.781   2.571   4.819
 8976TIP3    H226893   3.831   2.608   4.681
 8977TIP3   OH226894   3.675   2.411   3.590
 8977TIP3    H126895   3.623   2.332   3.577
 8977TIP3    H226896   3.618   2.483   3.561
 8978TIP3   OH226897   5.934   1.733   4.770
 8978TIP3    H126898   5.986   1.659   4.737
 8978TIP3    H226899   5.853   1.692   4.801
 8979TIP3   OH226900   1.266   0.167   5.800
 8979TIP3    H126901   1.313   0.122   5.730
 8979TIP3    H226902   1.251   0.256   5.765
 8980TIP3   OH226903   2.229   0.967   5.004
 8980TIP3    H126904   2.227   1.028   5.078
 8980TIP3    H226905   2.137   0.957   4.979
 8981TIP3   OH226906   3.281   4.688   0.489
 8981TIP3    H126907   3.346   4.733   0.543
 8981TIP3    H226908   3.280   4.738   0.407
 8982TIP3   OH226909   2.227   1.156   1.759
 8982TIP3    H126910   2.207   1.194   1.674
 8982TIP3    H226911   2.212   1.062   1.748
 8983TIP3   OH226912   0.505   6.287   4.133
 8983TIP3    H126913   0.563   6.217   4.164
 8983TIP3    H226914   0.417   6.252   4.142
 8984TIP3   OH226915   4.598   0.722   2.099
 8984TIP3    H126916   4.517   0.674   2.115
 8984TIP3    H226917   4.650   0.710   2.178
 8985TIP3   OH226918   6.700   6.402   1.833
 8985TIP3    H126919   6.633   6.451   1.879
 8985TIP3    H226920   6.658   6.319   1.809
 8986TIP3   OH226921   6.775   5.266   2.501
 8986TIP3    H126922   6.694   5.225   2.534
 8986TIP3    H226923   6.776   5.352   2.543
 8987TIP3   OH226924   6.602   5.509   5.428
 8987TIP3    H126925   6.628   5.522   5.337
 8987TIP3    H226926   6.607   5.596   5.466
 8988TIP3   OH226927   6.064   4.148   5.306
 8988TIP3    H126928   6.134   4.192   5.257
 8988TIP3    H226929   6.010   4.219   5.339
 8989TIP3   OH226930   1.081   3.726   2.470
 8989TIP3    H126931   1.041   3.664   2.409
 8989TIP3    H226932   1.012   3.789   2.490
 8990TIP3   OH226933   2.545   1.569   3.491
 8990TIP3    H126934   2.485   1.531   3.555
 8990TIP3    H226935   2.553   1.502   3.423
 8991TIP3   OH226936   6.669   6.379   0.461
 8991TIP3    H126937   6.733   6.345   0.399
 8991TIP3    H226938   6.641   6.462   0.423
 8992TIP3   OH226939   2.965   3.864   1.763
 8992TIP3    H126940   2.885   3.812   1.772
 8992TIP3    H226941   2.968   3.886   1.670
 8993TIP3   OH226942   5.046   1.740   3.522
 8993TIP3    H126943   5.105   1.743   3.597
 8993TIP3    H226944   5.096   1.778   3.450
 8994TIP3   OH226945   2.247   0.472   4.997
 8994TIP3    H126946   2.229   0.447   5.088
 8994TIP3    H226947   2.170   0.443   4.949
 8995TIP3   OH226948   3.337   3.336   4.210
 8995TIP3    H126949   3.373   3.253   4.178
 8995TIP3    H226950   3.242   3.323   4.206
 8996TIP3   OH226951   0.938   0.826   4.197
 8996TIP3    H126952   0.884   0.895   4.158
 8996TIP3    H226953   0.889   0.745   4.183
 8997TIP3   OH226954   4.355   4.189   0.060
 8997TIP3    H126955   4.414   4.242   0.007
 8997TIP3    H226956   4.396   4.103   0.063
 8998TIP3   OH226957   6.843   6.747   1.600
 8998TIP3    H126958   6.917   6.806   1.586
 8998TIP3    H226959   6.792   6.754   1.519
 8999TIP3   OH226960   1.005   0.449   4.846
 8999TIP3    H126961   1.082   0.498   4.872
 8999TIP3    H226962   1.019   0.430   4.753
 9000TIP3   OH226963   0.968   2.425   2.087
 9000TIP3    H126964   1.051   2.436   2.041
 9000TIP3    H226965   0.967   2.333   2.114
 9001TIP3   OH226966   1.862   4.601   3.729
 9001TIP3    H126967   1.844   4.508   3.743
 9001TIP3    H226968   1.955   4.610   3.749
 9002TIP3   OH226969   1.591   2.010   3.565
 9002TIP3    H126970   1.626   2.082   3.617
 9002TIP3    H226971   1.496   2.020   3.570
 9003TIP3   OH226972   6.004   1.691   1.208
 9003TIP3    H126973   6.095   1.668   1.226
 9003TIP3    H226974   5.985   1.652   1.123
 9004TIP3   OH226975   2.168   6.153   1.805
 9004TIP3    H126976   2.076   6.178   1.799
 9004TIP3    H226977   2.205   6.178   1.721
 9005TIP3   OH226978   6.974   1.939   3.498
 9005TIP3    H126979   6.943   1.914   3.585
 9005TIP3    H226980   7.063   1.904   3.494
 9006TIP3   OH226981   6.213   2.719   5.784
 9006TIP3    H126982   6.150   2.765   5.841
 9006TIP3    H226983   6.298   2.735   5.825
 9007TIP3   OH226984   0.466   5.983   3.468
 9007TIP3    H126985   0.430   5.999   3.555
 9007TIP3    H226986   0.458   5.889   3.455
 9008TIP3   OH226987   2.591   1.144   2.252
 9008TIP3    H126988   2.517   1.171   2.197
 9008TIP3    H226989   2.594   1.210   2.321
 9009TIP3   OH226990   3.295   1.765   1.809
 9009TIP3    H126991   3.314   1.672   1.821
 9009TIP3    H226992   3.373   1.800   1.765
 9010TIP3   OH226993   1.406   5.953   3.214
 9010TIP3    H126994   1.328   5.978   3.165
 9010TIP3    H226995   1.469   5.926   3.147
 9011TIP3   OH226996   1.049   2.941   3.735
 9011TIP3    H126997   0.966   2.930   3.782
 9011TIP3    H226998   1.116   2.927   3.803
 9012TIP3   OH226999   4.155   2.255   1.013
 9012TIP3    H127000   4.170   2.240   0.920
 9012TIP3    H227001   4.222   2.317   1.039
 9013TIP3   OH227002   0.034   1.762   5.377
 9013TIP3    H127003   0.114   1.807   5.404
 9013TIP3    H227004   0.045   1.749   5.283
 9014TIP3   OH227005   6.210   5.646   2.336
 9014TIP3    H127006   6.213   5.553   2.357
 9014TIP3    H227007   6.287   5.662   2.282
 9015TIP3   OH227008   5.123   2.475   2.405
 9015TIP3    H127009   5.204   2.525   2.400
 9015TIP3    H227010   5.139   2.397   2.352
 9016TIP3   OH227011   6.624   1.771   1.134
 9016TIP3    H127012   6.559   1.740   1.071
 9016TIP3    H227013   6.694   1.808   1.080
 9017TIP3   OH227014   4.626   3.126   3.852
 9017TIP3    H127015   4.666   3.168   3.776
 9017TIP3    H227016   4.648   3.183   3.926
 9018TIP3   OH227017   3.408   3.062   3.789
 9018TIP3    H127018   3.408   3.152   3.821
 9018TIP3    H227019   3.474   3.017   3.841
 9019TIP3   OH227020   1.895   6.233   1.826
 9019TIP3    H127021   1.883   6.311   1.771
 9019TIP3    H227022   1.847   6.254   1.906
 9020TIP3   OH227023   6.138   0.897   3.572
 9020TIP3    H127024   6.112   0.825   3.514
 9020TIP3    H227025   6.072   0.897   3.641
 9021TIP3   OH227026   5.993   3.914   1.157
 9021TIP3    H127027   6.073   3.966   1.142
 9021TIP3    H227028   5.922   3.976   1.144
 9022TIP3   OH227029   4.510   2.165   4.465
 9022TIP3    H127030   4.553   2.237   4.510
 9022TIP3    H227031   4.578   2.126   4.410
 9023TIP3   OH227032   1.238   6.509   1.357
 9023TIP3    H127033   1.300   6.445   1.322
 9023TIP3    H227034   1.236   6.579   1.293
 9024TIP3   OH227035   6.255   1.289   1.062
 9024TIP3    H127036   6.204   1.256   1.135
 9024TIP3    H227037   6.327   1.337   1.103
 9025TIP3   OH227038   0.311   2.101   4.914
 9025TIP3    H127039   0.390   2.154   4.928
 9025TIP3    H227040   0.255   2.122   4.989
 9026TIP3   OH227041   5.111   3.830   5.825
 9026TIP3    H127042   5.151   3.858   5.907
 9026TIP3    H227043   5.055   3.903   5.799
 9027TIP3   OH227044   3.089   3.096   4.254
 9027TIP3    H127045   3.119   3.098   4.163
 9027TIP3    H227046   2.997   3.120   4.250
 9028TIP3   OH227047   1.031   2.400   2.746
 9028TIP3    H127048   1.103   2.454   2.715
 9028TIP3    H227049   0.952   2.452   2.728
 9029TIP3   OH227050   1.844   4.028   0.333
 9029TIP3    H127051   1.866   4.027   0.426
 9029TIP3    H227052   1.763   3.978   0.327
 9030TIP3   OH227053   6.106   4.682   4.666
 9030TIP3    H127054   6.154   4.693   4.584
 9030TIP3    H227055   6.065   4.596   4.658
 9031TIP3   OH227056   0.185   3.303   5.107
 9031TIP3    H127057   0.095   3.310   5.140
 9031TIP3    H227058   0.192   3.212   5.078
 9032TIP3   OH227059   4.219   5.412   1.687
 9032TIP3    H127060   4.276   5.369   1.623
 9032TIP3    H227061   4.249   5.379   1.772
 9033TIP3   OH227062   1.584   6.014   4.137
 9033TIP3    H127063   1.593   6.072   4.212
 9033TIP3    H227064   1.590   5.925   4.173
 9034TIP3   OH227065   6.224   5.663   0.179
 9034TIP3    H127066   6.260   5.695   0.097
 9034TIP3    H227067   6.292   5.606   0.215
 9035TIP3   OH227068   1.627   2.582   3.369
 9035TIP3    H127069   1.647   2.505   3.315
 9035TIP3    H227070   1.662   2.561   3.455
 9036TIP3   OH227071   6.148   6.237   5.351
 9036TIP3    H127072   6.152   6.279   5.437
 9036TIP3    H227073   6.119   6.307   5.292
 9037TIP3   OH227074   1.191   6.064   1.453
 9037TIP3    H127075   1.191   5.982   1.403
 9037TIP3    H227076   1.107   6.064   1.498
 9038TIP3   OH227077   2.582   2.132   3.588
 9038TIP3    H127078   2.652   2.198   3.582
 9038TIP3    H227079   2.624   2.057   3.629
 9039TIP3   OH227080   6.053   3.215   1.128
 9039TIP3    H127081   6.088   3.172   1.206
 9039TIP3    H227082   6.021   3.300   1.160
 9040TIP3   OH227083   1.560   1.554   2.940
 9040TIP3    H127084   1.522   1.467   2.933
 9040TIP3    H227085   1.520   1.604   2.869
 9041TIP3   OH227086   1.309   2.496   2.162
 9041TIP3    H127087   1.403   2.489   2.146
 9041TIP3    H227088   1.268   2.470   2.080
 9042TIP3   OH227089   1.958   4.564   0.928
 9042TIP3    H127090   2.020   4.575   0.856
 9042TIP3    H227091   1.923   4.652   0.944
 9043TIP3   OH227092   3.134   0.888   5.278
 9043TIP3    H127093   3.047   0.866   5.245
 9043TIP3    H227094   3.136   0.853   5.367
 9044TIP3   OH227095   4.956   3.340   0.574
 9044TIP3    H127096   4.886   3.405   0.582
 9044TIP3    H227097   4.970   3.330   0.480
 9045TIP3   OH227098   3.578   4.992   2.945
 9045TIP3    H127099   3.596   4.954   2.859
 9045TIP3    H227100   3.595   4.920   3.007
 9046TIP3   OH227101   6.574   6.169   1.458
 9046TIP3    H127102   6.566   6.209   1.371
 9046TIP3    H227103   6.661   6.130   1.458
 9047TIP3   OH227104   2.151   2.068   4.887
 9047TIP3    H127105   2.101   2.012   4.827
 9047TIP3    H227106   2.208   2.007   4.934
 9048TIP3   OH227107   7.154   4.189   3.783
 9048TIP3    H127108   7.093   4.262   3.791
 9048TIP3    H227109   7.099   4.114   3.763
 9049TIP3   OH227110   6.071   5.759   1.116
 9049TIP3    H127111   6.142   5.728   1.061
 9049TIP3    H227112   6.024   5.823   1.062
 9050TIP3   OH227113   2.203   4.833   3.062
 9050TIP3    H127114   2.289   4.793   3.045
 9050TIP3    H227115   2.208   4.861   3.153
 9051TIP3   OH227116   1.484   6.529   2.880
 9051TIP3    H127117   1.542   6.568   2.946
 9051TIP3    H227118   1.401   6.575   2.891
 9052TIP3   OH227119   0.913   4.276   5.739
 9052TIP3    H127120   0.964   4.203   5.773
 9052TIP3    H227121   0.822   4.247   5.746
 9053TIP3   OH227122   4.756   6.132   2.348
 9053TIP3    H127123   4.831   6.093   2.302
 9053TIP3    H227124   4.680   6.109   2.294
 9054TIP3   OH227125   6.203   2.356   3.327
 9054TIP3    H127126   6.169   2.308   3.402
 9054TIP3    H227127   6.286   2.392   3.357
 9055TIP3   OH227128   4.033   3.979   5.670
 9055TIP3    H127129   4.121   3.943   5.678
 9055TIP3    H227130   3.989   3.921   5.608
 9056TIP3   OH227131   3.638   2.256   0.915
 9056TIP3    H127132   3.702   2.307   0.964
 9056TIP3    H227133   3.613   2.185   0.975
 9057TIP3   OH227134   4.097   5.305   0.995
 9057TIP3    H127135   4.110   5.307   1.090
 9057TIP3    H227136   4.121   5.392   0.965
 9058TIP3   OH227137   6.464   6.225   2.748
 9058TIP3    H127138   6.524   6.218   2.822
 9058TIP3    H227139   6.518   6.261   2.677
 9059TIP3   OH227140   4.444   2.950   3.991
 9059TIP3    H127141   4.394   2.929   3.913
 9059TIP3    H227142   4.489   3.032   3.969
 9060TIP3   OH227143   7.171   0.759   2.713
 9060TIP3    H127144   7.196   0.708   2.637
 9060TIP3    H227145   7.075   0.758   2.713
 9061TIP3   OH227146   4.431   5.450   3.939
 9061TIP3    H127147   4.415   5.508   4.013
 9061TIP3    H227148   4.492   5.499   3.884
 9062TIP3   OH227149   4.646   0.298   3.675
 9062TIP3    H127150   4.684   0.360   3.612
 9062TIP3    H227151   4.645   0.346   3.758
 9063TIP3   OH227152   4.482   2.259   4.909
 9063TIP3    H127153   4.488   2.180   4.855
 9063TIP3    H227154   4.499   2.229   4.998
 9064TIP3   OH227155   5.933   4.045   0.151
 9064TIP3    H127156   5.980   4.006   0.225
 9064TIP3    H227157   5.841   4.023   0.166
 9065TIP3   OH227158   6.875   2.930   2.339
 9065TIP3    H127159   6.834   2.960   2.420
 9065TIP3    H227160   6.861   3.002   2.277
 9066TIP3   OH227161   2.059   1.520   0.335
 9066TIP3    H127162   2.108   1.524   0.254
 9066TIP3    H227163   2.098   1.447   0.384
 9067TIP3   OH227164   2.444   0.204   5.570
 9067TIP3    H127165   2.370   0.192   5.511
 9067TIP3    H227166   2.521   0.200   5.513
 9068TIP3   OH227167   0.937   5.900   0.480
 9068TIP3    H127168   0.869   5.940   0.426
 9068TIP3    H227169   0.975   5.832   0.425
 9069TIP3   OH227170   1.818   0.001   2.830
 9069TIP3    H127171   1.772   0.046   2.900
 9069TIP3    H227172   1.782   0.037   2.749
 9070TIP3   OH227173   4.045   3.736   3.722
 9070TIP3    H127174   3.956   3.765   3.703
 9070TIP3    H227175   4.049   3.647   3.686
 9071TIP3   OH227176   1.931   2.542   1.674
 9071TIP3    H127177   1.922   2.507   1.585
 9071TIP3    H227178   2.007   2.600   1.670
 9072TIP3   OH227179   5.146   1.186   2.341
 9072TIP3    H127180   5.079   1.251   2.322
 9072TIP3    H227181   5.111   1.137   2.416
 9073TIP3   OH227182   3.493   5.021   2.441
 9073TIP3    H127183   3.488   4.927   2.422
 9073TIP3    H227184   3.447   5.031   2.524
 9074TIP3   OH227185   1.250   4.347   4.323
 9074TIP3    H127186   1.336   4.389   4.326
 9074TIP3    H227187   1.239   4.321   4.232
 9075TIP3   OH227188   4.581   4.026   3.929
 9075TIP3    H127189   4.587   4.091   4.000
 9075TIP3    H227190   4.489   3.999   3.929
 9076TIP3   OH227191   5.452   3.768   5.819
 9076TIP3    H127192   5.376   3.781   5.875
 9076TIP3    H227193   5.526   3.794   5.872
 9077TIP3   OH227194   6.504   1.344   1.338
 9077TIP3    H127195   6.504   1.249   1.346
 9077TIP3    H227196   6.523   1.361   1.246
 9078TIP3   OH227197   5.207   2.137   3.052
 9078TIP3    H127198   5.227   2.120   3.144
 9078TIP3    H227199   5.182   2.052   3.016
 9079TIP3   OH227200   6.383   4.449   4.510
 9079TIP3    H127201   6.316   4.383   4.493
 9079TIP3    H227202   6.350   4.528   4.469
 9080TIP3   OH227203   5.130   0.361   2.786
 9080TIP3    H127204   5.171   0.283   2.825
 9080TIP3    H227205   5.037   0.339   2.781
 9081TIP3   OH227206   0.192   5.577   2.652
 9081TIP3    H127207   0.153   5.653   2.696
 9081TIP3    H227208   0.241   5.532   2.721
 9082TIP3   OH227209   5.413   3.010   3.210
 9082TIP3    H127210   5.354   3.083   3.193
 9082TIP3    H227211   5.367   2.956   3.274
 9083TIP3   OH227212   3.940   2.021   3.512
 9083TIP3    H127213   3.937   2.070   3.430
 9083TIP3    H227214   3.850   1.993   3.527
 9084TIP3   OH227215   4.236   0.733   1.990
 9084TIP3    H127216   4.301   0.706   2.054
 9084TIP3    H227217   4.152   0.715   2.033
 9085TIP3   OH227218   3.611   6.658   3.329
 9085TIP3    H127219   3.601   6.736   3.275
 9085TIP3    H227220   3.651   6.689   3.410
 9086TIP3   OH227221   5.617   4.356   2.481
 9086TIP3    H127222   5.597   4.265   2.502
 9086TIP3    H227223   5.594   4.366   2.388
 9087TIP3   OH227224   3.981   2.872   5.637
 9087TIP3    H127225   3.888   2.863   5.659
 9087TIP3    H227226   3.988   2.959   5.599
 9088TIP3   OH227227   6.376   3.348   1.803
 9088TIP3    H127228   6.460   3.308   1.782
 9088TIP3    H227229   6.315   3.274   1.807
 9089TIP3   OH227230   1.212   1.225   3.796
 9089TIP3    H127231   1.228   1.312   3.758
 9089TIP3    H227232   1.150   1.241   3.867
 9090TIP3   OH227233   5.382   3.383   5.829
 9090TIP3    H127234   5.385   3.451   5.761
 9090TIP3    H227235   5.473   3.365   5.850
 9091TIP3   OH227236   5.492   5.574   4.013
 9091TIP3    H127237   5.559   5.638   4.039
 9091TIP3    H227238   5.485   5.515   4.088
 9092TIP3   OH227239   3.107   5.617   0.477
 9092TIP3    H127240   3.109   5.695   0.533
 9092TIP3    H227241   3.020   5.579   0.492
 9093TIP3   OH227242   2.901   2.421   5.661
 9093TIP3    H127243   2.915   2.437   5.755
 9093TIP3    H227244   2.970   2.359   5.637
 9094TIP3   OH227245   4.483   4.852   0.239
 9094TIP3    H127246   4.571   4.888   0.228
 9094TIP3    H227247   4.424   4.927   0.234
 9095TIP3   OH227248   4.451   2.611   5.824
 9095TIP3    H127249   4.539   2.637   5.854
 9095TIP3    H227250   4.392   2.674   5.864
 9096TIP3   OH227251   3.209   6.321   5.363
 9096TIP3    H127252   3.208   6.414   5.339
 9096TIP3    H227253   3.198   6.274   5.280
 9097TIP3   OH227254   3.689   2.062   2.105
 9097TIP3    H127255   3.720   1.996   2.043
 9097TIP3    H227256   3.753   2.060   2.176
 9098TIP3   OH227257   6.251   6.515   0.172
 9098TIP3    H127258   6.319   6.564   0.126
 9098TIP3    H227259   6.169   6.543   0.130
 9099TIP3   OH227260   2.074   5.390   2.277
 9099TIP3    H127261   1.994   5.386   2.330
 9099TIP3    H227262   2.119   5.307   2.295
 9100TIP3   OH227263   4.703   5.402   0.745
 9100TIP3    H127264   4.772   5.438   0.800
 9100TIP3    H227265   4.674   5.323   0.790
 9101TIP3   OH227266   1.734   2.400   2.667
 9101TIP3    H127267   1.804   2.413   2.603
 9101TIP3    H227268   1.776   2.361   2.743
 9102TIP3   OH227269   2.658   5.854   4.135
 9102TIP3    H127270   2.568   5.865   4.167
 9102TIP3    H227271   2.658   5.768   4.093
 9103TIP3   OH227272   6.989   0.208   0.134
 9103TIP3    H127273   6.983   0.290   0.183
 9103TIP3    H227274   6.958   0.230   0.046
 9104TIP3   OH227275   5.701   5.401   0.741
 9104TIP3    H127276   5.618   5.357   0.762
 9104TIP3    H227277   5.688   5.491   0.771
 9105TIP3   OH227278   3.404   4.693   4.550
 9105TIP3    H127279   3.319   4.727   4.577
 9105TIP3    H227280   3.399   4.599   4.571
 9106TIP3   OH227281   0.481   1.253   4.104
 9106TIP3    H127282   0.519   1.199   4.172
 9106TIP3    H227283   0.450   1.332   4.149
 9107TIP3   OH227284   3.391   3.679   3.667
 9107TIP3    H127285   3.468   3.647   3.715
 9107TIP3    H227286   3.415   3.768   3.640
 9108TIP3   OH227287   4.934   6.774   3.818
 9108TIP3    H127288   4.867   6.710   3.844
 9108TIP3    H227289   5.003   6.765   3.884
 9109TIP3   OH227290   2.256   5.568   4.014
 9109TIP3    H127291   2.297   5.483   3.996
 9109TIP3    H227292   2.179   5.547   4.066
 9110TIP3   OH227293   2.162   0.202   4.550
 9110TIP3    H127294   2.250   0.224   4.518
 9110TIP3    H227295   2.177   0.130   4.612
 9111TIP3   OH227296   0.966   0.123   0.150
 9111TIP3    H127297   0.918   0.150   0.072
 9111TIP3    H227298   1.034   0.189   0.161
 9112TIP3   OH227299   4.712   4.978   5.127
 9112TIP3    H127300   4.796   4.952   5.087
 9112TIP3    H227301   4.693   5.063   5.088
 9113TIP3   OH227302   4.098   3.804   4.314
 9113TIP3    H127303   4.057   3.718   4.303
 9113TIP3    H227304   4.186   3.794   4.277
 9114TIP3   OH227305   1.886   3.643   2.817
 9114TIP3    H127306   1.819   3.649   2.749
 9114TIP3    H227307   1.849   3.583   2.882
 9115TIP3   OH227308   3.944   1.542   4.715
 9115TIP3    H127309   3.995   1.603   4.767
 9115TIP3    H227310   4.007   1.474   4.689
 9116TIP3   OH227311   2.253   6.774   2.582
 9116TIP3    H127312   2.344   6.772   2.552
 9116TIP3    H227313   2.240   6.689   2.624
 9117TIP3   OH227314   2.022   4.646   1.213
 9117TIP3    H127315   2.011   4.602   1.129
 9117TIP3    H227316   2.106   4.692   1.206
 9118TIP3   OH227317   0.444   3.283   4.975
 9118TIP3    H127318   0.509   3.220   5.005
 9118TIP3    H227319   0.382   3.290   5.047
 9119TIP3   OH227320   3.698   2.034   3.980
 9119TIP3    H127321   3.640   2.043   3.905
 9119TIP3    H227322   3.784   2.060   3.948
 9120TIP3   OH227323   1.748   5.260   5.800
 9120TIP3    H127324   1.698   5.218   5.729
 9120TIP3    H227325   1.816   5.196   5.822
 9121TIP3   OH227326   3.685   4.768   5.617
 9121TIP3    H127327   3.591   4.769   5.599
 9121TIP3    H227328   3.724   4.818   5.546
 9122TIP3   OH227329   6.237   5.287   4.759
 9122TIP3    H127330   6.281   5.228   4.697
 9122TIP3    H227331   6.250   5.247   4.844
 9123TIP3   OH227332   3.791   3.008   1.593
 9123TIP3    H127333   3.861   2.944   1.605
 9123TIP3    H227334   3.832   3.093   1.610
 9124TIP3   OH227335   2.796   3.858   3.983
 9124TIP3    H127336   2.740   3.881   3.909
 9124TIP3    H227337   2.795   3.936   4.039
 9125TIP3   OH227338   5.684   6.337   2.328
 9125TIP3    H127339   5.722   6.254   2.356
 9125TIP3    H227340   5.712   6.400   2.395
 9126TIP3   OH227341   0.444   4.407   1.425
 9126TIP3    H127342   0.358   4.445   1.410
 9126TIP3    H227343   0.427   4.314   1.442
 9127TIP3   OH227344   1.194   0.470   2.801
 9127TIP3    H127345   1.126   0.497   2.740
 9127TIP3    H227346   1.242   0.401   2.756
 9128TIP3   OH227347   1.858   2.488   2.149
 9128TIP3    H127348   1.813   2.444   2.077
 9128TIP3    H227349   1.823   2.446   2.228
 9129TIP3   OH227350   0.703   2.205   2.303
 9129TIP3    H127351   0.777   2.249   2.344
 9129TIP3    H227352   0.642   2.275   2.280
 9130TIP3   OH227353   7.185   4.224   5.409
 9130TIP3    H127354   7.228   4.158   5.355
 9130TIP3    H227355   7.100   4.186   5.431
 9131TIP3   OH227356   4.682   2.486   5.433
 9131TIP3    H127357   4.772   2.464   5.456
 9131TIP3    H227358   4.667   2.444   5.349
 9132TIP3   OH227359   2.639   0.309   2.803
 9132TIP3    H127360   2.687   0.236   2.843
 9132TIP3    H227361   2.547   0.287   2.815
 9133TIP3   OH227362   3.024   4.752   0.598
 9133TIP3    H127363   3.101   4.698   0.582
 9133TIP3    H227364   3.026   4.771   0.691
 9134TIP3   OH227365   3.066   2.777   5.297
 9134TIP3    H127366   3.010   2.748   5.225
 9134TIP3    H227367   3.124   2.703   5.313
 9135TIP3   OH227368   2.893   1.364   4.252
 9135TIP3    H127369   2.845   1.343   4.171
 9135TIP3    H227370   2.827   1.403   4.309
 9136TIP3   OH227371   3.902   0.429   3.647
 9136TIP3    H127372   3.879   0.422   3.555
 9136TIP3    H227373   3.995   0.406   3.650
 9137TIP3   OH227374   5.560   3.487   5.447
 9137TIP3    H127375   5.551   3.395   5.468
 9137TIP3    H227376   5.498   3.532   5.504
 9138TIP3   OH227377   6.159   3.876   1.619
 9138TIP3    H127378   6.222   3.941   1.652
 9138TIP3    H227379   6.159   3.890   1.524
 9139TIP3   OH227380   4.343   4.155   0.764
 9139TIP3    H127381   4.248   4.162   0.774
 9139TIP3    H227382   4.357   4.162   0.670
 9140TIP3   OH227383   5.825   6.508   4.795
 9140TIP3    H127384   5.763   6.499   4.723
 9140TIP3    H227385   5.770   6.526   4.872
 9141TIP3   OH227386   5.101   3.854   4.689
 9141TIP3    H127387   5.107   3.888   4.600
 9141TIP3    H227388   5.178   3.797   4.697
 9142TIP3   OH227389   2.108   1.851   1.496
 9142TIP3    H127390   2.176   1.846   1.429
 9142TIP3    H227391   2.151   1.822   1.576
 9143TIP3   OH227392   1.358   4.562   5.388
 9143TIP3    H127393   1.302   4.513   5.327
 9143TIP3    H227394   1.301   4.584   5.461
 9144TIP3   OH227395   5.639   2.028   2.230
 9144TIP3    H127396   5.725   1.987   2.239
 9144TIP3    H227397   5.602   1.989   2.151
 9145TIP3   OH227398   1.205   0.352   2.353
 9145TIP3    H127399   1.258   0.319   2.280
 9145TIP3    H227400   1.120   0.372   2.313
 9146TIP3   OH227401   1.295   3.562   2.586
 9146TIP3    H127402   1.214   3.595   2.549
 9146TIP3    H227403   1.328   3.499   2.521
 9147TIP3   OH227404   6.839   3.349   0.976
 9147TIP3    H127405   6.899   3.353   0.901
 9147TIP3    H227406   6.753   3.370   0.939
 9148TIP3   OH227407   0.599   6.610   2.122
 9148TIP3    H127408   0.591   6.591   2.029
 9148TIP3    H227409   0.691   6.593   2.143
 9149TIP3   OH227410   6.779   2.895   5.845
 9149TIP3    H127411   6.866   2.934   5.833
 9149TIP3    H227412   6.738   2.949   5.912
 9150TIP3   OH227413   0.800   4.409   0.635
 9150TIP3    H127414   0.856   4.383   0.708
 9150TIP3    H227415   0.835   4.493   0.606
 9151TIP3   OH227416   2.331   0.904   4.077
 9151TIP3    H127417   2.404   0.914   4.016
 9151TIP3    H227418   2.313   0.810   4.078
 9152TIP3   OH227419   3.130   5.526   1.325
 9152TIP3    H127420   3.106   5.441   1.361
 9152TIP3    H227421   3.196   5.506   1.259
 9153TIP3   OH227422   0.567   2.317   5.836
 9153TIP3    H127423   0.564   2.401   5.883
 9153TIP3    H227424   0.633   2.266   5.883
 9154TIP3   OH227425   6.967   3.997   3.749
 9154TIP3    H127426   6.957   3.979   3.842
 9154TIP3    H227427   6.881   3.980   3.711
 9155TIP3   OH227428   4.022   3.503   4.631
 9155TIP3    H127429   4.100   3.549   4.659
 9155TIP3    H227430   3.985   3.468   4.713
 9156TIP3   OH227431   7.155   3.681   1.210
 9156TIP3    H127432   7.085   3.647   1.265
 9156TIP3    H227433   7.169   3.613   1.144
 9157TIP3   OH227434   4.271   2.752   1.560
 9157TIP3    H127435   4.267   2.710   1.474
 9157TIP3    H227436   4.184   2.789   1.573
 9158TIP3   OH227437   2.107   0.450   1.494
 9158TIP3    H127438   2.115   0.524   1.433
 9158TIP3    H227439   2.187   0.453   1.546
 9159TIP3   OH227440   3.085   6.557   3.751
 9159TIP3    H127441   3.016   6.541   3.686
 9159TIP3    H227442   3.151   6.491   3.733
 9160TIP3   OH227443   6.110   2.894   3.683
 9160TIP3    H127444   6.098   2.801   3.700
 9160TIP3    H227445   6.058   2.911   3.604
 9161TIP3   OH227446   5.388   6.243   0.664
 9161TIP3    H127447   5.345   6.157   0.667
 9161TIP3    H227448   5.460   6.236   0.726
 9162TIP3   OH227449   6.631   2.696   3.997
 9162TIP3    H127450   6.613   2.745   3.916
 9162TIP3    H227451   6.621   2.762   4.067
 9163TIP3   OH227452   0.440   6.316   3.332
 9163TIP3    H127453   0.377   6.292   3.400
 9163TIP3    H227454   0.512   6.357   3.379
 9164TIP3   OH227455   1.088   3.816   3.177
 9164TIP3    H127456   1.061   3.858   3.096
 9164TIP3    H227457   1.083   3.885   3.243
 9165TIP3   OH227458   5.540   0.172   0.210
 9165TIP3    H127459   5.623   0.196   0.252
 9165TIP3    H227460   5.535   0.229   0.134
 9166TIP3   OH227461   5.560   1.078   4.153
 9166TIP3    H127462   5.592   1.156   4.108
 9166TIP3    H227463   5.477   1.104   4.192
 9167TIP3   OH227464   1.586   0.112   5.275
 9167TIP3    H127465   1.575   0.044   5.342
 9167TIP3    H227466   1.666   0.088   5.230
 9168TIP3   OH227467   3.071   3.734   4.184
 9168TIP3    H127468   3.076   3.722   4.089
 9168TIP3    H227469   2.978   3.740   4.203
 9169TIP3   OH227470   2.109   4.170   5.600
 9169TIP3    H127471   2.150   4.111   5.663
 9169TIP3    H227472   2.028   4.126   5.574
 9170TIP3   OH227473   4.095   5.886   0.964
 9170TIP3    H127474   4.130   5.922   1.045
 9170TIP3    H227475   4.167   5.893   0.902
 9171TIP3   OH227476   4.234   5.564   0.986
 9171TIP3    H127477   4.252   5.607   0.902
 9171TIP3    H227478   4.319   5.565   1.031
 9172TIP3   OH227479   6.000   1.199   5.494
 9172TIP3    H127480   5.972   1.240   5.576
 9172TIP3    H227481   6.036   1.272   5.442
 9173TIP3   OH227482   0.041   1.477   4.046
 9173TIP3    H127483   0.062   1.484   4.139
 9173TIP3    H227484  -0.030   1.413   4.041
 9174TIP3   OH227485   0.332   6.685   4.060
 9174TIP3    H127486   0.426   6.698   4.048
 9174TIP3    H227487   0.293   6.771   4.041
 9175TIP3   OH227488   6.676   1.372   4.394
 9175TIP3    H127489   6.673   1.379   4.489
 9175TIP3    H227490   6.768   1.355   4.374
 9176TIP3   OH227491   3.834   1.870   1.420
 9176TIP3    H127492   3.800   1.956   1.444
 9176TIP3    H227493   3.899   1.888   1.352
 9177TIP3   OH227494   6.337   6.493   4.414
 9177TIP3    H127495   6.425   6.466   4.442
 9177TIP3    H227496   6.280   6.470   4.487
 9178TIP3   OH227497   5.498   6.027   1.385
 9178TIP3    H127498   5.445   6.107   1.377
 9178TIP3    H227499   5.526   6.025   1.476
 9179TIP3   OH227500   1.660   1.868   2.159
 9179TIP3    H127501   1.700   1.943   2.114
 9179TIP3    H227502   1.575   1.900   2.188
 9180TIP3   OH227503   1.935   2.484   0.052
 9180TIP3    H127504   2.000   2.415   0.067
 9180TIP3    H227505   1.879   2.482   0.130
 9181TIP3   OH227506   2.644   0.842   2.184
 9181TIP3    H127507   2.627   0.928   2.223
 9181TIP3    H227508   2.631   0.856   2.090
 9182TIP3   OH227509   3.434   0.237   5.210
 9182TIP3    H127510   3.364   0.173   5.197
 9182TIP3    H227511   3.408   0.286   5.287
 9183TIP3   OH227512   0.097   4.288   3.304
 9183TIP3    H127513   0.002   4.277   3.302
 9183TIP3    H227514   0.120   4.285   3.397
 9184TIP3   OH227515   2.630   5.328   1.712
 9184TIP3    H127516   2.569   5.268   1.669
 9184TIP3    H227517   2.630   5.405   1.655
 9185TIP3   OH227518   6.146   4.151   2.948
 9185TIP3    H127519   6.137   4.207   3.025
 9185TIP3    H227520   6.079   4.083   2.960
 9186TIP3   OH227521   4.363   5.558   3.481
 9186TIP3    H127522   4.449   5.515   3.477
 9186TIP3    H227523   4.314   5.520   3.408
 9187TIP3   OH227524   4.760   2.185   1.830
 9187TIP3    H127525   4.827   2.220   1.771
 9187TIP3    H227526   4.791   2.206   1.918
 9188TIP3   OH227527   4.585   6.350   5.019
 9188TIP3    H127528   4.655   6.368   4.956
 9188TIP3    H227529   4.516   6.411   4.995
 9189TIP3   OH227530   1.385   3.502   2.333
 9189TIP3    H127531   1.407   3.467   2.247
 9189TIP3    H227532   1.323   3.573   2.315
 9190TIP3   OH227533   1.651   1.136   4.343
 9190TIP3    H127534   1.586   1.206   4.337
 9190TIP3    H227535   1.735   1.179   4.327
 9191TIP3   OH227536   3.926   1.076   4.276
 9191TIP3    H127537   3.870   1.026   4.336
 9191TIP3    H227538   3.916   1.167   4.304
 9192TIP3   OH227539   3.432   6.024   5.359
 9192TIP3    H127540   3.518   5.989   5.334
 9192TIP3    H227541   3.436   6.116   5.335
 9193TIP3   OH227542   1.278   5.555   0.660
 9193TIP3    H127543   1.261   5.594   0.575
 9193TIP3    H227544   1.263   5.461   0.647
 9194TIP3   OH227545   6.533   6.268   2.470
 9194TIP3    H127546   6.457   6.211   2.465
 9194TIP3    H227547   6.586   6.244   2.395
 9195TIP3   OH227548   2.210   3.851   0.427
 9195TIP3    H127549   2.221   3.858   0.522
 9195TIP3    H227550   2.258   3.926   0.393
 9196TIP3   OH227551   3.931   0.020   2.972
 9196TIP3    H127552   3.840  -0.002   2.994
 9196TIP3    H227553   3.936   0.115   2.981
 9197TIP3   OH227554   4.571   3.930   1.123
 9197TIP3    H127555   4.591   3.836   1.120
 9197TIP3    H227556   4.638   3.967   1.180
 9198TIP3   OH227557   6.836   4.236   2.198
 9198TIP3    H127558   6.777   4.203   2.130
 9198TIP3    H227559   6.779   4.254   2.273
 9199TIP3   OH227560   0.678   1.798   3.005
 9199TIP3    H127561   0.689   1.714   3.049
 9199TIP3    H227562   0.586   1.800   2.980
 9200TIP3   OH227563   0.308   1.969   0.086
 9200TIP3    H127564   0.311   1.918   0.006
 9200TIP3    H227565   0.387   2.023   0.084
 9201TIP3   OH227566   2.723   0.821   4.250
 9201TIP3    H127567   2.659   0.761   4.210
 9201TIP3    H227568   2.737   0.785   4.338
 9202TIP3   OH227569   6.317   0.008   0.720
 9202TIP3    H127570   6.227   0.031   0.740
 9202TIP3    H227571   6.322   0.008   0.624
 9203TIP3   OH227572   0.859   3.259   0.020
 9203TIP3    H127573   0.804   3.281   0.095
 9203TIP3    H227574   0.903   3.177   0.045
 9204TIP3   OH227575   6.694   3.587   3.385
 9204TIP3    H127576   6.650   3.504   3.404
 9204TIP3    H227577   6.711   3.626   3.471
 9205TIP3   OH227578   2.807   0.145   2.965
 9205TIP3    H127579   2.896   0.171   2.941
 9205TIP3    H227580   2.782   0.205   3.036
 9206TIP3   OH227581   5.747   4.343   0.596
 9206TIP3    H127582   5.749   4.396   0.517
 9206TIP3    H227583   5.749   4.406   0.668
 9207TIP3   OH227584   1.766   1.292   3.822
 9207TIP3    H127585   1.826   1.311   3.894
 9207TIP3    H227586   1.734   1.378   3.794
 9208TIP3   OH227587   1.752   3.603   2.049
 9208TIP3    H127588   1.755   3.594   1.954
 9208TIP3    H227589   1.721   3.692   2.063
 9209TIP3   OH227590   2.114   4.234   4.757
 9209TIP3    H127591   2.136   4.327   4.762
 9209TIP3    H227592   2.181   4.196   4.700
 9210TIP3   OH227593   5.800   5.284   3.130
 9210TIP3    H127594   5.895   5.272   3.128
 9210TIP3    H227595   5.780   5.307   3.220
 9211TIP3   OH227596   2.558   1.614   1.308
 9211TIP3    H127597   2.609   1.599   1.228
 9211TIP3    H227598   2.624   1.623   1.377
 9212TIP3   OH227599   4.308   1.088   0.544
 9212TIP3    H127600   4.302   1.134   0.460
 9212TIP3    H227601   4.265   1.145   0.607
 9213TIP3   OH227602   3.641   6.572   2.460
 9213TIP3    H127603   3.697   6.550   2.535
 9213TIP3    H227604   3.562   6.609   2.499
 9214TIP3   OH227605   1.190   2.320   3.379
 9214TIP3    H127606   1.173   2.320   3.285
 9214TIP3    H227607   1.112   2.359   3.418
 9215TIP3   OH227608   6.635   1.599   3.700
 9215TIP3    H127609   6.669   1.513   3.723
 9215TIP3    H227610   6.712   1.649   3.674
 9216TIP3   OH227611   3.205   5.674   3.834
 9216TIP3    H127612   3.113   5.699   3.839
 9216TIP3    H227613   3.246   5.747   3.786
 9217TIP3   OH227614   1.521   5.188   5.654
 9217TIP3    H127615   1.463   5.240   5.711
 9217TIP3    H227616   1.521   5.236   5.571
 9218TIP3   OH227617   4.184   3.973   4.824
 9218TIP3    H127618   4.101   3.947   4.865
 9218TIP3    H227619   4.165   3.972   4.730
 9219TIP3   OH227620   5.208   6.732   0.459
 9219TIP3    H127621   5.177   6.641   0.462
 9219TIP3    H227622   5.197   6.758   0.367
 9220TIP3   OH227623   5.674   3.578   3.655
 9220TIP3    H127624   5.709   3.495   3.624
 9220TIP3    H227625   5.623   3.612   3.581
 9221TIP3   OH227626   4.192   6.157   0.639
 9221TIP3    H127627   4.244   6.126   0.565
 9221TIP3    H227628   4.195   6.252   0.633
 9222TIP3   OH227629   6.878   3.830   2.208
 9222TIP3    H127630   6.932   3.796   2.280
 9222TIP3    H227631   6.889   3.766   2.138
 9223TIP3   OH227632   6.258   0.277   1.528
 9223TIP3    H127633   6.239   0.307   1.617
 9223TIP3    H227634   6.176   0.241   1.496
 9224TIP3   OH227635   5.297   3.233   1.541
 9224TIP3    H127636   5.237   3.195   1.605
 9224TIP3    H227637   5.379   3.246   1.588
 9225TIP3   OH227638   5.140   4.342   5.228
 9225TIP3    H127639   5.155   4.255   5.190
 9225TIP3    H227640   5.223   4.365   5.269
 9226TIP3   OH227641   6.789   2.790   2.052
 9226TIP3    H127642   6.864   2.787   2.112
 9226TIP3    H227643   6.712   2.784   2.110
 9227TIP3   OH227644   1.153   4.280   1.998
 9227TIP3    H127645   1.132   4.345   1.931
 9227TIP3    H227646   1.242   4.301   2.026
 9228TIP3   OH227647   2.248   5.820   0.885
 9228TIP3    H127648   2.159   5.787   0.879
 9228TIP3    H227649   2.243   5.910   0.853
 9229TIP3   OH227650   3.108   6.398   4.000
 9229TIP3    H127651   3.132   6.459   4.070
 9229TIP3    H227652   3.105   6.451   3.921
 9230TIP3   OH227653   1.552   1.661   4.414
 9230TIP3    H127654   1.623   1.719   4.441
 9230TIP3    H227655   1.539   1.682   4.321
 9231TIP3   OH227656   3.469   2.611   1.364
 9231TIP3    H127657   3.534   2.655   1.308
 9231TIP3    H227658   3.456   2.671   1.437
 9232TIP3   OH227659   4.318   5.273   2.351
 9232TIP3    H127660   4.331   5.364   2.378
 9232TIP3    H227661   4.236   5.247   2.393
 9233TIP3   OH227662   2.386   2.590   3.050
 9233TIP3    H127663   2.353   2.558   3.134
 9233TIP3    H227664   2.364   2.683   3.050
 9234TIP3   OH227665   3.860   3.806   5.253
 9234TIP3    H127666   3.932   3.859   5.219
 9234TIP3    H227667   3.781   3.854   5.229
 9235TIP3   OH227668   3.520   1.581   2.211
 9235TIP3    H127669   3.592   1.644   2.199
 9235TIP3    H227670   3.548   1.526   2.284
 9236TIP3   OH227671   3.654   5.947   5.078
 9236TIP3    H127672   3.640   5.870   5.133
 9236TIP3    H227673   3.631   5.918   4.990
 9237TIP3   OH227674   6.704   1.273   2.825
 9237TIP3    H127675   6.662   1.354   2.855
 9237TIP3    H227676   6.676   1.208   2.889
 9238TIP3   OH227677   3.151   5.547   0.091
 9238TIP3    H127678   3.141   5.486   0.164
 9238TIP3    H227679   3.216   5.610   0.121
 9239TIP3   OH227680   3.734   2.420   0.439
 9239TIP3    H127681   3.723   2.492   0.376
 9239TIP3    H227682   3.654   2.421   0.491
 9240TIP3   OH227683   2.601   0.349   2.526
 9240TIP3    H127684   2.603   0.353   2.622
 9240TIP3    H227685   2.514   0.384   2.503
 9241TIP3   OH227686   2.045   2.522   2.895
 9241TIP3    H127687   2.003   2.525   2.981
 9241TIP3    H227688   1.986   2.470   2.841
 9242TIP3   OH227689   1.872   5.392   2.946
 9242TIP3    H127690   1.813   5.447   2.997
 9242TIP3    H227691   1.866   5.425   2.857
 9243TIP3   OH227692   4.241   5.589   4.220
 9243TIP3    H127693   4.311   5.652   4.203
 9243TIP3    H227694   4.198   5.620   4.300
 9244TIP3   OH227695   5.449   6.784   0.068
 9244TIP3    H127696   5.515   6.714   0.067
 9244TIP3    H227697   5.447   6.817  -0.021
 9245TIP3   OH227698   5.623   1.410   4.115
 9245TIP3    H127699   5.667   1.368   4.042
 9245TIP3    H227700   5.685   1.475   4.147
 9246TIP3   OH227701   6.459   5.519   0.975
 9246TIP3    H127702   6.450   5.432   1.015
 9246TIP3    H227703   6.476   5.502   0.883
 9247TIP3   OH227704   3.737   1.016   2.436
 9247TIP3    H127705   3.774   0.949   2.377
 9247TIP3    H227706   3.645   1.021   2.413
 9248TIP3   OH227707   4.183   3.353   5.034
 9248TIP3    H127708   4.153   3.441   5.011
 9248TIP3    H227709   4.278   3.361   5.043
 9249TIP3   OH227710   2.278   3.949   2.517
 9249TIP3    H127711   2.224   3.919   2.444
 9249TIP3    H227712   2.246   3.901   2.593
 9250TIP3   OH227713   3.606   4.564   3.943
 9250TIP3    H127714   3.654   4.571   3.860
 9250TIP3    H227715   3.672   4.575   4.011
 9251TIP3   OH227716   0.238   6.286   4.218
 9251TIP3    H127717   0.170   6.253   4.277
 9251TIP3    H227718   0.250   6.377   4.244
 9252TIP3   OH227719   0.411   3.286   3.889
 9252TIP3    H127720   0.463   3.206   3.892
 9252TIP3    H227721   0.476   3.357   3.885
 9253TIP3   OH227722   0.990   5.234   3.646
 9253TIP3    H127723   1.072   5.187   3.663
 9253TIP3    H227724   1.000   5.317   3.693
 9254TIP3   OH227725   6.050   5.449   4.641
 9254TIP3    H127726   6.103   5.475   4.566
 9254TIP3    H227727   6.101   5.380   4.684
 9255TIP3   OH227728   4.596   6.326   3.636
 9255TIP3    H127729   4.582   6.242   3.591
 9255TIP3    H227730   4.671   6.310   3.694
 9256TIP3   OH227731   4.023   4.458   4.755
 9256TIP3    H127732   4.100   4.467   4.700
 9256TIP3    H227733   4.032   4.527   4.821
 9257TIP3   OH227734   0.204   2.710   2.272
 9257TIP3    H127735   0.133   2.756   2.314
 9257TIP3    H227736   0.273   2.706   2.338
 9258TIP3   OH227737   1.799   1.831   5.089
 9258TIP3    H127738   1.737   1.793   5.151
 9258TIP3    H227739   1.855   1.757   5.064
 9259TIP3   OH227740   0.495   6.645   0.841
 9259TIP3    H127741   0.568   6.703   0.862
 9259TIP3    H227742   0.467   6.609   0.925
 9260TIP3   OH227743   0.313   2.437   2.258
 9260TIP3    H127744   0.257   2.513   2.277
 9260TIP3    H227745   0.275   2.366   2.309
 9261TIP3   OH227746   3.666   1.416   0.772
 9261TIP3    H127747   3.607   1.488   0.750
 9261TIP3    H227748   3.648   1.350   0.704
 9262TIP3   OH227749   5.254   0.349   3.936
 9262TIP3    H127750   5.349   0.340   3.945
 9262TIP3    H227751   5.226   0.266   3.897
 9263TIP3   OH227752   3.535   2.612   1.667
 9263TIP3    H127753   3.449   2.570   1.666
 9263TIP3    H227754   3.592   2.552   1.619
 9264TIP3   OH227755   6.556   5.714   3.234
 9264TIP3    H127756   6.604   5.634   3.256
 9264TIP3    H227757   6.519   5.696   3.147
 9265TIP3   OH227758   2.503   6.062   1.342
 9265TIP3    H127759   2.494   6.157   1.347
 9265TIP3    H227760   2.589   6.044   1.378
 9266TIP3   OH227761   0.943   6.396   2.090
 9266TIP3    H127762   0.976   6.484   2.106
 9266TIP3    H227763   0.915   6.365   2.176
 9267TIP3   OH227764   6.858   6.237   3.932
 9267TIP3    H127765   6.882   6.321   3.893
 9267TIP3    H227766   6.937   6.184   3.927
 9268TIP3   OH227767   1.190   4.844   3.513
 9268TIP3    H127768   1.229   4.780   3.572
 9268TIP3    H227769   1.227   4.928   3.540
 9269TIP3   OH227770   6.336   0.548   2.476
 9269TIP3    H127771   6.368   0.582   2.560
 9269TIP3    H227772   6.390   0.592   2.411
 9270TIP3   OH227773   2.500   4.475   4.924
 9270TIP3    H127774   2.468   4.476   5.014
 9270TIP3    H227775   2.502   4.567   4.898
 9271TIP3   OH227776   4.551   1.316   0.304
 9271TIP3    H127777   4.591   1.394   0.265
 9271TIP3    H227778   4.617   1.247   0.291
 9272TIP3   OH227779   2.133   6.688   2.932
 9272TIP3    H127780   2.085   6.621   2.981
 9272TIP3    H227781   2.168   6.747   2.999
 9273TIP3   OH227782   4.589   5.436   5.887
 9273TIP3    H127783   4.598   5.454   5.793
 9273TIP3    H227784   4.572   5.521   5.926
 9274TIP3   OH227785   4.533   0.961   2.368
 9274TIP3    H127786   4.596   1.033   2.361
 9274TIP3    H227787   4.570   0.903   2.434
 9275TIP3   OH227788   2.586   0.374   1.822
 9275TIP3    H127789   2.525   0.385   1.749
 9275TIP3    H227790   2.546   0.307   1.877
 9276TIP3   OH227791   6.493   4.190   0.663
 9276TIP3    H127792   6.476   4.097   0.682
 9276TIP3    H227793   6.551   4.188   0.587
 9277TIP3   OH227794   2.274   1.706   2.753
 9277TIP3    H127795   2.251   1.686   2.662
 9277TIP3    H227796   2.342   1.773   2.745
 9278TIP3   OH227797   0.088   2.445   3.920
 9278TIP3    H127798   0.130   2.374   3.969
 9278TIP3    H227799  -0.006   2.431   3.933
 9279TIP3   OH227800   4.775   5.219   4.124
 9279TIP3    H127801   4.836   5.221   4.049
 9279TIP3    H227802   4.780   5.307   4.161
 9280TIP3   OH227803   5.952   0.530   0.848
 9280TIP3    H127804   5.903   0.611   0.835
 9280TIP3    H227805   5.894   0.476   0.903
 9281TIP3   OH227806   4.516   2.177   2.350
 9281TIP3    H127807   4.528   2.271   2.364
 9281TIP3    H227808   4.427   2.168   2.318
 9282TIP3   OH227809   6.014   6.756   2.422
 9282TIP3    H127810   6.079   6.688   2.444
 9282TIP3    H227811   6.058   6.838   2.441
 9283TIP3   OH227812   6.090   6.482   0.457
 9283TIP3    H127813   6.007   6.452   0.494
 9283TIP3    H227814   6.069   6.565   0.415
 9284TIP3   OH227815   5.878   5.179   0.107
 9284TIP3    H127816   5.934   5.144   0.038
 9284TIP3    H227817   5.856   5.103   0.160
 9285TIP3   OH227818   6.714   0.636   5.119
 9285TIP3    H127819   6.784   0.637   5.054
 9285TIP3    H227820   6.721   0.549   5.159
 9286TIP3   OH227821   1.612   0.341   1.940
 9286TIP3    H127822   1.686   0.296   1.900
 9286TIP3    H227823   1.567   0.383   1.866
 9287TIP3   OH227824   1.754   2.985   1.802
 9287TIP3    H127825   1.773   2.895   1.828
 9287TIP3    H227826   1.830   3.035   1.829
 9288TIP3   OH227827   6.158   1.993   0.378
 9288TIP3    H127828   6.113   2.045   0.445
 9288TIP3    H227829   6.145   2.042   0.297
 9289TIP3   OH227830   6.228   1.459   2.946
 9289TIP3    H127831   6.217   1.365   2.961
 9289TIP3    H227832   6.247   1.495   3.033
 9290TIP3   OH227833   1.540   4.714   1.679
 9290TIP3    H127834   1.576   4.772   1.747
 9290TIP3    H227835   1.538   4.769   1.601
 9291TIP3   OH227836   0.386   3.993   0.898
 9291TIP3    H127837   0.399   3.962   0.988
 9291TIP3    H227838   0.456   4.056   0.884
 9292TIP3   OH227839   2.443   0.681   1.528
 9292TIP3    H127840   2.501   0.753   1.553
 9292TIP3    H227841   2.366   0.723   1.490
 9293TIP3   OH227842   4.051   1.762   4.090
 9293TIP3    H127843   4.066   1.707   4.167
 9293TIP3    H227844   4.005   1.705   4.029
 9294TIP3   OH227845   2.023   2.963   2.078
 9294TIP3    H127846   1.947   2.905   2.084
 9294TIP3    H227847   2.008   3.029   2.146
 9295TIP3   OH227848   1.769   3.946   4.911
 9295TIP3    H127849   1.825   3.999   4.855
 9295TIP3    H227850   1.704   4.009   4.945
 9296TIP3   OH227851   1.586   2.266   3.399
 9296TIP3    H127852   1.624   2.301   3.319
 9296TIP3    H227853   1.651   2.284   3.467
 9297TIP3   OH227854   5.280   0.462   2.144
 9297TIP3    H127855   5.296   0.368   2.146
 9297TIP3    H227856   5.199   0.472   2.093
 9298TIP3   OH227857   6.671   3.730   5.262
 9298TIP3    H127858   6.635   3.642   5.246
 9298TIP3    H227859   6.677   3.736   5.358
 9299TIP3   OH227860   6.332   3.387   5.756
 9299TIP3    H127861   6.247   3.378   5.712
 9299TIP3    H227862   6.391   3.330   5.707
 9300TIP3   OH227863   2.213   5.823   3.020
 9300TIP3    H127864   2.170   5.789   2.941
 9300TIP3    H227865   2.167   5.904   3.040
 9301TIP3   OH227866   3.471   3.821   2.191
 9301TIP3    H127867   3.469   3.895   2.252
 9301TIP3    H227868   3.502   3.858   2.108
 9302TIP3   OH227869   6.901   2.221   1.949
 9302TIP3    H127870   6.829   2.285   1.950
 9302TIP3    H227871   6.938   2.226   2.037
 9303TIP3   OH227872   2.307   0.877   3.466
 9303TIP3    H127873   2.314   0.781   3.462
 9303TIP3    H227874   2.218   0.896   3.437
 9304TIP3   OH227875   6.986   5.595   4.011
 9304TIP3    H127876   7.076   5.602   3.977
 9304TIP3    H227877   6.931   5.624   3.938
 9305TIP3   OH227878   5.943   4.027   1.833
 9305TIP3    H127879   5.998   4.031   1.911
 9305TIP3    H227880   5.960   4.108   1.787
 9306TIP3   OH227881   6.113   3.509   3.997
 9306TIP3    H127882   6.114   3.417   3.970
 9306TIP3    H227883   6.029   3.543   3.966
 9307TIP3   OH227884   6.236   3.107   2.009
 9307TIP3    H127885   6.167   3.073   2.067
 9307TIP3    H227886   6.231   3.202   2.020
 9308TIP3   OH227887   5.883   4.134   1.433
 9308TIP3    H127888   5.814   4.191   1.466
 9308TIP3    H227889   5.867   4.130   1.338
 9309TIP3   OH227890   6.398   6.436   5.126
 9309TIP3    H127891   6.408   6.389   5.209
 9309TIP3    H227892   6.442   6.520   5.141
 9310TIP3   OH227893   0.566   0.870   2.260
 9310TIP3    H127894   0.507   0.802   2.226
 9310TIP3    H227895   0.518   0.908   2.334
 9311TIP3   OH227896   6.973   4.413   3.806
 9311TIP3    H127897   7.058   4.457   3.797
 9311TIP3    H227898   6.918   4.477   3.851
 9312TIP3   OH227899   2.781   3.946   4.667
 9312TIP3    H127900   2.816   3.891   4.597
 9312TIP3    H227901   2.810   4.035   4.644
 9313TIP3   OH227902   6.207   0.846   1.523
 9313TIP3    H127903   6.188   0.806   1.439
 9313TIP3    H227904   6.238   0.934   1.502
 9314TIP3   OH227905   2.324   6.539   2.376
 9314TIP3    H127906   2.347   6.631   2.380
 9314TIP3    H227907   2.371   6.505   2.300
 9315TIP3   OH227908   3.344   4.836   0.253
 9315TIP3    H127909   3.343   4.919   0.300
 9315TIP3    H227910   3.356   4.861   0.161
 9316TIP3   OH227911   6.270   6.016   0.506
 9316TIP3    H127912   6.190   5.989   0.461
 9316TIP3    H227913   6.251   6.003   0.599
 9317TIP3   OH227914   1.488   4.855   0.437
 9317TIP3    H127915   1.434   4.781   0.465
 9317TIP3    H227916   1.577   4.830   0.462
 9318TIP3   OH227917   1.530   2.691   3.126
 9318TIP3    H127918   1.610   2.688   3.180
 9318TIP3    H227919   1.549   2.635   3.051
 9319TIP3   OH227920   0.277   3.144   4.216
 9319TIP3    H127921   0.271   3.124   4.123
 9319TIP3    H227922   0.190   3.126   4.250
 9320TIP3   OH227923   6.418   6.730   0.407
 9320TIP3    H127924   6.358   6.665   0.371
 9320TIP3    H227925   6.505   6.697   0.384
 9321TIP3   OH227926   1.918   0.978   5.144
 9321TIP3    H127927   1.980   0.955   5.213
 9321TIP3    H227928   1.891   1.068   5.165
 9322TIP3   OH227929   4.077   1.311   2.228
 9322TIP3    H127930   3.987   1.317   2.259
 9322TIP3    H227931   4.071   1.264   2.145
 9323TIP3   OH227932   1.495   5.038   3.545
 9323TIP3    H127933   1.581   5.057   3.507
 9323TIP3    H227934   1.514   4.980   3.619
 9324TIP3   OH227935   0.822   2.627   3.088
 9324TIP3    H127936   0.823   2.623   3.184
 9324TIP3    H227937   0.806   2.720   3.069
 9325TIP3   OH227938   6.898   0.835   0.508
 9325TIP3    H127939   6.827   0.854   0.447
 9325TIP3    H227940   6.854   0.807   0.588
 9326TIP3   OH227941   6.475   0.236   0.223
 9326TIP3    H127942   6.473   0.309   0.284
 9326TIP3    H227943   6.429   0.268   0.145
 9327TIP3   OH227944   1.747   3.990   0.064
 9327TIP3    H127945   1.785   3.995   0.151
 9327TIP3    H227946   1.819   3.964   0.007
 9328TIP3   OH227947   1.323   5.253   3.605
 9328TIP3    H127948   1.293   5.277   3.517
 9328TIP3    H227949   1.381   5.178   3.590
 9329TIP3   OH227950   4.093   0.872   2.955
 9329TIP3    H127951   4.140   0.832   3.028
 9329TIP3    H227952   4.161   0.917   2.905
 9330TIP3   OH227953   3.060   6.140   4.072
 9330TIP3    H127954   3.146   6.118   4.037
 9330TIP3    H227955   3.037   6.222   4.029
 9331TIP3   OH227956   4.863   6.045   3.845
 9331TIP3    H127957   4.863   6.113   3.913
 9331TIP3    H227958   4.956   6.031   3.826
 9332TIP3   OH227959   6.154   0.190   2.076
 9332TIP3    H127960   6.169   0.132   2.002
 9332TIP3    H227961   6.212   0.158   2.144
 9333TIP3   OH227962   2.770   5.619   2.177
 9333TIP3    H127963   2.812   5.700   2.207
 9333TIP3    H227964   2.723   5.645   2.098
 9334TIP3   OH227965   5.835   0.209   0.080
 9334TIP3    H127966   5.816   0.293   0.122
 9334TIP3    H227967   5.887   0.233   0.003
 9335TIP3   OH227968   0.357   5.081   1.546
 9335TIP3    H127969   0.437   5.038   1.515
 9335TIP3    H227970   0.352   5.057   1.639
 9336TIP3   OH227971   3.145   0.711   4.352
 9336TIP3    H127972   3.095   0.632   4.371
 9336TIP3    H227973   3.091   0.760   4.289
 9337TIP3   OH227974   3.641   1.873   4.213
 9337TIP3    H127975   3.658   1.911   4.127
 9337TIP3    H227976   3.546   1.864   4.217
 9338TIP3   OH227977   0.807   2.486   1.270
 9338TIP3    H127978   0.798   2.433   1.190
 9338TIP3    H227979   0.806   2.423   1.341
 9339TIP3   OH227980   0.698   4.416   1.498
 9339TIP3    H127981   0.748   4.357   1.441
 9339TIP3    H227982   0.607   4.400   1.475
 9340TIP3   OH227983   0.591   6.513   1.874
 9340TIP3    H127984   0.560   6.532   1.785
 9340TIP3    H227985   0.650   6.438   1.863
 9341TIP3   OH227986   2.691   2.399   1.130
 9341TIP3    H127987   2.783   2.381   1.111
 9341TIP3    H227988   2.674   2.483   1.086
 9342TIP3   OH227989   3.721   1.801   4.983
 9342TIP3    H127990   3.794   1.862   4.992
 9342TIP3    H227991   3.761   1.714   4.989
 9343TIP3   OH227992   2.829   2.536   1.444
 9343TIP3    H127993   2.813   2.494   1.529
 9343TIP3    H227994   2.750   2.519   1.394
 9344TIP3   OH227995   1.921   5.469   2.007
 9344TIP3    H127996   1.946   5.399   1.946
 9344TIP3    H227997   1.983   5.461   2.079
 9345TIP3   OH227998   7.154   4.194   4.572
 9345TIP3    H127999   7.128   4.219   4.660
 9345TIP3    H228000   7.203   4.269   4.539
 9346TIP3   OH228001   4.403   0.037   2.728
 9346TIP3    H128002   4.430   0.010   2.816
 9346TIP3    H228003   4.474   0.006   2.671
 9347TIP3   OH228004   1.058   4.065   1.459
 9347TIP3    H128005   1.014   4.020   1.532
 9347TIP3    H228006   1.060   4.000   1.389
 9348TIP3   OH228007   5.733   1.264   4.769
 9348TIP3    H128008   5.702   1.292   4.855
 9348TIP3    H228009   5.672   1.195   4.744
 9349TIP3   OH228010   6.135   2.409   1.348
 9349TIP3    H128011   6.172   2.487   1.307
 9349TIP3    H228012   6.138   2.342   1.280
 9350TIP3   OH228013   2.830   0.536   2.718
 9350TIP3    H128014   2.762   0.493   2.769
 9350TIP3    H228015   2.904   0.476   2.721
 9351TIP3   OH228016   1.781   6.428   4.307
 9351TIP3    H128017   1.693   6.393   4.302
 9351TIP3    H228018   1.791   6.480   4.228
 9352TIP3   OH228019   6.111   2.749   4.565
 9352TIP3    H128020   6.101   2.655   4.582
 9352TIP3    H228021   6.180   2.777   4.626
 9353TIP3   OH228022   0.094   3.197   1.817
 9353TIP3    H128023   0.132   3.279   1.787
 9353TIP3    H228024   0.145   3.174   1.895
 9354TIP3   OH228025   6.376   0.496   5.074
 9354TIP3    H128026   6.375   0.500   5.169
 9354TIP3    H228027   6.321   0.570   5.046
 9355TIP3   OH228028   6.638   3.835   4.797
 9355TIP3    H128029   6.610   3.745   4.813
 9355TIP3    H228030   6.683   3.832   4.713
 9356TIP3   OH228031   1.582   2.051   3.135
 9356TIP3    H128032   1.518   2.046   3.207
 9356TIP3    H228033   1.645   2.117   3.164
 9357TIP3   OH228034   5.186   1.522   1.127
 9357TIP3    H128035   5.115   1.533   1.191
 9357TIP3    H228036   5.258   1.486   1.178
 9358TIP3   OH228037   0.835   3.780   3.382
 9358TIP3    H128038   0.872   3.734   3.458
 9358TIP3    H228039   0.828   3.871   3.411
 9359TIP3   OH228040   6.668   0.969   4.135
 9359TIP3    H128041   6.763   0.960   4.144
 9359TIP3    H228042   6.637   0.994   4.222
 9360TIP3   OH228043   2.707   2.053   2.209
 9360TIP3    H128044   2.672   2.141   2.193
 9360TIP3    H228045   2.801   2.061   2.193
 9361TIP3   OH228046   2.724   3.266   1.135
 9361TIP3    H128047   2.800   3.267   1.193
 9361TIP3    H228048   2.720   3.355   1.099
 9362TIP3   OH228049   4.050   5.925   3.501
 9362TIP3    H128050   4.125   5.984   3.502
 9362TIP3    H228051   4.080   5.846   3.546
 9363TIP3   OH228052   3.257   3.277   1.800
 9363TIP3    H128053   3.291   3.280   1.889
 9363TIP3    H228054   3.332   3.254   1.745
 9364TIP3   OH228055   1.187   6.262   5.398
 9364TIP3    H128056   1.252   6.279   5.331
 9364TIP3    H228057   1.177   6.167   5.398
 9365TIP3   OH228058   1.487   3.627   2.989
 9365TIP3    H128059   1.458   3.678   2.913
 9365TIP3    H228060   1.489   3.690   3.061
 9366TIP3   OH228061   1.489   3.621   4.430
 9366TIP3    H128062   1.405   3.656   4.403
 9366TIP3    H228063   1.477   3.526   4.432
 9367TIP3   OH228064   2.129   4.251   4.364
 9367TIP3    H128065   2.208   4.216   4.322
 9367TIP3    H228066   2.058   4.194   4.333
 9368TIP3   OH228067   4.870   4.399   1.833
 9368TIP3    H128068   4.883   4.376   1.741
 9368TIP3    H228069   4.876   4.495   1.835
 9369TIP3   OH228070   2.948   3.829   3.116
 9369TIP3    H128071   3.029   3.812   3.067
 9369TIP3    H228072   2.878   3.804   3.056
 9370TIP3   OH228073   6.483   5.663   2.969
 9370TIP3    H128074   6.528   5.717   2.904
 9370TIP3    H228075   6.402   5.636   2.926
 9371TIP3   OH228076   6.861   5.118   5.571
 9371TIP3    H128077   6.813   5.188   5.528
 9371TIP3    H228078   6.833   5.121   5.663
 9372TIP3   OH228079   7.170   3.205   2.381
 9372TIP3    H128080   7.173   3.221   2.476
 9372TIP3    H228081   7.143   3.288   2.343
 9373TIP3   OH228082   5.044   6.697   2.011
 9373TIP3    H128083   4.954   6.668   2.028
 9373TIP3    H228084   5.036   6.792   1.998
 9374TIP3   OH228085   3.160   3.229   1.124
 9374TIP3    H128086   3.254   3.213   1.129
 9374TIP3    H228087   3.153   3.318   1.088
 9375TIP3   OH228088   4.442   4.781   2.448
 9375TIP3    H128089   4.444   4.874   2.469
 9375TIP3    H228090   4.411   4.739   2.528
 9376TIP3   OH228091   1.315   0.414   0.961
 9376TIP3    H128092   1.334   0.402   1.054
 9376TIP3    H228093   1.252   0.485   0.959
 9377TIP3   OH228094   6.638   5.299   0.166
 9377TIP3    H128095   6.702   5.356   0.123
 9377TIP3    H228096   6.592   5.356   0.228
 9378TIP3   OH228097   5.433   2.940   5.363
 9378TIP3    H128098   5.454   2.969   5.452
 9378TIP3    H228099   5.429   3.021   5.312
 9379TIP3   OH228100   1.593   4.750   0.190
 9379TIP3    H128101   1.622   4.667   0.227
 9379TIP3    H228102   1.501   4.736   0.168
 9380TIP3   OH228103   6.721   3.373   2.694
 9380TIP3    H128104   6.746   3.346   2.605
 9380TIP3    H228105   6.722   3.292   2.745
 9381TIP3   OH228106   6.764   4.245   3.954
 9381TIP3    H128107   6.744   4.323   4.005
 9381TIP3    H228108   6.804   4.278   3.873
 9382TIP3   OH228109   4.026   6.466   2.175
 9382TIP3    H128110   4.091   6.506   2.232
 9382TIP3    H228111   4.073   6.451   2.092
 9383TIP3   OH228112   1.851   3.974   0.640
 9383TIP3    H128113   1.818   3.935   0.721
 9383TIP3    H228114   1.913   3.910   0.605
 9384TIP3   OH228115   3.367   0.361   5.845
 9384TIP3    H128116   3.367   0.292   5.911
 9384TIP3    H228117   3.359   0.442   5.895
 9385TIP3   OH228118   6.701   5.881   1.733
 9385TIP3    H128119   6.744   5.876   1.818
 9385TIP3    H228120   6.622   5.933   1.749
 9386TIP3   OH228121   5.646   5.107   0.950
 9386TIP3    H128122   5.676   5.172   1.013
 9386TIP3    H228123   5.602   5.158   0.882
 9387TIP3   OH228124   2.078   2.795   1.704
 9387TIP3    H128125   2.106   2.866   1.647
 9387TIP3    H228126   2.008   2.832   1.757
 9388TIP3   OH228127   3.833   1.285   3.003
 9388TIP3    H128128   3.873   1.316   3.084
 9388TIP3    H228129   3.884   1.326   2.933
 9389TIP3   OH228130   5.237   6.152   4.626
 9389TIP3    H128131   5.195   6.234   4.600
 9389TIP3    H228132   5.166   6.099   4.661
 9390TIP3   OH228133   2.654   5.688   0.618
 9390TIP3    H128134   2.744   5.716   0.637
 9390TIP3    H228135   2.630   5.632   0.692
 9391TIP3   OH228136   5.968   0.526   4.559
 9391TIP3    H128137   6.048   0.514   4.611
 9391TIP3    H228138   5.914   0.586   4.611
 9392TIP3   OH228139   4.071   0.402   1.989
 9392TIP3    H128140   4.087   0.448   2.071
 9392TIP3    H228141   4.009   0.458   1.942
 9393TIP3   OH228142   3.213   5.167   1.226
 9393TIP3    H128143   3.174   5.221   1.294
 9393TIP3    H228144   3.284   5.119   1.270
 9394TIP3   OH228145   5.483   6.526   1.396
 9394TIP3    H128146   5.560   6.555   1.445
 9394TIP3    H228147   5.519   6.485   1.317
 9395TIP3   OH228148   2.083   4.605   3.212
 9395TIP3    H128149   2.133   4.596   3.131
 9395TIP3    H228150   2.031   4.684   3.200
 9396TIP3   OH228151   0.827   1.979   4.022
 9396TIP3    H128152   0.802   1.887   4.016
 9396TIP3    H228153   0.900   1.979   4.084
 9397TIP3   OH228154   1.642   4.755   2.129
 9397TIP3    H128155   1.716   4.701   2.156
 9397TIP3    H228156   1.615   4.801   2.208
 9398TIP3   OH228157   0.111   0.867   2.393
 9398TIP3    H128158   0.037   0.915   2.355
 9398TIP3    H228159   0.074   0.783   2.419
 9399TIP3   OH228160   4.234   6.547   2.313
 9399TIP3    H128161   4.302   6.579   2.254
 9399TIP3    H228162   4.281   6.496   2.379
 9400TIP3   OH228163   4.013   6.359   5.087
 9400TIP3    H128164   4.019   6.308   5.005
 9400TIP3    H228165   3.994   6.448   5.058
 9401TIP3   OH228166   3.562   3.790   3.207
 9401TIP3    H128167   3.626   3.860   3.218
 9401TIP3    H228168   3.479   3.827   3.237
 9402TIP3   OH228169   1.836   1.796   1.515
 9402TIP3    H128170   1.780   1.870   1.490
 9402TIP3    H228171   1.925   1.827   1.496
 9403TIP3   OH228172   4.320   4.098   5.063
 9403TIP3    H128173   4.387   4.130   5.124
 9403TIP3    H228174   4.340   4.005   5.053
 9404TIP3   OH228175   0.908   0.703   2.842
 9404TIP3    H128176   0.826   0.683   2.796
 9404TIP3    H228177   0.977   0.682   2.779
 9405TIP3   OH228178   1.143   0.145   4.573
 9405TIP3    H128179   1.160   0.061   4.529
 9405TIP3    H228180   1.112   0.120   4.660
 9406TIP3   OH228181   4.737   6.215   4.459
 9406TIP3    H128182   4.668   6.191   4.521
 9406TIP3    H228183   4.777   6.131   4.435
 9407TIP3   OH228184   6.792   6.495   1.112
 9407TIP3    H128185   6.853   6.424   1.092
 9407TIP3    H228186   6.777   6.538   1.028
 9408TIP3   OH228187   3.627   5.462   2.968
 9408TIP3    H128188   3.656   5.526   2.904
 9408TIP3    H228189   3.617   5.512   3.049
 9409TIP3   OH228190   4.784   2.207   2.304
 9409TIP3    H128191   4.689   2.212   2.298
 9409TIP3    H228192   4.808   2.283   2.357
 9410TIP3   OH228193   6.924   6.424   1.965
 9410TIP3    H128194   6.857   6.398   1.902
 9410TIP3    H228195   6.876   6.439   2.047
 9411TIP3   OH228196   5.420   6.060   2.436
 9411TIP3    H128197   5.496   6.002   2.423
 9411TIP3    H228198   5.384   6.034   2.520
 9412TIP3   OH228199   6.263   0.895   3.953
 9412TIP3    H128200   6.315   0.815   3.947
 9412TIP3    H228201   6.327   0.964   3.967
 9413TIP3   OH228202   2.676   6.245   2.435
 9413TIP3    H128203   2.719   6.211   2.514
 9413TIP3    H228204   2.612   6.178   2.412
 9414TIP3   OH228205   3.980   4.539   2.291
 9414TIP3    H128206   3.933   4.623   2.292
 9414TIP3    H228207   4.069   4.561   2.319
 9415TIP3   OH228208   2.143   3.507   4.735
 9415TIP3    H128209   2.125   3.458   4.815
 9415TIP3    H228210   2.239   3.510   4.730
 9416TIP3   OH228211   6.887   4.861   5.783
 9416TIP3    H128212   6.811   4.893   5.833
 9416TIP3    H228213   6.858   4.865   5.692
 9417TIP3   OH228214   1.955   1.680   3.773
 9417TIP3    H128215   1.877   1.714   3.817
 9417TIP3    H228216   1.981   1.605   3.825
 9418TIP3   OH228217   0.316   5.945   4.102
 9418TIP3    H128218   0.235   5.961   4.151
 9418TIP3    H228219   0.321   6.018   4.039
 9419TIP3   OH228220   0.096   4.753   5.004
 9419TIP3    H128221   0.149   4.813   5.057
 9419TIP3    H228222   0.095   4.672   5.054
 9420TIP3   OH228223   1.569   2.532   0.077
 9420TIP3    H128224   1.618   2.450   0.070
 9420TIP3    H228225   1.499   2.523   0.012
 9421TIP3   OH228226   0.392   4.842   3.034
 9421TIP3    H128227   0.456   4.776   3.060
 9421TIP3    H228228   0.308   4.795   3.034
 9422TIP3   OH228229   4.622   6.667   2.336
 9422TIP3    H128230   4.625   6.724   2.413
 9422TIP3    H228231   4.694   6.697   2.281
 9423TIP3   OH228232   6.168   5.913   4.157
 9423TIP3    H128233   6.120   5.951   4.084
 9423TIP3    H228234   6.176   5.984   4.220
 9424TIP3   OH228235   5.395   1.424   3.157
 9424TIP3    H128236   5.314   1.378   3.137
 9424TIP3    H228237   5.397   1.428   3.253
 9425TIP3   OH228238   1.812   2.213   5.839
 9425TIP3    H128239   1.797   2.269   5.915
 9425TIP3    H228240   1.853   2.270   5.774
 9426TIP3   OH228241   6.184   3.466   4.624
 9426TIP3    H128242   6.277   3.461   4.646
 9426TIP3    H228243   6.170   3.394   4.563
 9427TIP3   OH228244   5.695   5.175   2.872
 9427TIP3    H128245   5.730   5.213   2.953
 9427TIP3    H228246   5.605   5.152   2.893
 9428TIP3   OH228247   6.485   0.151   1.443
 9428TIP3    H128248   6.498   0.171   1.350
 9428TIP3    H228249   6.416   0.212   1.471
 9429TIP3   OH228250   5.594   3.762   3.847
 9429TIP3    H128251   5.652   3.691   3.817
 9429TIP3    H228252   5.509   3.721   3.858
 9430TIP3   OH228253   4.689   0.410   3.182
 9430TIP3    H128254   4.625   0.474   3.211
 9430TIP3    H228255   4.704   0.354   3.258
 9431TIP3   OH228256   1.834   1.218   5.231
 9431TIP3    H128257   1.875   1.296   5.193
 9431TIP3    H228258   1.771   1.252   5.294
 9432TIP3   OH228259   6.411   2.887  -0.017
 9432TIP3    H128260   6.403   2.952   0.052
 9432TIP3    H228261   6.357   2.814   0.012
 9433TIP3   OH228262   1.906   3.829   5.889
 9433TIP3    H128263   1.969   3.865   5.826
 9433TIP3    H228264   1.903   3.735   5.868
 9434TIP3   OH228265   3.203   0.113   5.635
 9434TIP3    H128266   3.288   0.081   5.667
 9434TIP3    H228267   3.142   0.041   5.654
 9435TIP3   OH228268   2.118   2.671   4.981
 9435TIP3    H128269   2.199   2.657   4.933
 9435TIP3    H228270   2.049   2.665   4.914
 9436TIP3   OH228271   0.746   3.199   3.813
 9436TIP3    H128272   0.818   3.213   3.873
 9436TIP3    H228273   0.742   3.104   3.801
 9437TIP3   OH228274   4.789   0.015   5.690
 9437TIP3    H128275   4.777   0.110   5.692
 9437TIP3    H228276   4.832  -0.006   5.773
 9438TIP3   OH228277   0.871   5.956   5.498
 9438TIP3    H128278   0.841   5.866   5.512
 9438TIP3    H228279   0.791   6.008   5.496
 9439TIP3   OH228280   6.638   5.069   3.296
 9439TIP3    H128281   6.602   5.074   3.384
 9439TIP3    H228282   6.564   5.043   3.241
 9440TIP3   OH228283   2.282   3.325   2.479
 9440TIP3    H128284   2.348   3.262   2.451
 9440TIP3    H228285   2.295   3.400   2.422
 9441TIP3   OH228286   6.882   6.499   5.455
 9441TIP3    H128287   6.904   6.425   5.510
 9441TIP3    H228288   6.825   6.463   5.387
 9442TIP3   OH228289   4.913   1.027   4.701
 9442TIP3    H128290   4.840   1.087   4.684
 9442TIP3    H228291   4.952   1.013   4.614
 9443TIP3   OH228292   3.117   4.664   2.114
 9443TIP3    H128293   3.035   4.617   2.102
 9443TIP3    H228294   3.091   4.754   2.132
 9444TIP3   OH228295   0.551   2.459   0.481
 9444TIP3    H128296   0.476   2.412   0.446
 9444TIP3    H228297   0.598   2.491   0.404
 9445TIP3   OH228298   6.451   0.875   0.805
 9445TIP3    H128299   6.478   0.901   0.717
 9445TIP3    H228300   6.400   0.795   0.792
 9446TIP3   OH228301   6.105   1.033   1.782
 9446TIP3    H128302   6.107   1.027   1.878
 9446TIP3    H228303   6.111   0.942   1.753
 9447TIP3   OH228304   6.407   5.982   1.248
 9447TIP3    H128305   6.488   5.980   1.299
 9447TIP3    H228306   6.426   5.929   1.171
 9448TIP3   OH228307   3.595   2.787   3.054
 9448TIP3    H128308   3.661   2.725   3.024
 9448TIP3    H228309   3.522   2.733   3.082
 9449TIP3   OH228310   4.491   2.429  -0.032
 9449TIP3    H128311   4.505   2.476   0.051
 9449TIP3    H228312   4.417   2.473  -0.073
 9450TIP3   OH228313   0.056   0.572   5.094
 9450TIP3    H128314   0.150   0.553   5.094
 9450TIP3    H228315   0.028   0.554   5.184
 9451TIP3   OH228316   4.273   6.056   3.575
 9451TIP3    H128317   4.333   6.041   3.649
 9451TIP3    H228318   4.329   6.094   3.507
 9452TIP3   OH228319   0.423   3.393   1.134
 9452TIP3    H128320   0.498   3.439   1.170
 9452TIP3    H228321   0.460   3.318   1.087
 9453TIP3   OH228322   2.061   3.157   2.258
 9453TIP3    H128323   2.146   3.195   2.282
 9453TIP3    H228324   2.029   3.117   2.339
 9454TIP3   OH228325   5.472   5.926   4.975
 9454TIP3    H128326   5.451   5.987   4.905
 9454TIP3    H228327   5.566   5.937   4.990
 9455TIP3   OH228328   7.185   2.736   5.673
 9455TIP3    H128329   7.143   2.695   5.749
 9455TIP3    H228330   7.223   2.817   5.708
 9456TIP3   OH228331   5.360   4.671   1.063
 9456TIP3    H128332   5.348   4.617   0.985
 9456TIP3    H228333   5.275   4.671   1.106
 9457TIP3   OH228334   6.610   6.351   3.929
 9457TIP3    H128335   6.687   6.295   3.930
 9457TIP3    H228336   6.591   6.368   4.021
 9458TIP3   OH228337   4.674   2.197   0.049
 9458TIP3    H128338   4.761   2.192   0.009
 9458TIP3    H228339   4.659   2.291   0.062
 9459TIP3   OH228340   7.019   6.601   0.394
 9459TIP3    H128341   7.027   6.657   0.318
 9459TIP3    H228342   6.989   6.517   0.359
 9460TIP3   OH228343   4.205   3.364   3.107
 9460TIP3    H128344   4.246   3.290   3.152
 9460TIP3    H228345   4.278   3.413   3.070
 9461TIP3   OH228346   2.661   1.966   5.336
 9461TIP3    H128347   2.720   1.926   5.399
 9461TIP3    H228348   2.585   1.907   5.333
 9462TIP3   OH228349   6.695   3.215   5.339
 9462TIP3    H128350   6.761   3.167   5.388
 9462TIP3    H228351   6.648   3.148   5.290
 9463TIP3   OH228352   7.066   2.027   4.149
 9463TIP3    H128353   7.084   1.935   4.132
 9463TIP3    H228354   7.039   2.030   4.241
 9464TIP3   OH228355   2.973   1.829   2.233
 9464TIP3    H128356   2.971   1.835   2.137
 9464TIP3    H228357   2.881   1.823   2.258
 9465TIP3   OH228358   6.707   0.145   1.907
 9465TIP3    H128359   6.727   0.235   1.929
 9465TIP3    H228360   6.726   0.138   1.813
 9466TIP3   OH228361   0.915   3.827   1.574
 9466TIP3    H128362   0.964   3.853   1.652
 9466TIP3    H228363   0.824   3.849   1.594
 9467TIP3   OH228364   0.110   0.945   4.642
 9467TIP3    H128365   0.147   1.031   4.665
 9467TIP3    H228366   0.185   0.894   4.613
 9468TIP3   OH228367   5.572   0.405   3.539
 9468TIP3    H128368   5.593   0.458   3.616
 9468TIP3    H228369   5.510   0.459   3.489
 9469TIP3   OH228370   2.523   2.673   1.527
 9469TIP3    H128371   2.554   2.591   1.488
 9469TIP3    H228372   2.460   2.707   1.464
 9470TIP3   OH228373   3.770   5.752   2.418
 9470TIP3    H128374   3.678   5.778   2.410
 9470TIP3    H228375   3.770   5.658   2.398
 9471TIP3   OH228376   7.072   2.478   2.422
 9471TIP3    H128377   7.058   2.411   2.490
 9471TIP3    H228378   7.120   2.547   2.467
 9472TIP3   OH228379   1.568   2.607   2.623
 9472TIP3    H128380   1.635   2.676   2.627
 9472TIP3    H228381   1.615   2.527   2.646
 9473TIP3   OH228382   5.004   3.566   4.331
 9473TIP3    H128383   5.058   3.540   4.405
 9473TIP3    H228384   5.013   3.495   4.268
 9474TIP3   OH228385   7.099   4.902   1.506
 9474TIP3    H128386   7.039   4.942   1.570
 9474TIP3    H228387   7.144   4.977   1.467
 9475TIP3   OH228388   1.425   4.568   4.354
 9475TIP3    H128389   1.394   4.653   4.383
 9475TIP3    H228390   1.501   4.550   4.409
 9476TIP3   OH228391   3.840   4.895   1.425
 9476TIP3    H128392   3.785   4.973   1.414
 9476TIP3    H228393   3.795   4.842   1.490
 9477TIP3   OH228394   4.366   1.874   3.936
 9477TIP3    H128395   4.403   1.822   3.865
 9477TIP3    H228396   4.274   1.885   3.912
 9478TIP3   OH228397   6.587   2.468   3.672
 9478TIP3    H128398   6.531   2.445   3.746
 9478TIP3    H228399   6.671   2.491   3.712
 9479TIP3   OH228400   5.477   2.419   5.730
 9479TIP3    H128401   5.424   2.388   5.657
 9479TIP3    H228402   5.463   2.355   5.800
 9480TIP3   OH228403   0.814   6.546   4.746
 9480TIP3    H128404   0.731   6.516   4.710
 9480TIP3    H228405   0.814   6.641   4.732
 9481TIP3   OH228406   1.666   1.985   1.768
 9481TIP3    H128407   1.667   1.896   1.804
 9481TIP3    H228408   1.749   1.994   1.722
 9482TIP3   OH228409   0.714   2.761   0.642
 9482TIP3    H128410   0.691   2.759   0.549
 9482TIP3    H228411   0.799   2.804   0.644
 9483TIP3   OH228412   7.001   4.447   4.591
 9483TIP3    H128413   6.927   4.496   4.554
 9483TIP3    H228414   7.014   4.374   4.530
 9484TIP3   OH228415   2.739   2.881   1.721
 9484TIP3    H128416   2.664   2.898   1.664
 9484TIP3    H228417   2.770   2.794   1.696
 9485TIP3   OH228418   5.034   1.474   3.865
 9485TIP3    H128419   4.972   1.530   3.818
 9485TIP3    H228420   5.063   1.411   3.799
 9486TIP3   OH228421   2.748   4.613   1.750
 9486TIP3    H128422   2.711   4.601   1.663
 9486TIP3    H228423   2.830   4.564   1.748
 9487TIP3   OH228424   0.694   1.381   1.046
 9487TIP3    H128425   0.635   1.433   1.100
 9487TIP3    H228426   0.673   1.290   1.068
 9488TIP3   OH228427   4.679   0.203   1.498
 9488TIP3    H128428   4.688   0.163   1.584
 9488TIP3    H228429   4.770   0.219   1.470
 9489TIP3   OH228430   6.612   2.936   0.336
 9489TIP3    H128431   6.646   2.846   0.336
 9489TIP3    H228432   6.664   2.981   0.403
 9490TIP3   OH228433   6.938   4.448   2.469
 9490TIP3    H128434   7.004   4.510   2.500
 9490TIP3    H228435   6.981   4.398   2.400
 9491TIP3   OH228436   2.541   1.385   4.551
 9491TIP3    H128437   2.596   1.424   4.482
 9491TIP3    H228438   2.602   1.332   4.603
 9492TIP3   OH228439   5.353   4.573   1.981
 9492TIP3    H128440   5.323   4.570   2.072
 9492TIP3    H228441   5.273   4.563   1.929
 9493TIP3   OH228442   2.284   2.763   4.136
 9493TIP3    H128443   2.365   2.779   4.184
 9493TIP3    H228444   2.226   2.835   4.161
 9494TIP3   OH228445   3.560   0.748   0.498
 9494TIP3    H128446   3.528   0.695   0.571
 9494TIP3    H228447   3.646   0.712   0.478
 9495TIP3   OH228448   0.590   2.051  -0.024
 9495TIP3    H128449   0.602   2.028   0.068
 9495TIP3    H228450   0.586   1.967  -0.070
 9496TIP3   OH228451   5.810   1.076   2.376
 9496TIP3    H128452   5.795   1.132   2.300
 9496TIP3    H228453   5.790   1.131   2.451
 9497TIP3   OH228454   4.130   4.787   5.688
 9497TIP3    H128455   4.211   4.761   5.731
 9497TIP3    H228456   4.062   4.734   5.729
 9498TIP3   OH228457   1.576   0.788   5.517
 9498TIP3    H128458   1.550   0.855   5.454
 9498TIP3    H228459   1.533   0.815   5.598
 9499TIP3   OH228460   5.832   0.764   1.226
 9499TIP3    H128461   5.747   0.730   1.197
 9499TIP3    H228462   5.896   0.704   1.186
 9500TIP3   OH228463   4.747   0.806   5.370
 9500TIP3    H128464   4.669   0.847   5.409
 9500TIP3    H228465   4.815   0.817   5.436
 9501TIP3   OH228466   1.838   0.242   1.792
 9501TIP3    H128467   1.927   0.219   1.815
 9501TIP3    H228468   1.841   0.260   1.698
 9502TIP3   OH228469   2.898   2.622   0.964
 9502TIP3    H128470   2.847   2.628   0.883
 9502TIP3    H228471   2.928   2.532   0.967
 9503TIP3   OH228472   7.075   2.912   0.863
 9503TIP3    H128473   7.107   2.846   0.802
 9503TIP3    H228474   7.023   2.862   0.927
 9504TIP3   OH228475   4.204   6.452   0.729
 9504TIP3    H128476   4.234   6.510   0.660
 9504TIP3    H228477   4.277   6.393   0.744
 9505TIP3   OH228478   2.933   2.147   1.594
 9505TIP3    H128479   2.985   2.212   1.546
 9505TIP3    H228480   2.992   2.071   1.601
 9506TIP3   OH228481   2.578   3.541   4.424
 9506TIP3    H128482   2.567   3.515   4.333
 9506TIP3    H228483   2.520   3.617   4.434
 9507TIP3   OH228484   3.059   4.633   4.923
 9507TIP3    H128485   3.143   4.608   4.885
 9507TIP3    H228486   3.082   4.670   5.008
 9508TIP3   OH228487   5.980   2.599   2.646
 9508TIP3    H128488   5.942   2.677   2.687
 9508TIP3    H228489   5.912   2.532   2.654
 9509TIP3   OH228490   3.626   5.655   5.064
 9509TIP3    H128491   3.554   5.623   5.118
 9509TIP3    H228492   3.586   5.675   4.980
 9510TIP3   OH228493   3.449   6.612   0.426
 9510TIP3    H128494   3.477   6.537   0.479
 9510TIP3    H228495   3.355   6.620   0.445
 9511TIP3   OH228496   3.266   5.887   3.536
 9511TIP3    H128497   3.307   5.967   3.504
 9511TIP3    H228498   3.239   5.909   3.625
 9512TIP3   OH228499   0.537   5.025   3.249
 9512TIP3    H128500   0.543   5.004   3.342
 9512TIP3    H228501   0.457   4.982   3.219
 9513TIP3   OH228502   5.992   2.142   0.606
 9513TIP3    H128503   6.025   2.221   0.564
 9513TIP3    H228504   5.935   2.102   0.540
 9514TIP3   OH228505   3.016   1.727   2.620
 9514TIP3    H128506   3.104   1.710   2.651
 9514TIP3    H228507   3.023   1.808   2.570
 9515TIP3   OH228508   3.406   3.086   1.398
 9515TIP3    H128509   3.389   3.050   1.485
 9515TIP3    H228510   3.372   3.021   1.337
 9516TIP3   OH228511   5.093   5.350   2.587
 9516TIP3    H128512   5.045   5.432   2.592
 9516TIP3    H228513   5.029   5.283   2.610
 9517TIP3   OH228514   2.114   0.314   3.932
 9517TIP3    H128515   2.038   0.282   3.882
 9517TIP3    H228516   2.079   0.386   3.985
 9518TIP3   OH228517   5.361   5.351   2.560
 9518TIP3    H128518   5.269   5.331   2.577
 9518TIP3    H228519   5.404   5.265   2.559
 9519TIP3   OH228520   5.934   3.857   5.574
 9519TIP3    H128521   5.956   3.765   5.591
 9519TIP3    H228522   6.008   3.906   5.610
 9520TIP3   OH228523   7.087   1.610   0.786
 9520TIP3    H128524   7.016   1.646   0.732
 9520TIP3    H228525   7.162   1.666   0.768
 9521TIP3   OH228526   0.293   5.471   1.108
 9521TIP3    H128527   0.300   5.542   1.171
 9521TIP3    H228528   0.305   5.391   1.160
 9522TIP3   OH228529   4.495   2.603   1.887
 9522TIP3    H128530   4.477   2.694   1.864
 9522TIP3    H228531   4.455   2.552   1.817
 9523TIP3   OH228532   3.080   0.041   4.470
 9523TIP3    H128533   3.038   0.013   4.551
 9523TIP3    H228534   3.009   0.043   4.405
 9524TIP3   OH228535   0.751   2.762   1.590
 9524TIP3    H128536   0.834   2.766   1.542
 9524TIP3    H228537   0.739   2.669   1.611
 9525TIP3   OH228538   4.982   5.779   2.316
 9525TIP3    H128539   4.937   5.721   2.255
 9525TIP3    H228540   5.053   5.726   2.352
 9526TIP3   OH228541   1.681   1.217   3.084
 9526TIP3    H128542   1.630   1.176   3.154
 9526TIP3    H228543   1.714   1.298   3.122
 9527TIP3   OH228544   2.878   0.369   3.763
 9527TIP3    H128545   2.865   0.278   3.790
 9527TIP3    H228546   2.822   0.380   3.686
 9528TIP3   OH228547   0.357   0.720   3.982
 9528TIP3    H128548   0.298   0.685   3.915
 9528TIP3    H228549   0.314   0.698   4.065
 9529TIP3   OH228550   1.028   0.366   0.575
 9529TIP3    H128551   1.111   0.365   0.527
 9529TIP3    H228552   1.030   0.285   0.627
 9530TIP3   OH228553   4.533   5.379   1.679
 9530TIP3    H128554   4.576   5.392   1.763
 9530TIP3    H228555   4.566   5.449   1.623
 9531TIP3   OH228556   5.881   4.373   4.025
 9531TIP3    H128557   5.882   4.421   3.942
 9531TIP3    H228558   5.935   4.425   4.084
 9532TIP3   OH228559   4.079   1.762   0.315
 9532TIP3    H128560   4.115   1.827   0.255
 9532TIP3    H228561   4.100   1.794   0.402
 9533TIP3   OH228562   2.512   5.009   4.780
 9533TIP3    H128563   2.439   5.068   4.763
 9533TIP3    H228564   2.507   4.989   4.873
 9534TIP3   OH228565   7.004   5.668   2.244
 9534TIP3    H128566   6.965   5.590   2.203
 9534TIP3    H228567   7.097   5.661   2.225
 9535TIP3   OH228568   3.651   4.286   1.408
 9535TIP3    H128569   3.601   4.253   1.483
 9535TIP3    H228570   3.741   4.255   1.423
 9536TIP3   OH228571   2.649   3.403   4.839
 9536TIP3    H128572   2.725   3.438   4.791
 9536TIP3    H228573   2.658   3.440   4.927
 9537TIP3   OH228574   4.711   5.192   5.615
 9537TIP3    H128575   4.783   5.154   5.564
 9537TIP3    H228576   4.742   5.188   5.706
 9538TIP3   OH228577   6.029   5.357   0.279
 9538TIP3    H128578   5.993   5.281   0.234
 9538TIP3    H228579   6.033   5.425   0.211
 9539TIP3   OH228580   0.965   4.430   3.754
 9539TIP3    H128581   1.006   4.488   3.819
 9539TIP3    H228582   0.876   4.417   3.788
 9540TIP3   OH228583   4.324   2.125   3.638
 9540TIP3    H128584   4.271   2.049   3.617
 9540TIP3    H228585   4.333   2.123   3.734
 9541TIP3   OH228586   4.955   4.119   1.342
 9541TIP3    H128587   4.898   4.185   1.304
 9541TIP3    H228588   5.009   4.166   1.405
 9542TIP3   OH228589   2.830   3.283   5.102
 9542TIP3    H128590   2.900   3.227   5.069
 9542TIP3    H228591   2.750   3.231   5.088
 9543TIP3   OH228592   0.023   6.162   4.320
 9543TIP3    H128593   0.007   6.123   4.406
 9543TIP3    H228594   0.054   6.089   4.266
 9544TIP3   OH228595   5.685   4.120   0.705
 9544TIP3    H128596   5.604   4.143   0.750
 9544TIP3    H228597   5.710   4.200   0.659
 9545TIP3   OH228598   3.686   2.749   0.714
 9545TIP3    H128599   3.662   2.838   0.691
 9545TIP3    H228600   3.602   2.702   0.718
 9546TIP3   OH228601   0.105   0.098   4.518
 9546TIP3    H128602   0.051   0.171   4.489
 9546TIP3    H228603   0.177   0.139   4.566
 9547TIP3   OH228604   2.777   2.978   3.577
 9547TIP3    H128605   2.705   2.943   3.630
 9547TIP3    H228606   2.783   3.070   3.604
 9548TIP3   OH228607   6.014   2.359   3.954
 9548TIP3    H128608   5.967   2.425   4.004
 9548TIP3    H228609   6.034   2.290   4.017
 9549TIP3   OH228610   1.820   3.102   0.811
 9549TIP3    H128611   1.764   3.108   0.733
 9549TIP3    H228612   1.850   3.191   0.826
 9550TIP3   OH228613   0.291   3.407   0.669
 9550TIP3    H128614   0.367   3.357   0.701
 9550TIP3    H228615   0.325   3.494   0.652
 9551TIP3   OH228616   0.659   1.803   0.897
 9551TIP3    H128617   0.749   1.772   0.900
 9551TIP3    H228618   0.661   1.886   0.945
 9552TIP3   OH228619   5.286   1.209   4.915
 9552TIP3    H128620   5.212   1.227   4.857
 9552TIP3    H228621   5.356   1.267   4.884
 9553TIP3   OH228622   5.059   6.017   5.153
 9553TIP3    H128623   5.096   5.972   5.077
 9553TIP3    H228624   5.096   5.970   5.228
 9554TIP3   OH228625   2.581   1.726   5.699
 9554TIP3    H128626   2.653   1.666   5.718
 9554TIP3    H228627   2.510   1.669   5.669
 9555TIP3   OH228628   6.529   0.400   2.203
 9555TIP3    H128629   6.556   0.476   2.151
 9555TIP3    H228630   6.434   0.398   2.195
 9556TIP3   OH228631   2.401   4.951   5.566
 9556TIP3    H128632   2.379   4.916   5.480
 9556TIP3    H228633   2.346   5.029   5.576
 9557TIP3   OH228634   2.382   6.039   3.129
 9557TIP3    H128635   2.340   6.106   3.075
 9557TIP3    H228636   2.324   5.963   3.121
 9558TIP3   OH228637   2.149   5.670   1.845
 9558TIP3    H128638   2.151   5.764   1.866
 9558TIP3    H228639   2.141   5.627   1.930
 9559TIP3   OH228640   6.636   5.783   0.453
 9559TIP3    H128641   6.543   5.781   0.474
 9559TIP3    H228642   6.670   5.858   0.501
 9560TIP3   OH228643   6.177   5.411   1.104
 9560TIP3    H128644   6.155   5.504   1.115
 9560TIP3    H228645   6.230   5.390   1.181
 9561TIP3   OH228646   6.574   0.918   3.716
 9561TIP3    H128647   6.618   0.836   3.740
 9561TIP3    H228648   6.524   0.896   3.637
 9562TIP3   OH228649   1.315   3.357   0.125
 9562TIP3    H128650   1.340   3.275   0.083
 9562TIP3    H228651   1.239   3.388   0.076
 9563TIP3   OH228652   2.966   5.568   1.785
 9563TIP3    H128653   3.049   5.529   1.810
 9563TIP3    H228654   2.902   5.499   1.797
 9564TIP3   OH228655   5.110   1.149   5.599
 9564TIP3    H128656   5.162   1.072   5.575
 9564TIP3    H228657   5.048   1.159   5.527
 9565TIP3   OH228658   4.245   0.123   3.724
 9565TIP3    H128659   4.231   0.031   3.745
 9565TIP3    H228660   4.332   0.143   3.759
 9566TIP3   OH228661   0.322   3.881   5.153
 9566TIP3    H128662   0.346   3.832   5.074
 9566TIP3    H228663   0.367   3.837   5.224
 9567TIP3   OH228664   6.133   2.289   1.870
 9567TIP3    H128665   6.043   2.290   1.839
 9567TIP3    H228666   6.173   2.366   1.828
 9568TIP3   OH228667   0.549   0.782   1.598
 9568TIP3    H128668   0.522   0.871   1.577
 9568TIP3    H228669   0.571   0.784   1.691
 9569TIP3   OH228670   0.343   0.507   4.659
 9569TIP3    H128671   0.412   0.525   4.723
 9569TIP3    H228672   0.297   0.431   4.693
 9570TIP3   OH228673   2.123   3.038   4.556
 9570TIP3    H128674   2.210   3.028   4.595
 9570TIP3    H228675   2.076   2.957   4.580
 9571TIP3   OH228676   5.991   5.025   0.942
 9571TIP3    H128677   5.906   5.052   0.908
 9571TIP3    H228678   6.050   5.096   0.916
 9572TIP3   OH228679   6.142   3.754   2.343
 9572TIP3    H128680   6.222   3.780   2.298
 9572TIP3    H228681   6.154   3.784   2.433
 9573TIP3   OH228682   0.251   0.439   3.624
 9573TIP3    H128683   0.303   0.484   3.557
 9573TIP3    H228684   0.317   0.397   3.680
 9574TIP3   OH228685   0.506   5.779   4.179
 9574TIP3    H128686   0.490   5.708   4.117
 9574TIP3    H228687   0.450   5.851   4.150
 9575TIP3   OH228688   6.301   2.143   1.273
 9575TIP3    H128689   6.296   2.138   1.368
 9575TIP3    H228690   6.222   2.098   1.242
 9576TIP3   OH228691   4.144   2.098   5.777
 9576TIP3    H128692   4.090   2.026   5.811
 9576TIP3    H228693   4.231   2.083   5.815
 9577TIP3   OH228694   1.812   1.795   4.461
 9577TIP3    H128695   1.902   1.804   4.491
 9577TIP3    H228696   1.789   1.880   4.424
 9578TIP3   OH228697   4.522   0.835   0.250
 9578TIP3    H128698   4.495   0.913   0.201
 9578TIP3    H228699   4.548   0.772   0.182
 9579TIP3   OH228700   2.999   3.036   5.365
 9579TIP3    H128701   3.033   2.947   5.377
 9579TIP3    H228702   2.907   3.031   5.390
 9580TIP3   OH228703   0.942   4.140   4.695
 9580TIP3    H128704   0.913   4.224   4.731
 9580TIP3    H228705   0.911   4.141   4.604
 9581TIP3   OH228706   4.068   0.415   3.008
 9581TIP3    H128707   4.124   0.492   2.994
 9581TIP3    H228708   4.112   0.345   2.961
 9582TIP3   OH228709   6.198   1.449   3.481
 9582TIP3    H128710   6.216   1.361   3.448
 9582TIP3    H228711   6.241   1.508   3.418
 9583TIP3   OH228712   7.110   5.547   0.577
 9583TIP3    H128713   7.052   5.486   0.531
 9583TIP3    H228714   7.055   5.623   0.594
 9584TIP3   OH228715   6.891   5.403   4.343
 9584TIP3    H128716   6.969   5.352   4.320
 9584TIP3    H228717   6.829   5.385   4.272
 9585TIP3   OH228718   5.635   5.704   2.598
 9585TIP3    H128719   5.723   5.668   2.599
 9585TIP3    H228720   5.583   5.643   2.650
 9586TIP3   OH228721   2.739   3.102   0.360
 9586TIP3    H128722   2.650   3.098   0.395
 9586TIP3    H228723   2.730   3.076   0.268
 9587TIP3   OH228724   0.762   3.934   1.907
 9587TIP3    H128725   0.727   3.846   1.893
 9587TIP3    H228726   0.763   3.974   1.820
 9588TIP3   OH228727   4.389   5.021   5.168
 9588TIP3    H128728   4.384   5.102   5.220
 9588TIP3    H228729   4.425   4.956   5.229
 9589TIP3   OH228730   3.292   6.278   4.621
 9589TIP3    H128731   3.283   6.202   4.563
 9589TIP3    H228732   3.202   6.312   4.630
 9590TIP3   OH228733   3.135   4.291   3.164
 9590TIP3    H128734   3.154   4.385   3.165
 9590TIP3    H228735   3.221   4.249   3.160
 9591TIP3   OH228736   0.780   2.084   4.393
 9591TIP3    H128737   0.848   2.017   4.384
 9591TIP3    H228738   0.782   2.108   4.485
 9592TIP3   OH228739   4.707   6.705   1.186
 9592TIP3    H128740   4.744   6.793   1.193
 9592TIP3    H228741   4.766   6.650   1.238
 9593TIP3   OH228742   3.953   0.556   4.372
 9593TIP3    H128743   3.954   0.474   4.421
 9593TIP3    H228744   4.023   0.546   4.308
 9594TIP3   OH228745   3.817   5.189   5.546
 9594TIP3    H128746   3.822   5.252   5.475
 9594TIP3    H228747   3.791   5.240   5.623
 9595TIP3   OH228748   0.066   1.711   5.747
 9595TIP3    H128749  -0.008   1.763   5.778
 9595TIP3    H228750   0.058   1.714   5.651
 9596TIP3   OH228751   6.346   2.925   0.902
 9596TIP3    H128752   6.327   2.943   0.994
 9596TIP3    H228753   6.321   3.005   0.856
 9597TIP3   OH228754   1.735   3.051   1.061
 9597TIP3    H128755   1.731   2.957   1.075
 9597TIP3    H228756   1.763   3.061   0.970
 9598TIP3   OH228757   7.135   4.348   1.422
 9598TIP3    H128758   7.041   4.358   1.434
 9598TIP3    H228759   7.145   4.282   1.354
 9599TIP3   OH228760   2.133   4.228   2.824
 9599TIP3    H128761   2.113   4.202   2.734
 9599TIP3    H228762   2.145   4.146   2.871
 9600TIP3   OH228763   1.380   6.315   5.234
 9600TIP3    H128764   1.464   6.341   5.269
 9600TIP3    H228765   1.378   6.351   5.145
 9601TIP3   OH228766   5.862   3.892   1.586
 9601TIP3    H128767   5.898   3.965   1.537
 9601TIP3    H228768   5.906   3.895   1.671
 9602TIP3   OH228769   5.436   4.644   0.044
 9602TIP3    H128770   5.406   4.559   0.077
 9602TIP3    H228771   5.356   4.688   0.015
 9603TIP3   OH228772   2.458   5.509   2.006
 9603TIP3    H128773   2.479   5.596   1.972
 9603TIP3    H228774   2.543   5.465   2.012
 9604TIP3   OH228775   1.218   4.252   1.217
 9604TIP3    H128776   1.301   4.204   1.214
 9604TIP3    H228777   1.203   4.270   1.309
 9605TIP3   OH228778   4.026   2.908   4.579
 9605TIP3    H128779   3.949   2.921   4.635
 9605TIP3    H228780   4.065   2.995   4.573
 9606TIP3   OH228781   5.886   5.516   5.388
 9606TIP3    H128782   5.918   5.523   5.298
 9606TIP3    H228783   5.944   5.452   5.430
 9607TIP3   OH228784   4.881   0.827   1.751
 9607TIP3    H128785   4.844   0.753   1.799
 9607TIP3    H228786   4.854   0.904   1.800
 9608TIP3   OH228787   2.048   5.101   3.116
 9608TIP3    H128788   2.123   5.043   3.108
 9608TIP3    H228789   2.086   5.187   3.132
 9609TIP3   OH228790   1.843   0.920   0.431
 9609TIP3    H128791   1.874   1.010   0.437
 9609TIP3    H228792   1.827   0.893   0.521
 9610TIP3   OH228793   6.203   5.409   4.423
 9610TIP3    H128794   6.278   5.365   4.463
 9610TIP3    H228795   6.238   5.446   4.342
 9611TIP3   OH228796   0.171   1.347   3.221
 9611TIP3    H128797   0.146   1.255   3.222
 9611TIP3    H228798   0.243   1.352   3.158
 9612TIP3   OH228799   1.414   0.146   0.298
 9612TIP3    H128800   1.450   0.174   0.214
 9612TIP3    H228801   1.486   0.100   0.341
 9613TIP3   OH228802   4.254   5.971   1.587
 9613TIP3    H128803   4.203   5.952   1.666
 9613TIP3    H228804   4.232   5.900   1.527
 9614TIP3   OH228805   1.852   5.369   2.458
 9614TIP3    H128806   1.915   5.326   2.516
 9614TIP3    H228807   1.795   5.417   2.518
 9615TIP3   OH228808   2.202   1.572   0.103
 9615TIP3    H128809   2.134   1.635   0.079
 9615TIP3    H228810   2.213   1.518   0.024
 9616TIP3   OH228811   4.657   2.734   2.412
 9616TIP3    H128812   4.565   2.724   2.385
 9616TIP3    H228813   4.655   2.731   2.507
 9617TIP3   OH228814   3.686   0.121   1.311
 9617TIP3    H128815   3.775   0.121   1.275
 9617TIP3    H228816   3.649   0.037   1.285
 9618TIP3   OH228817   1.304   5.855   0.926
 9618TIP3    H128818   1.252   5.911   0.868
 9618TIP3    H228819   1.383   5.907   0.943
 9619TIP3   OH228820   6.562   0.848   3.198
 9619TIP3    H128821   6.565   0.771   3.254
 9619TIP3    H228822   6.552   0.921   3.260
 9620TIP3   OH228823   2.074   1.791   0.548
 9620TIP3    H128824   2.022   1.863   0.583
 9620TIP3    H228825   2.010   1.722   0.529
 9621TIP3   OH228826   0.525   0.108   3.768
 9621TIP3    H128827   0.517   0.019   3.802
 9621TIP3    H228828   0.614   0.113   3.734
 9622TIP3   OH228829   0.371   5.043   4.091
 9622TIP3    H128830   0.457   5.069   4.061
 9622TIP3    H228831   0.387   4.967   4.147
 9623TIP3   OH228832   0.046   0.619   2.469
 9623TIP3    H128833  -0.047   0.595   2.462
 9623TIP3    H228834   0.084   0.551   2.523
 9624TIP3   OH228835   0.637   3.949   5.752
 9624TIP3    H128836   0.565   3.966   5.691
 9624TIP3    H228837   0.673   4.035   5.771
 9625TIP3   OH228838   4.700   5.682   1.269
 9625TIP3    H128839   4.756   5.753   1.299
 9625TIP3    H228840   4.668   5.711   1.183
 9626TIP3   OH228841   4.689   6.115   3.482
 9626TIP3    H128842   4.779   6.144   3.493
 9626TIP3    H228843   4.687   6.027   3.518
 9627TIP3   OH228844   5.644   1.216   3.539
 9627TIP3    H128845   5.635   1.250   3.449
 9627TIP3    H228846   5.645   1.121   3.528
 9628TIP3   OH228847   7.273   5.487   4.766
 9628TIP3    H128848   7.184   5.506   4.736
 9628TIP3    H228849   7.262   5.417   4.830
 9629TIP3   OH228850   7.162   5.688   5.122
 9629TIP3    H128851   7.153   5.771   5.168
 9629TIP3    H228852   7.073   5.663   5.098
 9630TIP3   OH228853   6.532   4.841   2.536
 9630TIP3    H128854   6.466   4.877   2.476
 9630TIP3    H228855   6.545   4.909   2.602
 9631TIP3   OH228856   4.532   2.407   1.430
 9631TIP3    H128857   4.556   2.469   1.360
 9631TIP3    H228858   4.573   2.325   1.404
 9632TIP3   OH228859   5.408   0.387   2.547
 9632TIP3    H128860   5.455   0.446   2.487
 9632TIP3    H228861   5.416   0.301   2.506
 9633TIP3   OH228862   6.893   5.577   5.384
 9633TIP3    H128863   6.947   5.572   5.463
 9633TIP3    H228864   6.830   5.506   5.394
 9634TIP3   OH228865   1.924   1.864   1.793
 9634TIP3    H128866   1.980   1.843   1.868
 9634TIP3    H228867   1.899   1.778   1.757
 9635TIP3   OH228868   3.844   2.255   4.551
 9635TIP3    H128869   3.769   2.314   4.556
 9635TIP3    H228870   3.812   2.181   4.499
 9636TIP3   OH228871   3.903   1.139   3.734
 9636TIP3    H128872   3.896   1.054   3.690
 9636TIP3    H228873   3.924   1.118   3.825
 9637TIP3   OH228874   4.009   0.818   4.104
 9637TIP3    H128875   4.017   0.763   4.027
 9637TIP3    H228876   3.923   0.795   4.141
 9638TIP3   OH228877   5.859   2.715   1.612
 9638TIP3    H128878   5.886   2.807   1.606
 9638TIP3    H228879   5.851   2.699   1.706
 9639TIP3   OH228880   3.483   3.051   4.515
 9639TIP3    H128881   3.413   2.995   4.480
 9639TIP3    H228882   3.563   2.998   4.506
 9640TIP3   OH228883   1.187   2.428   5.156
 9640TIP3    H128884   1.213   2.506   5.108
 9640TIP3    H228885   1.256   2.416   5.222
 9641TIP3   OH228886   2.868   2.867   3.954
 9641TIP3    H128887   2.850   2.788   3.904
 9641TIP3    H228888   2.933   2.841   4.019
 9642TIP3   OH228889   0.144   2.241   2.436
 9642TIP3    H128890   0.095   2.230   2.518
 9642TIP3    H228891   0.214   2.175   2.441
 9643TIP3   OH228892   2.880   5.580   3.392
 9643TIP3    H128893   2.796   5.620   3.368
 9643TIP3    H228894   2.890   5.599   3.485
 9644TIP3   OH228895   4.332   2.048   1.847
 9644TIP3    H128896   4.380   2.095   1.779
 9644TIP3    H228897   4.395   1.986   1.883
 9645TIP3   OH228898   5.125   0.812   1.387
 9645TIP3    H128899   5.056   0.877   1.400
 9645TIP3    H228900   5.147   0.782   1.475
 9646TIP3   OH228901   4.947   0.837   3.965
 9646TIP3    H128902   4.872   0.889   3.995
 9646TIP3    H228903   4.910   0.778   3.899
 9647TIP3   OH228904   5.053   2.577   0.048
 9647TIP3    H128905   5.027   2.633   0.122
 9647TIP3    H228906   5.103   2.506   0.089
 9648TIP3   OH228907   1.753   2.870   5.402
 9648TIP3    H128908   1.790   2.909   5.481
 9648TIP3    H228909   1.753   2.776   5.419
 9649TIP3   OH228910   6.421   1.588   5.711
 9649TIP3    H128911   6.415   1.609   5.804
 9649TIP3    H228912   6.382   1.664   5.666
 9650TIP3   OH228913   1.017   0.039   0.469
 9650TIP3    H128914   1.031   0.093   0.391
 9650TIP3    H228915   1.091  -0.022   0.469
 9651TIP3   OH228916   4.249   6.015   0.049
 9651TIP3    H128917   4.285   6.098   0.078
 9651TIP3    H228918   4.325   5.965   0.018
 9652TIP3   OH228919   7.057   5.981   0.370
 9652TIP3    H128920   7.056   5.895   0.327
 9652TIP3    H228921   7.011   6.039   0.309
 9653TIP3   OH228922   1.658   5.412   2.148
 9653TIP3    H128923   1.737   5.387   2.099
 9653TIP3    H228924   1.686   5.485   2.203
 9654TIP3   OH228925   4.360   6.293   5.545
 9654TIP3    H128926   4.265   6.303   5.553
 9654TIP3    H228927   4.390   6.375   5.505
 9655TIP3   OH228928   5.308   2.411   5.475
 9655TIP3    H128929   5.254   2.336   5.499
 9655TIP3    H228930   5.246   2.484   5.466
 9656TIP3   OH228931   6.330   5.245   1.585
 9656TIP3    H128932   6.297   5.204   1.505
 9656TIP3    H228933   6.424   5.253   1.570
 9657TIP3   OH228934   2.464   6.500   0.109
 9657TIP3    H128935   2.500   6.484   0.022
 9657TIP3    H228936   2.427   6.588   0.104
 9658TIP3   OH228937   5.481   5.818   3.042
 9658TIP3    H128938   5.437   5.858   2.968
 9658TIP3    H228939   5.558   5.775   3.005
 9659TIP3   OH228940   3.536   1.698   2.929
 9659TIP3    H128941   3.604   1.708   2.862
 9659TIP3    H228942   3.489   1.618   2.903
 9660TIP3   OH228943   4.021   0.292   4.783
 9660TIP3    H128944   4.004   0.198   4.782
 9660TIP3    H228945   3.998   0.322   4.695
 9661TIP3   OH228946   4.780   3.203   4.593
 9661TIP3    H128947   4.769   3.211   4.687
 9661TIP3    H228948   4.755   3.112   4.573
 9662TIP3   OH228949   4.099   1.647   3.042
 9662TIP3    H128950   4.060   1.670   2.958
 9662TIP3    H228951   4.175   1.704   3.050
 9663TIP3   OH228952   5.805   5.653   3.117
 9663TIP3    H128953   5.751   5.679   3.192
 9663TIP3    H228954   5.883   5.613   3.157
 9664TIP3   OH228955   5.392   2.661   4.094
 9664TIP3    H128956   5.373   2.668   4.001
 9664TIP3    H228957   5.404   2.567   4.109
 9665TIP3   OH228958   4.487   5.168   1.497
 9665TIP3    H128959   4.425   5.228   1.456
 9665TIP3    H228960   4.500   5.203   1.585
 9666TIP3   OH228961   6.011   1.426   0.755
 9666TIP3    H128962   6.094   1.417   0.801
 9666TIP3    H228963   5.950   1.372   0.805
 9667TIP3   OH228964   3.578   4.323   0.719
 9667TIP3    H128965   3.555   4.353   0.631
 9667TIP3    H228966   3.499   4.339   0.771
 9668TIP3   OH228967   5.761   6.498   2.982
 9668TIP3    H128968   5.838   6.506   2.926
 9668TIP3    H228969   5.791   6.527   3.068
 9669TIP3   OH228970   0.417   5.727   3.490
 9669TIP3    H128971   0.337   5.711   3.439
 9669TIP3    H228972   0.463   5.643   3.487
 9670TIP3   OH228973   6.744   0.141   4.912
 9670TIP3    H128974   6.670   0.201   4.915
 9670TIP3    H228975   6.821   0.197   4.920
 9671TIP3   OH228976   4.668   0.568   4.217
 9671TIP3    H128977   4.714   0.504   4.163
 9671TIP3    H228978   4.669   0.530   4.305
 9672TIP3   OH228979   1.292   2.911   2.207
 9672TIP3    H128980   1.249   2.862   2.137
 9672TIP3    H228981   1.295   2.850   2.281
 9673TIP3   OH228982   3.514   0.391   3.323
 9673TIP3    H128983   3.558   0.473   3.300
 9673TIP3    H228984   3.543   0.329   3.256
 9674TIP3   OH228985   4.376   1.773   3.106
 9674TIP3    H128986   4.326   1.809   3.179
 9674TIP3    H228987   4.459   1.821   3.108
 9675TIP3   OH228988   0.888   3.303   5.456
 9675TIP3    H128989   0.859   3.256   5.378
 9675TIP3    H228990   0.840   3.386   5.454
 9676TIP3   OH228991   5.275   4.284   2.617
 9676TIP3    H128992   5.200   4.301   2.560
 9676TIP3    H228993   5.272   4.354   2.682
 9677TIP3   OH228994   0.867   4.136   3.684
 9677TIP3    H128995   0.901   4.194   3.752
 9677TIP3    H228996   0.773   4.153   3.682
 9678TIP3   OH228997   2.761   3.370   4.500
 9678TIP3    H128998   2.818   3.435   4.539
 9678TIP3    H228999   2.680   3.417   4.481
 9679TIP3   OH229000   2.285   3.654   1.122
 9679TIP3    H129001   2.210   3.596   1.134
 9679TIP3    H229002   2.259   3.712   1.050
 9680TIP3   OH229003   4.484   3.150   1.785
 9680TIP3    H129004   4.451   3.201   1.712
 9680TIP3    H229005   4.462   3.200   1.863
 9681TIP3   OH229006   6.247   3.965   0.287
 9681TIP3    H129007   6.210   3.911   0.217
 9681TIP3    H229008   6.177   3.973   0.351
 9682TIP3   OH229009   4.986   0.749   2.346
 9682TIP3    H129010   5.073   0.726   2.379
 9682TIP3    H229011   4.966   0.679   2.283
 9683TIP3   OH229012   0.947   6.179   0.104
 9683TIP3    H129013   0.998   6.219   0.034
 9683TIP3    H229014   0.860   6.165   0.064
 9684TIP3   OH229015   0.093   4.519   5.910
 9684TIP3    H129016   0.127   4.572   5.839
 9684TIP3    H229017   0.160   4.452   5.925
 9685TIP3   OH229018   4.896   3.983   4.324
 9685TIP3    H129019   4.991   3.982   4.333
 9685TIP3    H229020   4.869   3.893   4.339
 9686TIP3   OH229021   6.758   0.970   1.465
 9686TIP3    H129022   6.695   0.956   1.537
 9686TIP3    H229023   6.843   0.967   1.507
 9687TIP3   OH229024   4.794   5.179   3.260
 9687TIP3    H129025   4.847   5.105   3.231
 9687TIP3    H229026   4.813   5.249   3.197
 9688TIP3   OH229027   3.628   4.180   3.452
 9688TIP3    H129028   3.718   4.162   3.478
 9688TIP3    H229029   3.583   4.202   3.534
 9689TIP3   OH229030   0.574   2.031   5.780
 9689TIP3    H129031   0.622   2.058   5.859
 9689TIP3    H229032   0.640   2.030   5.711
 9690TIP3   OH229033   7.127   5.236   4.522
 9690TIP3    H129034   7.144   5.310   4.464
 9690TIP3    H229035   7.039   5.250   4.554
 9691TIP3   OH229036   2.504   3.620   0.054
 9691TIP3    H129037   2.522   3.698   0.106
 9691TIP3    H229038   2.517   3.547   0.115
 9692TIP3   OH229039   4.336   0.528   0.130
 9692TIP3    H129040   4.257   0.553   0.081
 9692TIP3    H229041   4.406   0.577   0.088
 9693TIP3   OH229042   6.620   1.448   3.974
 9693TIP3    H129043   6.567   1.503   4.031
 9693TIP3    H229044   6.566   1.370   3.958
 9694TIP3   OH229045   0.490   1.308   2.432
 9694TIP3    H129046   0.517   1.311   2.340
 9694TIP3    H229047   0.412   1.364   2.436
 9695TIP3   OH229048   3.245   6.792   2.178
 9695TIP3    H129049   3.280   6.871   2.221
 9695TIP3    H229050   3.201   6.744   2.249
 9696TIP3   OH229051   1.642   3.190   0.612
 9696TIP3    H129052   1.589   3.167   0.536
 9696TIP3    H229053   1.650   3.285   0.608
 9697TIP3   OH229054   0.430   3.709   4.163
 9697TIP3    H129055   0.393   3.764   4.232
 9697TIP3    H229056   0.397   3.621   4.183
 9698TIP3   OH229057   3.492   6.467   4.560
 9698TIP3    H129058   3.457   6.544   4.605
 9698TIP3    H229059   3.431   6.396   4.581
 9699TIP3   OH229060   1.225   4.879   0.334
 9699TIP3    H129061   1.210   4.929   0.414
 9699TIP3    H229062   1.317   4.853   0.338
 9700TIP3   OH229063   3.748   0.381   0.671
 9700TIP3    H129064   3.756   0.352   0.580
 9700TIP3    H229065   3.772   0.474   0.668
 9701TIP3   OH229066   1.704   5.658   0.348
 9701TIP3    H129067   1.751   5.584   0.309
 9701TIP3    H229068   1.700   5.724   0.279
 9702TIP3   OH229069   6.269   2.046   5.808
 9702TIP3    H129070   6.247   2.014   5.721
 9702TIP3    H229071   6.207   2.002   5.866
 9703TIP3   OH229072   3.855   5.583   4.624
 9703TIP3    H129073   3.778   5.528   4.635
 9703TIP3    H229074   3.832   5.666   4.667
 9704TIP3   OH229075   2.932   3.806   4.846
 9704TIP3    H129076   2.869   3.866   4.805
 9704TIP3    H229077   2.995   3.863   4.890
 9705TIP3   OH229078   2.501   5.515   3.230
 9705TIP3    H129079   2.544   5.596   3.257
 9705TIP3    H229080   2.568   5.467   3.181
 9706TIP3   OH229081   0.513   3.782   0.325
 9706TIP3    H129082   0.507   3.715   0.256
 9706TIP3    H229083   0.542   3.734   0.403
 9707TIP3   OH229084   1.507   2.476   1.083
 9707TIP3    H129085   1.511   2.559   1.132
 9707TIP3    H229086   1.441   2.492   1.015
 9708TIP3   OH229087   6.944   6.276   0.961
 9708TIP3    H129088   6.880   6.238   0.900
 9708TIP3    H229089   7.006   6.322   0.904
 9709TIP3   OH229090   4.961   5.604   4.957
 9709TIP3    H129091   4.885   5.594   5.014
 9709TIP3    H229092   4.942   5.548   4.881
 9710TIP3   OH229093   0.547   1.602   0.176
 9710TIP3    H129094   0.512   1.580   0.090
 9710TIP3    H229095   0.639   1.622   0.161
 9711TIP3   OH229096   6.932   3.077   2.094
 9711TIP3    H129097   7.000   3.013   2.077
 9711TIP3    H229098   6.967   3.160   2.061
 9712TIP3   OH229099   6.951   5.076   3.828
 9712TIP3    H129100   6.884   5.044   3.889
 9712TIP3    H229101   7.030   5.085   3.882
 9713TIP3   OH229102   5.169   1.038   2.031
 9713TIP3    H129103   5.095   1.093   2.055
 9713TIP3    H229104   5.208   1.013   2.115
 9714TIP3   OH229105   4.628   0.069   0.217
 9714TIP3    H129106   4.545   0.039   0.253
 9714TIP3    H229107   4.616   0.163   0.204
 9715TIP3   OH229108   1.527   4.347   3.861
 9715TIP3    H129109   1.461   4.279   3.845
 9715TIP3    H229110   1.491   4.425   3.819
 9716TIP3   OH229111   0.655   6.722   1.588
 9716TIP3    H129112   0.699   6.796   1.547
 9716TIP3    H229113   0.591   6.761   1.648
 9717TIP3   OH229114   0.708   3.325   0.257
 9717TIP3    H129115   0.774   3.374   0.308
 9717TIP3    H229116   0.638   3.308   0.320
 9718TIP3   OH229117   4.228   2.219   5.303
 9718TIP3    H129118   4.159   2.255   5.358
 9718TIP3    H229119   4.209   2.252   5.216
 9719TIP3   OH229120   6.477   1.895   2.239
 9719TIP3    H129121   6.428   1.959   2.187
 9719TIP3    H229122   6.549   1.946   2.277
 9720TIP3   OH229123   0.580   5.247   2.442
 9720TIP3    H129124   0.550   5.274   2.528
 9720TIP3    H229125   0.539   5.162   2.427
 9721TIP3   OH229126   6.944   4.478   3.514
 9721TIP3    H129127   6.867   4.465   3.569
 9721TIP3    H229128   7.017   4.449   3.569
 9722TIP3   OH229129   2.917   3.106   1.598
 9722TIP3    H129130   2.894   3.046   1.526
 9722TIP3    H229131   2.860   3.080   1.670
 9723TIP3   OH229132   0.560   6.229   4.960
 9723TIP3    H129133   0.539   6.135   4.958
 9723TIP3    H229134   0.591   6.244   5.050
 9724TIP3   OH229135   3.901   2.604   3.551
 9724TIP3    H129136   3.911   2.635   3.641
 9724TIP3    H229137   3.846   2.525   3.559
 9725TIP3   OH229138   5.839   1.833   0.651
 9725TIP3    H129139   5.833   1.910   0.594
 9725TIP3    H229140   5.826   1.868   0.739
 9726TIP3   OH229141   3.262   6.385   3.619
 9726TIP3    H129142   3.206   6.352   3.549
 9726TIP3    H229143   3.349   6.393   3.578
 9727TIP3   OH229144   0.703   6.424   5.845
 9727TIP3    H129145   0.736   6.345   5.802
 9727TIP3    H229146   0.618   6.398   5.880
 9728TIP3   OH229147   1.682   6.810   2.748
 9728TIP3    H129148   1.639   6.811   2.834
 9728TIP3    H229149   1.623   6.758   2.694
 9729TIP3   OH229150   3.021   2.896   2.585
 9729TIP3    H129151   3.072   2.949   2.523
 9729TIP3    H229152   2.930   2.918   2.566
 9730TIP3   OH229153   6.586   6.157   4.716
 9730TIP3    H129154   6.666   6.163   4.663
 9730TIP3    H229155   6.617   6.133   4.804
 9731TIP3   OH229156   1.871   2.247   2.898
 9731TIP3    H129157   1.860   2.153   2.883
 9731TIP3    H229158   1.881   2.255   2.993
 9732TIP3   OH229159   1.641   5.475   3.815
 9732TIP3    H129160   1.586   5.506   3.887
 9732TIP3    H229161   1.718   5.438   3.857
 9733TIP3   OH229162   6.960   4.895   1.879
 9733TIP3    H129163   6.912   4.935   1.807
 9733TIP3    H229164   6.895   4.844   1.927
 9734TIP3   OH229165   1.942   1.435   2.100
 9734TIP3    H129166   1.907   1.396   2.180
 9734TIP3    H229167   1.947   1.362   2.038
 9735TIP3   OH229168   5.257   5.755   2.481
 9735TIP3    H129169   5.228   5.838   2.519
 9735TIP3    H229170   5.292   5.780   2.395
 9736TIP3   OH229171   5.295   2.930   5.758
 9736TIP3    H129172   5.353   2.909   5.831
 9736TIP3    H229173   5.350   2.981   5.698
 9737TIP3   OH229174   5.765   3.316   0.825
 9737TIP3    H129175   5.858   3.318   0.848
 9737TIP3    H229176   5.721   3.364   0.894
 9738TIP3   OH229177   6.458   3.140   0.521
 9738TIP3    H129178   6.428   3.078   0.454
 9738TIP3    H229179   6.548   3.115   0.538
 9739TIP3   OH229180   0.087   2.479   1.357
 9739TIP3    H129181   0.081   2.422   1.434
 9739TIP3    H229182   0.030   2.553   1.377
 9740TIP3   OH229183   6.861   5.374   3.522
 9740TIP3    H129184   6.892   5.393   3.610
 9740TIP3    H229185   6.840   5.281   3.523
 9741TIP3   OH229186   5.205   6.585   5.747
 9741TIP3    H129187   5.137   6.580   5.680
 9741TIP3    H229188   5.163   6.625   5.822
 9742TIP3   OH229189   3.182   4.851   5.642
 9742TIP3    H129190   3.189   4.760   5.611
 9742TIP3    H229191   3.157   4.843   5.734
 9743TIP3   OH229192   1.070   4.116   4.313
 9743TIP3    H129193   1.104   4.032   4.285
 9743TIP3    H229194   1.148   4.173   4.318
 9744TIP3   OH229195   2.683   3.938   1.610
 9744TIP3    H129196   2.702   3.938   1.516
 9744TIP3    H229197   2.737   4.010   1.644
 9745TIP3   OH229198   7.212   3.710   3.536
 9745TIP3    H129199   7.186   3.679   3.449
 9745TIP3    H229200   7.221   3.805   3.525
 9746TIP3   OH229201   1.270   4.277   4.052
 9746TIP3    H129202   1.283   4.348   3.988
 9746TIP3    H229203   1.341   4.215   4.033
 9747TIP3   OH229204   6.586   6.641   1.929
 9747TIP3    H129205   6.672   6.672   1.902
 9747TIP3    H229206   6.527   6.671   1.859
 9748TIP3   OH229207   4.560   5.439   4.391
 9748TIP3    H129208   4.475   5.443   4.434
 9748TIP3    H229209   4.574   5.346   4.374
 9749TIP3   OH229210   2.334   2.352   1.958
 9749TIP3    H129211   2.321   2.421   1.893
 9749TIP3    H229212   2.377   2.395   2.032
   7.21505   6.80243   5.89106   0.00000   0.00000  -2.40502   0.00000  -2.40502  -3.40121
