Title t=  59.00000 step= 29500
19942
    1ASP      N    1   1.415   1.688   3.741
    1ASP    HT1    2   1.468   1.740   3.669
    1ASP    HT2    3   1.472   1.610   3.780
    1ASP    HT3    4   1.405   1.757   3.818
    1ASP     CA    5   1.273   1.646   3.705
    1ASP     HA    6   1.246   1.562   3.768
    1ASP     CB    7   1.182   1.772   3.721
    1ASP    HB1    8   1.216   1.851   3.651
    1ASP    HB2    9   1.179   1.803   3.828
    1ASP     CG   10   1.034   1.741   3.697
    1ASP    OD1   11   0.956   1.828   3.654
    1ASP    OD2   12   1.002   1.627   3.741
    1ASP      C   13   1.266   1.599   3.560
    1ASP      O   14   1.332   1.659   3.476
    2ALA      N   15   1.195   1.496   3.530
    2ALA     HN   16   1.145   1.446   3.601
    2ALA     CA   17   1.187   1.433   3.406
    2ALA     HA   18   1.283   1.438   3.356
    2ALA     CB   19   1.167   1.280   3.421
    2ALA    HB1   20   1.175   1.216   3.331
    2ALA    HB2   21   1.070   1.272   3.476
    2ALA    HB3   22   1.237   1.247   3.501
    2ALA      C   23   1.069   1.481   3.318
    2ALA      O   24   0.954   1.498   3.359
    3ASP      N   25   1.104   1.503   3.190
    3ASP     HN   26   1.197   1.494   3.155
    3ASP     CA   27   0.997   1.536   3.093
    3ASP     HA   28   0.947   1.627   3.124
    3ASP     CB   29   1.069   1.555   2.960
    3ASP    HB1   30   0.994   1.597   2.889
    3ASP    HB2   31   1.111   1.461   2.919
    3ASP     CG   32   1.194   1.643   2.954
    3ASP    OD1   33   1.254   1.656   2.845
    3ASP    OD2   34   1.228   1.711   3.057
    3ASP      C   35   0.885   1.441   3.069
    3ASP      O   36   0.902   1.322   3.099
    4GLY      N   37   0.779   1.490   3.002
    4GLY     HN   38   0.777   1.588   2.988
    4GLY     CA   39   0.667   1.422   2.950
    4GLY    HA1   40   0.590   1.486   2.911
    4GLY    HA2   41   0.628   1.376   3.040
    4GLY      C   42   0.682   1.320   2.838
    4GLY      O   43   0.789   1.315   2.783
    5PRO      N   44   0.579   1.238   2.803
    5PRO     CD   45   0.449   1.231   2.872
    5PRO    HD1   46   0.405   1.333   2.879
    5PRO    HD2   47   0.460   1.193   2.976
    5PRO     CA   48   0.577   1.175   2.667
    5PRO     HA   49   0.638   1.086   2.672
    5PRO     CB   50   0.424   1.149   2.644
    5PRO    HB1   51   0.398   1.054   2.592
    5PRO    HB2   52   0.372   1.239   2.607
    5PRO     CG   53   0.375   1.130   2.787
    5PRO    HG1   54   0.266   1.132   2.806
    5PRO    HG2   55   0.409   1.035   2.832
    5PRO      C   56   0.625   1.252   2.551
    5PRO      O   57   0.586   1.369   2.537
    6GLY      N   58   0.714   1.193   2.473
    6GLY     HN   59   0.759   1.109   2.503
    6GLY     CA   60   0.768   1.242   2.350
    6GLY    HA1   61   0.854   1.181   2.327
    6GLY    HA2   62   0.803   1.343   2.359
    6GLY      C   63   0.668   1.232   2.229
    6GLY      O   64   0.549   1.207   2.245
    7ASP      N   65   0.717   1.250   2.105
    7ASP     HN   66   0.811   1.282   2.100
    7ASP     CA   67   0.648   1.190   1.989
    7ASP     HA   68   0.541   1.193   2.002
    7ASP     CB   69   0.672   1.297   1.876
    7ASP    HB1   70   0.779   1.298   1.845
    7ASP    HB2   71   0.651   1.399   1.912
    7ASP     CG   72   0.593   1.278   1.756
    7ASP    OD1   73   0.604   1.373   1.671
    7ASP    OD2   74   0.522   1.179   1.736
    7ASP      C   75   0.708   1.048   1.956
    7ASP      O   76   0.831   1.040   1.945
    8PRO      N   77   0.640   0.937   1.932
    8PRO     CD   78   0.497   0.925   1.976
    8PRO    HD1   79   0.433   0.955   1.891
    8PRO    HD2   80   0.465   0.974   2.070
    8PRO     CA   81   0.697   0.806   1.897
    8PRO     HA   82   0.778   0.777   1.963
    8PRO     CB   83   0.579   0.708   1.912
    8PRO    HB1   84   0.619   0.613   1.953
    8PRO    HB2   85   0.536   0.686   1.812
    8PRO     CG   86   0.479   0.776   2.001
    8PRO    HG1   87   0.372   0.746   1.992
    8PRO    HG2   88   0.504   0.756   2.108
    8PRO      C   89   0.747   0.792   1.762
    8PRO      O   90   0.789   0.685   1.729
    9ASP      N   91   0.747   0.900   1.685
    9ASP     HN   92   0.693   0.979   1.713
    9ASP     CA   93   0.837   0.917   1.569
    9ASP     HA   94   0.829   0.830   1.506
    9ASP     CB   95   0.804   1.053   1.491
    9ASP    HB1   96   0.865   1.063   1.398
    9ASP    HB2   97   0.819   1.137   1.562
    9ASP     CG   98   0.662   1.058   1.442
    9ASP    OD1   99   0.617   1.171   1.410
    9ASP    OD2  100   0.605   0.945   1.428
    9ASP      C  101   0.989   0.922   1.600
    9ASP      O  102   1.076   0.891   1.515
   10ALA      N  103   1.032   0.960   1.723
   10ALA     HN  104   0.960   0.980   1.790
   10ALA     CA  105   1.164   0.983   1.769
   10ALA     HA  106   1.230   0.967   1.684
   10ALA     CB  107   1.188   1.122   1.828
   10ALA    HB1  108   1.286   1.139   1.876
   10ALA    HB2  109   1.124   1.148   1.915
   10ALA    HB3  110   1.178   1.195   1.744
   10ALA      C  111   1.196   0.869   1.869
   10ALA      O  112   1.107   0.805   1.918
   11GLY      N  113   1.320   0.842   1.898
   11GLY     HN  114   1.402   0.893   1.873
   11GLY     CA  115   1.356   0.748   2.003
   11GLY    HA1  116   1.305   0.654   1.996
   11GLY    HA2  117   1.348   0.791   2.102
   11GLY      C  118   1.510   0.726   1.995
   11GLY    OT1  119   1.569   0.719   1.883
   11GLY    OT2  120   1.580   0.731   2.099
   12LIT    LIT  121   4.600   4.900   3.185
   13LIT    LIT  122   0.740   2.432   2.837
   14LIT    LIT  123   2.378   0.186   3.244
   15LIT    LIT  124   4.169   5.978   4.467
   16LIT    LIT  125   3.901   5.360   3.209
   17LIT    LIT  126   3.707   4.475   3.713
   18LIT    LIT  127   6.117   5.221   3.172
   19LIT    LIT  128   0.547   1.318   1.507
   20LIT    LIT  129   3.054   2.586   4.879
   21LIT    LIT  130   3.749   0.128   2.943
   22LIT    LIT  131   3.789   2.678   0.710
   23LIT    LIT  132   0.847   1.931   1.990
   24LIT    LIT  133   6.175   2.519   0.305
   25LIT    LIT  134   2.057   5.282   0.653
   26LIT    LIT  135   2.143   1.252   4.760
   27LIT    LIT  136   5.773   0.302   2.781
   28LIT    LIT  137   2.152   1.915   4.371
   29LIT    LIT  138   3.043   4.351   2.306
   30LIT    LIT  139   1.857   1.892   0.953
   31LIT    LIT  140   5.279   3.610   3.956
   32LIT    LIT  141   4.664   0.042   0.784
   33LIT    LIT  142   4.286   0.679   0.970
   34CLA    CLA  143   3.192   2.731   2.828
   35CLA    CLA  144   3.811   5.663   4.320
   36CLA    CLA  145   2.989   1.621   4.375
   37CLA    CLA  146   6.011   3.865   3.524
   38CLA    CLA  147   3.638   5.820   0.255
   39CLA    CLA  148   4.055   4.740   3.446
   40CLA    CLA  149   0.858   1.325   4.057
   41CLA    CLA  150   0.552   2.367   0.295
   42CLA    CLA  151   3.347   3.205   2.820
   43CLA    CLA  152   1.280   3.354   1.695
   44CLA    CLA  153   5.970   2.749   4.444
   45CLA    CLA  154   3.336   1.500   3.571
   46CLA    CLA  155   5.012   5.745   3.392
   47CLA    CLA  156   2.081   1.032   4.735
   48CLA    CLA  157   1.423   2.437   0.062
   49CLA    CLA  158   6.047   4.606   0.334
   50CLA    CLA  159   1.680   2.921   1.324
   51CLA    CLA  160   1.854   5.513   1.649
   52TIP3   OH2  161   5.489   2.948   2.878
   52TIP3    H1  162   5.580   2.931   2.902
   52TIP3    H2  163   5.446   2.864   2.890
   53TIP3   OH2  164   4.995   0.450   0.372
   53TIP3    H1  165   5.073   0.438   0.318
   53TIP3    H2  166   4.958   0.362   0.380
   54TIP3   OH2  167   6.332   1.259   3.696
   54TIP3    H1  168   6.285   1.334   3.733
   54TIP3    H2  169   6.356   1.206   3.772
   55TIP3   OH2  170   4.756   5.512   1.690
   55TIP3    H1  171   4.685   5.447   1.697
   55TIP3    H2  172   4.817   5.488   1.760
   56TIP3   OH2  173   2.661   1.623   1.607
   56TIP3    H1  174   2.700   1.570   1.537
   56TIP3    H2  175   2.732   1.633   1.671
   57TIP3   OH2  176   5.890   3.860   4.265
   57TIP3    H1  177   5.923   3.924   4.328
   57TIP3    H2  178   5.865   3.912   4.188
   58TIP3   OH2  179   6.250   2.791   1.411
   58TIP3    H1  180   6.231   2.810   1.319
   58TIP3    H2  181   6.244   2.696   1.417
   59TIP3   OH2  182   3.401   2.842   3.534
   59TIP3    H1  183   3.491   2.873   3.530
   59TIP3    H2  184   3.350   2.918   3.563
   60TIP3   OH2  185   2.289   5.011   3.206
   60TIP3    H1  186   2.383   5.028   3.209
   60TIP3    H2  187   2.248   5.098   3.212
   61TIP3   OH2  188   4.915   2.522   2.269
   61TIP3    H1  189   4.890   2.473   2.347
   61TIP3    H2  190   4.863   2.482   2.199
   62TIP3   OH2  191   4.976   2.992   2.686
   62TIP3    H1  192   5.053   3.036   2.650
   62TIP3    H2  193   4.902   3.042   2.651
   63TIP3   OH2  194   3.825   2.718   1.308
   63TIP3    H1  195   3.796   2.654   1.243
   63TIP3    H2  196   3.747   2.771   1.326
   64TIP3   OH2  197   2.432   5.434   2.076
   64TIP3    H1  198   2.437   5.522   2.039
   64TIP3    H2  199   2.371   5.443   2.150
   65TIP3   OH2  200   2.201   0.061   2.065
   65TIP3    H1  201   2.223   0.014   1.984
   65TIP3    H2  202   2.284   0.096   2.096
   66TIP3   OH2  203   0.452   4.673   4.793
   66TIP3    H1  204   0.402   4.624   4.858
   66TIP3    H2  205   0.528   4.618   4.775
   67TIP3   OH2  206   4.766   3.306   4.965
   67TIP3    H1  207   4.727   3.310   5.052
   67TIP3    H2  208   4.821   3.384   4.960
   68TIP3   OH2  209   2.203   0.369   1.435
   68TIP3    H1  210   2.140   0.399   1.369
   68TIP3    H2  211   2.239   0.450   1.472
   69TIP3   OH2  212   3.616   3.279   1.672
   69TIP3    H1  213   3.592   3.239   1.756
   69TIP3    H2  214   3.537   3.271   1.618
   70TIP3   OH2  215   5.174   1.922   3.668
   70TIP3    H1  216   5.177   1.981   3.593
   70TIP3    H2  217   5.226   1.847   3.642
   71TIP3   OH2  218   4.249   3.828   0.621
   71TIP3    H1  219   4.312   3.781   0.676
   71TIP3    H2  220   4.182   3.763   0.601
   72TIP3   OH2  221   4.381   5.667   0.423
   72TIP3    H1  222   4.357   5.577   0.444
   72TIP3    H2  223   4.329   5.720   0.483
   73TIP3   OH2  224   1.074   5.422   2.115
   73TIP3    H1  225   0.981   5.412   2.132
   73TIP3    H2  226   1.112   5.445   2.201
   74TIP3   OH2  227   3.100   2.044   2.980
   74TIP3    H1  228   3.121   1.978   2.913
   74TIP3    H2  229   3.014   2.077   2.954
   75TIP3   OH2  230   5.086   1.683   1.301
   75TIP3    H1  231   5.097   1.618   1.232
   75TIP3    H2  232   5.161   1.742   1.291
   76TIP3   OH2  233   4.454   4.684   2.075
   76TIP3    H1  234   4.491   4.772   2.071
   76TIP3    H2  235   4.518   4.629   2.028
   77TIP3   OH2  236   0.488   1.206   3.351
   77TIP3    H1  237   0.579   1.182   3.333
   77TIP3    H2  238   0.437   1.158   3.286
   78TIP3   OH2  239   2.350   2.008   4.940
   78TIP3    H1  240   2.421   1.970   4.889
   78TIP3    H2  241   2.290   2.044   4.874
   79TIP3   OH2  242   6.125   0.898   0.805
   79TIP3    H1  243   6.095   0.812   0.835
   79TIP3    H2  244   6.092   0.960   0.871
   80TIP3   OH2  245   2.590   3.655   1.238
   80TIP3    H1  246   2.550   3.568   1.231
   80TIP3    H2  247   2.585   3.689   1.149
   81TIP3   OH2  248   2.101   3.247   3.311
   81TIP3    H1  249   2.114   3.186   3.384
   81TIP3    H2  250   2.137   3.201   3.235
   82TIP3   OH2  251   6.155   4.159   4.415
   82TIP3    H1  252   6.095   4.084   4.415
   82TIP3    H2  253   6.166   4.181   4.508
   83TIP3   OH2  254   5.285   3.663   2.893
   83TIP3    H1  255   5.310   3.586   2.944
   83TIP3    H2  256   5.367   3.697   2.858
   84TIP3   OH2  257   0.646   2.639   0.792
   84TIP3    H1  258   0.682   2.601   0.711
   84TIP3    H2  259   0.587   2.571   0.825
   85TIP3   OH2  260   0.173   0.835   4.676
   85TIP3    H1  261   0.184   0.752   4.629
   85TIP3    H2  262   0.142   0.896   4.609
   86TIP3   OH2  263   5.138   1.720   3.345
   86TIP3    H1  264   5.077   1.787   3.378
   86TIP3    H2  265   5.082   1.649   3.314
   87TIP3   OH2  266   5.133   5.126   2.710
   87TIP3    H1  267   5.151   5.074   2.631
   87TIP3    H2  268   5.110   5.061   2.776
   88TIP3   OH2  269   3.975   2.551   2.265
   88TIP3    H1  270   3.880   2.545   2.269
   88TIP3    H2  271   4.006   2.503   2.342
   89TIP3   OH2  272   3.458   2.879   4.728
   89TIP3    H1  273   3.375   2.868   4.776
   89TIP3    H2  274   3.433   2.927   4.649
   90TIP3   OH2  275   3.114   5.017   0.140
   90TIP3    H1  276   3.106   4.926   0.113
   90TIP3    H2  277   3.075   5.020   0.228
   91TIP3   OH2  278   5.653   1.200   4.134
   91TIP3    H1  279   5.601   1.154   4.200
   91TIP3    H2  280   5.613   1.287   4.129
   92TIP3   OH2  281   5.737   3.035   1.564
   92TIP3    H1  282   5.728   3.038   1.469
   92TIP3    H2  283   5.815   2.981   1.579
   93TIP3   OH2  284   4.315   4.847   2.694
   93TIP3    H1  285   4.240   4.878   2.643
   93TIP3    H2  286   4.301   4.753   2.703
   94TIP3   OH2  287   4.700   3.446   2.425
   94TIP3    H1  288   4.743   3.371   2.384
   94TIP3    H2  289   4.665   3.497   2.353
   95TIP3   OH2  290   1.180   5.716   3.931
   95TIP3    H1  291   1.219   5.776   3.995
   95TIP3    H2  292   1.210   5.748   3.846
   96TIP3   OH2  293   6.332   2.211   5.137
   96TIP3    H1  294   6.371   2.141   5.190
   96TIP3    H2  295   6.238   2.198   5.144
   97TIP3   OH2  296   3.492   4.452   1.127
   97TIP3    H1  297   3.453   4.520   1.183
   97TIP3    H2  298   3.572   4.493   1.093
   98TIP3   OH2  299   2.450   0.984   4.972
   98TIP3    H1  300   2.479   0.893   4.987
   98TIP3    H2  301   2.509   1.036   5.026
   99TIP3   OH2  302   0.969   2.698   2.195
   99TIP3    H1  303   0.909   2.670   2.264
   99TIP3    H2  304   1.043   2.738   2.241
  100TIP3   OH2  305   4.013   0.036   0.340
  100TIP3    H1  306   4.071   0.108   0.364
  100TIP3    H2  307   3.988   0.055   0.249
  101TIP3   OH2  308   2.221   0.579   1.085
  101TIP3    H1  309   2.157   0.641   1.049
  101TIP3    H2  310   2.179   0.544   1.164
  102TIP3   OH2  311   3.266   1.721   4.261
  102TIP3    H1  312   3.297   1.652   4.203
  102TIP3    H2  313   3.173   1.702   4.274
  103TIP3   OH2  314   3.200   3.531   3.279
  103TIP3    H1  315   3.217   3.470   3.207
  103TIP3    H2  316   3.187   3.615   3.236
  104TIP3   OH2  317   0.839   0.390   3.822
  104TIP3    H1  318   0.922   0.435   3.810
  104TIP3    H2  319   0.861   0.312   3.872
  105TIP3   OH2  320   1.367   2.749   0.473
  105TIP3    H1  321   1.398   2.710   0.555
  105TIP3    H2  322   1.325   2.676   0.427
  106TIP3   OH2  323   0.311   4.564   1.065
  106TIP3    H1  324   0.257   4.513   1.126
  106TIP3    H2  325   0.400   4.556   1.100
  107TIP3   OH2  326   4.320   2.284   3.077
  107TIP3    H1  327   4.364   2.368   3.068
  107TIP3    H2  328   4.298   2.258   2.988
  108TIP3   OH2  329   2.818   5.612   4.447
  108TIP3    H1  330   2.781   5.614   4.535
  108TIP3    H2  331   2.815   5.703   4.417
  109TIP3   OH2  332   3.170   3.699   4.174
  109TIP3    H1  333   3.185   3.673   4.265
  109TIP3    H2  334   3.134   3.621   4.132
  110TIP3   OH2  335   2.991   5.690   3.212
  110TIP3    H1  336   3.070   5.727   3.172
  110TIP3    H2  337   2.923   5.755   3.195
  111TIP3   OH2  338   4.822   3.424   1.956
  111TIP3    H1  339   4.914   3.442   1.935
  111TIP3    H2  340   4.808   3.334   1.927
  112TIP3   OH2  341   5.022   4.895   2.119
  112TIP3    H1  342   4.977   4.957   2.061
  112TIP3    H2  343   5.109   4.932   2.130
  113TIP3   OH2  344   2.554   0.021   2.988
  113TIP3    H1  345   2.569   0.115   2.999
  113TIP3    H2  346   2.471   0.015   2.941
  114TIP3   OH2  347   0.386   0.378   3.066
  114TIP3    H1  348   0.437   0.418   2.995
  114TIP3    H2  349   0.450   0.358   3.134
  115TIP3   OH2  350   4.833   0.153   3.010
  115TIP3    H1  351   4.774   0.181   3.080
  115TIP3    H2  352   4.845   0.231   2.956
  116TIP3   OH2  353   4.111   3.397   2.867
  116TIP3    H1  354   4.068   3.352   2.939
  116TIP3    H2  355   4.204   3.379   2.879
  117TIP3   OH2  356   4.473   5.303   2.832
  117TIP3    H1  357   4.431   5.218   2.847
  117TIP3    H2  358   4.521   5.320   2.913
  118TIP3   OH2  359   5.144   4.982   4.146
  118TIP3    H1  360   5.230   4.997   4.185
  118TIP3    H2  361   5.151   5.016   4.057
  119TIP3   OH2  362   0.742   4.641   1.316
  119TIP3    H1  363   0.661   4.650   1.266
  119TIP3    H2  364   0.791   4.721   1.297
  120TIP3   OH2  365   2.983   4.725   4.618
  120TIP3    H1  366   2.917   4.793   4.630
  120TIP3    H2  367   2.936   4.653   4.577
  121TIP3   OH2  368   0.971   2.004   4.801
  121TIP3    H1  369   0.975   2.062   4.877
  121TIP3    H2  370   0.950   2.061   4.728
  122TIP3   OH2  371   5.922   2.899   4.185
  122TIP3    H1  372   5.947   2.854   4.266
  122TIP3    H2  373   5.999   2.950   4.161
  123TIP3   OH2  374   2.928   1.630   5.115
  123TIP3    H1  375   2.891   1.619   5.203
  123TIP3    H2  376   2.949   1.724   5.110
  124TIP3   OH2  377   5.703   0.746   3.682
  124TIP3    H1  378   5.773   0.811   3.668
  124TIP3    H2  379   5.662   0.737   3.596
  125TIP3   OH2  380   2.968   3.163   1.714
  125TIP3    H1  381   3.057   3.159   1.750
  125TIP3    H2  382   2.971   3.235   1.651
  126TIP3   OH2  383   1.683   4.836   1.333
  126TIP3    H1  384   1.608   4.854   1.390
  126TIP3    H2  385   1.736   4.916   1.337
  127TIP3   OH2  386   5.128   2.349   0.186
  127TIP3    H1  387   5.054   2.358   0.246
  127TIP3    H2  388   5.108   2.270   0.136
  128TIP3   OH2  389   3.466   3.733   0.597
  128TIP3    H1  390   3.492   3.782   0.519
  128TIP3    H2  391   3.426   3.798   0.655
  129TIP3   OH2  392   5.761   3.855   1.043
  129TIP3    H1  393   5.818   3.897   1.107
  129TIP3    H2  394   5.820   3.829   0.972
  130TIP3   OH2  395   1.080   5.644   3.254
  130TIP3    H1  396   1.031   5.724   3.271
  130TIP3    H2  397   1.051   5.616   3.167
  131TIP3   OH2  398   3.695   0.922   0.834
  131TIP3    H1  399   3.777   0.875   0.817
  131TIP3    H2  400   3.723   1.012   0.852
  132TIP3   OH2  401   3.268   0.985   1.893
  132TIP3    H1  402   3.202   1.050   1.870
  132TIP3    H2  403   3.277   0.932   1.814
  133TIP3   OH2  404   4.038   0.049   3.677
  133TIP3    H1  405   3.965   0.012   3.727
  133TIP3    H2  406   4.004   0.132   3.643
  134TIP3   OH2  407   3.199   3.103   1.448
  134TIP3    H1  408   3.240   3.177   1.404
  134TIP3    H2  409   3.117   3.138   1.483
  135TIP3   OH2  410   2.104   1.603   3.066
  135TIP3    H1  411   2.080   1.576   2.977
  135TIP3    H2  412   2.115   1.698   3.060
  136TIP3   OH2  413   6.407   1.193   4.930
  136TIP3    H1  414   6.336   1.164   4.873
  136TIP3    H2  415   6.433   1.278   4.895
  137TIP3   OH2  416   1.960   3.466   4.070
  137TIP3    H1  417   1.945   3.559   4.057
  137TIP3    H2  418   1.928   3.425   3.989
  138TIP3   OH2  419   3.699   3.859   4.123
  138TIP3    H1  420   3.607   3.884   4.112
  138TIP3    H2  421   3.698   3.795   4.194
  139TIP3   OH2  422   2.533   5.910   1.654
  139TIP3    H1  423   2.582   5.988   1.625
  139TIP3    H2  424   2.473   5.892   1.581
  140TIP3   OH2  425   2.174   4.763   4.604
  140TIP3    H1  426   2.194   4.785   4.694
  140TIP3    H2  427   2.200   4.840   4.554
  141TIP3   OH2  428   0.285   2.034   3.944
  141TIP3    H1  429   0.309   2.095   3.874
  141TIP3    H2  430   0.369   2.002   3.978
  142TIP3   OH2  431   4.771   3.407   3.156
  142TIP3    H1  432   4.817   3.324   3.170
  142TIP3    H2  433   4.716   3.418   3.233
  143TIP3   OH2  434   5.735   2.366   2.509
  143TIP3    H1  435   5.718   2.272   2.508
  143TIP3    H2  436   5.824   2.374   2.543
  144TIP3   OH2  437   6.237   4.321   4.183
  144TIP3    H1  438   6.318   4.285   4.148
  144TIP3    H2  439   6.215   4.264   4.257
  145TIP3   OH2  440   5.790   4.962   2.131
  145TIP3    H1  441   5.775   5.041   2.079
  145TIP3    H2  442   5.804   4.994   2.220
  146TIP3   OH2  443   1.138   5.769   2.076
  146TIP3    H1  444   1.048   5.735   2.068
  146TIP3    H2  445   1.136   5.854   2.033
  147TIP3   OH2  446   0.473   3.163   0.978
  147TIP3    H1  447   0.406   3.196   1.039
  147TIP3    H2  448   0.556   3.189   1.019
  148TIP3   OH2  449   5.084   1.764   2.903
  148TIP3    H1  450   4.999   1.805   2.887
  148TIP3    H2  451   5.147   1.822   2.859
  149TIP3   OH2  452   4.719   5.686   3.980
  149TIP3    H1  453   4.719   5.673   4.074
  149TIP3    H2  454   4.675   5.607   3.945
  150TIP3   OH2  455   2.423   4.586   0.252
  150TIP3    H1  456   2.360   4.654   0.227
  150TIP3    H2  457   2.375   4.504   0.245
  151TIP3   OH2  458   3.798   0.929   2.667
  151TIP3    H1  459   3.713   0.927   2.711
  151TIP3    H2  460   3.812   1.022   2.647
  152TIP3   OH2  461   1.282   1.193   0.447
  152TIP3    H1  462   1.337   1.233   0.515
  152TIP3    H2  463   1.275   1.101   0.475
  153TIP3   OH2  464   1.820   2.857   3.796
  153TIP3    H1  465   1.886   2.789   3.804
  153TIP3    H2  466   1.774   2.856   3.880
  154TIP3   OH2  467   5.281   4.736   1.182
  154TIP3    H1  468   5.283   4.698   1.269
  154TIP3    H2  469   5.358   4.792   1.178
  155TIP3   OH2  470   1.286   0.132   4.288
  155TIP3    H1  471   1.245   0.173   4.364
  155TIP3    H2  472   1.248   0.178   4.213
  156TIP3   OH2  473   4.163   1.474   3.854
  156TIP3    H1  474   4.202   1.519   3.779
  156TIP3    H2  475   4.079   1.441   3.821
  157TIP3   OH2  476   6.275   2.302   1.060
  157TIP3    H1  477   6.268   2.294   0.965
  157TIP3    H2  478   6.196   2.348   1.087
  158TIP3   OH2  479   4.820   1.604   2.175
  158TIP3    H1  480   4.764   1.560   2.240
  158TIP3    H2  481   4.908   1.574   2.196
  159TIP3   OH2  482   3.016   0.786   0.313
  159TIP3    H1  483   3.104   0.809   0.342
  159TIP3    H2  484   3.013   0.690   0.321
  160TIP3   OH2  485   2.447   5.493   5.012
  160TIP3    H1  486   2.425   5.586   5.019
  160TIP3    H2  487   2.541   5.492   4.995
  161TIP3   OH2  488   5.573   1.472   0.987
  161TIP3    H1  489   5.546   1.555   0.947
  161TIP3    H2  490   5.544   1.405   0.926
  162TIP3   OH2  491   2.645   0.201   2.349
  162TIP3    H1  492   2.614   0.142   2.417
  162TIP3    H2  493   2.695   0.268   2.396
  163TIP3   OH2  494   2.295   1.191   3.085
  163TIP3    H1  495   2.323   1.283   3.089
  163TIP3    H2  496   2.332   1.152   3.164
  164TIP3   OH2  497   5.639   0.629   1.691
  164TIP3    H1  498   5.726   0.607   1.726
  164TIP3    H2  499   5.653   0.711   1.644
  165TIP3   OH2  500   3.920   2.292   0.856
  165TIP3    H1  501   3.901   2.332   0.772
  165TIP3    H2  502   3.978   2.354   0.900
  166TIP3   OH2  503   1.811   4.861   0.586
  166TIP3    H1  504   1.801   4.773   0.623
  166TIP3    H2  505   1.724   4.884   0.554
  167TIP3   OH2  506   2.161   5.470   2.904
  167TIP3    H1  507   2.146   5.544   2.846
  167TIP3    H2  508   2.240   5.494   2.953
  168TIP3   OH2  509   2.599   1.808   0.371
  168TIP3    H1  510   2.542   1.793   0.447
  168TIP3    H2  511   2.646   1.889   0.392
  169TIP3   OH2  512   2.607   5.699   3.987
  169TIP3    H1  513   2.568   5.739   3.909
  169TIP3    H2  514   2.701   5.703   3.972
  170TIP3   OH2  515   4.836   0.713   2.143
  170TIP3    H1  516   4.795   0.736   2.227
  170TIP3    H2  517   4.784   0.761   2.078
  171TIP3   OH2  518   3.385   3.408   0.774
  171TIP3    H1  519   3.326   3.333   0.762
  171TIP3    H2  520   3.353   3.473   0.711
  172TIP3   OH2  521   3.102   2.346   0.981
  172TIP3    H1  522   3.119   2.435   0.949
  172TIP3    H2  523   3.083   2.296   0.902
  173TIP3   OH2  524   6.114   1.637   4.389
  173TIP3    H1  525   6.169   1.663   4.315
  173TIP3    H2  526   6.068   1.559   4.358
  174TIP3   OH2  527   1.883   4.407   1.156
  174TIP3    H1  528   1.834   4.381   1.235
  174TIP3    H2  529   1.968   4.434   1.189
  175TIP3   OH2  530   1.159   3.630   0.574
  175TIP3    H1  531   1.120   3.717   0.580
  175TIP3    H2  532   1.194   3.613   0.661
  176TIP3   OH2  533   6.273   4.265   1.759
  176TIP3    H1  534   6.222   4.242   1.682
  176TIP3    H2  535   6.285   4.360   1.752
  177TIP3   OH2  536   3.396   5.510   2.657
  177TIP3    H1  537   3.348   5.430   2.675
  177TIP3    H2  538   3.456   5.520   2.730
  178TIP3   OH2  539   3.948   3.299   4.125
  178TIP3    H1  540   3.930   3.213   4.085
  178TIP3    H2  541   4.023   3.332   4.075
  179TIP3   OH2  542   3.931   0.373   1.908
  179TIP3    H1  543   3.843   0.408   1.891
  179TIP3    H2  544   3.920   0.278   1.908
  180TIP3   OH2  545   2.132   4.754   1.181
  180TIP3    H1  546   2.085   4.726   1.103
  180TIP3    H2  547   2.084   4.831   1.212
  181TIP3   OH2  548   5.943   5.141   3.763
  181TIP3    H1  549   5.923   5.078   3.832
  181TIP3    H2  550   6.038   5.153   3.769
  182TIP3   OH2  551   5.276   0.858   1.509
  182TIP3    H1  552   5.320   0.845   1.425
  182TIP3    H2  553   5.319   0.796   1.569
  183TIP3   OH2  554   4.596   1.975   1.579
  183TIP3    H1  555   4.683   2.012   1.566
  183TIP3    H2  556   4.548   2.041   1.628
  184TIP3   OH2  557   0.992   2.479   1.070
  184TIP3    H1  558   1.087   2.479   1.075
  184TIP3    H2  559   0.966   2.390   1.096
  185TIP3   OH2  560   1.106   2.747   3.450
  185TIP3    H1  561   1.091   2.707   3.536
  185TIP3    H2  562   1.158   2.683   3.402
  186TIP3   OH2  563   1.159   4.924   3.796
  186TIP3    H1  564   1.226   4.893   3.858
  186TIP3    H2  565   1.203   4.922   3.711
  187TIP3   OH2  566   2.613   4.981   2.958
  187TIP3    H1  567   2.675   4.963   3.029
  187TIP3    H2  568   2.572   5.064   2.982
  188TIP3   OH2  569   1.255   3.756   2.224
  188TIP3    H1  570   1.190   3.795   2.166
  188TIP3    H2  571   1.291   3.683   2.174
  189TIP3   OH2  572   1.820   4.796   1.606
  189TIP3    H1  573   1.911   4.825   1.612
  189TIP3    H2  574   1.772   4.871   1.571
  190TIP3   OH2  575   3.840   0.234   1.654
  190TIP3    H1  576   3.874   0.177   1.723
  190TIP3    H2  577   3.816   0.315   1.699
  191TIP3   OH2  578   3.047   2.173   2.621
  191TIP3    H1  579   3.010   2.119   2.690
  191TIP3    H2  580   2.973   2.224   2.587
  192TIP3   OH2  581   2.834   3.098   0.288
  192TIP3    H1  582   2.890   3.101   0.366
  192TIP3    H2  583   2.895   3.091   0.215
  193TIP3   OH2  584   5.367   3.274   1.482
  193TIP3    H1  585   5.363   3.363   1.445
  193TIP3    H2  586   5.383   3.218   1.406
  194TIP3   OH2  587   5.974   4.439   4.882
  194TIP3    H1  588   5.979   4.408   4.792
  194TIP3    H2  589   5.956   4.361   4.934
  195TIP3   OH2  590   3.861   1.725   1.515
  195TIP3    H1  591   3.832   1.665   1.447
  195TIP3    H2  592   3.791   1.724   1.580
  196TIP3   OH2  593   2.558   2.498   0.546
  196TIP3    H1  594   2.492   2.448   0.594
  196TIP3    H2  595   2.555   2.463   0.457
  197TIP3   OH2  596   3.256   0.121   4.994
  197TIP3    H1  597   3.316   0.049   5.016
  197TIP3    H2  598   3.237   0.163   5.078
  198TIP3   OH2  599   1.898   0.329   3.785
  198TIP3    H1  600   1.978   0.373   3.754
  198TIP3    H2  601   1.922   0.296   3.871
  199TIP3   OH2  602   5.362   2.597   3.529
  199TIP3    H1  603   5.447   2.637   3.513
  199TIP3    H2  604   5.308   2.626   3.455
  200TIP3   OH2  605   1.957   4.938   3.948
  200TIP3    H1  606   1.881   4.923   3.891
  200TIP3    H2  607   1.962   4.859   4.001
  201TIP3   OH2  608   5.559   1.972   3.198
  201TIP3    H1  609   5.485   1.920   3.166
  201TIP3    H2  610   5.558   1.960   3.293
  202TIP3   OH2  611   3.856   4.905   0.325
  202TIP3    H1  612   3.777   4.901   0.379
  202TIP3    H2  613   3.928   4.904   0.387
  203TIP3   OH2  614   3.129   0.946   3.131
  203TIP3    H1  615   3.033   0.944   3.128
  203TIP3    H2  616   3.150   1.032   3.169
  204TIP3   OH2  617   4.727   5.478   0.988
  204TIP3    H1  618   4.698   5.472   0.896
  204TIP3    H2  619   4.793   5.409   0.997
  205TIP3   OH2  620   5.421   5.421   0.795
  205TIP3    H1  621   5.338   5.423   0.842
  205TIP3    H2  622   5.479   5.476   0.847
  206TIP3   OH2  623   4.483   1.619   4.213
  206TIP3    H1  624   4.553   1.590   4.272
  206TIP3    H2  625   4.423   1.545   4.209
  207TIP3   OH2  626   4.911   3.637   2.538
  207TIP3    H1  627   4.860   3.557   2.553
  207TIP3    H2  628   4.972   3.640   2.612
  208TIP3   OH2  629   4.755   2.315   4.201
  208TIP3    H1  630   4.789   2.360   4.123
  208TIP3    H2  631   4.664   2.294   4.179
  209TIP3   OH2  632   6.018   3.190   4.849
  209TIP3    H1  633   6.059   3.276   4.864
  209TIP3    H2  634   5.926   3.204   4.869
  210TIP3   OH2  635   1.069   0.954   2.378
  210TIP3    H1  636   1.153   0.909   2.388
  210TIP3    H2  637   1.015   0.893   2.327
  211TIP3   OH2  638   1.105   3.714   1.655
  211TIP3    H1  639   1.155   3.684   1.731
  211TIP3    H2  640   1.087   3.807   1.673
  212TIP3   OH2  641   2.913   1.588   0.961
  212TIP3    H1  642   2.846   1.653   0.940
  212TIP3    H2  643   2.961   1.626   1.034
  213TIP3   OH2  644   3.217   1.048   0.730
  213TIP3    H1  645   3.142   0.992   0.711
  213TIP3    H2  646   3.290   1.007   0.683
  214TIP3   OH2  647   4.633   1.857   4.220
  214TIP3    H1  648   4.569   1.790   4.197
  214TIP3    H2  649   4.599   1.895   4.301
  215TIP3   OH2  650   0.458   3.081   1.696
  215TIP3    H1  651   0.485   3.172   1.691
  215TIP3    H2  652   0.501   3.048   1.776
  216TIP3   OH2  653   0.255   3.970   1.006
  216TIP3    H1  654   0.228   3.983   0.915
  216TIP3    H2  655   0.176   3.939   1.051
  217TIP3   OH2  656   4.553   2.268   0.442
  217TIP3    H1  657   4.513   2.292   0.358
  217TIP3    H2  658   4.630   2.217   0.418
  218TIP3   OH2  659   5.100   2.077   3.221
  218TIP3    H1  660   5.028   2.014   3.233
  218TIP3    H2  661   5.060   2.149   3.174
  219TIP3   OH2  662   1.127   1.962   4.078
  219TIP3    H1  663   1.220   1.952   4.098
  219TIP3    H2  664   1.091   1.874   4.087
  220TIP3   OH2  665   4.400   2.136   2.666
  220TIP3    H1  666   4.485   2.103   2.695
  220TIP3    H2  667   4.422   2.207   2.605
  221TIP3   OH2  668   4.686   5.771   2.969
  221TIP3    H1  669   4.768   5.774   3.017
  221TIP3    H2  670   4.692   5.692   2.915
  222TIP3   OH2  671   2.706   4.674   2.298
  222TIP3    H1  672   2.666   4.744   2.247
  222TIP3    H2  673   2.658   4.674   2.381
  223TIP3   OH2  674   3.900   4.550   2.651
  223TIP3    H1  675   3.910   4.473   2.708
  223TIP3    H2  676   3.898   4.624   2.712
  224TIP3   OH2  677   2.709   1.222   0.754
  224TIP3    H1  678   2.743   1.188   0.671
  224TIP3    H2  679   2.671   1.146   0.798
  225TIP3   OH2  680   5.623   5.210   3.996
  225TIP3    H1  681   5.668   5.290   4.025
  225TIP3    H2  682   5.672   5.139   4.037
  226TIP3   OH2  683   4.975   2.727   1.653
  226TIP3    H1  684   4.939   2.645   1.621
  226TIP3    H2  685   4.946   2.732   1.744
  227TIP3   OH2  686   5.265   2.293   3.890
  227TIP3    H1  687   5.189   2.342   3.924
  227TIP3    H2  688   5.247   2.283   3.797
  228TIP3   OH2  689   3.561   4.267   5.077
  228TIP3    H1  690   3.545   4.221   4.995
  228TIP3    H2  691   3.517   4.352   5.066
  229TIP3   OH2  692   0.782   3.147   1.196
  229TIP3    H1  693   0.804   3.089   1.123
  229TIP3    H2  694   0.826   3.107   1.272
  230TIP3   OH2  695   5.395   2.568   3.897
  230TIP3    H1  696   5.377   2.474   3.893
  230TIP3    H2  697   5.488   2.576   3.874
  231TIP3   OH2  698   5.763   3.260   1.083
  231TIP3    H1  699   5.785   3.326   1.016
  231TIP3    H2  700   5.668   3.259   1.085
  232TIP3   OH2  701   3.324   4.251   4.421
  232TIP3    H1  702   3.335   4.279   4.330
  232TIP3    H2  703   3.353   4.160   4.421
  233TIP3   OH2  704   6.033   2.670   4.756
  233TIP3    H1  705   5.967   2.636   4.695
  233TIP3    H2  706   6.043   2.762   4.732
  234TIP3   OH2  707   0.952   0.052   4.439
  234TIP3    H1  708   0.934   0.092   4.524
  234TIP3    H2  709   1.036   0.007   4.451
  235TIP3   OH2  710   2.351   3.927   4.453
  235TIP3    H1  711   2.346   3.912   4.358
  235TIP3    H2  712   2.292   3.862   4.490
  236TIP3   OH2  713   4.708   5.775   3.327
  236TIP3    H1  714   4.682   5.861   3.359
  236TIP3    H2  715   4.804   5.776   3.332
  237TIP3   OH2  716   5.057   2.893   5.160
  237TIP3    H1  717   5.096   2.808   5.179
  237TIP3    H2  718   4.964   2.874   5.145
  238TIP3   OH2  719   0.759   0.211   2.820
  238TIP3    H1  720   0.690   0.146   2.810
  238TIP3    H2  721   0.840   0.164   2.800
  239TIP3   OH2  722   5.677   0.140   4.064
  239TIP3    H1  723   5.756   0.147   4.117
  239TIP3    H2  724   5.688   0.207   3.996
  240TIP3   OH2  725   2.111   2.675   3.104
  240TIP3    H1  726   2.082   2.679   3.013
  240TIP3    H2  727   2.083   2.759   3.141
  241TIP3   OH2  728   1.139   4.874   2.554
  241TIP3    H1  729   1.085   4.821   2.495
  241TIP3    H2  730   1.132   4.963   2.520
  242TIP3   OH2  731   2.779   3.103   1.534
  242TIP3    H1  732   2.857   3.114   1.589
  242TIP3    H2  733   2.771   3.008   1.523
  243TIP3   OH2  734   2.902   5.931   2.625
  243TIP3    H1  735   2.896   5.910   2.532
  243TIP3    H2  736   2.826   5.987   2.643
  244TIP3   OH2  737   1.610   5.836   3.377
  244TIP3    H1  738   1.551   5.801   3.311
  244TIP3    H2  739   1.599   5.931   3.371
  245TIP3   OH2  740   4.142   5.330   0.346
  245TIP3    H1  741   4.191   5.391   0.402
  245TIP3    H2  742   4.134   5.377   0.263
  246TIP3   OH2  743   1.818   5.693   3.458
  246TIP3    H1  744   1.774   5.608   3.456
  246TIP3    H2  745   1.747   5.757   3.445
  247TIP3   OH2  746   2.430   4.098   3.076
  247TIP3    H1  747   2.445   4.014   3.119
  247TIP3    H2  748   2.500   4.155   3.108
  248TIP3   OH2  749   2.038   3.467   3.523
  248TIP3    H1  750   2.032   3.385   3.474
  248TIP3    H2  751   2.057   3.533   3.456
  249TIP3   OH2  752   5.269   0.878   3.262
  249TIP3    H1  753   5.198   0.830   3.305
  249TIP3    H2  754   5.226   0.952   3.220
  250TIP3   OH2  755   3.410   4.350   2.805
  250TIP3    H1  756   3.398   4.435   2.762
  250TIP3    H2  757   3.394   4.286   2.735
  251TIP3   OH2  758   1.584   2.035   2.399
  251TIP3    H1  759   1.589   2.130   2.408
  251TIP3    H2  760   1.587   2.020   2.304
  252TIP3   OH2  761   3.004   5.877   3.803
  252TIP3    H1  762   2.921   5.872   3.755
  252TIP3    H2  763   3.025   5.970   3.806
  253TIP3   OH2  764   1.889   0.044   1.417
  253TIP3    H1  765   1.866   0.052   1.510
  253TIP3    H2  766   1.964  -0.015   1.416
  254TIP3   OH2  767   1.899   3.342   0.145
  254TIP3    H1  768   1.883   3.277   0.214
  254TIP3    H2  769   1.814   3.355   0.105
  255TIP3   OH2  770   3.095   2.158   4.464
  255TIP3    H1  771   3.139   2.171   4.548
  255TIP3    H2  772   3.120   2.069   4.438
  256TIP3   OH2  773   2.038   0.072   3.119
  256TIP3    H1  774   2.132   0.082   3.108
  256TIP3    H2  775   2.006   0.160   3.139
  257TIP3   OH2  776   5.080   2.550   2.724
  257TIP3    H1  777   5.009   2.544   2.660
  257TIP3    H2  778   5.132   2.625   2.694
  258TIP3   OH2  779   4.623   4.533   4.599
  258TIP3    H1  780   4.587   4.459   4.647
  258TIP3    H2  781   4.686   4.572   4.660
  259TIP3   OH2  782   2.613   4.158   3.463
  259TIP3    H1  783   2.676   4.215   3.509
  259TIP3    H2  784   2.667   4.088   3.427
  260TIP3   OH2  785   3.948   5.166   2.417
  260TIP3    H1  786   3.952   5.134   2.327
  260TIP3    H2  787   3.864   5.211   2.423
  261TIP3   OH2  788   0.357   4.991   2.918
  261TIP3    H1  789   0.450   5.000   2.898
  261TIP3    H2  790   0.316   5.067   2.876
  262TIP3   OH2  791   6.165   5.501   1.732
  262TIP3    H1  792   6.253   5.494   1.770
  262TIP3    H2  793   6.180   5.529   1.642
  263TIP3   OH2  794   3.024   1.355   1.200
  263TIP3    H1  795   3.024   1.365   1.295
  263TIP3    H2  796   3.116   1.340   1.178
  264TIP3   OH2  797   2.451   0.157   5.023
  264TIP3    H1  798   2.525   0.218   5.020
  264TIP3    H2  799   2.461   0.104   4.944
  265TIP3   OH2  800   3.693   2.231   0.057
  265TIP3    H1  801   3.630   2.296   0.024
  265TIP3    H2  802   3.737   2.199  -0.021
  266TIP3   OH2  803   3.303   3.524   0.522
  266TIP3    H1  804   3.345   3.457   0.466
  266TIP3    H2  805   3.375   3.583   0.545
  267TIP3   OH2  806   5.405   0.314   0.316
  267TIP3    H1  807   5.441   0.384   0.370
  267TIP3    H2  808   5.317   0.345   0.294
  268TIP3   OH2  809   2.948   2.431   3.446
  268TIP3    H1  810   2.961   2.377   3.368
  268TIP3    H2  811   3.036   2.439   3.483
  269TIP3   OH2  812   3.010   5.632   3.499
  269TIP3    H1  813   2.983   5.645   3.408
  269TIP3    H2  814   2.947   5.681   3.551
  270TIP3   OH2  815   4.220   4.582   2.441
  270TIP3    H1  816   4.315   4.593   2.443
  270TIP3    H2  817   4.198   4.574   2.349
  271TIP3   OH2  818   1.506   4.345   0.282
  271TIP3    H1  819   1.526   4.260   0.244
  271TIP3    H2  820   1.586   4.373   0.325
  272TIP3   OH2  821   4.958   2.781   2.288
  272TIP3    H1  822   5.008   2.820   2.360
  272TIP3    H2  823   4.953   2.688   2.309
  273TIP3   OH2  824   2.513   2.483   2.255
  273TIP3    H1  825   2.606   2.496   2.274
  273TIP3    H2  826   2.507   2.390   2.232
  274TIP3   OH2  827   0.388   5.041   0.976
  274TIP3    H1  828   0.473   5.060   0.936
  274TIP3    H2  829   0.365   4.954   0.944
  275TIP3   OH2  830   4.285   3.805   2.157
  275TIP3    H1  831   4.369   3.783   2.198
  275TIP3    H2  832   4.221   3.751   2.203
  276TIP3   OH2  833   4.963   4.512   4.181
  276TIP3    H1  834   5.026   4.574   4.217
  276TIP3    H2  835   5.016   4.439   4.150
  277TIP3   OH2  836   3.511   0.921   3.912
  277TIP3    H1  837   3.456   0.993   3.941
  277TIP3    H2  838   3.501   0.921   3.817
  278TIP3   OH2  839   6.275   4.510   1.611
  278TIP3    H1  840   6.256   4.595   1.572
  278TIP3    H2  841   6.196   4.458   1.596
  279TIP3   OH2  842   3.360   3.363   0.323
  279TIP3    H1  843   3.363   3.296   0.254
  279TIP3    H2  844   3.357   3.446   0.275
  280TIP3   OH2  845   6.017   2.480   1.080
  280TIP3    H1  846   5.946   2.535   1.112
  280TIP3    H2  847   5.974   2.412   1.028
  281TIP3   OH2  848   1.969   3.460   2.903
  281TIP3    H1  849   1.875   3.447   2.911
  281TIP3    H2  850   2.007   3.373   2.912
  282TIP3   OH2  851   3.605   5.623   4.067
  282TIP3    H1  852   3.663   5.643   4.140
  282TIP3    H2  853   3.517   5.645   4.100
  283TIP3   OH2  854   4.590   5.578   1.241
  283TIP3    H1  855   4.528   5.505   1.247
  283TIP3    H2  856   4.624   5.573   1.151
  284TIP3   OH2  857   3.034   2.353   3.877
  284TIP3    H1  858   2.961   2.316   3.928
  284TIP3    H2  859   3.104   2.288   3.887
  285TIP3   OH2  860   6.168   2.407   2.242
  285TIP3    H1  861   6.203   2.318   2.235
  285TIP3    H2  862   6.203   2.439   2.325
  286TIP3   OH2  863   6.312   1.693   4.576
  286TIP3    H1  864   6.230   1.658   4.540
  286TIP3    H2  865   6.329   1.772   4.526
  287TIP3   OH2  866   0.267   5.711   1.490
  287TIP3    H1  867   0.183   5.748   1.465
  287TIP3    H2  868   0.323   5.787   1.506
  288TIP3   OH2  869   3.327   3.855   3.816
  288TIP3    H1  870   3.248   3.800   3.817
  288TIP3    H2  871   3.311   3.919   3.746
  289TIP3   OH2  872   1.746   0.061   3.667
  289TIP3    H1  873   1.670   0.003   3.667
  289TIP3    H2  874   1.709   0.150   3.667
  290TIP3   OH2  875   5.749   3.165   1.951
  290TIP3    H1  876   5.802   3.240   1.977
  290TIP3    H2  877   5.674   3.167   2.009
  291TIP3   OH2  878   0.993   2.155   2.267
  291TIP3    H1  879   0.959   2.101   2.338
  291TIP3    H2  880   0.984   2.245   2.299
  292TIP3   OH2  881   1.066   1.325   2.677
  292TIP3    H1  882   0.985   1.359   2.717
  292TIP3    H2  883   1.039   1.244   2.634
  293TIP3   OH2  884   3.519   0.645   1.833
  293TIP3    H1  885   3.481   0.678   1.915
  293TIP3    H2  886   3.444   0.609   1.785
  294TIP3   OH2  887   5.291   1.872   3.157
  294TIP3    H1  888   5.231   1.941   3.186
  294TIP3    H2  889   5.255   1.791   3.194
  295TIP3   OH2  890   1.747   3.996   4.690
  295TIP3    H1  891   1.679   4.019   4.754
  295TIP3    H2  892   1.703   4.004   4.605
  296TIP3   OH2  893   5.698   2.708   4.123
  296TIP3    H1  894   5.763   2.770   4.158
  296TIP3    H2  895   5.614   2.748   4.144
  297TIP3   OH2  896   3.825   4.992   1.697
  297TIP3    H1  897   3.912   4.959   1.717
  297TIP3    H2  898   3.827   5.083   1.725
  298TIP3   OH2  899   1.797   2.543   3.495
  298TIP3    H1  900   1.853   2.619   3.481
  298TIP3    H2  901   1.737   2.544   3.420
  299TIP3   OH2  902   3.738   1.521   3.769
  299TIP3    H1  903   3.798   1.487   3.703
  299TIP3    H2  904   3.671   1.454   3.779
  300TIP3   OH2  905   1.241   4.361   5.111
  300TIP3    H1  906   1.287   4.405   5.183
  300TIP3    H2  907   1.185   4.429   5.074
  301TIP3   OH2  908   5.586   2.092   3.888
  301TIP3    H1  909   5.605   2.161   3.824
  301TIP3    H2  910   5.577   2.012   3.835
  302TIP3   OH2  911   3.368   5.194   2.512
  302TIP3    H1  912   3.426   5.152   2.449
  302TIP3    H2  913   3.288   5.141   2.510
  303TIP3   OH2  914   0.952   3.139   4.783
  303TIP3    H1  915   1.007   3.217   4.783
  303TIP3    H2  916   1.000   3.076   4.837
  304TIP3   OH2  917   0.197   4.705   2.155
  304TIP3    H1  918   0.233   4.623   2.121
  304TIP3    H2  919   0.204   4.697   2.250
  305TIP3   OH2  920   5.644   4.796   2.944
  305TIP3    H1  921   5.702   4.872   2.935
  305TIP3    H2  922   5.659   4.745   2.864
  306TIP3   OH2  923   4.654   3.144   3.492
  306TIP3    H1  924   4.570   3.134   3.447
  306TIP3    H2  925   4.718   3.151   3.422
  307TIP3   OH2  926   2.259   5.364   4.485
  307TIP3    H1  927   2.337   5.337   4.436
  307TIP3    H2  928   2.294   5.417   4.557
  308TIP3   OH2  929   1.957   5.618   4.516
  308TIP3    H1  930   1.900   5.676   4.567
  308TIP3    H2  931   2.040   5.616   4.564
  309TIP3   OH2  932   4.353   5.065   2.834
  309TIP3    H1  933   4.370   4.977   2.800
  309TIP3    H2  934   4.259   5.079   2.821
  310TIP3   OH2  935   1.547   0.177   1.730
  310TIP3    H1  936   1.464   0.177   1.682
  310TIP3    H2  937   1.522   0.193   1.821
  311TIP3   OH2  938   4.024   5.220   4.823
  311TIP3    H1  939   3.953   5.281   4.843
  311TIP3    H2  940   4.093   5.274   4.785
  312TIP3   OH2  941   3.133   4.688   0.702
  312TIP3    H1  942   3.071   4.678   0.630
  312TIP3    H2  943   3.111   4.619   0.763
  313TIP3   OH2  944   4.473   1.225   2.269
  313TIP3    H1  945   4.520   1.143   2.283
  313TIP3    H2  946   4.505   1.257   2.184
  314TIP3   OH2  947   0.476   1.785   0.502
  314TIP3    H1  948   0.460   1.872   0.540
  314TIP3    H2  949   0.405   1.774   0.438
  315TIP3   OH2  950   3.203   5.350   2.845
  315TIP3    H1  951   3.232   5.409   2.915
  315TIP3    H2  952   3.264   5.277   2.848
  316TIP3   OH2  953   5.421   0.855   3.726
  316TIP3    H1  954   5.361   0.926   3.705
  316TIP3    H2  955   5.492   0.897   3.776
  317TIP3   OH2  956   3.794   2.308   3.895
  317TIP3    H1  957   3.704   2.331   3.874
  317TIP3    H2  958   3.846   2.344   3.823
  318TIP3   OH2  959   5.498   4.029   3.451
  318TIP3    H1  960   5.576   3.984   3.420
  318TIP3    H2  961   5.426   3.970   3.428
  319TIP3   OH2  962   2.718   3.356   2.940
  319TIP3    H1  963   2.679   3.275   2.908
  319TIP3    H2  964   2.661   3.426   2.907
  320TIP3   OH2  965   4.189   5.637   5.067
  320TIP3    H1  966   4.108   5.612   5.112
  320TIP3    H2  967   4.215   5.719   5.109
  321TIP3   OH2  968   3.391   2.674   2.254
  321TIP3    H1  969   3.360   2.746   2.309
  321TIP3    H2  970   3.469   2.641   2.299
  322TIP3   OH2  971   0.283   2.861   0.853
  322TIP3    H1  972   0.215   2.794   0.853
  322TIP3    H2  973   0.235   2.944   0.851
  323TIP3   OH2  974   3.271   3.388   1.314
  323TIP3    H1  975   3.317   3.461   1.271
  323TIP3    H2  976   3.193   3.374   1.261
  324TIP3   OH2  977   3.151   3.087   5.064
  324TIP3    H1  978   3.240   3.123   5.056
  324TIP3    H2  979   3.161   2.994   5.044
  325TIP3   OH2  980   0.290   5.492   2.962
  325TIP3    H1  981   0.359   5.431   2.990
  325TIP3    H2  982   0.319   5.577   2.996
  326TIP3   OH2  983   0.974   4.241   5.076
  326TIP3    H1  984   0.935   4.217   4.993
  326TIP3    H2  985   0.985   4.158   5.123
  327TIP3   OH2  986   4.374   3.693   1.853
  327TIP3    H1  987   4.380   3.716   1.946
  327TIP3    H2  988   4.444   3.630   1.840
  328TIP3   OH2  989   1.304   5.314   4.426
  328TIP3    H1  990   1.389   5.308   4.381
  328TIP3    H2  991   1.303   5.402   4.463
  329TIP3   OH2  992   5.242   5.556   0.131
  329TIP3    H1  993   5.337   5.562   0.140
  329TIP3    H2  994   5.226   5.467   0.099
  330TIP3   OH2  995   6.203   2.442   0.770
  330TIP3    H1  996   6.112   2.416   0.779
  330TIP3    H2  997   6.245   2.368   0.726
  331TIP3   OH2  998   3.405   1.014   3.033
  331TIP3    H1  999   3.313   1.026   3.011
  331TIP3    H2 1000   3.410   0.927   3.072
  332TIP3   OH2 1001   0.512   4.700   1.603
  332TIP3    H1 1002   0.513   4.615   1.559
  332TIP3    H2 1003   0.419   4.724   1.606
  333TIP3   OH2 1004   3.035   2.027   4.737
  333TIP3    H1 1005   3.096   2.101   4.739
  333TIP3    H2 1006   2.949   2.067   4.721
  334TIP3   OH2 1007   5.753   2.823   0.738
  334TIP3    H1 1008   5.841   2.823   0.775
  334TIP3    H2 1009   5.740   2.913   0.708
  335TIP3   OH2 1010   3.081   4.885   1.026
  335TIP3    H1 1011   3.042   4.870   1.112
  335TIP3    H2 1012   3.110   4.798   0.998
  336TIP3   OH2 1013   2.419   4.066   2.131
  336TIP3    H1 1014   2.359   4.054   2.205
  336TIP3    H2 1015   2.363   4.060   2.054
  337TIP3   OH2 1016   0.861   4.769   4.283
  337TIP3    H1 1017   0.884   4.678   4.266
  337TIP3    H2 1018   0.934   4.802   4.337
  338TIP3   OH2 1019   3.349   2.193   3.738
  338TIP3    H1 1020   3.376   2.117   3.687
  338TIP3    H2 1021   3.281   2.160   3.797
  339TIP3   OH2 1022   2.845   2.240   3.619
  339TIP3    H1 1023   2.854   2.276   3.707
  339TIP3    H2 1024   2.855   2.316   3.561
  340TIP3   OH2 1025   4.837   4.736   0.304
  340TIP3    H1 1026   4.873   4.654   0.270
  340TIP3    H2 1027   4.883   4.804   0.254
  341TIP3   OH2 1028   3.529   1.886   2.825
  341TIP3    H1 1029   3.512   1.846   2.910
  341TIP3    H2 1030   3.495   1.975   2.833
  342TIP3   OH2 1031   0.962   1.456   1.497
  342TIP3    H1 1032   0.981   1.417   1.582
  342TIP3    H2 1033   0.910   1.533   1.518
  343TIP3   OH2 1034   0.353   5.709   1.994
  343TIP3    H1 1035   0.272   5.706   1.941
  343TIP3    H2 1036   0.418   5.665   1.940
  344TIP3   OH2 1037   3.114   0.662   1.392
  344TIP3    H1 1038   3.038   0.610   1.366
  344TIP3    H2 1039   3.079   0.728   1.451
  345TIP3   OH2 1040   2.296   4.731   3.777
  345TIP3    H1 1041   2.297   4.656   3.836
  345TIP3    H2 1042   2.305   4.807   3.836
  346TIP3   OH2 1043   0.394   3.383   2.718
  346TIP3    H1 1044   0.452   3.423   2.653
  346TIP3    H2 1045   0.438   3.302   2.743
  347TIP3   OH2 1046   1.374   3.024   3.670
  347TIP3    H1 1047   1.357   3.056   3.759
  347TIP3    H2 1048   1.287   2.998   3.637
  348TIP3   OH2 1049   0.665   0.848   0.047
  348TIP3    H1 1050   0.616   0.859   0.128
  348TIP3    H2 1051   0.757   0.856   0.074
  349TIP3   OH2 1052   2.902   4.977   2.778
  349TIP3    H1 1053   2.979   4.951   2.828
  349TIP3    H2 1054   2.892   5.071   2.795
  350TIP3   OH2 1055   3.202   3.914   1.018
  350TIP3    H1 1056   3.153   3.846   1.065
  350TIP3    H2 1057   3.187   3.994   1.070
  351TIP3   OH2 1058   5.754   4.199   2.907
  351TIP3    H1 1059   5.681   4.251   2.939
  351TIP3    H2 1060   5.725   4.166   2.821
  352TIP3   OH2 1061   6.340   3.192   3.353
  352TIP3    H1 1062   6.433   3.205   3.372
  352TIP3    H2 1063   6.325   3.098   3.367
  353TIP3   OH2 1064   2.033   2.096   0.367
  353TIP3    H1 1065   2.011   2.168   0.308
  353TIP3    H2 1066   1.948   2.068   0.403
  354TIP3   OH2 1067   5.893   4.130   0.174
  354TIP3    H1 1068   5.827   4.147   0.106
  354TIP3    H2 1069   5.865   4.048   0.214
  355TIP3   OH2 1070   2.333   3.151   0.046
  355TIP3    H1 1071   2.352   3.062   0.016
  355TIP3    H2 1072   2.239   3.150   0.066
  356TIP3   OH2 1073   1.454   4.921   4.583
  356TIP3    H1 1074   1.507   4.940   4.660
  356TIP3    H2 1075   1.388   4.990   4.582
  357TIP3   OH2 1076   2.956   1.313   0.837
  357TIP3    H1 1077   2.868   1.278   0.844
  357TIP3    H2 1078   2.948   1.406   0.861
  358TIP3   OH2 1079   5.340   0.353   3.778
  358TIP3    H1 1080   5.308   0.440   3.802
  358TIP3    H2 1081   5.433   0.366   3.759
  359TIP3   OH2 1082   6.037   0.104   1.017
  359TIP3    H1 1083   6.078   0.150   0.945
  359TIP3    H2 1084   5.980   0.039   0.975
  360TIP3   OH2 1085   4.421   1.607   2.202
  360TIP3    H1 1086   4.477   1.552   2.257
  360TIP3    H2 1087   4.411   1.558   2.120
  361TIP3   OH2 1088   5.025   3.619   2.829
  361TIP3    H1 1089   5.001   3.595   2.918
  361TIP3    H2 1090   5.121   3.613   2.827
  362TIP3   OH2 1091   2.235   4.077   0.289
  362TIP3    H1 1092   2.230   4.165   0.325
  362TIP3    H2 1093   2.148   4.060   0.254
  363TIP3   OH2 1094   4.023   3.649   2.818
  363TIP3    H1 1095   4.059   3.564   2.843
  363TIP3    H2 1096   3.988   3.684   2.900
  364TIP3   OH2 1097   0.424   1.609   1.325
  364TIP3    H1 1098   0.452   1.701   1.324
  364TIP3    H2 1099   0.340   1.609   1.281
  365TIP3   OH2 1100   1.313   3.629   0.909
  365TIP3    H1 1101   1.393   3.663   0.949
  365TIP3    H2 1102   1.265   3.589   0.981
  366TIP3   OH2 1103   1.525   2.175   1.503
  366TIP3    H1 1104   1.574   2.110   1.553
  366TIP3    H2 1105   1.562   2.259   1.530
  367TIP3   OH2 1106   3.163   4.263   4.048
  367TIP3    H1 1107   3.180   4.169   4.054
  367TIP3    H2 1108   3.219   4.293   3.976
  368TIP3   OH2 1109   2.944   0.055   2.821
  368TIP3    H1 1110   2.914  -0.030   2.854
  368TIP3    H2 1111   2.999   0.090   2.891
  369TIP3   OH2 1112   6.301   0.560   4.488
  369TIP3    H1 1113   6.261   0.645   4.469
  369TIP3    H2 1114   6.390   0.581   4.514
  370TIP3   OH2 1115   4.405   1.867   1.998
  370TIP3    H1 1116   4.350   1.903   1.928
  370TIP3    H2 1117   4.428   1.779   1.968
  371TIP3   OH2 1118   1.901   3.048   1.688
  371TIP3    H1 1119   1.940   2.990   1.753
  371TIP3    H2 1120   1.811   3.017   1.679
  372TIP3   OH2 1121   5.906   2.519   3.201
  372TIP3    H1 1122   5.859   2.598   3.228
  372TIP3    H2 1123   5.993   2.549   3.178
  373TIP3   OH2 1124   2.126   4.851   1.914
  373TIP3    H1 1125   2.105   4.847   2.007
  373TIP3    H2 1126   2.218   4.878   1.912
  374TIP3   OH2 1127   3.324   5.254   4.693
  374TIP3    H1 1128   3.306   5.287   4.781
  374TIP3    H2 1129   3.350   5.332   4.644
  375TIP3   OH2 1130   4.013   4.244   1.544
  375TIP3    H1 1131   4.103   4.273   1.534
  375TIP3    H2 1132   4.015   4.151   1.520
  376TIP3   OH2 1133   4.618   0.360   1.830
  376TIP3    H1 1134   4.622   0.434   1.891
  376TIP3    H2 1135   4.657   0.287   1.878
  377TIP3   OH2 1136   1.089   0.497   0.332
  377TIP3    H1 1137   1.162   0.438   0.317
  377TIP3    H2 1138   1.046   0.464   0.411
  378TIP3   OH2 1139   3.350   5.537   0.216
  378TIP3    H1 1140   3.409   5.534   0.292
  378TIP3    H2 1141   3.270   5.496   0.247
  379TIP3   OH2 1142   4.428   3.773   1.140
  379TIP3    H1 1143   4.455   3.863   1.156
  379TIP3    H2 1144   4.509   3.722   1.143
  380TIP3   OH2 1145   0.413   0.447   1.106
  380TIP3    H1 1146   0.378   0.509   1.041
  380TIP3    H2 1147   0.427   0.366   1.056
  381TIP3   OH2 1148   6.014   5.546   0.355
  381TIP3    H1 1149   5.935   5.569   0.306
  381TIP3    H2 1150   5.981   5.506   0.436
  382TIP3   OH2 1151   3.011   2.654   4.172
  382TIP3    H1 1152   2.966   2.724   4.221
  382TIP3    H2 1153   3.068   2.701   4.111
  383TIP3   OH2 1154   0.902   3.089   1.434
  383TIP3    H1 1155   0.910   3.109   1.527
  383TIP3    H2 1156   0.863   3.002   1.432
  384TIP3   OH2 1157   2.229   4.243   3.723
  384TIP3    H1 1158   2.224   4.163   3.671
  384TIP3    H2 1159   2.322   4.263   3.728
  385TIP3   OH2 1160   5.645   5.295   1.267
  385TIP3    H1 1161   5.711   5.358   1.239
  385TIP3    H2 1162   5.685   5.210   1.252
  386TIP3   OH2 1163   4.577   4.088   2.134
  386TIP3    H1 1164   4.530   4.128   2.061
  386TIP3    H2 1165   4.615   4.009   2.096
  387TIP3   OH2 1166   2.107   3.627   3.214
  387TIP3    H1 1167   2.178   3.570   3.184
  387TIP3    H2 1168   2.027   3.579   3.191
  388TIP3   OH2 1169   6.273   2.574   5.036
  388TIP3    H1 1170   6.280   2.526   4.954
  388TIP3    H2 1171   6.358   2.561   5.079
  389TIP3   OH2 1172   5.786   0.690   3.080
  389TIP3    H1 1173   5.784   0.763   3.141
  389TIP3    H2 1174   5.772   0.730   2.994
  390TIP3   OH2 1175   5.662   1.501   1.441
  390TIP3    H1 1176   5.580   1.452   1.438
  390TIP3    H2 1177   5.665   1.549   1.358
  391TIP3   OH2 1178   2.028   1.656   2.677
  391TIP3    H1 1179   1.978   1.701   2.609
  391TIP3    H2 1180   2.103   1.619   2.631
  392TIP3   OH2 1181   0.899   0.872   0.256
  392TIP3    H1 1182   0.950   0.881   0.176
  392TIP3    H2 1183   0.961   0.837   0.320
  393TIP3   OH2 1184   3.380   4.438   3.518
  393TIP3    H1 1185   3.437   4.472   3.449
  393TIP3    H2 1186   3.407   4.485   3.597
  394TIP3   OH2 1187   3.233   0.835   4.265
  394TIP3    H1 1188   3.140   0.855   4.253
  394TIP3    H2 1189   3.234   0.746   4.300
  395TIP3   OH2 1190   5.083   3.560   0.695
  395TIP3    H1 1191   5.020   3.602   0.753
  395TIP3    H2 1192   5.159   3.618   0.695
  396TIP3   OH2 1193   5.976   0.560   1.581
  396TIP3    H1 1194   5.963   0.593   1.492
  396TIP3    H2 1195   5.910   0.492   1.591
  397TIP3   OH2 1196   2.719   1.417   4.062
  397TIP3    H1 1197   2.687   1.396   4.150
  397TIP3    H2 1198   2.813   1.430   4.073
  398TIP3   OH2 1199  -0.046   5.387   1.395
  398TIP3    H1 1200  -0.058   5.293   1.383
  398TIP3    H2 1201  -0.023   5.420   1.309
  399TIP3   OH2 1202   2.610   2.673   4.027
  399TIP3    H1 1203   2.616   2.625   4.110
  399TIP3    H2 1204   2.611   2.606   3.960
  400TIP3   OH2 1205   2.152   0.375   2.665
  400TIP3    H1 1206   2.070   0.409   2.701
  400TIP3    H2 1207   2.216   0.387   2.735
  401TIP3   OH2 1208   4.720   0.181   3.317
  401TIP3    H1 1209   4.655   0.220   3.258
  401TIP3    H2 1210   4.794   0.241   3.314
  402TIP3   OH2 1211   4.071   1.523   1.603
  402TIP3    H1 1212   4.004   1.562   1.547
  402TIP3    H2 1213   4.149   1.520   1.548
  403TIP3   OH2 1214   2.090   1.559   3.370
  403TIP3    H1 1215   2.076   1.565   3.275
  403TIP3    H2 1216   2.006   1.529   3.404
  404TIP3   OH2 1217   2.161   0.310   1.930
  404TIP3    H1 1218   2.079   0.330   1.976
  404TIP3    H2 1219   2.193   0.230   1.972
  405TIP3   OH2 1220   1.585   4.414   0.643
  405TIP3    H1 1221   1.494   4.441   0.660
  405TIP3    H2 1222   1.585   4.319   0.659
  406TIP3   OH2 1223   2.415   0.898   0.935
  406TIP3    H1 1224   2.331   0.869   0.970
  406TIP3    H2 1225   2.455   0.946   1.007
  407TIP3   OH2 1226   0.057   1.279   0.410
  407TIP3    H1 1227   0.113   1.316   0.478
  407TIP3    H2 1228   0.110   1.286   0.330
  408TIP3   OH2 1229   1.008   0.181   2.759
  408TIP3    H1 1230   1.076   0.236   2.799
  408TIP3    H2 1231   1.049   0.095   2.750
  409TIP3   OH2 1232   0.584   1.014   4.738
  409TIP3    H1 1233   0.510   1.067   4.768
  409TIP3    H2 1234   0.557   0.924   4.754
  410TIP3   OH2 1235   0.808   5.385   4.719
  410TIP3    H1 1236   0.766   5.450   4.662
  410TIP3    H2 1237   0.802   5.303   4.670
  411TIP3   OH2 1238   2.719   1.459   4.723
  411TIP3    H1 1239   2.768   1.541   4.735
  411TIP3    H2 1240   2.654   1.480   4.656
  412TIP3   OH2 1241   2.945   5.144   2.190
  412TIP3    H1 1242   2.980   5.069   2.239
  412TIP3    H2 1243   2.878   5.106   2.134
  413TIP3   OH2 1244   3.967   4.443   4.467
  413TIP3    H1 1245   3.946   4.533   4.494
  413TIP3    H2 1246   3.882   4.403   4.450
  414TIP3   OH2 1247   3.484   2.405   0.440
  414TIP3    H1 1248   3.415   2.342   0.462
  414TIP3    H2 1249   3.565   2.356   0.450
  415TIP3   OH2 1250   2.502   3.461   2.545
  415TIP3    H1 1251   2.512   3.553   2.518
  415TIP3    H2 1252   2.492   3.413   2.463
  416TIP3   OH2 1253   4.484   3.796   4.884
  416TIP3    H1 1254   4.441   3.744   4.952
  416TIP3    H2 1255   4.454   3.758   4.801
  417TIP3   OH2 1256   6.302   3.333   3.692
  417TIP3    H1 1257   6.256   3.408   3.730
  417TIP3    H2 1258   6.318   3.360   3.601
  418TIP3   OH2 1259   0.357   5.085   5.079
  418TIP3    H1 1260   0.345   5.019   5.011
  418TIP3    H2 1261   0.303   5.056   5.151
  419TIP3   OH2 1262   3.802   0.812   4.418
  419TIP3    H1 1263   3.732   0.877   4.411
  419TIP3    H2 1264   3.878   0.862   4.449
  420TIP3   OH2 1265   3.193   3.771   3.141
  420TIP3    H1 1266   3.210   3.744   3.051
  420TIP3    H2 1267   3.137   3.848   3.133
  421TIP3   OH2 1268   6.135   4.396   2.293
  421TIP3    H1 1269   6.217   4.393   2.243
  421TIP3    H2 1270   6.160   4.364   2.380
  422TIP3   OH2 1271   3.524   0.473   4.782
  422TIP3    H1 1272   3.518   0.387   4.741
  422TIP3    H2 1273   3.463   0.468   4.856
  423TIP3   OH2 1274   1.656   4.957   5.058
  423TIP3    H1 1275   1.702   5.026   5.105
  423TIP3    H2 1276   1.719   4.885   5.053
  424TIP3   OH2 1277   4.425   4.479   1.104
  424TIP3    H1 1278   4.394   4.556   1.057
  424TIP3    H2 1279   4.388   4.404   1.056
  425TIP3   OH2 1280   2.176   1.857   3.129
  425TIP3    H1 1281   2.208   1.874   3.218
  425TIP3    H2 1282   2.253   1.870   3.073
  426TIP3   OH2 1283   2.144   1.133   1.169
  426TIP3    H1 1284   2.208   1.152   1.100
  426TIP3    H2 1285   2.157   1.203   1.233
  427TIP3   OH2 1286   4.991   3.794   2.066
  427TIP3    H1 1287   5.060   3.770   2.004
  427TIP3    H2 1288   5.021   3.759   2.150
  428TIP3   OH2 1289   5.060   3.644   2.312
  428TIP3    H1 1290   5.099   3.731   2.316
  428TIP3    H2 1291   4.985   3.647   2.371
  429TIP3   OH2 1292   5.468   3.215   2.754
  429TIP3    H1 1293   5.468   3.130   2.799
  429TIP3    H2 1294   5.459   3.279   2.824
  430TIP3   OH2 1295   5.697   5.945   4.376
  430TIP3    H1 1296   5.642   5.994   4.315
  430TIP3    H2 1297   5.647   5.942   4.457
  431TIP3   OH2 1298   5.670   3.893   1.940
  431TIP3    H1 1299   5.680   3.846   2.022
  431TIP3    H2 1300   5.735   3.963   1.943
  432TIP3   OH2 1301   3.769   2.907   3.304
  432TIP3    H1 1302   3.710   2.879   3.235
  432TIP3    H2 1303   3.711   2.936   3.375
  433TIP3   OH2 1304   2.304   2.181   2.210
  433TIP3    H1 1305   2.360   2.106   2.230
  433TIP3    H2 1306   2.292   2.226   2.294
  434TIP3   OH2 1307   0.882   2.804   4.568
  434TIP3    H1 1308   0.892   2.709   4.576
  434TIP3    H2 1309   0.835   2.816   4.486
  435TIP3   OH2 1310   5.834   2.146   4.434
  435TIP3    H1 1311   5.863   2.092   4.507
  435TIP3    H2 1312   5.770   2.206   4.473
  436TIP3   OH2 1313   0.388   0.303   2.553
  436TIP3    H1 1314   0.449   0.233   2.530
  436TIP3    H2 1315   0.329   0.309   2.478
  437TIP3   OH2 1316   5.553   2.207   4.678
  437TIP3    H1 1317   5.643   2.238   4.661
  437TIP3    H2 1318   5.534   2.236   4.767
  438TIP3   OH2 1319   4.912   3.341   3.532
  438TIP3    H1 1320   4.954   3.411   3.583
  438TIP3    H2 1321   4.825   3.375   3.512
  439TIP3   OH2 1322   5.194   5.000   3.597
  439TIP3    H1 1323   5.118   4.990   3.540
  439TIP3    H2 1324   5.163   5.053   3.670
  440TIP3   OH2 1325   6.101   3.428   1.718
  440TIP3    H1 1326   6.051   3.503   1.687
  440TIP3    H2 1327   6.068   3.354   1.667
  441TIP3   OH2 1328   3.850   1.126   3.205
  441TIP3    H1 1329   3.846   1.162   3.294
  441TIP3    H2 1330   3.819   1.036   3.215
  442TIP3   OH2 1331   4.582   3.492   3.706
  442TIP3    H1 1332   4.647   3.433   3.743
  442TIP3    H2 1333   4.634   3.561   3.664
  443TIP3   OH2 1334   6.304   0.804   3.890
  443TIP3    H1 1335   6.220   0.840   3.921
  443TIP3    H2 1336   6.314   0.840   3.802
  444TIP3   OH2 1337   5.588   2.284   3.683
  444TIP3    H1 1338   5.604   2.275   3.589
  444TIP3    H2 1339   5.626   2.369   3.706
  445TIP3   OH2 1340   6.232   2.842   1.144
  445TIP3    H1 1341   6.174   2.861   1.070
  445TIP3    H2 1342   6.295   2.778   1.110
  446TIP3   OH2 1343   1.656   4.212   3.553
  446TIP3    H1 1344   1.675   4.140   3.493
  446TIP3    H2 1345   1.730   4.213   3.614
  447TIP3   OH2 1346   5.850   4.933   1.758
  447TIP3    H1 1347   5.850   5.028   1.754
  447TIP3    H2 1348   5.896   4.912   1.839
  448TIP3   OH2 1349   5.157   3.707   1.304
  448TIP3    H1 1350   5.092   3.651   1.262
  448TIP3    H2 1351   5.237   3.656   1.303
  449TIP3   OH2 1352   1.063   5.383   1.185
  449TIP3    H1 1353   1.094   5.374   1.095
  449TIP3    H2 1354   1.143   5.385   1.238
  450TIP3   OH2 1355   4.620   0.681   4.008
  450TIP3    H1 1356   4.579   0.634   3.936
  450TIP3    H2 1357   4.619   0.773   3.981
  451TIP3   OH2 1358   4.617   3.519   1.788
  451TIP3    H1 1359   4.681   3.485   1.851
  451TIP3    H2 1360   4.623   3.459   1.714
  452TIP3   OH2 1361   4.979   1.316   5.064
  452TIP3    H1 1362   4.948   1.407   5.062
  452TIP3    H2 1363   4.994   1.299   5.157
  453TIP3   OH2 1364   3.921   1.920   0.580
  453TIP3    H1 1365   3.921   1.869   0.661
  453TIP3    H2 1366   3.828   1.939   0.565
  454TIP3   OH2 1367   3.765   3.547   4.743
  454TIP3    H1 1368   3.702   3.578   4.677
  454TIP3    H2 1369   3.845   3.596   4.725
  455TIP3   OH2 1370   0.989   1.243   4.446
  455TIP3    H1 1371   1.011   1.200   4.363
  455TIP3    H2 1372   0.914   1.193   4.479
  456TIP3   OH2 1373   0.957   4.322   3.844
  456TIP3    H1 1374   0.945   4.412   3.814
  456TIP3    H2 1375   0.915   4.269   3.777
  457TIP3   OH2 1376   3.629   4.145   0.320
  457TIP3    H1 1377   3.573   4.208   0.273
  457TIP3    H2 1378   3.665   4.196   0.393
  458TIP3   OH2 1379   5.569   5.637   0.864
  458TIP3    H1 1380   5.661   5.636   0.836
  458TIP3    H2 1381   5.525   5.696   0.802
  459TIP3   OH2 1382   2.843   4.078   4.801
  459TIP3    H1 1383   2.762   4.029   4.786
  459TIP3    H2 1384   2.890   4.029   4.868
  460TIP3   OH2 1385   3.923   5.611   3.939
  460TIP3    H1 1386   3.920   5.694   3.891
  460TIP3    H2 1387   3.865   5.624   4.014
  461TIP3   OH2 1388   4.781   5.653   4.252
  461TIP3    H1 1389   4.815   5.740   4.229
  461TIP3    H2 1390   4.703   5.672   4.305
  462TIP3   OH2 1391   3.436   5.503   4.754
  462TIP3    H1 1392   3.468   5.508   4.844
  462TIP3    H2 1393   3.506   5.542   4.701
  463TIP3   OH2 1394   1.271   2.819   2.878
  463TIP3    H1 1395   1.179   2.816   2.905
  463TIP3    H2 1396   1.278   2.752   2.810
  464TIP3   OH2 1397   3.617   3.019   2.596
  464TIP3    H1 1398   3.680   2.965   2.548
  464TIP3    H2 1399   3.571   2.959   2.653
  465TIP3   OH2 1400   1.196   5.573   5.161
  465TIP3    H1 1401   1.116   5.598   5.208
  465TIP3    H2 1402   1.205   5.479   5.176
  466TIP3   OH2 1403   4.326   1.595   1.203
  466TIP3    H1 1404   4.306   1.565   1.114
  466TIP3    H2 1405   4.324   1.691   1.197
  467TIP3   OH2 1406   6.013   2.699   3.983
  467TIP3    H1 1407   6.020   2.783   4.029
  467TIP3    H2 1408   6.007   2.634   4.053
  468TIP3   OH2 1409   2.243   4.284   3.175
  468TIP3    H1 1410   2.308   4.216   3.161
  468TIP3    H2 1411   2.260   4.318   3.262
  469TIP3   OH2 1412   4.244   0.529   0.564
  469TIP3    H1 1413   4.275   0.439   0.552
  469TIP3    H2 1414   4.250   0.569   0.477
  470TIP3   OH2 1415   5.421   0.615   3.246
  470TIP3    H1 1416   5.377   0.700   3.242
  470TIP3    H2 1417   5.355   0.555   3.282
  471TIP3   OH2 1418   3.574   1.599   0.867
  471TIP3    H1 1419   3.570   1.688   0.901
  471TIP3    H2 1420   3.664   1.571   0.883
  472TIP3   OH2 1421   4.713   4.306   2.230
  472TIP3    H1 1422   4.700   4.281   2.321
  472TIP3    H2 1423   4.658   4.245   2.181
  473TIP3   OH2 1424   2.098   1.328   2.901
  473TIP3    H1 1425   2.051   1.293   2.826
  473TIP3    H2 1426   2.030   1.348   2.965
  474TIP3   OH2 1427   5.287   4.641   3.518
  474TIP3    H1 1428   5.344   4.718   3.524
  474TIP3    H2 1429   5.304   4.606   3.430
  475TIP3   OH2 1430   6.199   0.879   4.435
  475TIP3    H1 1431   6.141   0.905   4.364
  475TIP3    H2 1432   6.283   0.920   4.415
  476TIP3   OH2 1433   1.796   1.817   4.803
  476TIP3    H1 1434   1.734   1.754   4.840
  476TIP3    H2 1435   1.778   1.899   4.850
  477TIP3   OH2 1436   2.666   0.961   3.725
  477TIP3    H1 1437   2.685   1.030   3.789
  477TIP3    H2 1438   2.710   0.884   3.760
  478TIP3   OH2 1439   3.596   0.950   0.379
  478TIP3    H1 1440   3.688   0.930   0.398
  478TIP3    H2 1441   3.595   0.970   0.285
  479TIP3   OH2 1442   5.851   3.715   0.790
  479TIP3    H1 1443   5.943   3.727   0.812
  479TIP3    H2 1444   5.852   3.683   0.700
  480TIP3   OH2 1445   3.202   2.359   1.919
  480TIP3    H1 1446   3.211   2.434   1.979
  480TIP3    H2 1447   3.212   2.397   1.832
  481TIP3   OH2 1448   1.888   3.627   4.406
  481TIP3    H1 1449   1.856   3.587   4.326
  481TIP3    H2 1450   1.926   3.711   4.378
  482TIP3   OH2 1451   0.196   4.698   0.323
  482TIP3    H1 1452   0.117   4.741   0.289
  482TIP3    H2 1453   0.171   4.666   0.410
  483TIP3   OH2 1454   2.548   0.869   1.304
  483TIP3    H1 1455   2.571   0.956   1.273
  483TIP3    H2 1456   2.538   0.817   1.224
  484TIP3   OH2 1457   0.168   3.061   2.884
  484TIP3    H1 1458   0.142   3.153   2.876
  484TIP3    H2 1459   0.167   3.029   2.793
  485TIP3   OH2 1460   1.545   4.923   0.840
  485TIP3    H1 1461   1.477   4.889   0.781
  485TIP3    H2 1462   1.522   4.888   0.926
  486TIP3   OH2 1463   3.144   4.291   1.895
  486TIP3    H1 1464   3.191   4.366   1.859
  486TIP3    H2 1465   3.128   4.234   1.820
  487TIP3   OH2 1466   4.548   2.524   1.828
  487TIP3    H1 1467   4.453   2.517   1.832
  487TIP3    H2 1468   4.580   2.443   1.869
  488TIP3   OH2 1469   2.227   5.219   2.246
  488TIP3    H1 1470   2.318   5.210   2.217
  488TIP3    H2 1471   2.209   5.313   2.241
  489TIP3   OH2 1472   1.846   1.996   3.507
  489TIP3    H1 1473   1.908   2.065   3.531
  489TIP3    H2 1474   1.773   2.042   3.466
  490TIP3   OH2 1475   2.083   4.864   1.617
  490TIP3    H1 1476   2.155   4.800   1.609
  490TIP3    H2 1477   2.100   4.909   1.700
  491TIP3   OH2 1478   0.267   5.990   0.287
  491TIP3    H1 1479   0.239   5.988   0.196
  491TIP3    H2 1480   0.310   6.075   0.298
  492TIP3   OH2 1481   6.306   4.747   0.170
  492TIP3    H1 1482   6.239   4.800   0.127
  492TIP3    H2 1483   6.257   4.684   0.223
  493TIP3   OH2 1484   2.122   0.701   2.604
  493TIP3    H1 1485   2.202   0.704   2.657
  493TIP3    H2 1486   2.051   0.688   2.668
  494TIP3   OH2 1487   6.023   2.130   3.613
  494TIP3    H1 1488   5.996   2.221   3.617
  494TIP3    H2 1489   5.969   2.086   3.679
  495TIP3   OH2 1490   0.606   3.388   1.131
  495TIP3    H1 1491   0.644   3.472   1.156
  495TIP3    H2 1492   0.668   3.322   1.164
  496TIP3   OH2 1493   1.016   0.540   2.746
  496TIP3    H1 1494   0.928   0.504   2.759
  496TIP3    H2 1495   1.073   0.483   2.798
  497TIP3   OH2 1496   1.826   5.821   1.306
  497TIP3    H1 1497   1.798   5.863   1.387
  497TIP3    H2 1498   1.761   5.850   1.241
  498TIP3   OH2 1499   3.652   0.215   3.468
  498TIP3    H1 1500   3.648   0.195   3.562
  498TIP3    H2 1501   3.725   0.162   3.436
  499TIP3   OH2 1502   5.692   0.842   1.529
  499TIP3    H1 1503   5.636   0.913   1.560
  499TIP3    H2 1504   5.700   0.858   1.435
  500TIP3   OH2 1505   2.499   0.914   2.825
  500TIP3    H1 1506   2.462   1.002   2.833
  500TIP3    H2 1507   2.543   0.914   2.740
  501TIP3   OH2 1508   2.640   0.274   4.812
  501TIP3    H1 1509   2.712   0.216   4.787
  501TIP3    H2 1510   2.570   0.252   4.752
  502TIP3   OH2 1511   1.912   5.236   3.928
  502TIP3    H1 1512   1.968   5.178   3.980
  502TIP3    H2 1513   1.901   5.190   3.845
  503TIP3   OH2 1514   4.371   1.598   5.173
  503TIP3    H1 1515   4.352   1.664   5.106
  503TIP3    H2 1516   4.349   1.641   5.256
  504TIP3   OH2 1517   0.648   5.524   1.453
  504TIP3    H1 1518   0.569   5.576   1.440
  504TIP3    H2 1519   0.712   5.561   1.392
  505TIP3   OH2 1520   1.006   3.407   3.565
  505TIP3    H1 1521   1.050   3.369   3.642
  505TIP3    H2 1522   1.060   3.380   3.491
  506TIP3   OH2 1523   3.753   0.161   4.586
  506TIP3    H1 1524   3.777   0.210   4.508
  506TIP3    H2 1525   3.818   0.091   4.591
  507TIP3   OH2 1526   4.122   3.108   4.653
  507TIP3    H1 1527   4.147   3.199   4.637
  507TIP3    H2 1528   4.188   3.075   4.714
  508TIP3   OH2 1529   2.448   1.013   3.540
  508TIP3    H1 1530   2.514   1.000   3.608
  508TIP3    H2 1531   2.411   0.926   3.524
  509TIP3   OH2 1532   2.917   3.444   2.771
  509TIP3    H1 1533   2.967   3.365   2.750
  509TIP3    H2 1534   2.865   3.420   2.848
  510TIP3   OH2 1535   6.071   0.704   3.610
  510TIP3    H1 1536   6.050   0.634   3.549
  510TIP3    H2 1537   6.130   0.663   3.673
  511TIP3   OH2 1538   5.827   1.234   0.130
  511TIP3    H1 1539   5.831   1.288   0.051
  511TIP3    H2 1540   5.914   1.239   0.168
  512TIP3   OH2 1541   1.672   3.604   1.912
  512TIP3    H1 1542   1.603   3.592   1.846
  512TIP3    H2 1543   1.747   3.638   1.862
  513TIP3   OH2 1544   3.009   0.378   3.686
  513TIP3    H1 1545   3.031   0.285   3.680
  513TIP3    H2 1546   3.072   0.413   3.749
  514TIP3   OH2 1547   6.149   4.313   3.279
  514TIP3    H1 1548   6.194   4.240   3.237
  514TIP3    H2 1549   6.176   4.390   3.228
  515TIP3   OH2 1550   5.581   4.387   1.741
  515TIP3    H1 1551   5.514   4.320   1.726
  515TIP3    H2 1552   5.533   4.470   1.744
  516TIP3   OH2 1553   2.737   1.742   3.989
  516TIP3    H1 1554   2.799   1.672   3.969
  516TIP3    H2 1555   2.755   1.810   3.924
  517TIP3   OH2 1556   0.615   5.174   3.229
  517TIP3    H1 1557   0.702   5.173   3.189
  517TIP3    H2 1558   0.562   5.227   3.170
  518TIP3   OH2 1559   3.092   3.242   0.229
  518TIP3    H1 1560   3.065   3.294   0.304
  518TIP3    H2 1561   3.110   3.306   0.160
  519TIP3   OH2 1562   5.895   4.039   4.479
  519TIP3    H1 1563   5.928   4.031   4.568
  519TIP3    H2 1564   5.850   4.124   4.477
  520TIP3   OH2 1565   4.748   0.415   0.717
  520TIP3    H1 1566   4.796   0.378   0.643
  520TIP3    H2 1567   4.689   0.480   0.677
  521TIP3   OH2 1568   2.000   4.254   4.992
  521TIP3    H1 1569   1.981   4.324   5.055
  521TIP3    H2 1570   1.915   4.215   4.973
  522TIP3   OH2 1571   4.155   4.211   4.483
  522TIP3    H1 1572   4.215   4.228   4.410
  522TIP3    H2 1573   4.103   4.292   4.490
  523TIP3   OH2 1574   3.985   4.118   2.276
  523TIP3    H1 1575   3.907   4.090   2.228
  523TIP3    H2 1576   4.007   4.044   2.332
  524TIP3   OH2 1577   0.263   3.450   0.622
  524TIP3    H1 1578   0.350   3.479   0.648
  524TIP3    H2 1579   0.277   3.363   0.583
  525TIP3   OH2 1580   5.957   4.133   4.091
  525TIP3    H1 1581   5.985   4.210   4.042
  525TIP3    H2 1582   6.036   4.079   4.097
  526TIP3   OH2 1583   6.205   5.904   3.331
  526TIP3    H1 1584   6.195   5.957   3.409
  526TIP3    H2 1585   6.233   5.966   3.263
  527TIP3   OH2 1586   4.550   0.520   3.772
  527TIP3    H1 1587   4.600   0.581   3.719
  527TIP3    H2 1588   4.557   0.436   3.727
  528TIP3   OH2 1589   3.131   0.712   4.864
  528TIP3    H1 1590   3.069   0.652   4.824
  528TIP3    H2 1591   3.214   0.694   4.821
  529TIP3   OH2 1592   5.618   0.748   2.526
  529TIP3    H1 1593   5.657   0.818   2.474
  529TIP3    H2 1594   5.614   0.673   2.466
  530TIP3   OH2 1595   4.234   5.903   1.394
  530TIP3    H1 1596   4.275   5.816   1.392
  530TIP3    H2 1597   4.281   5.950   1.463
  531TIP3   OH2 1598   4.514   2.862   2.181
  531TIP3    H1 1599   4.512   2.769   2.201
  531TIP3    H2 1600   4.580   2.871   2.112
  532TIP3   OH2 1601   3.101   4.823   1.742
  532TIP3    H1 1602   3.172   4.804   1.803
  532TIP3    H2 1603   3.145   4.837   1.657
  533TIP3   OH2 1604   3.304   1.181   5.116
  533TIP3    H1 1605   3.280   1.089   5.101
  533TIP3    H2 1606   3.223   1.230   5.104
  534TIP3   OH2 1607   6.253   3.751   4.719
  534TIP3    H1 1608   6.177   3.764   4.663
  534TIP3    H2 1609   6.326   3.735   4.659
  535TIP3   OH2 1610   6.178   4.726   2.868
  535TIP3    H1 1611   6.214   4.648   2.826
  535TIP3    H2 1612   6.232   4.798   2.835
  536TIP3   OH2 1613   2.784   0.356   1.525
  536TIP3    H1 1614   2.730   0.423   1.484
  536TIP3    H2 1615   2.826   0.310   1.452
  537TIP3   OH2 1616   1.219   0.403   1.975
  537TIP3    H1 1617   1.287   0.451   2.022
  537TIP3    H2 1618   1.140   0.416   2.028
  538TIP3   OH2 1619   0.904   0.494   1.108
  538TIP3    H1 1620   0.903   0.478   1.014
  538TIP3    H2 1621   0.813   0.513   1.131
  539TIP3   OH2 1622   3.028   1.048   2.228
  539TIP3    H1 1623   3.022   1.106   2.304
  539TIP3    H2 1624   3.122   1.037   2.213
  540TIP3   OH2 1625   0.052   3.880   2.186
  540TIP3    H1 1626   0.070   3.819   2.114
  540TIP3    H2 1627   0.012   3.826   2.254
  541TIP3   OH2 1628   3.040   1.096   4.746
  541TIP3    H1 1629   3.076   1.175   4.786
  541TIP3    H2 1630   3.032   1.034   4.818
  542TIP3   OH2 1631   2.291   0.697   3.725
  542TIP3    H1 1632   2.258   0.776   3.683
  542TIP3    H2 1633   2.330   0.727   3.807
  543TIP3   OH2 1634   2.060   2.423   3.232
  543TIP3    H1 1635   2.062   2.515   3.205
  543TIP3    H2 1636   2.134   2.384   3.187
  544TIP3   OH2 1637   6.057   5.313   0.116
  544TIP3    H1 1638   6.055   5.408   0.101
  544TIP3    H2 1639   6.129   5.281   0.062
  545TIP3   OH2 1640   1.273   0.905   4.856
  545TIP3    H1 1641   1.281   0.985   4.804
  545TIP3    H2 1642   1.362   0.872   4.863
  546TIP3   OH2 1643   5.973   2.534   4.228
  546TIP3    H1 1644   5.933   2.610   4.270
  546TIP3    H2 1645   5.993   2.474   4.300
  547TIP3   OH2 1646   0.119   3.557   0.297
  547TIP3    H1 1647   0.156   3.474   0.267
  547TIP3    H2 1648   0.026   3.551   0.273
  548TIP3   OH2 1649   3.616   3.022   4.159
  548TIP3    H1 1650   3.662   2.937   4.163
  548TIP3    H2 1651   3.524   2.999   4.165
  549TIP3   OH2 1652   2.708   3.074   4.439
  549TIP3    H1 1653   2.699   2.982   4.465
  549TIP3    H2 1654   2.680   3.077   4.348
  550TIP3   OH2 1655   5.514   5.763   4.107
  550TIP3    H1 1656   5.421   5.770   4.125
  550TIP3    H2 1657   5.533   5.838   4.050
  551TIP3   OH2 1658   6.309   3.840   0.533
  551TIP3    H1 1659   6.371   3.768   0.521
  551TIP3    H2 1660   6.351   3.897   0.597
  552TIP3   OH2 1661   2.237   2.789   2.089
  552TIP3    H1 1662   2.239   2.879   2.122
  552TIP3    H2 1663   2.329   2.767   2.076
  553TIP3   OH2 1664   5.892   2.281   2.236
  553TIP3    H1 1665   5.981   2.313   2.227
  553TIP3    H2 1666   5.858   2.326   2.314
  554TIP3   OH2 1667   2.688   3.330   1.317
  554TIP3    H1 1668   2.611   3.282   1.348
  554TIP3    H2 1669   2.724   3.371   1.395
  555TIP3   OH2 1670   4.897   1.857   3.267
  555TIP3    H1 1671   4.845   1.798   3.213
  555TIP3    H2 1672   4.865   1.842   3.356
  556TIP3   OH2 1673   5.750   1.368   1.179
  556TIP3    H1 1674   5.682   1.398   1.119
  556TIP3    H2 1675   5.711   1.295   1.226
  557TIP3   OH2 1676   6.143   1.291   2.473
  557TIP3    H1 1677   6.096   1.357   2.422
  557TIP3    H2 1678   6.155   1.218   2.412
  558TIP3   OH2 1679   0.109   1.888   2.121
  558TIP3    H1 1680   0.096   1.862   2.030
  558TIP3    H2 1681   0.115   1.806   2.169
  559TIP3   OH2 1682   3.374   1.141   0.324
  559TIP3    H1 1683   3.390   1.143   0.418
  559TIP3    H2 1684   3.460   1.156   0.284
  560TIP3   OH2 1685   4.124   5.624   3.522
  560TIP3    H1 1686   4.029   5.634   3.535
  560TIP3    H2 1687   4.155   5.586   3.604
  561TIP3   OH2 1688   6.042   3.111   3.984
  561TIP3    H1 1689   5.991   3.182   4.023
  561TIP3    H2 1690   6.132   3.127   4.013
  562TIP3   OH2 1691   1.164   3.613   2.987
  562TIP3    H1 1692   1.230   3.543   2.992
  562TIP3    H2 1693   1.155   3.644   3.077
  563TIP3   OH2 1694   2.072   4.565   3.251
  563TIP3    H1 1695   2.141   4.555   3.185
  563TIP3    H2 1696   2.116   4.553   3.334
  564TIP3   OH2 1697   5.385   4.967   4.739
  564TIP3    H1 1698   5.362   4.936   4.827
  564TIP3    H2 1699   5.302   4.969   4.692
  565TIP3   OH2 1700   3.114   4.466   3.375
  565TIP3    H1 1701   3.175   4.424   3.434
  565TIP3    H2 1702   3.139   4.434   3.288
  566TIP3   OH2 1703   4.918   4.293   4.491
  566TIP3    H1 1704   4.910   4.224   4.425
  566TIP3    H2 1705   4.842   4.281   4.548
  567TIP3   OH2 1706   5.618   0.404   3.634
  567TIP3    H1 1707   5.574   0.489   3.635
  567TIP3    H2 1708   5.584   0.360   3.556
  568TIP3   OH2 1709   3.470   0.012   1.544
  568TIP3    H1 1710   3.467  -0.081   1.523
  568TIP3    H2 1711   3.507   0.053   1.465
  569TIP3   OH2 1712   1.501   4.873   1.703
  569TIP3    H1 1713   1.475   4.850   1.792
  569TIP3    H2 1714   1.425   4.852   1.649
  570TIP3   OH2 1715   1.625   1.800   2.526
  570TIP3    H1 1716   1.546   1.797   2.579
  570TIP3    H2 1717   1.624   1.887   2.486
  571TIP3   OH2 1718   3.557   2.975   4.990
  571TIP3    H1 1719   3.531   3.067   4.997
  571TIP3    H2 1720   3.556   2.956   4.897
  572TIP3   OH2 1721   2.542   0.265   0.522
  572TIP3    H1 1722   2.618   0.321   0.538
  572TIP3    H2 1723   2.547   0.245   0.429
  573TIP3   OH2 1724   2.903   4.670   0.517
  573TIP3    H1 1725   2.844   4.691   0.589
  573TIP3    H2 1726   2.846   4.665   0.440
  574TIP3   OH2 1727   5.031   0.169   2.198
  574TIP3    H1 1728   4.971   0.223   2.146
  574TIP3    H2 1729   5.089   0.130   2.134
  575TIP3   OH2 1730   1.509   4.136   2.368
  575TIP3    H1 1731   1.566   4.194   2.418
  575TIP3    H2 1732   1.444   4.194   2.328
  576TIP3   OH2 1733   5.131   2.565   0.721
  576TIP3    H1 1734   5.150   2.566   0.814
  576TIP3    H2 1735   5.215   2.548   0.679
  577TIP3   OH2 1736   0.651   4.771   0.950
  577TIP3    H1 1737   0.671   4.684   0.915
  577TIP3    H2 1738   0.720   4.788   1.013
  578TIP3   OH2 1739   1.930   5.380   5.144
  578TIP3    H1 1740   1.949   5.294   5.107
  578TIP3    H2 1741   1.862   5.417   5.087
  579TIP3   OH2 1742   5.963   3.040   3.378
  579TIP3    H1 1743   6.029   2.971   3.372
  579TIP3    H2 1744   5.893   3.002   3.430
  580TIP3   OH2 1745   3.990   1.583   0.180
  580TIP3    H1 1746   3.906   1.557   0.219
  580TIP3    H2 1747   3.976   1.577   0.086
  581TIP3   OH2 1748   2.994   0.684   3.060
  581TIP3    H1 1749   3.063   0.714   3.119
  581TIP3    H2 1750   2.962   0.764   3.018
  582TIP3   OH2 1751   4.837   1.078   1.038
  582TIP3    H1 1752   4.918   1.052   1.082
  582TIP3    H2 1753   4.769   1.025   1.080
  583TIP3   OH2 1754   4.900   4.716   5.099
  583TIP3    H1 1755   4.959   4.791   5.085
  583TIP3    H2 1756   4.817   4.744   5.061
  584TIP3   OH2 1757   5.828   1.685   3.696
  584TIP3    H1 1758   5.816   1.665   3.603
  584TIP3    H2 1759   5.776   1.618   3.742
  585TIP3   OH2 1760   4.001   1.225   4.209
  585TIP3    H1 1761   4.065   1.160   4.181
  585TIP3    H2 1762   4.047   1.279   4.273
  586TIP3   OH2 1763   5.108   2.840   2.503
  586TIP3    H1 1764   5.193   2.870   2.533
  586TIP3    H2 1765   5.046   2.870   2.569
  587TIP3   OH2 1766   1.655   4.361   2.409
  587TIP3    H1 1767   1.677   4.405   2.327
  587TIP3    H2 1768   1.740   4.335   2.445
  588TIP3   OH2 1769   5.361   4.975   3.304
  588TIP3    H1 1770   5.267   4.967   3.291
  588TIP3    H2 1771   5.400   4.916   3.240
  589TIP3   OH2 1772   0.316   2.241   0.745
  589TIP3    H1 1773   0.324   2.300   0.670
  589TIP3    H2 1774   0.273   2.294   0.812
  590TIP3   OH2 1775   3.701   5.356   4.031
  590TIP3    H1 1776   3.666   5.442   4.055
  590TIP3    H2 1777   3.634   5.316   3.976
  591TIP3   OH2 1778   5.938   0.543   3.420
  591TIP3    H1 1779   5.984   0.459   3.417
  591TIP3    H2 1780   5.845   0.518   3.426
  592TIP3   OH2 1781   4.045   5.771   4.777
  592TIP3    H1 1782   4.037   5.759   4.871
  592TIP3    H2 1783   4.008   5.691   4.739
  593TIP3   OH2 1784   2.556   4.083   0.987
  593TIP3    H1 1785   2.582   4.168   1.023
  593TIP3    H2 1786   2.639   4.039   0.967
  594TIP3   OH2 1787   2.493   2.288   4.805
  594TIP3    H1 1788   2.462   2.357   4.747
  594TIP3    H2 1789   2.474   2.321   4.893
  595TIP3   OH2 1790   5.292   3.108   2.069
  595TIP3    H1 1791   5.360   3.161   2.111
  595TIP3    H2 1792   5.265   3.159   1.993
  596TIP3   OH2 1793   0.977   4.943   2.994
  596TIP3    H1 1794   0.946   4.895   2.917
  596TIP3    H2 1795   1.053   4.893   3.024
  597TIP3   OH2 1796   2.667   5.338   3.303
  597TIP3    H1 1797   2.722   5.416   3.298
  597TIP3    H2 1798   2.645   5.330   3.396
  598TIP3   OH2 1799   1.937   0.932   4.438
  598TIP3    H1 1800   1.983   0.937   4.522
  598TIP3    H2 1801   1.847   0.909   4.462
  599TIP3   OH2 1802   3.813   1.223   1.382
  599TIP3    H1 1803   3.738   1.171   1.353
  599TIP3    H2 1804   3.882   1.158   1.399
  600TIP3   OH2 1805   6.035   0.455   0.794
  600TIP3    H1 1806   6.003   0.365   0.788
  600TIP3    H2 1807   6.126   0.450   0.768
  601TIP3   OH2 1808   0.447   4.758   0.274
  601TIP3    H1 1809   0.470   4.790   0.361
  601TIP3    H2 1810   0.355   4.730   0.282
  602TIP3   OH2 1811   0.047   5.919   0.724
  602TIP3    H1 1812   0.076   5.982   0.658
  602TIP3    H2 1813   0.076   5.834   0.690
  603TIP3   OH2 1814   0.456   1.557   1.801
  603TIP3    H1 1815   0.438   1.616   1.728
  603TIP3    H2 1816   0.516   1.492   1.765
  604TIP3   OH2 1817   2.832   2.896   0.752
  604TIP3    H1 1818   2.815   2.977   0.800
  604TIP3    H2 1819   2.745   2.856   0.740
  605TIP3   OH2 1820   1.174   0.925   0.748
  605TIP3    H1 1821   1.249   0.874   0.780
  605TIP3    H2 1822   1.179   0.916   0.653
  606TIP3   OH2 1823   5.448   1.015   2.971
  606TIP3    H1 1824   5.396   1.058   3.039
  606TIP3    H2 1825   5.481   1.087   2.917
  607TIP3   OH2 1826   1.118   0.712   5.046
  607TIP3    H1 1827   1.046   0.758   5.003
  607TIP3    H2 1828   1.194   0.729   4.991
  608TIP3   OH2 1829   2.933   5.138   1.149
  608TIP3    H1 1830   2.943   5.067   1.085
  608TIP3    H2 1831   3.021   5.177   1.154
  609TIP3   OH2 1832   5.441   3.190   4.279
  609TIP3    H1 1833   5.483   3.270   4.246
  609TIP3    H2 1834   5.394   3.218   4.358
  610TIP3   OH2 1835   2.985   0.931   4.955
  610TIP3    H1 1836   3.006   0.860   4.894
  610TIP3    H2 1837   3.038   0.912   5.032
  611TIP3   OH2 1838   4.702   3.550   2.159
  611TIP3    H1 1839   4.759   3.510   2.094
  611TIP3    H2 1840   4.725   3.643   2.157
  612TIP3   OH2 1841   3.110   2.009   0.547
  612TIP3    H1 1842   3.058   1.944   0.500
  612TIP3    H2 1843   3.107   1.981   0.639
  613TIP3   OH2 1844   5.168   3.774   1.870
  613TIP3    H1 1845   5.232   3.719   1.826
  613TIP3    H2 1846   5.165   3.854   1.818
  614TIP3   OH2 1847   3.496   1.804   0.131
  614TIP3    H1 1848   3.493   1.856   0.211
  614TIP3    H2 1849   3.455   1.861   0.065
  615TIP3   OH2 1850   3.864   3.476   4.461
  615TIP3    H1 1851   3.956   3.466   4.435
  615TIP3    H2 1852   3.820   3.505   4.381
  616TIP3   OH2 1853   2.484   0.935   4.138
  616TIP3    H1 1854   2.495   0.874   4.065
  616TIP3    H2 1855   2.530   1.015   4.111
  617TIP3   OH2 1856   4.724   5.143   0.435
  617TIP3    H1 1857   4.816   5.125   0.415
  617TIP3    H2 1858   4.702   5.080   0.504
  618TIP3   OH2 1859   1.239   2.406   4.438
  618TIP3    H1 1860   1.316   2.405   4.495
  618TIP3    H2 1861   1.187   2.331   4.467
  619TIP3   OH2 1862   3.238   3.998   3.618
  619TIP3    H1 1863   3.213   3.916   3.577
  619TIP3    H2 1864   3.257   4.056   3.544
  620TIP3   OH2 1865   1.572   0.073   4.701
  620TIP3    H1 1866   1.497   0.019   4.679
  620TIP3    H2 1867   1.589   0.124   4.621
  621TIP3   OH2 1868   0.754   4.864   1.574
  621TIP3    H1 1869   0.725   4.954   1.587
  621TIP3    H2 1870   0.673   4.813   1.567
  622TIP3   OH2 1871   2.106   2.978   1.895
  622TIP3    H1 1872   2.083   3.037   1.967
  622TIP3    H2 1873   2.054   2.900   1.911
  623TIP3   OH2 1874   5.715   0.478   2.796
  623TIP3    H1 1875   5.639   0.510   2.845
  623TIP3    H2 1876   5.748   0.555   2.749
  624TIP3   OH2 1877   1.466   3.883   2.397
  624TIP3    H1 1878   1.395   3.861   2.338
  624TIP3    H2 1879   1.482   3.976   2.382
  625TIP3   OH2 1880   0.158   4.905   0.660
  625TIP3    H1 1881   0.095   4.848   0.617
  625TIP3    H2 1882   0.168   4.867   0.748
  626TIP3   OH2 1883   3.830   2.905   4.586
  626TIP3    H1 1884   3.771   2.906   4.511
  626TIP3    H2 1885   3.906   2.955   4.557
  627TIP3   OH2 1886   5.581   0.991   4.484
  627TIP3    H1 1887   5.589   0.965   4.392
  627TIP3    H2 1888   5.562   1.085   4.480
  628TIP3   OH2 1889   0.886  -0.002   0.687
  628TIP3    H1 1890   0.947   0.023   0.619
  628TIP3    H2 1891   0.940  -0.013   0.765
  629TIP3   OH2 1892   1.284   1.666   4.286
  629TIP3    H1 1893   1.263   1.723   4.360
  629TIP3    H2 1894   1.242   1.583   4.307
  630TIP3   OH2 1895   2.110   3.163   0.895
  630TIP3    H1 1896   2.034   3.207   0.935
  630TIP3    H2 1897   2.182   3.182   0.955
  631TIP3   OH2 1898   1.327   2.422   5.020
  631TIP3    H1 1899   1.331   2.506   4.973
  631TIP3    H2 1900   1.239   2.421   5.058
  632TIP3   OH2 1901   4.737   0.415   2.848
  632TIP3    H1 1902   4.791   0.351   2.802
  632TIP3    H2 1903   4.789   0.495   2.849
  633TIP3   OH2 1904   2.171   2.262   1.379
  633TIP3    H1 1905   2.165   2.169   1.355
  633TIP3    H2 1906   2.093   2.278   1.432
  634TIP3   OH2 1907   1.215   0.290   4.073
  634TIP3    H1 1908   1.136   0.345   4.073
  634TIP3    H2 1909   1.287   0.353   4.062
  635TIP3   OH2 1910   5.629   3.094   3.734
  635TIP3    H1 1911   5.641   3.008   3.775
  635TIP3    H2 1912   5.628   3.075   3.640
  636TIP3   OH2 1913   0.284   1.151   3.635
  636TIP3    H1 1914   0.237   1.185   3.711
  636TIP3    H2 1915   0.242   1.067   3.616
  637TIP3   OH2 1916   1.213   3.711   4.616
  637TIP3    H1 1917   1.228   3.801   4.646
  637TIP3    H2 1918   1.211   3.659   4.696
  638TIP3   OH2 1919   0.085   1.498   2.692
  638TIP3    H1 1920   0.116   1.456   2.773
  638TIP3    H2 1921   0.069   1.425   2.632
  639TIP3   OH2 1922   4.420   0.509   1.672
  639TIP3    H1 1923   4.348   0.455   1.639
  639TIP3    H2 1924   4.457   0.458   1.744
  640TIP3   OH2 1925   4.404   5.610   0.736
  640TIP3    H1 1926   4.362   5.688   0.699
  640TIP3    H2 1927   4.498   5.631   0.733
  641TIP3   OH2 1928   5.808   4.680   4.056
  641TIP3    H1 1929   5.774   4.710   4.140
  641TIP3    H2 1930   5.863   4.605   4.076
  642TIP3   OH2 1931   6.101   0.272   0.612
  642TIP3    H1 1932   6.114   0.238   0.701
  642TIP3    H2 1933   6.190   0.285   0.579
  643TIP3   OH2 1934   0.918   3.541   1.489
  643TIP3    H1 1935   0.949   3.462   1.445
  643TIP3    H2 1936   0.997   3.582   1.524
  644TIP3   OH2 1937   1.604   4.311   3.046
  644TIP3    H1 1938   1.602   4.215   3.040
  644TIP3    H2 1939   1.512   4.337   3.040
  645TIP3   OH2 1940   2.809   2.190   1.031
  645TIP3    H1 1941   2.726   2.229   1.059
  645TIP3    H2 1942   2.876   2.241   1.076
  646TIP3   OH2 1943   1.166   2.358   3.000
  646TIP3    H1 1944   1.151   2.389   2.910
  646TIP3    H2 1945   1.122   2.272   3.002
  647TIP3   OH2 1946   3.934   2.598   4.954
  647TIP3    H1 1947   3.916   2.691   4.965
  647TIP3    H2 1948   3.989   2.594   4.875
  648TIP3   OH2 1949   0.128   2.086   4.784
  648TIP3    H1 1950   0.206   2.030   4.776
  648TIP3    H2 1951   0.110   2.114   4.695
  649TIP3   OH2 1952   1.450   0.791   3.862
  649TIP3    H1 1953   1.400   0.786   3.944
  649TIP3    H2 1954   1.442   0.704   3.824
  650TIP3   OH2 1955   2.998   0.849   1.555
  650TIP3    H1 1956   2.988   0.923   1.615
  650TIP3    H2 1957   3.015   0.890   1.470
  651TIP3   OH2 1958   5.992   4.115   4.736
  651TIP3    H1 1959   6.033   4.041   4.780
  651TIP3    H2 1960   5.951   4.165   4.806
  652TIP3   OH2 1961   1.631   5.169   3.929
  652TIP3    H1 1962   1.641   5.220   4.010
  652TIP3    H2 1963   1.699   5.204   3.871
  653TIP3   OH2 1964   0.848   3.265   3.886
  653TIP3    H1 1965   0.863   3.351   3.926
  653TIP3    H2 1966   0.781   3.281   3.819
  654TIP3   OH2 1967   2.805   2.554   2.390
  654TIP3    H1 1968   2.777   2.637   2.429
  654TIP3    H2 1969   2.899   2.566   2.374
  655TIP3   OH2 1970   3.804   2.218   1.163
  655TIP3    H1 1971   3.818   2.225   1.258
  655TIP3    H2 1972   3.892   2.209   1.126
  656TIP3   OH2 1973   2.399   1.661   4.060
  656TIP3    H1 1974   2.364   1.735   4.110
  656TIP3    H2 1975   2.492   1.659   4.082
  657TIP3   OH2 1976   2.834   5.110   1.423
  657TIP3    H1 1977   2.880   5.115   1.339
  657TIP3    H2 1978   2.812   5.017   1.433
  658TIP3   OH2 1979   4.150   1.888   0.184
  658TIP3    H1 1980   4.064   1.862   0.219
  658TIP3    H2 1981   4.191   1.937   0.255
  659TIP3   OH2 1982   4.463   4.941   0.646
  659TIP3    H1 1983   4.401   4.913   0.714
  659TIP3    H2 1984   4.465   4.867   0.584
  660TIP3   OH2 1985   1.859   3.345   0.991
  660TIP3    H1 1986   1.772   3.312   1.012
  660TIP3    H2 1987   1.865   3.428   1.038
  661TIP3   OH2 1988   1.869   1.806   3.739
  661TIP3    H1 1989   1.952   1.839   3.772
  661TIP3    H2 1990   1.884   1.791   3.645
  662TIP3   OH2 1991   3.066   1.633   3.852
  662TIP3    H1 1992   3.156   1.600   3.857
  662TIP3    H2 1993   3.025   1.580   3.784
  663TIP3   OH2 1994   3.785   4.610   3.603
  663TIP3    H1 1995   3.784   4.698   3.566
  663TIP3    H2 1996   3.834   4.558   3.539
  664TIP3   OH2 1997   1.482   5.790   3.646
  664TIP3    H1 1998   1.544   5.731   3.688
  664TIP3    H2 1999   1.503   5.785   3.552
  665TIP3   OH2 2000   5.258   0.419   3.317
  665TIP3    H1 2001   5.240   0.403   3.224
  665TIP3    H2 2002   5.342   0.375   3.333
  666TIP3   OH2 2003   0.037   5.017   1.622
  666TIP3    H1 2004   0.117   4.971   1.598
  666TIP3    H2 2005   0.003   4.968   1.697
  667TIP3   OH2 2006   1.276   1.484   2.629
  667TIP3    H1 2007   1.199   1.430   2.645
  667TIP3    H2 2008   1.272   1.553   2.695
  668TIP3   OH2 2009   0.404   2.787   0.589
  668TIP3    H1 2010   0.340   2.845   0.547
  668TIP3    H2 2011   0.387   2.797   0.682
  669TIP3   OH2 2012   3.151   0.129   3.733
  669TIP3    H1 2013   3.195   0.079   3.664
  669TIP3    H2 2014   3.207   0.117   3.810
  670TIP3   OH2 2015   6.236   5.836   4.493
  670TIP3    H1 2016   6.305   5.826   4.558
  670TIP3    H2 2017   6.155   5.828   4.543
  671TIP3   OH2 2018   2.554   3.224   1.070
  671TIP3    H1 2019   2.606   3.214   1.149
  671TIP3    H2 2020   2.537   3.318   1.065
  672TIP3   OH2 2021   2.440   5.587   4.500
  672TIP3    H1 2022   2.489   5.601   4.582
  672TIP3    H2 2023   2.499   5.618   4.432
  673TIP3   OH2 2024   4.655   2.872   2.410
  673TIP3    H1 2025   4.748   2.854   2.396
  673TIP3    H2 2026   4.616   2.863   2.323
  674TIP3   OH2 2027   0.197   3.812   2.697
  674TIP3    H1 2028   0.292   3.815   2.705
  674TIP3    H2 2029   0.168   3.776   2.782
  675TIP3   OH2 2030   4.964   1.914   0.326
  675TIP3    H1 2031   4.929   1.831   0.359
  675TIP3    H2 2032   4.919   1.927   0.243
  676TIP3   OH2 2033   2.918   4.048   2.012
  676TIP3    H1 2034   2.895   4.108   1.941
  676TIP3    H2 2035   2.842   4.049   2.070
  677TIP3   OH2 2036   1.431   0.623   2.368
  677TIP3    H1 2037   1.499   0.681   2.336
  677TIP3    H2 2038   1.456   0.605   2.459
  678TIP3   OH2 2039   2.382   2.911   0.233
  678TIP3    H1 2040   2.467   2.918   0.190
  678TIP3    H2 2041   2.381   2.983   0.296
  679TIP3   OH2 2042   4.054   1.555   0.511
  679TIP3    H1 2043   4.059   1.501   0.590
  679TIP3    H2 2044   4.078   1.643   0.541
  680TIP3   OH2 2045   0.082   1.361   2.401
  680TIP3    H1 2046  -0.003   1.319   2.411
  680TIP3    H2 2047   0.134   1.299   2.350
  681TIP3   OH2 2048   3.854   1.672   4.792
  681TIP3    H1 2049   3.805   1.592   4.776
  681TIP3    H2 2050   3.917   1.676   4.719
  682TIP3   OH2 2051   4.184   1.124   1.140
  682TIP3    H1 2052   4.217   1.058   1.200
  682TIP3    H2 2053   4.095   1.094   1.118
  683TIP3   OH2 2054   3.695   2.523   2.266
  683TIP3    H1 2055   3.634   2.449   2.260
  683TIP3    H2 2056   3.679   2.573   2.186
  684TIP3   OH2 2057   1.522   1.532   2.809
  684TIP3    H1 2058   1.454   1.542   2.743
  684TIP3    H2 2059   1.486   1.573   2.888
  685TIP3   OH2 2060   0.071   2.976   4.797
  685TIP3    H1 2061   0.106   2.887   4.798
  685TIP3    H2 2062   0.001   2.975   4.862
  686TIP3   OH2 2063   2.841   5.484   1.966
  686TIP3    H1 2064   2.904   5.434   2.018
  686TIP3    H2 2065   2.786   5.418   1.925
  687TIP3   OH2 2066   2.125   4.285   2.267
  687TIP3    H1 2067   2.037   4.313   2.240
  687TIP3    H2 2068   2.184   4.328   2.205
  688TIP3   OH2 2069   5.169   3.911   2.885
  688TIP3    H1 2070   5.074   3.916   2.899
  688TIP3    H2 2071   5.194   3.826   2.921
  689TIP3   OH2 2072   1.595   0.107   2.956
  689TIP3    H1 2073   1.533   0.136   2.889
  689TIP3    H2 2074   1.601   0.181   3.017
  690TIP3   OH2 2075   4.712   4.532   2.056
  690TIP3    H1 2076   4.716   4.453   2.110
  690TIP3    H2 2077   4.784   4.587   2.088
  691TIP3   OH2 2078   3.171   1.481   3.310
  691TIP3    H1 2079   3.262   1.489   3.281
  691TIP3    H2 2080   3.176   1.458   3.403
  692TIP3   OH2 2081   2.177   5.551   3.264
  692TIP3    H1 2082   2.220   5.636   3.263
  692TIP3    H2 2083   2.235   5.495   3.316
  693TIP3   OH2 2084   0.563   5.621   0.613
  693TIP3    H1 2085   0.610   5.539   0.634
  693TIP3    H2 2086   0.482   5.592   0.572
  694TIP3   OH2 2087   0.381   3.280   3.932
  694TIP3    H1 2088   0.300   3.264   3.884
  694TIP3    H2 2089   0.405   3.369   3.910
  695TIP3   OH2 2090   2.718   1.192   1.553
  695TIP3    H1 2091   2.638   1.149   1.522
  695TIP3    H2 2092   2.777   1.120   1.576
  696TIP3   OH2 2093   5.430   5.799   0.651
  696TIP3    H1 2094   5.516   5.804   0.609
  696TIP3    H2 2095   5.385   5.878   0.624
  697TIP3   OH2 2096   1.969   3.855   3.828
  697TIP3    H1 2097   1.951   3.832   3.919
  697TIP3    H2 2098   1.978   3.770   3.783
  698TIP3   OH2 2099   5.709   2.685  -0.045
  698TIP3    H1 2100   5.634   2.630  -0.068
  698TIP3    H2 2101   5.741   2.649   0.037
  699TIP3   OH2 2102   5.328   2.059   4.016
  699TIP3    H1 2103   5.420   2.044   3.996
  699TIP3    H2 2104   5.303   2.134   3.962
  700TIP3   OH2 2105   0.991   5.174   1.538
  700TIP3    H1 2106   1.006   5.263   1.570
  700TIP3    H2 2107   1.002   5.119   1.615
  701TIP3   OH2 2108   0.260   5.729   2.289
  701TIP3    H1 2109   0.178   5.751   2.246
  701TIP3    H2 2110   0.323   5.718   2.217
  702TIP3   OH2 2111   5.146   0.550   2.258
  702TIP3    H1 2112   5.240   0.535   2.248
  702TIP3    H2 2113   5.120   0.593   2.176
  703TIP3   OH2 2114   1.607   5.269   3.046
  703TIP3    H1 2115   1.549   5.326   3.097
  703TIP3    H2 2116   1.633   5.200   3.107
  704TIP3   OH2 2117   3.503   5.455   0.436
  704TIP3    H1 2118   3.458   5.373   0.459
  704TIP3    H2 2119   3.594   5.428   0.420
  705TIP3   OH2 2120   4.186   2.805   4.363
  705TIP3    H1 2121   4.187   2.876   4.299
  705TIP3    H2 2122   4.097   2.769   4.358
  706TIP3   OH2 2123   1.052   3.405   1.931
  706TIP3    H1 2124   1.066   3.348   1.855
  706TIP3    H2 2125   1.119   3.473   1.922
  707TIP3   OH2 2126   4.383   2.601   0.840
  707TIP3    H1 2127   4.363   2.533   0.906
  707TIP3    H2 2128   4.405   2.678   0.892
  708TIP3   OH2 2129   4.551   3.358   1.540
  708TIP3    H1 2130   4.568   3.270   1.574
  708TIP3    H2 2131   4.462   3.379   1.569
  709TIP3   OH2 2132   0.548   0.233   3.918
  709TIP3    H1 2133   0.624   0.175   3.915
  709TIP3    H2 2134   0.477   0.177   3.948
  710TIP3   OH2 2135   0.709   1.965   1.009
  710TIP3    H1 2136   0.704   1.895   1.074
  710TIP3    H2 2137   0.706   1.921   0.925
  711TIP3   OH2 2138   4.699   5.075   1.582
  711TIP3    H1 2139   4.758   5.080   1.507
  711TIP3    H2 2140   4.663   5.163   1.591
  712TIP3   OH2 2141   5.914   3.987   1.250
  712TIP3    H1 2142   5.962   4.063   1.283
  712TIP3    H2 2143   5.857   3.961   1.322
  713TIP3   OH2 2144   4.897   1.100   0.035
  713TIP3    H1 2145   4.938   1.021   0.001
  713TIP3    H2 2146   4.946   1.121   0.115
  714TIP3   OH2 2147   0.913   3.678   2.937
  714TIP3    H1 2148   0.924   3.744   2.868
  714TIP3    H2 2149   0.997   3.632   2.940
  715TIP3   OH2 2150   0.946   5.770   2.404
  715TIP3    H1 2151   0.860   5.767   2.447
  715TIP3    H2 2152   0.932   5.725   2.321
  716TIP3   OH2 2153   4.369   3.316   0.145
  716TIP3    H1 2154   4.288   3.349   0.108
  716TIP3    H2 2155   4.386   3.235   0.096
  717TIP3   OH2 2156   4.987   5.098   0.385
  717TIP3    H1 2157   5.027   5.107   0.298
  717TIP3    H2 2158   5.060   5.099   0.446
  718TIP3   OH2 2159   3.383   5.179   0.540
  718TIP3    H1 2160   3.297   5.208   0.572
  718TIP3    H2 2161   3.430   5.152   0.618
  719TIP3   OH2 2162   0.196   3.693   0.525
  719TIP3    H1 2163   0.208   3.611   0.573
  719TIP3    H2 2164   0.192   3.667   0.433
  720TIP3   OH2 2165   4.690   3.058   2.620
  720TIP3    H1 2166   4.678   2.991   2.554
  720TIP3    H2 2167   4.629   3.128   2.595
  721TIP3   OH2 2168   3.416   4.837   3.713
  721TIP3    H1 2169   3.345   4.777   3.734
  721TIP3    H2 2170   3.374   4.908   3.664
  722TIP3   OH2 2171   1.657   5.054   1.585
  722TIP3    H1 2172   1.737   5.066   1.636
  722TIP3    H2 2173   1.609   4.987   1.632
  723TIP3   OH2 2174   5.928   5.167   3.125
  723TIP3    H1 2175   5.851   5.156   3.180
  723TIP3    H2 2176   5.893   5.178   3.037
  724TIP3   OH2 2177   2.430   4.462   1.071
  724TIP3    H1 2178   2.413   4.480   1.163
  724TIP3    H2 2179   2.393   4.537   1.025
  725TIP3   OH2 2180   0.465   5.526   4.284
  725TIP3    H1 2181   0.387   5.495   4.329
  725TIP3    H2 2182   0.432   5.584   4.216
  726TIP3   OH2 2183   4.456   2.065   1.357
  726TIP3    H1 2184   4.484   2.009   1.429
  726TIP3    H2 2185   4.537   2.106   1.325
  727TIP3   OH2 2186   4.231   3.717   3.272
  727TIP3    H1 2187   4.255   3.658   3.201
  727TIP3    H2 2188   4.192   3.793   3.229
  728TIP3   OH2 2189   1.600   0.478   5.013
  728TIP3    H1 2190   1.586   0.384   5.002
  728TIP3    H2 2191   1.692   0.492   4.989
  729TIP3   OH2 2192   1.088   1.601   1.934
  729TIP3    H1 2193   1.146   1.574   2.005
  729TIP3    H2 2194   1.146   1.643   1.871
  730TIP3   OH2 2195   2.924   1.041   0.323
  730TIP3    H1 2196   2.917   1.062   0.230
  730TIP3    H2 2197   2.970   0.957   0.325
  731TIP3   OH2 2198   2.862   4.622   3.770
  731TIP3    H1 2199   2.901   4.690   3.826
  731TIP3    H2 2200   2.900   4.638   3.684
  732TIP3   OH2 2201   0.870   0.138   4.953
  732TIP3    H1 2202   0.862   0.072   5.022
  732TIP3    H2 2203   0.952   0.183   4.973
  733TIP3   OH2 2204   5.707   2.930   1.278
  733TIP3    H1 2205   5.796   2.902   1.257
  733TIP3    H2 2206   5.672   2.964   1.196
  734TIP3   OH2 2207   1.216   0.111   5.031
  734TIP3    H1 2208   1.177   0.193   5.000
  734TIP3    H2 2209   1.172   0.043   4.980
  735TIP3   OH2 2210   4.196   3.134   2.821
  735TIP3    H1 2211   4.103   3.137   2.842
  735TIP3    H2 2212   4.238   3.100   2.900
  736TIP3   OH2 2213   1.445   2.917   1.089
  736TIP3    H1 2214   1.508   2.932   1.160
  736TIP3    H2 2215   1.361   2.942   1.126
  737TIP3   OH2 2216   2.648   4.334   4.585
  737TIP3    H1 2217   2.557   4.353   4.606
  737TIP3    H2 2218   2.694   4.338   4.670
  738TIP3   OH2 2219   4.209   2.513   2.623
  738TIP3    H1 2220   4.239   2.603   2.610
  738TIP3    H2 2221   4.263   2.480   2.695
  739TIP3   OH2 2222   3.544   1.175   0.768
  739TIP3    H1 2223   3.609   1.195   0.835
  739TIP3    H2 2224   3.571   1.227   0.693
  740TIP3   OH2 2225   4.903   4.544   1.722
  740TIP3    H1 2226   4.946   4.489   1.786
  740TIP3    H2 2227   4.922   4.634   1.750
  741TIP3   OH2 2228   3.133   2.853   1.172
  741TIP3    H1 2229   3.127   2.948   1.156
  741TIP3    H2 2230   3.106   2.814   1.089
  742TIP3   OH2 2231   2.909   5.901   4.616
  742TIP3    H1 2232   2.850   5.862   4.552
  742TIP3    H2 2233   2.990   5.917   4.567
  743TIP3   OH2 2234   0.447   3.052   2.183
  743TIP3    H1 2235   0.450   2.965   2.224
  743TIP3    H2 2236   0.378   3.098   2.230
  744TIP3   OH2 2237   3.978   3.470   1.447
  744TIP3    H1 2238   4.069   3.442   1.444
  744TIP3    H2 2239   3.943   3.432   1.527
  745TIP3   OH2 2240   5.853   2.521   1.838
  745TIP3    H1 2241   5.920   2.458   1.864
  745TIP3    H2 2242   5.895   2.607   1.849
  746TIP3   OH2 2243   4.537   0.415   3.411
  746TIP3    H1 2244   4.601   0.391   3.479
  746TIP3    H2 2245   4.589   0.459   3.344
  747TIP3   OH2 2246   3.419   0.342   1.243
  747TIP3    H1 2247   3.333   0.384   1.249
  747TIP3    H2 2248   3.470   0.401   1.187
  748TIP3   OH2 2249   0.072   0.682   0.774
  748TIP3    H1 2250   0.046   0.730   0.852
  748TIP3    H2 2251   0.108   0.749   0.716
  749TIP3   OH2 2252   2.792   4.798   2.609
  749TIP3    H1 2253   2.707   4.791   2.652
  749TIP3    H2 2254   2.852   4.826   2.678
  750TIP3   OH2 2255   4.378   1.591   0.076
  750TIP3    H1 2256   4.398   1.500   0.053
  750TIP3    H2 2257   4.417   1.602   0.163
  751TIP3   OH2 2258   1.814   3.673   3.307
  751TIP3    H1 2259   1.827   3.714   3.222
  751TIP3    H2 2260   1.854   3.586   3.298
  752TIP3   OH2 2261   3.244   4.509   1.461
  752TIP3    H1 2262   3.250   4.526   1.555
  752TIP3    H2 2263   3.259   4.594   1.420
  753TIP3   OH2 2264   4.040   3.824   5.206
  753TIP3    H1 2265   3.968   3.838   5.145
  753TIP3    H2 2266   3.998   3.810   5.291
  754TIP3   OH2 2267   1.022   2.001   2.052
  754TIP3    H1 2268   1.024   2.075   2.112
  754TIP3    H2 2269   1.109   1.961   2.060
  755TIP3   OH2 2270   5.305   2.336   3.596
  755TIP3    H1 2271   5.319   2.426   3.566
  755TIP3    H2 2272   5.393   2.306   3.620
  756TIP3   OH2 2273   0.348   5.512   1.657
  756TIP3    H1 2274   0.364   5.427   1.616
  756TIP3    H2 2275   0.329   5.571   1.584
  757TIP3   OH2 2276   2.157   2.873   0.026
  757TIP3    H1 2277   2.102   2.950   0.013
  757TIP3    H2 2278   2.185   2.878   0.118
  758TIP3   OH2 2279   4.926   5.498   1.900
  758TIP3    H1 2280   5.002   5.516   1.844
  758TIP3    H2 2281   4.940   5.552   1.978
  759TIP3   OH2 2282   5.782   4.559   3.795
  759TIP3    H1 2283   5.840   4.600   3.730
  759TIP3    H2 2284   5.791   4.614   3.873
  760TIP3   OH2 2285   2.746   0.100   2.077
  760TIP3    H1 2286   2.766   0.183   2.034
  760TIP3    H2 2287   2.783   0.108   2.164
  761TIP3   OH2 2288   0.748   1.964   2.141
  761TIP3    H1 2289   0.660   1.933   2.163
  761TIP3    H2 2290   0.793   1.973   2.225
  762TIP3   OH2 2291   2.382   4.466   1.404
  762TIP3    H1 2292   2.335   4.438   1.482
  762TIP3    H2 2293   2.472   4.438   1.418
  763TIP3   OH2 2294   2.263   0.620   1.581
  763TIP3    H1 2295   2.289   0.629   1.673
  763TIP3    H2 2296   2.346   0.614   1.534
  764TIP3   OH2 2297   0.445   3.646   3.335
  764TIP3    H1 2298   0.356   3.609   3.329
  764TIP3    H2 2299   0.478   3.614   3.419
  765TIP3   OH2 2300   0.987   0.817   4.215
  765TIP3    H1 2301   0.897   0.807   4.247
  765TIP3    H2 2302   0.993   0.910   4.191
  766TIP3   OH2 2303   1.956   0.837   2.823
  766TIP3    H1 2304   2.025   0.858   2.885
  766TIP3    H2 2305   1.905   0.768   2.865
  767TIP3   OH2 2306   5.071   0.688   2.028
  767TIP3    H1 2307   4.984   0.718   2.053
  767TIP3    H2 2308   5.122   0.768   2.017
  768TIP3   OH2 2309   2.955   4.781   1.262
  768TIP3    H1 2310   2.906   4.796   1.344
  768TIP3    H2 2311   2.896   4.728   1.209
  769TIP3   OH2 2312   5.168   3.980   2.614
  769TIP3    H1 2313   5.240   4.037   2.589
  769TIP3    H2 2314   5.181   3.964   2.708
  770TIP3   OH2 2315   1.256   1.365   4.891
  770TIP3    H1 2316   1.167   1.332   4.879
  770TIP3    H2 2317   1.243   1.454   4.924
  771TIP3   OH2 2318   0.832   5.151   4.319
  771TIP3    H1 2319   0.776   5.145   4.397
  771TIP3    H2 2320   0.900   5.214   4.344
  772TIP3   OH2 2321   3.743   3.725   3.550
  772TIP3    H1 2322   3.728   3.643   3.596
  772TIP3    H2 2323   3.740   3.702   3.457
  773TIP3   OH2 2324   1.122   3.293   3.129
  773TIP3    H1 2325   1.111   3.279   3.035
  773TIP3    H2 2326   1.216   3.284   3.143
  774TIP3   OH2 2327   0.566   2.903   1.418
  774TIP3    H1 2328   0.486   2.899   1.471
  774TIP3    H2 2329   0.554   2.981   1.363
  775TIP3   OH2 2330   0.912   0.043   3.380
  775TIP3    H1 2331   0.888  -0.050   3.375
  775TIP3    H2 2332   0.972   0.057   3.307
  776TIP3   OH2 2333   1.757   5.429   2.143
  776TIP3    H1 2334   1.765   5.489   2.217
  776TIP3    H2 2335   1.824   5.363   2.159
  777TIP3   OH2 2336   1.398   1.844   2.731
  777TIP3    H1 2337   1.347   1.766   2.755
  777TIP3    H2 2338   1.408   1.892   2.813
  778TIP3   OH2 2339   0.303   0.634   0.921
  778TIP3    H1 2340   0.294   0.711   0.977
  778TIP3    H2 2341   0.221   0.630   0.872
  779TIP3   OH2 2342   0.365   6.001   4.797
  779TIP3    H1 2343   0.455   5.992   4.765
  779TIP3    H2 2344   0.313   5.943   4.741
  780TIP3   OH2 2345   0.565   0.680   1.443
  780TIP3    H1 2346   0.514   0.660   1.522
  780TIP3    H2 2347   0.578   0.775   1.447
  781TIP3   OH2 2348   1.366   5.629   3.349
  781TIP3    H1 2349   1.271   5.641   3.346
  781TIP3    H2 2350   1.398   5.670   3.268
  782TIP3   OH2 2351   0.222   5.614   5.098
  782TIP3    H1 2352   0.250   5.670   5.171
  782TIP3    H2 2353   0.289   5.545   5.095
  783TIP3   OH2 2354   2.205   2.015   3.378
  783TIP3    H1 2355   2.279   2.033   3.321
  783TIP3    H2 2356   2.243   2.007   3.465
  784TIP3   OH2 2357   5.341   1.916   1.130
  784TIP3    H1 2358   5.396   1.992   1.149
  784TIP3    H2 2359   5.265   1.953   1.085
  785TIP3   OH2 2360   0.137   3.141   0.018
  785TIP3    H1 2361   0.068   3.092  -0.027
  785TIP3    H2 2362   0.214   3.131  -0.036
  786TIP3   OH2 2363   0.211   2.296   1.365
  786TIP3    H1 2364   0.142   2.354   1.334
  786TIP3    H2 2365   0.291   2.329   1.324
  787TIP3   OH2 2366   0.952   2.259   0.357
  787TIP3    H1 2367   0.893   2.189   0.328
  787TIP3    H2 2368   0.913   2.339   0.323
  788TIP3   OH2 2369   0.844   0.562   0.216
  788TIP3    H1 2370   0.845   0.616   0.137
  788TIP3    H2 2371   0.937   0.545   0.235
  789TIP3   OH2 2372   1.949   0.816   3.628
  789TIP3    H1 2373   1.878   0.868   3.590
  789TIP3    H2 2374   1.904   0.749   3.679
  790TIP3   OH2 2375   1.380   4.385   3.958
  790TIP3    H1 2376   1.335   4.312   3.916
  790TIP3    H2 2377   1.343   4.463   3.916
  791TIP3   OH2 2378   4.006   4.953   4.106
  791TIP3    H1 2379   4.027   4.989   4.192
  791TIP3    H2 2380   3.997   5.029   4.049
  792TIP3   OH2 2381   5.480   2.441   1.147
  792TIP3    H1 2382   5.432   2.496   1.210
  792TIP3    H2 2383   5.572   2.451   1.172
  793TIP3   OH2 2384   5.144   0.136   3.717
  793TIP3    H1 2385   5.198   0.204   3.757
  793TIP3    H2 2386   5.074   0.183   3.672
  794TIP3   OH2 2387   1.731   0.528   1.826
  794TIP3    H1 2388   1.669   0.581   1.875
  794TIP3    H2 2389   1.730   0.565   1.737
  795TIP3   OH2 2390   4.040   5.061   2.835
  795TIP3    H1 2391   3.948   5.053   2.810
  795TIP3    H2 2392   4.044   5.022   2.923
  796TIP3   OH2 2393   0.517   3.228   3.469
  796TIP3    H1 2394   0.576   3.290   3.511
  796TIP3    H2 2395   0.554   3.214   3.382
  797TIP3   OH2 2396   3.896   0.616   3.688
  797TIP3    H1 2397   3.950   0.574   3.754
  797TIP3    H2 2398   3.949   0.614   3.608
  798TIP3   OH2 2399   5.047   4.667   3.657
  798TIP3    H1 2400   5.083   4.709   3.736
  798TIP3    H2 2401   5.124   4.648   3.603
  799TIP3   OH2 2402   2.665   4.518   3.489
  799TIP3    H1 2403   2.701   4.607   3.490
  799TIP3    H2 2404   2.723   4.469   3.431
  800TIP3   OH2 2405   2.076   1.788   5.033
  800TIP3    H1 2406   2.052   1.702   5.067
  800TIP3    H2 2407   2.109   1.836   5.109
  801TIP3   OH2 2408   3.472   4.439   2.420
  801TIP3    H1 2409   3.565   4.446   2.396
  801TIP3    H2 2410   3.467   4.364   2.479
  802TIP3   OH2 2411   5.911   3.198   1.301
  802TIP3    H1 2412   5.847   3.239   1.243
  802TIP3    H2 2413   5.967   3.147   1.242
  803TIP3   OH2 2414   1.153   5.097   2.828
  803TIP3    H1 2415   1.106   5.036   2.884
  803TIP3    H2 2416   1.246   5.074   2.840
  804TIP3   OH2 2417   3.600   2.581   5.111
  804TIP3    H1 2418   3.677   2.622   5.149
  804TIP3    H2 2419   3.634   2.507   5.060
  805TIP3   OH2 2420   2.850   0.575   0.581
  805TIP3    H1 2421   2.851   0.504   0.645
  805TIP3    H2 2422   2.942   0.600   0.572
  806TIP3   OH2 2423   3.712   4.025   2.573
  806TIP3    H1 2424   3.664   4.026   2.490
  806TIP3    H2 2425   3.740   3.934   2.584
  807TIP3   OH2 2426   0.302   1.439   1.971
  807TIP3    H1 2427   0.342   1.471   2.052
  807TIP3    H2 2428   0.341   1.493   1.902
  808TIP3   OH2 2429   6.134   0.604   1.816
  808TIP3    H1 2430   6.087   0.603   1.899
  808TIP3    H2 2431   6.069   0.580   1.751
  809TIP3   OH2 2432  -0.071   1.085   2.355
  809TIP3    H1 2433  -0.045   1.099   2.446
  809TIP3    H2 2434   0.012   1.075   2.308
  810TIP3   OH2 2435   5.498   0.596   1.952
  810TIP3    H1 2436   5.575   0.569   2.001
  810TIP3    H2 2437   5.519   0.577   1.861
  811TIP3   OH2 2438   0.528   5.356   0.861
  811TIP3    H1 2439   0.571   5.408   0.929
  811TIP3    H2 2440   0.598   5.333   0.800
  812TIP3   OH2 2441   2.360   3.467   3.616
  812TIP3    H1 2442   2.379   3.561   3.614
  812TIP3    H2 2443   2.283   3.460   3.673
  813TIP3   OH2 2444   2.662   0.939   2.590
  813TIP3    H1 2445   2.639   0.871   2.527
  813TIP3    H2 2446   2.641   1.022   2.546
  814TIP3   OH2 2447   3.707   3.834   4.412
  814TIP3    H1 2448   3.699   3.754   4.465
  814TIP3    H2 2449   3.793   3.827   4.371
  815TIP3   OH2 2450   1.055   3.777   4.909
  815TIP3    H1 2451   0.976   3.764   4.858
  815TIP3    H2 2452   1.025   3.819   4.990
  816TIP3   OH2 2453   0.415   3.394   3.039
  816TIP3    H1 2454   0.329   3.369   3.072
  816TIP3    H2 2455   0.403   3.480   3.000
  817TIP3   OH2 2456   2.150   1.733   1.447
  817TIP3    H1 2457   2.239   1.719   1.480
  817TIP3    H2 2458   2.160   1.798   1.377
  818TIP3   OH2 2459   0.913   0.678   2.507
  818TIP3    H1 2460   0.924   0.617   2.580
  818TIP3    H2 2461   1.001   0.688   2.471
  819TIP3   OH2 2462   3.628   2.911   0.397
  819TIP3    H1 2463   3.615   2.830   0.446
  819TIP3    H2 2464   3.547   2.923   0.348
  820TIP3   OH2 2465   5.639   3.127   3.405
  820TIP3    H1 2466   5.643   3.222   3.406
  820TIP3    H2 2467   5.546   3.106   3.411
  821TIP3   OH2 2468   4.172   5.844   2.932
  821TIP3    H1 2469   4.134   5.927   2.960
  821TIP3    H2 2470   4.261   5.845   2.966
  822TIP3   OH2 2471   0.152   0.995   1.269
  822TIP3    H1 2472   0.097   0.947   1.330
  822TIP3    H2 2473   0.224   1.029   1.323
  823TIP3   OH2 2474   5.372   5.214   4.442
  823TIP3    H1 2475   5.398   5.122   4.439
  823TIP3    H2 2476   5.312   5.220   4.516
  824TIP3   OH2 2477   5.724   0.871   0.549
  824TIP3    H1 2478   5.804   0.873   0.497
  824TIP3    H2 2479   5.653   0.865   0.485
  825TIP3   OH2 2480   5.276   1.097   1.647
  825TIP3    H1 2481   5.259   1.030   1.582
  825TIP3    H2 2482   5.191   1.114   1.688
  826TIP3   OH2 2483   5.637   3.658   4.093
  826TIP3    H1 2484   5.710   3.608   4.057
  826TIP3    H2 2485   5.660   3.750   4.077
  827TIP3   OH2 2486   2.599   2.467   1.400
  827TIP3    H1 2487   2.534   2.526   1.361
  827TIP3    H2 2488   2.663   2.526   1.440
  828TIP3   OH2 2489   4.251   2.692   2.224
  828TIP3    H1 2490   4.284   2.782   2.223
  828TIP3    H2 2491   4.157   2.701   2.236
  829TIP3   OH2 2492   2.551   1.557   1.981
  829TIP3    H1 2493   2.562   1.511   1.898
  829TIP3    H2 2494   2.556   1.649   1.959
  830TIP3   OH2 2495   6.115   1.650   5.130
  830TIP3    H1 2496   6.044   1.682   5.074
  830TIP3    H2 2497   6.190   1.643   5.071
  831TIP3   OH2 2498   1.643   1.107   4.892
  831TIP3    H1 2499   1.678   1.093   4.803
  831TIP3    H2 2500   1.720   1.121   4.946
  832TIP3   OH2 2501   1.564   0.203   4.425
  832TIP3    H1 2502   1.542   0.129   4.367
  832TIP3    H2 2503   1.481   0.250   4.436
  833TIP3   OH2 2504   2.307   5.359   0.946
  833TIP3    H1 2505   2.332   5.313   0.865
  833TIP3    H2 2506   2.257   5.294   0.996
  834TIP3   OH2 2507   5.706   3.336   3.805
  834TIP3    H1 2508   5.675   3.378   3.724
  834TIP3    H2 2509   5.698   3.242   3.788
  835TIP3   OH2 2510   5.924   0.612   3.858
  835TIP3    H1 2511   5.882   0.673   3.797
  835TIP3    H2 2512   5.977   0.668   3.915
  836TIP3   OH2 2513   1.827   2.786   2.422
  836TIP3    H1 2514   1.880   2.759   2.347
  836TIP3    H2 2515   1.886   2.840   2.475
  837TIP3   OH2 2516   6.087   1.287   0.208
  837TIP3    H1 2517   6.099   1.305   0.301
  837TIP3    H2 2518   6.166   1.239   0.182
  838TIP3   OH2 2519   5.610   0.817   4.198
  838TIP3    H1 2520   5.640   0.794   4.110
  838TIP3    H2 2521   5.649   0.751   4.255
  839TIP3   OH2 2522   4.665   0.921   4.262
  839TIP3    H1 2523   4.590   0.872   4.294
  839TIP3    H2 2524   4.669   0.900   4.168
  840TIP3   OH2 2525   2.638   5.337   2.266
  840TIP3    H1 2526   2.680   5.392   2.200
  840TIP3    H2 2527   2.584   5.276   2.216
  841TIP3   OH2 2528   5.217   1.494   0.035
  841TIP3    H1 2529   5.239   1.412  -0.008
  841TIP3    H2 2530   5.123   1.506   0.018
  842TIP3   OH2 2531   5.420   0.855   1.259
  842TIP3    H1 2532   5.413   0.950   1.266
  842TIP3    H2 2533   5.513   0.836   1.274
  843TIP3   OH2 2534   3.417   0.924   4.527
  843TIP3    H1 2535   3.438   0.915   4.434
  843TIP3    H2 2536   3.342   0.984   4.529
  844TIP3   OH2 2537   2.302   1.449   0.180
  844TIP3    H1 2538   2.335   1.362   0.203
  844TIP3    H2 2539   2.375   1.493   0.138
  845TIP3   OH2 2540   0.708   2.672   3.614
  845TIP3    H1 2541   0.751   2.599   3.570
  845TIP3    H2 2542   0.666   2.633   3.690
  846TIP3   OH2 2543   2.535   3.752   0.961
  846TIP3    H1 2544   2.482   3.702   0.899
  846TIP3    H2 2545   2.618   3.766   0.915
  847TIP3   OH2 2546   5.271   2.315   1.895
  847TIP3    H1 2547   5.259   2.378   1.824
  847TIP3    H2 2548   5.226   2.354   1.969
  848TIP3   OH2 2549   2.563   3.742   2.113
  848TIP3    H1 2550   2.490   3.753   2.174
  848TIP3    H2 2551   2.567   3.648   2.097
  849TIP3   OH2 2552   5.172   3.364   2.481
  849TIP3    H1 2553   5.200   3.372   2.390
  849TIP3    H2 2554   5.180   3.453   2.516
  850TIP3   OH2 2555   2.221   3.327   2.355
  850TIP3    H1 2556   2.313   3.326   2.330
  850TIP3    H2 2557   2.207   3.415   2.389
  851TIP3   OH2 2558   4.654   1.534   1.028
  851TIP3    H1 2559   4.734   1.560   0.982
  851TIP3    H2 2560   4.681   1.519   1.118
  852TIP3   OH2 2561   2.438   4.980   1.618
  852TIP3    H1 2562   2.419   4.890   1.593
  852TIP3    H2 2563   2.502   5.010   1.552
  853TIP3   OH2 2564   2.166   1.916   1.238
  853TIP3    H1 2565   2.239   1.971   1.211
  853TIP3    H2 2566   2.166   1.842   1.177
  854TIP3   OH2 2567   0.631   3.908   1.343
  854TIP3    H1 2568   0.578   3.937   1.417
  854TIP3    H2 2569   0.719   3.898   1.378
  855TIP3   OH2 2570   0.319   4.732   4.570
  855TIP3    H1 2571   0.386   4.726   4.502
  855TIP3    H2 2572   0.368   4.720   4.652
  856TIP3   OH2 2573   3.817   0.247   2.802
  856TIP3    H1 2574   3.909   0.275   2.802
  856TIP3    H2 2575   3.780   0.288   2.724
  857TIP3   OH2 2576   3.167   0.003   1.967
  857TIP3    H1 2577   3.125   0.063   2.028
  857TIP3    H2 2578   3.097  -0.023   1.907
  858TIP3   OH2 2579   4.462   2.769   0.634
  858TIP3    H1 2580   4.416   2.698   0.679
  858TIP3    H2 2581   4.553   2.738   0.628
  859TIP3   OH2 2582   1.669   0.559   2.510
  859TIP3    H1 2583   1.752   0.536   2.551
  859TIP3    H2 2584   1.685   0.549   2.416
  860TIP3   OH2 2585   5.678   2.488   3.489
  860TIP3    H1 2586   5.658   2.417   3.428
  860TIP3    H2 2587   5.676   2.568   3.435
  861TIP3   OH2 2588   1.572   3.332   3.256
  861TIP3    H1 2589   1.557   3.307   3.347
  861TIP3    H2 2590   1.556   3.252   3.206
  862TIP3   OH2 2591   4.753   3.082   0.720
  862TIP3    H1 2592   4.779   3.161   0.767
  862TIP3    H2 2593   4.740   3.017   0.788
  863TIP3   OH2 2594   1.844   2.804   5.195
  863TIP3    H1 2595   1.795   2.880   5.224
  863TIP3    H2 2596   1.853   2.815   5.100
  864TIP3   OH2 2597   5.460   4.157   0.217
  864TIP3    H1 2598   5.375   4.200   0.219
  864TIP3    H2 2599   5.489   4.165   0.126
  865TIP3   OH2 2600   2.938   4.834   0.282
  865TIP3    H1 2601   2.981   4.777   0.346
  865TIP3    H2 2602   2.864   4.871   0.328
  866TIP3   OH2 2603   5.544   3.711   1.171
  866TIP3    H1 2604   5.486   3.776   1.133
  866TIP3    H2 2605   5.632   3.747   1.158
  867TIP3   OH2 2606   4.428   4.415   2.183
  867TIP3    H1 2607   4.400   4.506   2.197
  867TIP3    H2 2608   4.403   4.397   2.092
  868TIP3   OH2 2609   2.503   4.629   4.663
  868TIP3    H1 2610   2.560   4.672   4.726
  868TIP3    H2 2611   2.517   4.677   4.581
  869TIP3   OH2 2612   4.992   0.800   3.409
  869TIP3    H1 2613   4.999   0.799   3.504
  869TIP3    H2 2614   4.927   0.867   3.390
  870TIP3   OH2 2615   5.247   3.437   0.275
  870TIP3    H1 2616   5.182   3.424   0.344
  870TIP3    H2 2617   5.330   3.440   0.322
  871TIP3   OH2 2618   0.109   0.581   0.416
  871TIP3    H1 2619   0.041   0.644   0.442
  871TIP3    H2 2620   0.092   0.503   0.469
  872TIP3   OH2 2621   2.831   4.022   2.645
  872TIP3    H1 2622   2.924   4.007   2.660
  872TIP3    H2 2623   2.798   4.053   2.730
  873TIP3   OH2 2624   4.922   1.540   0.014
  873TIP3    H1 2625   4.930   1.477  -0.059
  873TIP3    H2 2626   4.830   1.536   0.038
  874TIP3   OH2 2627   3.506   5.870   2.409
  874TIP3    H1 2628   3.460   5.787   2.414
  874TIP3    H2 2629   3.591   5.853   2.450
  875TIP3   OH2 2630   3.187   0.392   2.113
  875TIP3    H1 2631   3.115   0.338   2.146
  875TIP3    H2 2632   3.149   0.478   2.099
  876TIP3   OH2 2633   5.395   1.712   3.877
  876TIP3    H1 2634   5.313   1.716   3.829
  876TIP3    H2 2635   5.373   1.744   3.965
  877TIP3   OH2 2636   4.947   2.008   1.248
  877TIP3    H1 2637   4.982   2.088   1.210
  877TIP3    H2 2638   4.978   1.938   1.191
  878TIP3   OH2 2639   1.389   0.644   2.644
  878TIP3    H1 2640   1.337   0.686   2.713
  878TIP3    H2 2641   1.330   0.640   2.568
  879TIP3   OH2 2642   0.237   2.762   2.469
  879TIP3    H1 2643   0.204   2.683   2.513
  879TIP3    H2 2644   0.184   2.769   2.390
  880TIP3   OH2 2645   1.402   0.525   3.781
  880TIP3    H1 2646   1.334   0.466   3.749
  880TIP3    H2 2647   1.479   0.470   3.795
  881TIP3   OH2 2648   3.059   0.073   4.788
  881TIP3    H1 2649   3.040   0.155   4.741
  881TIP3    H2 2650   3.111   0.101   4.863
  882TIP3   OH2 2651   2.579   1.187   1.940
  882TIP3    H1 2652   2.494   1.145   1.950
  882TIP3    H2 2653   2.599   1.224   2.026
  883TIP3   OH2 2654   1.295   2.657   4.852
  883TIP3    H1 2655   1.300   2.746   4.887
  883TIP3    H2 2656   1.248   2.666   4.769
  884TIP3   OH2 2657   4.520   3.348   4.569
  884TIP3    H1 2658   4.536   3.288   4.642
  884TIP3    H2 2659   4.426   3.366   4.573
  885TIP3   OH2 2660   0.781   0.724   4.667
  885TIP3    H1 2661   0.784   0.661   4.739
  885TIP3    H2 2662   0.691   0.757   4.668
  886TIP3   OH2 2663   1.570   0.678   0.095
  886TIP3    H1 2664   1.633   0.672   0.023
  886TIP3    H2 2665   1.560   0.772   0.110
  887TIP3   OH2 2666   2.669   1.974   2.119
  887TIP3    H1 2667   2.619   1.948   2.196
  887TIP3    H2 2668   2.615   1.946   2.045
  888TIP3   OH2 2669   5.204   4.071   1.987
  888TIP3    H1 2670   5.179   3.978   1.983
  888TIP3    H2 2671   5.234   4.083   2.077
  889TIP3   OH2 2672   0.717   5.107   4.574
  889TIP3    H1 2673   0.726   5.099   4.669
  889TIP3    H2 2674   0.624   5.123   4.560
  890TIP3   OH2 2675   0.742   1.834   4.828
  890TIP3    H1 2676   0.737   1.792   4.913
  890TIP3    H2 2677   0.830   1.872   4.825
  891TIP3   OH2 2678   3.276   3.326   3.434
  891TIP3    H1 2679   3.264   3.239   3.396
  891TIP3    H2 2680   3.265   3.386   3.360
  892TIP3   OH2 2681   0.563   1.761   4.381
  892TIP3    H1 2682   0.597   1.674   4.362
  892TIP3    H2 2683   0.552   1.762   4.476
  893TIP3   OH2 2684   4.139   3.763   1.131
  893TIP3    H1 2685   4.234   3.774   1.130
  893TIP3    H2 2686   4.125   3.675   1.097
  894TIP3   OH2 2687   3.821   0.592   2.401
  894TIP3    H1 2688   3.728   0.575   2.417
  894TIP3    H2 2689   3.827   0.603   2.307
  895TIP3   OH2 2690   5.590   3.728   0.832
  895TIP3    H1 2691   5.681   3.742   0.807
  895TIP3    H2 2692   5.575   3.787   0.905
  896TIP3   OH2 2693   4.962   3.169   0.533
  896TIP3    H1 2694   4.917   3.153   0.450
  896TIP3    H2 2695   4.905   3.132   0.600
  897TIP3   OH2 2696   1.004   0.409   4.261
  897TIP3    H1 2697   1.039   0.343   4.320
  897TIP3    H2 2698   0.969   0.477   4.318
  898TIP3   OH2 2699   3.449   3.365   3.633
  898TIP3    H1 2700   3.382   3.396   3.572
  898TIP3    H2 2701   3.504   3.307   3.580
  899TIP3   OH2 2702   1.150   5.784   2.614
  899TIP3    H1 2703   1.105   5.776   2.530
  899TIP3    H2 2704   1.179   5.696   2.635
  900TIP3   OH2 2705   4.113   5.439   1.986
  900TIP3    H1 2706   4.129   5.366   1.927
  900TIP3    H2 2707   4.069   5.400   2.062
  901TIP3   OH2 2708   6.027   5.858   4.672
  901TIP3    H1 2709   6.099   5.861   4.735
  901TIP3    H2 2710   5.991   5.947   4.675
  902TIP3   OH2 2711   4.324   1.851   2.265
  902TIP3    H1 2712   4.367   1.769   2.243
  902TIP3    H2 2713   4.326   1.902   2.184
  903TIP3   OH2 2714   3.835   3.890   0.808
  903TIP3    H1 2715   3.816   3.829   0.738
  903TIP3    H2 2716   3.868   3.968   0.764
  904TIP3   OH2 2717   2.679   0.406   1.088
  904TIP3    H1 2718   2.621   0.354   1.143
  904TIP3    H2 2719   2.667   0.371   1.000
  905TIP3   OH2 2720   0.273   2.782   4.318
  905TIP3    H1 2721   0.246   2.691   4.306
  905TIP3    H2 2722   0.192   2.833   4.309
  906TIP3   OH2 2723   2.043   2.707   2.265
  906TIP3    H1 2724   2.105   2.639   2.293
  906TIP3    H2 2725   2.073   2.733   2.178
  907TIP3   OH2 2726   3.700   1.570   2.738
  907TIP3    H1 2727   3.775   1.627   2.720
  907TIP3    H2 2728   3.720   1.531   2.823
  908TIP3   OH2 2729   3.132   5.907   5.168
  908TIP3    H1 2730   3.121   5.878   5.078
  908TIP3    H2 2731   3.206   5.856   5.201
  909TIP3   OH2 2732   3.322   2.254   2.307
  909TIP3    H1 2733   3.392   2.199   2.342
  909TIP3    H2 2734   3.365   2.315   2.248
  910TIP3   OH2 2735   4.122   0.374   3.910
  910TIP3    H1 2736   4.179   0.405   3.840
  910TIP3    H2 2737   4.066   0.449   3.930
  911TIP3   OH2 2738   1.812   1.425   3.595
  911TIP3    H1 2739   1.805   1.449   3.502
  911TIP3    H2 2740   1.822   1.330   3.593
  912TIP3   OH2 2741   0.354   4.982   1.739
  912TIP3    H1 2742   0.391   5.015   1.822
  912TIP3    H2 2743   0.315   4.898   1.763
  913TIP3   OH2 2744   1.714   5.709   4.644
  913TIP3    H1 2745   1.684   5.761   4.718
  913TIP3    H2 2746   1.650   5.638   4.636
  914TIP3   OH2 2747   1.375   2.862   5.008
  914TIP3    H1 2748   1.309   2.891   5.071
  914TIP3    H2 2749   1.388   2.769   5.029
  915TIP3   OH2 2750   3.179   1.178   4.033
  915TIP3    H1 2751   3.127   1.232   3.974
  915TIP3    H2 2752   3.203   1.101   3.982
  916TIP3   OH2 2753   4.429   0.328   0.470
  916TIP3    H1 2754   4.487   0.268   0.516
  916TIP3    H2 2755   4.475   0.350   0.389
  917TIP3   OH2 2756   2.513   3.559   2.878
  917TIP3    H1 2757   2.485   3.554   2.787
  917TIP3    H2 2758   2.544   3.648   2.890
  918TIP3   OH2 2759   3.396   5.006   4.027
  918TIP3    H1 2760   3.418   4.914   4.010
  918TIP3    H2 2761   3.314   5.019   3.979
  919TIP3   OH2 2762   5.017   5.770   1.665
  919TIP3    H1 2763   5.099   5.780   1.616
  919TIP3    H2 2764   4.988   5.681   1.645
  920TIP3   OH2 2765   4.384   4.093   3.156
  920TIP3    H1 2766   4.291   4.112   3.164
  920TIP3    H2 2767   4.428   4.176   3.174
  921TIP3   OH2 2768   1.150   0.679   3.694
  921TIP3    H1 2769   1.085   0.680   3.764
  921TIP3    H2 2770   1.181   0.589   3.690
  922TIP3   OH2 2771   4.298   0.338   4.275
  922TIP3    H1 2772   4.218   0.375   4.311
  922TIP3    H2 2773   4.343   0.413   4.236
  923TIP3   OH2 2774   3.418   4.850   4.843
  923TIP3    H1 2775   3.326   4.824   4.835
  923TIP3    H2 2776   3.422   4.899   4.925
  924TIP3   OH2 2777   3.456   5.406   1.155
  924TIP3    H1 2778   3.494   5.453   1.229
  924TIP3    H2 2779   3.530   5.357   1.118
  925TIP3   OH2 2780   1.686   2.246   3.671
  925TIP3    H1 2781   1.670   2.182   3.740
  925TIP3    H2 2782   1.758   2.299   3.704
  926TIP3   OH2 2783   2.305   2.008   0.744
  926TIP3    H1 2784   2.320   1.927   0.792
  926TIP3    H2 2785   2.393   2.038   0.721
  927TIP3   OH2 2786   2.981   1.456   1.761
  927TIP3    H1 2787   2.892   1.431   1.782
  927TIP3    H2 2788   2.977   1.551   1.747
  928TIP3   OH2 2789   5.336   4.510   3.822
  928TIP3    H1 2790   5.284   4.590   3.815
  928TIP3    H2 2791   5.399   4.527   3.891
  929TIP3   OH2 2792   4.434   4.512   4.987
  929TIP3    H1 2793   4.514   4.513   5.039
  929TIP3    H2 2794   4.365   4.490   5.050
  930TIP3   OH2 2795   5.089   1.143   3.451
  930TIP3    H1 2796   5.133   1.225   3.474
  930TIP3    H2 2797   5.111   1.129   3.359
  931TIP3   OH2 2798   2.808   2.518   3.008
  931TIP3    H1 2799   2.834   2.577   3.079
  931TIP3    H2 2800   2.890   2.494   2.966
  932TIP3   OH2 2801   1.890   5.488   4.030
  932TIP3    H1 2802   1.971   5.539   4.031
  932TIP3    H2 2803   1.917   5.400   4.006
  933TIP3   OH2 2804   1.555   2.047   4.744
  933TIP3    H1 2805   1.497   2.075   4.815
  933TIP3    H2 2806   1.537   1.954   4.733
  934TIP3   OH2 2807   2.493   0.735   3.453
  934TIP3    H1 2808   2.433   0.711   3.383
  934TIP3    H2 2809   2.489   0.661   3.514
  935TIP3   OH2 2810   2.281   1.404   4.169
  935TIP3    H1 2811   2.190   1.432   4.161
  935TIP3    H2 2812   2.328   1.461   4.108
  936TIP3   OH2 2813   4.296   5.241   1.528
  936TIP3    H1 2814   4.213   5.252   1.575
  936TIP3    H2 2815   4.292   5.152   1.493
  937TIP3   OH2 2816   1.432   0.845   0.890
  937TIP3    H1 2817   1.362   0.833   0.955
  937TIP3    H2 2818   1.496   0.899   0.935
  938TIP3   OH2 2819   3.945   5.104   2.131
  938TIP3    H1 2820   4.036   5.103   2.102
  938TIP3    H2 2821   3.902   5.168   2.073
  939TIP3   OH2 2822   0.962   1.721   2.221
  939TIP3    H1 2823   1.030   1.654   2.213
  939TIP3    H2 2824   0.888   1.686   2.171
  940TIP3   OH2 2825   5.632   2.106   2.545
  940TIP3    H1 2826   5.662   2.086   2.633
  940TIP3    H2 2827   5.597   2.023   2.512
  941TIP3   OH2 2828   3.770   4.403   1.614
  941TIP3    H1 2829   3.847   4.350   1.598
  941TIP3    H2 2830   3.802   4.480   1.660
  942TIP3   OH2 2831   4.664   2.023   2.019
  942TIP3    H1 2832   4.702   1.939   1.991
  942TIP3    H2 2833   4.570   2.005   2.024
  943TIP3   OH2 2834   5.419   1.801   2.162
  943TIP3    H1 2835   5.441   1.865   2.095
  943TIP3    H2 2836   5.324   1.808   2.171
  944TIP3   OH2 2837   2.564   2.673   0.022
  944TIP3    H1 2838   2.600   2.588   0.047
  944TIP3    H2 2839   2.583   2.730   0.096
  945TIP3   OH2 2840   0.212   3.205   4.250
  945TIP3    H1 2841   0.170   3.204   4.336
  945TIP3    H2 2842   0.294   3.252   4.264
  946TIP3   OH2 2843   3.270   4.985   1.546
  946TIP3    H1 2844   3.346   5.004   1.602
  946TIP3    H2 2845   3.218   5.066   1.549
  947TIP3   OH2 2846   5.454   0.622   3.589
  947TIP3    H1 2847   5.454   0.671   3.506
  947TIP3    H2 2848   5.467   0.689   3.656
  948TIP3   OH2 2849   6.227   0.440   2.684
  948TIP3    H1 2850   6.193   0.525   2.710
  948TIP3    H2 2851   6.157   0.401   2.631
  949TIP3   OH2 2852   1.874   0.506   5.003
  949TIP3    H1 2853   1.867   0.601   5.005
  949TIP3    H2 2854   1.921   0.487   4.921
  950TIP3   OH2 2855   0.917   4.800   2.759
  950TIP3    H1 2856   0.994   4.755   2.724
  950TIP3    H2 2857   0.894   4.865   2.693
  951TIP3   OH2 2858   4.456   3.096   1.023
  951TIP3    H1 2859   4.412   3.142   0.951
  951TIP3    H2 2860   4.549   3.118   1.013
  952TIP3   OH2 2861   5.683   3.830   4.486
  952TIP3    H1 2862   5.671   3.921   4.513
  952TIP3    H2 2863   5.739   3.835   4.408
  953TIP3   OH2 2864   3.394   3.489   2.253
  953TIP3    H1 2865   3.334   3.414   2.254
  953TIP3    H2 2866   3.478   3.453   2.227
  954TIP3   OH2 2867   1.215   2.770   2.342
  954TIP3    H1 2868   1.274   2.755   2.268
  954TIP3    H2 2869   1.236   2.858   2.373
  955TIP3   OH2 2870   2.072   4.966   4.803
  955TIP3    H1 2871   2.105   5.050   4.772
  955TIP3    H2 2872   1.988   4.956   4.759
  956TIP3   OH2 2873   6.029   1.681   0.343
  956TIP3    H1 2874   6.094   1.611   0.350
  956TIP3    H2 2875   5.957   1.652   0.399
  957TIP3   OH2 2876   3.202   0.234   4.536
  957TIP3    H1 2877   3.268   0.236   4.467
  957TIP3    H2 2878   3.173   0.143   4.540
  958TIP3   OH2 2879   3.972   5.977   5.042
  958TIP3    H1 2880   3.970   6.019   4.956
  958TIP3    H2 2881   3.938   5.889   5.026
  959TIP3   OH2 2882   2.109   5.650   1.768
  959TIP3    H1 2883   2.032   5.608   1.731
  959TIP3    H2 2884   2.109   5.624   1.860
  960TIP3   OH2 2885   6.199   0.441   3.654
  960TIP3    H1 2886   6.233   0.471   3.738
  960TIP3    H2 2887   6.126   0.384   3.677
  961TIP3   OH2 2888   1.147   4.305   4.812
  961TIP3    H1 2889   1.243   4.305   4.814
  961TIP3    H2 2890   1.124   4.383   4.761
  962TIP3   OH2 2891   2.516   1.818   1.878
  962TIP3    H1 2892   2.571   1.846   1.805
  962TIP3    H2 2893   2.439   1.874   1.873
  963TIP3   OH2 2894   4.133   0.764   4.234
  963TIP3    H1 2895   4.168   0.757   4.323
  963TIP3    H2 2896   4.051   0.714   4.237
  964TIP3   OH2 2897   2.838   0.053   0.854
  964TIP3    H1 2898   2.770   0.038   0.789
  964TIP3    H2 2899   2.892  -0.026   0.851
  965TIP3   OH2 2900   1.562   1.275   1.988
  965TIP3    H1 2901   1.549   1.268   2.083
  965TIP3    H2 2902   1.657   1.275   1.977
  966TIP3   OH2 2903   1.786   1.686   2.837
  966TIP3    H1 2904   1.870   1.688   2.792
  966TIP3    H2 2905   1.732   1.626   2.787
  967TIP3   OH2 2906   5.980   0.835   0.455
  967TIP3    H1 2907   5.978   0.740   0.468
  967TIP3    H2 2908   6.064   0.863   0.490
  968TIP3   OH2 2909   4.303   2.771   3.527
  968TIP3    H1 2910   4.354   2.742   3.602
  968TIP3    H2 2911   4.368   2.794   3.461
  969TIP3   OH2 2912   1.523   5.070   1.146
  969TIP3    H1 2913   1.482   5.123   1.078
  969TIP3    H2 2914   1.607   5.113   1.163
  970TIP3   OH2 2915   6.018   4.397   4.357
  970TIP3    H1 2916   6.020   4.394   4.262
  970TIP3    H2 2917   6.066   4.319   4.385
  971TIP3   OH2 2918   5.575   4.238   3.290
  971TIP3    H1 2919   5.533   4.169   3.342
  971TIP3    H2 2920   5.668   4.217   3.294
  972TIP3   OH2 2921   1.181   4.060   1.276
  972TIP3    H1 2922   1.154   4.091   1.362
  972TIP3    H2 2923   1.149   4.127   1.215
  973TIP3   OH2 2924   0.189   2.980   2.634
  973TIP3    H1 2925   0.124   3.034   2.590
  973TIP3    H2 2926   0.208   2.910   2.572
  974TIP3   OH2 2927   0.265   4.915   3.737
  974TIP3    H1 2928   0.304   4.856   3.673
  974TIP3    H2 2929   0.252   4.860   3.815
  975TIP3   OH2 2930   5.460   4.616   4.060
  975TIP3    H1 2931   5.506   4.601   4.143
  975TIP3    H2 2932   5.491   4.702   4.031
  976TIP3   OH2 2933   1.624   2.455   2.924
  976TIP3    H1 2934   1.696   2.394   2.942
  976TIP3    H2 2935   1.579   2.464   3.008
  977TIP3   OH2 2936   4.677   4.674   1.311
  977TIP3    H1 2937   4.663   4.717   1.226
  977TIP3    H2 2938   4.656   4.582   1.295
  978TIP3   OH2 2939   6.278   0.748   1.127
  978TIP3    H1 2940   6.241   0.742   1.215
  978TIP3    H2 2941   6.235   0.677   1.079
  979TIP3   OH2 2942   0.858   2.902   3.627
  979TIP3    H1 2943   0.776   2.950   3.618
  979TIP3    H2 2944   0.832   2.810   3.630
  980TIP3   OH2 2945   0.803   2.037   1.835
  980TIP3    H1 2946   0.824   2.131   1.827
  980TIP3    H2 2947   0.747   2.018   1.761
  981TIP3   OH2 2948   2.435   2.702   1.350
  981TIP3    H1 2949   2.455   2.769   1.416
  981TIP3    H2 2950   2.343   2.680   1.365
  982TIP3   OH2 2951   1.738   3.722   2.376
  982TIP3    H1 2952   1.698   3.638   2.351
  982TIP3    H2 2953   1.664   3.776   2.402
  983TIP3   OH2 2954   4.559   3.376   1.213
  983TIP3    H1 2955   4.575   3.450   1.272
  983TIP3    H2 2956   4.540   3.303   1.272
  984TIP3   OH2 2957   0.736   2.280   3.837
  984TIP3    H1 2958   0.673   2.234   3.892
  984TIP3    H2 2959   0.818   2.231   3.848
  985TIP3   OH2 2960   2.467   4.754   4.429
  985TIP3    H1 2961   2.525   4.702   4.374
  985TIP3    H2 2962   2.382   4.750   4.385
  986TIP3   OH2 2963   2.653   4.634   4.275
  986TIP3    H1 2964   2.669   4.627   4.181
  986TIP3    H2 2965   2.728   4.592   4.317
  987TIP3   OH2 2966   6.160   4.966   3.527
  987TIP3    H1 2967   6.146   5.044   3.581
  987TIP3    H2 2968   6.255   4.953   3.529
  988TIP3   OH2 2969   2.701   2.949   2.579
  988TIP3    H1 2970   2.699   3.001   2.499
  988TIP3    H2 2971   2.619   2.900   2.578
  989TIP3   OH2 2972   4.624   3.184   4.772
  989TIP3    H1 2973   4.697   3.139   4.729
  989TIP3    H2 2974   4.665   3.230   4.846
  990TIP3   OH2 2975   4.301   2.202   1.964
  990TIP3    H1 2976   4.318   2.295   1.946
  990TIP3    H2 2977   4.334   2.189   2.053
  991TIP3   OH2 2978   0.617   0.436   2.894
  991TIP3    H1 2979   0.600   0.461   2.804
  991TIP3    H2 2980   0.650   0.347   2.889
  992TIP3   OH2 2981   3.318   0.589   0.890
  992TIP3    H1 2982   3.271   0.631   0.962
  992TIP3    H2 2983   3.301   0.496   0.901
  993TIP3   OH2 2984   6.249   5.818   1.758
  993TIP3    H1 2985   6.216   5.792   1.844
  993TIP3    H2 2986   6.170   5.829   1.705
  994TIP3   OH2 2987   1.630   1.647   0.142
  994TIP3    H1 2988   1.707   1.617   0.094
  994TIP3    H2 2989   1.585   1.706   0.081
  995TIP3   OH2 2990   0.618   0.812   2.634
  995TIP3    H1 2991   0.619   0.746   2.565
  995TIP3    H2 2992   0.574   0.770   2.708
  996TIP3   OH2 2993   1.803   3.194   0.339
  996TIP3    H1 2994   1.711   3.170   0.330
  996TIP3    H2 2995   1.826   3.169   0.429
  997TIP3   OH2 2996   1.123   0.315   1.094
  997TIP3    H1 2997   1.046   0.372   1.097
  997TIP3    H2 2998   1.192   0.369   1.058
  998TIP3   OH2 2999   5.438   2.940   0.832
  998TIP3    H1 3000   5.481   2.991   0.763
  998TIP3    H2 3001   5.356   2.986   0.847
  999TIP3   OH2 3002   0.047   4.615   3.609
  999TIP3    H1 3003   0.118   4.577   3.558
  999TIP3    H2 3004   0.079   4.614   3.699
 1000TIP3   OH2 3005   4.613   1.334   2.066
 1000TIP3    H1 3006   4.611   1.418   2.020
 1000TIP3    H2 3007   4.704   1.306   2.061
 1001TIP3   OH2 3008   4.220   5.170   1.930
 1001TIP3    H1 3009   4.272   5.120   1.867
 1001TIP3    H2 3010   4.277   5.179   2.006
 1002TIP3   OH2 3011   3.451   4.697   4.537
 1002TIP3    H1 3012   3.356   4.686   4.545
 1002TIP3    H2 3013   3.488   4.614   4.569
 1003TIP3   OH2 3014   0.193   4.152   1.629
 1003TIP3    H1 3015   0.133   4.145   1.703
 1003TIP3    H2 3016   0.210   4.061   1.603
 1004TIP3   OH2 3017  -0.009   5.407   0.957
 1004TIP3    H1 3018  -0.028   5.404   0.863
 1004TIP3    H2 3019   0.079   5.369   0.964
 1005TIP3   OH2 3020   2.964   4.852   2.292
 1005TIP3    H1 3021   2.990   4.762   2.276
 1005TIP3    H2 3022   2.877   4.846   2.331
 1006TIP3   OH2 3023   1.863   0.814   1.983
 1006TIP3    H1 3024   1.767   0.815   1.980
 1006TIP3    H2 3025   1.889   0.894   1.937
 1007TIP3   OH2 3026   2.709   2.046   3.114
 1007TIP3    H1 3027   2.669   2.089   3.039
 1007TIP3    H2 3028   2.795   2.088   3.123
 1008TIP3   OH2 3029   3.635   4.179   2.343
 1008TIP3    H1 3030   3.603   4.231   2.269
 1008TIP3    H2 3031   3.710   4.228   2.376
 1009TIP3   OH2 3032   0.966   0.745   3.201
 1009TIP3    H1 3033   0.894   0.688   3.173
 1009TIP3    H2 3034   1.004   0.700   3.277
 1010TIP3   OH2 3035   4.318   2.645   1.424
 1010TIP3    H1 3036   4.305   2.723   1.370
 1010TIP3    H2 3037   4.248   2.650   1.490
 1011TIP3   OH2 3038   0.068   3.475   2.407
 1011TIP3    H1 3039  -0.010   3.479   2.351
 1011TIP3    H2 3040   0.137   3.445   2.349
 1012TIP3   OH2 3041   2.856   2.254   4.333
 1012TIP3    H1 3042   2.813   2.171   4.315
 1012TIP3    H2 3043   2.931   2.232   4.387
 1013TIP3   OH2 3044   4.020   2.697   3.433
 1013TIP3    H1 3045   4.115   2.712   3.438
 1013TIP3    H2 3046   4.000   2.703   3.339
 1014TIP3   OH2 3047   4.402   2.663   3.763
 1014TIP3    H1 3048   4.393   2.570   3.741
 1014TIP3    H2 3049   4.320   2.686   3.806
 1015TIP3   OH2 3050   0.599   0.613   3.097
 1015TIP3    H1 3051   0.687   0.612   3.134
 1015TIP3    H2 3052   0.602   0.551   3.024
 1016TIP3   OH2 3053   2.508   2.282   3.606
 1016TIP3    H1 3054   2.515   2.349   3.537
 1016TIP3    H2 3055   2.547   2.204   3.566
 1017TIP3   OH2 3056   0.059   2.419   3.191
 1017TIP3    H1 3057   0.153   2.431   3.177
 1017TIP3    H2 3058   0.048   2.324   3.199
 1018TIP3   OH2 3059   3.831   5.297   3.035
 1018TIP3    H1 3060   3.845   5.324   2.945
 1018TIP3    H2 3061   3.737   5.283   3.043
 1019TIP3   OH2 3062   5.945   5.328   1.163
 1019TIP3    H1 3063   5.987   5.259   1.113
 1019TIP3    H2 3064   5.967   5.310   1.254
 1020TIP3   OH2 3065   0.427   5.574   3.566
 1020TIP3    H1 3066   0.434   5.480   3.582
 1020TIP3    H2 3067   0.516   5.602   3.548
 1021TIP3   OH2 3068   5.653   2.306   0.615
 1021TIP3    H1 3069   5.659   2.388   0.663
 1021TIP3    H2 3070   5.738   2.264   0.628
 1022TIP3   OH2 3071   4.860   4.436   3.695
 1022TIP3    H1 3072   4.940   4.489   3.700
 1022TIP3    H2 3073   4.834   4.423   3.786
 1023TIP3   OH2 3074   2.212   1.045   2.338
 1023TIP3    H1 3075   2.118   1.043   2.317
 1023TIP3    H2 3076   2.233   0.954   2.361
 1024TIP3   OH2 3077   4.658   5.487   0.156
 1024TIP3    H1 3078   4.564   5.491   0.138
 1024TIP3    H2 3079   4.679   5.571   0.195
 1025TIP3   OH2 3080   0.008   4.052   3.672
 1025TIP3    H1 3081  -0.065   4.091   3.623
 1025TIP3    H2 3082   0.067   4.126   3.689
 1026TIP3   OH2 3083   1.811   1.191   0.525
 1026TIP3    H1 3084   1.819   1.183   0.430
 1026TIP3    H2 3085   1.901   1.188   0.557
 1027TIP3   OH2 3086   4.909   1.568   2.779
 1027TIP3    H1 3087   4.970   1.591   2.849
 1027TIP3    H2 3088   4.847   1.507   2.821
 1028TIP3   OH2 3089   5.242   5.488   0.510
 1028TIP3    H1 3090   5.155   5.451   0.497
 1028TIP3    H2 3091   5.232   5.550   0.582
 1029TIP3   OH2 3092   1.278   4.299   2.302
 1029TIP3    H1 3093   1.325   4.379   2.327
 1029TIP3    H2 3094   1.272   4.303   2.207
 1030TIP3   OH2 3095   4.424   2.938   4.519
 1030TIP3    H1 3096   4.351   2.885   4.488
 1030TIP3    H2 3097   4.460   2.978   4.440
 1031TIP3   OH2 3098   5.013   2.880   0.132
 1031TIP3    H1 3099   4.934   2.825   0.131
 1031TIP3    H2 3100   5.039   2.887   0.041
 1032TIP3   OH2 3101   0.655   4.295   5.024
 1032TIP3    H1 3102   0.627   4.226   5.084
 1032TIP3    H2 3103   0.573   4.336   4.995
 1033TIP3   OH2 3104   0.665   1.458   4.285
 1033TIP3    H1 3105   0.706   1.435   4.368
 1033TIP3    H2 3106   0.710   1.404   4.220
 1034TIP3   OH2 3107   3.517   2.347   3.881
 1034TIP3    H1 3108   3.446   2.313   3.827
 1034TIP3    H2 3109   3.479   2.423   3.926
 1035TIP3   OH2 3110   2.686   4.352   2.481
 1035TIP3    H1 3111   2.672   4.265   2.445
 1035TIP3    H2 3112   2.611   4.403   2.450
 1036TIP3   OH2 3113   0.789   5.179   2.653
 1036TIP3    H1 3114   0.803   5.096   2.608
 1036TIP3    H2 3115   0.731   5.228   2.595
 1037TIP3   OH2 3116   4.266   1.287   3.675
 1037TIP3    H1 3117   4.241   1.256   3.761
 1037TIP3    H2 3118   4.185   1.318   3.636
 1038TIP3   OH2 3119   0.105   5.772   3.333
 1038TIP3    H1 3120   0.015   5.805   3.335
 1038TIP3    H2 3121   0.102   5.690   3.383
 1039TIP3   OH2 3122   3.631   3.199   4.372
 1039TIP3    H1 3123   3.587   3.264   4.316
 1039TIP3    H2 3124   3.634   3.120   4.319
 1040TIP3   OH2 3125   4.177   5.539   2.578
 1040TIP3    H1 3126   4.167   5.524   2.672
 1040TIP3    H2 3127   4.116   5.611   2.559
 1041TIP3   OH2 3128   5.869   4.211   5.007
 1041TIP3    H1 3129   5.828   4.128   5.030
 1041TIP3    H2 3130   5.844   4.270   5.079
 1042TIP3   OH2 3131   4.169   1.157   1.845
 1042TIP3    H1 3132   4.093   1.151   1.787
 1042TIP3    H2 3133   4.242   1.174   1.786
 1043TIP3   OH2 3134   1.428   3.546   2.080
 1043TIP3    H1 3135   1.499   3.563   2.142
 1043TIP3    H2 3136   1.469   3.490   2.013
 1044TIP3   OH2 3137   0.067   0.039   4.077
 1044TIP3    H1 3138   0.050  -0.043   4.122
 1044TIP3    H2 3139  -0.010   0.094   4.096
 1045TIP3   OH2 3140   2.345   4.332   0.114
 1045TIP3    H1 3141   2.411   4.269   0.140
 1045TIP3    H2 3142   2.273   4.279   0.080
 1046TIP3   OH2 3143   0.643   3.293   0.301
 1046TIP3    H1 3144   0.700   3.316   0.228
 1046TIP3    H2 3145   0.636   3.198   0.297
 1047TIP3   OH2 3146   2.081   5.694   2.734
 1047TIP3    H1 3147   2.169   5.730   2.750
 1047TIP3    H2 3148   2.041   5.756   2.672
 1048TIP3   OH2 3149   1.506   1.039   3.062
 1048TIP3    H1 3150   1.595   1.060   3.036
 1048TIP3    H2 3151   1.451   1.098   3.010
 1049TIP3   OH2 3152   1.937   0.564   4.070
 1049TIP3    H1 3153   2.018   0.513   4.062
 1049TIP3    H2 3154   1.961   0.640   4.122
 1050TIP3   OH2 3155   4.966   3.880   0.483
 1050TIP3    H1 3156   5.026   3.825   0.432
 1050TIP3    H2 3157   5.012   3.964   0.492
 1051TIP3   OH2 3158   4.950   0.588   1.737
 1051TIP3    H1 3159   4.968   0.506   1.783
 1051TIP3    H2 3160   4.941   0.563   1.645
 1052TIP3   OH2 3161   1.078   2.101   2.904
 1052TIP3    H1 3162   1.078   2.123   2.810
 1052TIP3    H2 3163   1.156   2.046   2.915
 1053TIP3   OH2 3164   4.986   3.917   4.002
 1053TIP3    H1 3165   4.891   3.916   4.000
 1053TIP3    H2 3166   5.011   3.993   3.950
 1054TIP3   OH2 3167   1.737   1.577   3.793
 1054TIP3    H1 3168   1.769   1.522   3.722
 1054TIP3    H2 3169   1.781   1.661   3.781
 1055TIP3   OH2 3170   6.233   1.931   0.510
 1055TIP3    H1 3171   6.320   1.969   0.498
 1055TIP3    H2 3172   6.237   1.846   0.465
 1056TIP3   OH2 3173   4.623   5.926   2.125
 1056TIP3    H1 3174   4.633   5.900   2.216
 1056TIP3    H2 3175   4.530   5.912   2.106
 1057TIP3   OH2 3176   3.734   4.506   3.907
 1057TIP3    H1 3177   3.804   4.563   3.936
 1057TIP3    H2 3178   3.709   4.456   3.985
 1058TIP3   OH2 3179   2.936   5.126   1.728
 1058TIP3    H1 3180   2.902   5.037   1.717
 1058TIP3    H2 3181   2.918   5.170   1.645
 1059TIP3   OH2 3182   4.414   0.947   2.196
 1059TIP3    H1 3183   4.331   0.993   2.210
 1059TIP3    H2 3184   4.431   0.957   2.102
 1060TIP3   OH2 3185   0.741   2.053   0.339
 1060TIP3    H1 3186   0.665   2.079   0.287
 1060TIP3    H2 3187   0.782   1.983   0.288
 1061TIP3   OH2 3188   5.298   3.836   4.282
 1061TIP3    H1 3189   5.372   3.855   4.224
 1061TIP3    H2 3190   5.323   3.756   4.327
 1062TIP3   OH2 3191   4.624   5.056   4.866
 1062TIP3    H1 3192   4.631   5.076   4.772
 1062TIP3    H2 3193   4.531   5.047   4.882
 1063TIP3   OH2 3194   3.555   2.075   1.657
 1063TIP3    H1 3195   3.576   2.015   1.728
 1063TIP3    H2 3196   3.577   2.027   1.577
 1064TIP3   OH2 3197   6.045   2.607   0.185
 1064TIP3    H1 3198   6.048   2.618   0.090
 1064TIP3    H2 3199   5.957   2.634   0.210
 1065TIP3   OH2 3200   2.919   4.481   2.224
 1065TIP3    H1 3201   2.934   4.545   2.154
 1065TIP3    H2 3202   2.844   4.516   2.272
 1066TIP3   OH2 3203   4.971   2.393   4.832
 1066TIP3    H1 3204   5.044   2.437   4.790
 1066TIP3    H2 3205   4.899   2.456   4.828
 1067TIP3   OH2 3206   2.707   5.380   0.593
 1067TIP3    H1 3207   2.679   5.422   0.675
 1067TIP3    H2 3208   2.779   5.435   0.562
 1068TIP3   OH2 3209   4.718   5.591   0.705
 1068TIP3    H1 3210   4.785   5.648   0.668
 1068TIP3    H2 3211   4.686   5.540   0.631
 1069TIP3   OH2 3212   2.930   3.916   4.311
 1069TIP3    H1 3213   2.948   3.953   4.398
 1069TIP3    H2 3214   2.931   3.821   4.324
 1070TIP3   OH2 3215   4.643   1.210   3.305
 1070TIP3    H1 3216   4.699   1.251   3.371
 1070TIP3    H2 3217   4.637   1.119   3.332
 1071TIP3   OH2 3218   0.385   5.593   3.265
 1071TIP3    H1 3219   0.395   5.606   3.359
 1071TIP3    H2 3220   0.319   5.656   3.238
 1072TIP3   OH2 3221   5.765   0.370   2.091
 1072TIP3    H1 3222   5.732   0.280   2.103
 1072TIP3    H2 3223   5.813   0.389   2.172
 1073TIP3   OH2 3224   5.701   5.061   3.275
 1073TIP3    H1 3225   5.613   5.075   3.241
 1073TIP3    H2 3226   5.687   5.031   3.365
 1074TIP3   OH2 3227   3.740   0.392   4.078
 1074TIP3    H1 3228   3.745   0.388   3.982
 1074TIP3    H2 3229   3.791   0.470   4.101
 1075TIP3   OH2 3230   3.857   1.981   1.399
 1075TIP3    H1 3231   3.915   2.053   1.426
 1075TIP3    H2 3232   3.881   1.908   1.456
 1076TIP3   OH2 3233   3.926   4.965   3.655
 1076TIP3    H1 3234   3.837   4.953   3.624
 1076TIP3    H2 3235   3.970   4.882   3.635
 1077TIP3   OH2 3236   3.186   4.266   0.467
 1077TIP3    H1 3237   3.154   4.318   0.541
 1077TIP3    H2 3238   3.270   4.232   0.497
 1078TIP3   OH2 3239   4.774   1.964   0.109
 1078TIP3    H1 3240   4.692   1.991   0.067
 1078TIP3    H2 3241   4.826   1.925   0.038
 1079TIP3   OH2 3242   4.772   5.749   1.496
 1079TIP3    H1 3243   4.742   5.666   1.532
 1079TIP3    H2 3244   4.863   5.733   1.470
 1080TIP3   OH2 3245   2.739   4.169   5.119
 1080TIP3    H1 3246   2.746   4.175   5.024
 1080TIP3    H2 3247   2.726   4.076   5.136
 1081TIP3   OH2 3248   4.988   3.117   1.092
 1081TIP3    H1 3249   4.959   3.124   1.183
 1081TIP3    H2 3250   4.909   3.132   1.040
 1082TIP3   OH2 3251   6.114   1.922   1.529
 1082TIP3    H1 3252   6.121   1.910   1.624
 1082TIP3    H2 3253   6.033   1.877   1.505
 1083TIP3   OH2 3254   2.657   4.969   4.989
 1083TIP3    H1 3255   2.645   4.999   5.079
 1083TIP3    H2 3256   2.752   4.971   4.975
 1084TIP3   OH2 3257   4.112   1.466   4.671
 1084TIP3    H1 3258   4.165   1.545   4.683
 1084TIP3    H2 3259   4.110   1.425   4.757
 1085TIP3   OH2 3260   2.939   4.388   3.629
 1085TIP3    H1 3261   2.869   4.439   3.671
 1085TIP3    H2 3262   2.947   4.310   3.684
 1086TIP3   OH2 3263   4.117   4.329   2.460
 1086TIP3    H1 3264   4.055   4.307   2.530
 1086TIP3    H2 3265   4.143   4.419   2.479
 1087TIP3   OH2 3266   6.118   1.743   3.635
 1087TIP3    H1 3267   6.023   1.747   3.640
 1087TIP3    H2 3268   6.137   1.730   3.542
 1088TIP3   OH2 3269   5.928   4.792   0.554
 1088TIP3    H1 3270   5.837   4.780   0.528
 1088TIP3    H2 3271   5.979   4.746   0.487
 1089TIP3   OH2 3272   1.181   5.785   1.744
 1089TIP3    H1 3273   1.152   5.708   1.794
 1089TIP3    H2 3274   1.113   5.798   1.678
 1090TIP3   OH2 3275   3.519   5.083   0.316
 1090TIP3    H1 3276   3.535   5.008   0.373
 1090TIP3    H2 3277   3.472   5.145   0.372
 1091TIP3   OH2 3278   5.801   2.010   2.288
 1091TIP3    H1 3279   5.819   2.016   2.381
 1091TIP3    H2 3280   5.851   2.080   2.248
 1092TIP3   OH2 3281   5.030   2.399   4.027
 1092TIP3    H1 3282   4.960   2.463   4.025
 1092TIP3    H2 3283   5.068   2.408   4.114
 1093TIP3   OH2 3284   4.141   1.644   3.091
 1093TIP3    H1 3285   4.203   1.575   3.068
 1093TIP3    H2 3286   4.088   1.656   3.012
 1094TIP3   OH2 3287   3.103   0.939   3.963
 1094TIP3    H1 3288   3.053   0.908   3.887
 1094TIP3    H2 3289   3.114   0.862   4.018
 1095TIP3   OH2 3290   3.323   0.393   3.445
 1095TIP3    H1 3291   3.368   0.420   3.525
 1095TIP3    H2 3292   3.230   0.399   3.468
 1096TIP3   OH2 3293   5.392   1.766   4.146
 1096TIP3    H1 3294   5.380   1.775   4.241
 1096TIP3    H2 3295   5.478   1.725   4.136
 1097TIP3   OH2 3296   2.066   0.175   4.586
 1097TIP3    H1 3297   1.971   0.181   4.575
 1097TIP3    H2 3298   2.079   0.156   4.679
 1098TIP3   OH2 3299   5.232   4.570   3.074
 1098TIP3    H1 3300   5.206   4.555   3.165
 1098TIP3    H2 3301   5.292   4.645   3.079
 1099TIP3   OH2 3302   1.449   1.970   0.177
 1099TIP3    H1 3303   1.482   2.051   0.216
 1099TIP3    H2 3304   1.368   1.951   0.226
 1100TIP3   OH2 3305   0.790   3.146   1.801
 1100TIP3    H1 3306   0.771   3.058   1.833
 1100TIP3    H2 3307   0.880   3.140   1.768
 1101TIP3   OH2 3308   4.189   4.621   2.159
 1101TIP3    H1 3309   4.268   4.673   2.145
 1101TIP3    H2 3310   4.157   4.602   2.071
 1102TIP3   OH2 3311   5.547   0.127   0.848
 1102TIP3    H1 3312   5.622   0.156   0.795
 1102TIP3    H2 3313   5.503   0.062   0.794
 1103TIP3   OH2 3314   0.125   3.630   1.541
 1103TIP3    H1 3315   0.106   3.646   1.449
 1103TIP3    H2 3316   0.202   3.572   1.539
 1104TIP3   OH2 3317   0.113   2.067   2.322
 1104TIP3    H1 3318   0.089   2.022   2.403
 1104TIP3    H2 3319   0.141   1.997   2.263
 1105TIP3   OH2 3320   0.122   1.357   4.340
 1105TIP3    H1 3321   0.151   1.435   4.387
 1105TIP3    H2 3322   0.161   1.365   4.253
 1106TIP3   OH2 3323   0.233   0.673   0.038
 1106TIP3    H1 3324   0.220   0.767   0.034
 1106TIP3    H2 3325   0.187   0.639  -0.039
 1107TIP3   OH2 3326   6.232   0.686   2.178
 1107TIP3    H1 3327   6.212   0.636   2.257
 1107TIP3    H2 3328   6.327   0.678   2.167
 1108TIP3   OH2 3329   2.828   3.160   2.351
 1108TIP3    H1 3330   2.736   3.186   2.344
 1108TIP3    H2 3331   2.868   3.228   2.405
 1109TIP3   OH2 3332   4.383   4.354   3.926
 1109TIP3    H1 3333   4.406   4.411   4.000
 1109TIP3    H2 3334   4.291   4.373   3.910
 1110TIP3   OH2 3335   3.657   2.313   3.599
 1110TIP3    H1 3336   3.582   2.347   3.649
 1110TIP3    H2 3337   3.662   2.369   3.522
 1111TIP3   OH2 3338   3.224   5.956   1.485
 1111TIP3    H1 3339   3.308   5.955   1.531
 1111TIP3    H2 3340   3.180   5.876   1.514
 1112TIP3   OH2 3341   3.727   3.408   3.915
 1112TIP3    H1 3342   3.703   3.378   4.002
 1112TIP3    H2 3343   3.705   3.335   3.857
 1113TIP3   OH2 3344   4.437   1.326   0.005
 1113TIP3    H1 3345   4.478   1.295   0.085
 1113TIP3    H2 3346   4.347   1.293   0.009
 1114TIP3   OH2 3347   1.632   3.113   2.725
 1114TIP3    H1 3348   1.712   3.095   2.676
 1114TIP3    H2 3349   1.614   3.033   2.773
 1115TIP3   OH2 3350   5.722   5.324   0.968
 1115TIP3    H1 3351   5.785   5.386   1.005
 1115TIP3    H2 3352   5.776   5.256   0.928
 1116TIP3   OH2 3353   0.831   2.395   0.843
 1116TIP3    H1 3354   0.896   2.425   0.907
 1116TIP3    H2 3355   0.855   2.305   0.825
 1117TIP3   OH2 3356   2.348   5.274   3.724
 1117TIP3    H1 3357   2.356   5.270   3.820
 1117TIP3    H2 3358   2.277   5.336   3.708
 1118TIP3   OH2 3359   5.045   1.225   0.312
 1118TIP3    H1 3360   5.078   1.315   0.310
 1118TIP3    H2 3361   4.971   1.228   0.373
 1119TIP3   OH2 3362   4.205   1.651   3.463
 1119TIP3    H1 3363   4.164   1.733   3.437
 1119TIP3    H2 3364   4.295   1.658   3.432
 1120TIP3   OH2 3365   2.001   2.550   5.033
 1120TIP3    H1 3366   1.915   2.510   5.032
 1120TIP3    H2 3367   1.990   2.634   4.988
 1121TIP3   OH2 3368   0.981   1.629   1.240
 1121TIP3    H1 3369   1.056   1.607   1.296
 1121TIP3    H2 3370   1.016   1.628   1.151
 1122TIP3   OH2 3371   4.099   2.773   2.982
 1122TIP3    H1 3372   4.119   2.682   2.961
 1122TIP3    H2 3373   4.048   2.805   2.908
 1123TIP3   OH2 3374   5.983   5.591   3.911
 1123TIP3    H1 3375   5.893   5.622   3.906
 1123TIP3    H2 3376   6.035   5.668   3.935
 1124TIP3   OH2 3377   5.581   4.117   1.579
 1124TIP3    H1 3378   5.591   4.187   1.515
 1124TIP3    H2 3379   5.642   4.140   1.649
 1125TIP3   OH2 3380   4.878   1.171   3.094
 1125TIP3    H1 3381   4.806   1.170   3.157
 1125TIP3    H2 3382   4.857   1.100   3.032
 1126TIP3   OH2 3383   1.982   2.717   2.873
 1126TIP3    H1 3384   1.894   2.715   2.911
 1126TIP3    H2 3385   1.983   2.645   2.811
 1127TIP3   OH2 3386   3.306   2.770   2.517
 1127TIP3    H1 3387   3.393   2.762   2.556
 1127TIP3    H2 3388   3.246   2.740   2.585
 1128TIP3   OH2 3389   3.506   5.341   0.112
 1128TIP3    H1 3390   3.467   5.341   0.025
 1128TIP3    H2 3391   3.462   5.413   0.158
 1129TIP3   OH2 3392   4.198   0.526   2.102
 1129TIP3    H1 3393   4.244   0.574   2.033
 1129TIP3    H2 3394   4.189   0.589   2.173
 1130TIP3   OH2 3395   2.436   0.205   4.091
 1130TIP3    H1 3396   2.368   0.227   4.155
 1130TIP3    H2 3397   2.460   0.288   4.052
 1131TIP3   OH2 3398   1.649   2.981   1.660
 1131TIP3    H1 3399   1.578   3.003   1.720
 1131TIP3    H2 3400   1.621   3.017   1.576
 1132TIP3   OH2 3401   0.099   3.887   3.436
 1132TIP3    H1 3402   0.066   3.801   3.462
 1132TIP3    H2 3403   0.030   3.948   3.462
 1133TIP3   OH2 3404   6.161   5.434   2.436
 1133TIP3    H1 3405   6.230   5.406   2.375
 1133TIP3    H2 3406   6.082   5.438   2.383
 1134TIP3   OH2 3407   0.887   1.078   3.859
 1134TIP3    H1 3408   0.896   1.150   3.922
 1134TIP3    H2 3409   0.842   1.117   3.784
 1135TIP3   OH2 3410   4.914   0.016   0.413
 1135TIP3    H1 3411   4.988   0.074   0.395
 1135TIP3    H2 3412   4.869   0.008   0.329
 1136TIP3   OH2 3413   0.829   0.357   2.621
 1136TIP3    H1 3414   0.892   0.293   2.587
 1136TIP3    H2 3415   0.792   0.316   2.699
 1137TIP3   OH2 3416   0.698   1.293   4.883
 1137TIP3    H1 3417   0.767   1.284   4.817
 1137TIP3    H2 3418   0.744   1.280   4.966
 1138TIP3   OH2 3419   1.661   5.459   3.498
 1138TIP3    H1 3420   1.576   5.416   3.489
 1138TIP3    H2 3421   1.724   5.394   3.466
 1139TIP3   OH2 3422   2.220   5.790   2.271
 1139TIP3    H1 3423   2.239   5.834   2.354
 1139TIP3    H2 3424   2.164   5.853   2.224
 1140TIP3   OH2 3425   0.965   3.756   0.303
 1140TIP3    H1 3426   1.035   3.721   0.358
 1140TIP3    H2 3427   0.902   3.793   0.365
 1141TIP3   OH2 3428   1.496   4.098   0.627
 1141TIP3    H1 3429   1.489   4.060   0.539
 1141TIP3    H2 3430   1.444   4.040   0.683
 1142TIP3   OH2 3431   1.526   5.814   2.018
 1142TIP3    H1 3432   1.474   5.763   2.080
 1142TIP3    H2 3433   1.566   5.748   1.961
 1143TIP3   OH2 3434   0.226   5.312   1.205
 1143TIP3    H1 3435   0.184   5.279   1.285
 1143TIP3    H2 3436   0.317   5.282   1.212
 1144TIP3   OH2 3437   5.155   0.964   0.387
 1144TIP3    H1 3438   5.169   0.962   0.481
 1144TIP3    H2 3439   5.130   1.055   0.368
 1145TIP3   OH2 3440   2.191   5.222   4.772
 1145TIP3    H1 3441   2.265   5.277   4.747
 1145TIP3    H2 3442   2.114   5.273   4.745
 1146TIP3   OH2 3443   2.283   3.013   0.672
 1146TIP3    H1 3444   2.245   3.030   0.758
 1146TIP3    H2 3445   2.208   3.001   0.615
 1147TIP3   OH2 3446   3.874   5.379   3.793
 1147TIP3    H1 3447   3.905   5.432   3.866
 1147TIP3    H2 3448   3.816   5.315   3.833
 1148TIP3   OH2 3449   0.761   2.782   3.075
 1148TIP3    H1 3450   0.762   2.786   3.171
 1148TIP3    H2 3451   0.722   2.865   3.048
 1149TIP3   OH2 3452   3.134   2.596   4.405
 1149TIP3    H1 3453   3.089   2.600   4.321
 1149TIP3    H2 3454   3.221   2.562   4.384
 1150TIP3   OH2 3455   0.685   4.533   3.579
 1150TIP3    H1 3456   0.627   4.521   3.655
 1150TIP3    H2 3457   0.647   4.605   3.530
 1151TIP3   OH2 3458   3.762   3.167   3.689
 1151TIP3    H1 3459   3.848   3.175   3.731
 1151TIP3    H2 3460   3.775   3.199   3.600
 1152TIP3   OH2 3461   2.940   5.006   5.123
 1152TIP3    H1 3462   2.885   4.972   5.193
 1152TIP3    H2 3463   2.994   5.072   5.166
 1153TIP3   OH2 3464   1.979   0.499   2.830
 1153TIP3    H1 3465   1.944   0.422   2.876
 1153TIP3    H2 3466   1.901   0.552   2.810
 1154TIP3   OH2 3467   5.522   1.633   1.821
 1154TIP3    H1 3468   5.465   1.558   1.803
 1154TIP3    H2 3469   5.462   1.703   1.849
 1155TIP3   OH2 3470   5.924   3.780   4.716
 1155TIP3    H1 3471   5.890   3.695   4.689
 1155TIP3    H2 3472   5.870   3.844   4.668
 1156TIP3   OH2 3473   5.505   2.720   4.911
 1156TIP3    H1 3474   5.537   2.691   4.826
 1156TIP3    H2 3475   5.570   2.688   4.974
 1157TIP3   OH2 3476  -0.021   2.312   4.884
 1157TIP3    H1 3477  -0.007   2.291   4.976
 1157TIP3    H2 3478   0.055   2.276   4.839
 1158TIP3   OH2 3479   4.803   4.638   4.792
 1158TIP3    H1 3480   4.877   4.682   4.750
 1158TIP3    H2 3481   4.763   4.705   4.847
 1159TIP3   OH2 3482   2.614   4.692   0.052
 1159TIP3    H1 3483   2.540   4.646   0.091
 1159TIP3    H2 3484   2.591   4.785   0.056
 1160TIP3   OH2 3485   5.201   3.205   1.823
 1160TIP3    H1 3486   5.124   3.204   1.765
 1160TIP3    H2 3487   5.275   3.193   1.763
 1161TIP3   OH2 3488   4.951   2.721   3.787
 1161TIP3    H1 3489   5.045   2.741   3.794
 1161TIP3    H2 3490   4.920   2.723   3.878
 1162TIP3   OH2 3491   2.343   3.862   1.387
 1162TIP3    H1 3492   2.250   3.842   1.392
 1162TIP3    H2 3493   2.362   3.868   1.293
 1163TIP3   OH2 3494   4.209   1.175   3.910
 1163TIP3    H1 3495   4.220   1.256   3.960
 1163TIP3    H2 3496   4.228   1.105   3.973
 1164TIP3   OH2 3497   2.808   1.723   1.308
 1164TIP3    H1 3498   2.884   1.741   1.365
 1164TIP3    H2 3499   2.799   1.628   1.311
 1165TIP3   OH2 3500   0.837   2.111   1.443
 1165TIP3    H1 3501   0.879   2.025   1.446
 1165TIP3    H2 3502   0.901   2.171   1.482
 1166TIP3   OH2 3503   0.402   1.923   2.564
 1166TIP3    H1 3504   0.415   1.889   2.653
 1166TIP3    H2 3505   0.343   1.860   2.523
 1167TIP3   OH2 3506   0.620   5.963   4.685
 1167TIP3    H1 3507   0.656   6.019   4.616
 1167TIP3    H2 3508   0.686   5.895   4.696
 1168TIP3   OH2 3509   0.314   1.270   0.985
 1168TIP3    H1 3510   0.388   1.288   0.928
 1168TIP3    H2 3511   0.354   1.244   1.069
 1169TIP3   OH2 3512   2.179   0.494   3.034
 1169TIP3    H1 3513   2.140   0.495   2.947
 1169TIP3    H2 3514   2.142   0.570   3.079
 1170TIP3   OH2 3515   5.858   1.723   2.896
 1170TIP3    H1 3516   5.889   1.638   2.864
 1170TIP3    H2 3517   5.934   1.780   2.887
 1171TIP3   OH2 3518   4.600   5.176   1.313
 1171TIP3    H1 3519   4.539   5.112   1.278
 1171TIP3    H2 3520   4.567   5.260   1.282
 1172TIP3   OH2 3521   5.274   1.168   0.154
 1172TIP3    H1 3522   5.203   1.231   0.162
 1172TIP3    H2 3523   5.327   1.182   0.232
 1173TIP3   OH2 3524   2.353   3.387   4.897
 1173TIP3    H1 3525   2.400   3.401   4.815
 1173TIP3    H2 3526   2.416   3.345   4.955
 1174TIP3   OH2 3527   0.251   3.897   1.556
 1174TIP3    H1 3528   0.267   3.804   1.575
 1174TIP3    H2 3529   0.195   3.896   1.479
 1175TIP3   OH2 3530   4.082   3.375   2.556
 1175TIP3    H1 3531   4.153   3.387   2.493
 1175TIP3    H2 3532   4.116   3.415   2.637
 1176TIP3   OH2 3533   5.368   5.963   3.886
 1176TIP3    H1 3534   5.342   5.903   3.956
 1176TIP3    H2 3535   5.460   5.984   3.905
 1177TIP3   OH2 3536   3.767  -0.026   2.591
 1177TIP3    H1 3537   3.733  -0.114   2.572
 1177TIP3    H2 3538   3.698   0.033   2.558
 1178TIP3   OH2 3539   2.126   2.833   2.635
 1178TIP3    H1 3540   2.071   2.791   2.702
 1178TIP3    H2 3541   2.073   2.906   2.603
 1179TIP3   OH2 3542   0.890   4.481   4.848
 1179TIP3    H1 3543   0.871   4.400   4.800
 1179TIP3    H2 3544   0.899   4.454   4.939
 1180TIP3   OH2 3545   5.119   5.024   2.394
 1180TIP3    H1 3546   5.197   5.079   2.379
 1180TIP3    H2 3547   5.153   4.936   2.407
 1181TIP3   OH2 3548   5.384   2.486   0.574
 1181TIP3    H1 3549   5.430   2.426   0.515
 1181TIP3    H2 3550   5.424   2.572   0.556
 1182TIP3   OH2 3551   3.569   1.318   3.507
 1182TIP3    H1 3552   3.495   1.366   3.544
 1182TIP3    H2 3553   3.623   1.385   3.465
 1183TIP3   OH2 3554   1.610   5.505   4.027
 1183TIP3    H1 3555   1.620   5.530   3.935
 1183TIP3    H2 3556   1.699   5.491   4.058
 1184TIP3   OH2 3557   0.423   2.818   3.668
 1184TIP3    H1 3558   0.328   2.826   3.679
 1184TIP3    H2 3559   0.434   2.735   3.622
 1185TIP3   OH2 3560   5.544   4.988   0.615
 1185TIP3    H1 3561   5.600   5.066   0.607
 1185TIP3    H2 3562   5.501   4.998   0.700
 1186TIP3   OH2 3563   0.907   4.010   3.287
 1186TIP3    H1 3564   0.917   4.105   3.278
 1186TIP3    H2 3565   0.942   3.990   3.374
 1187TIP3   OH2 3566   4.535   3.758   2.268
 1187TIP3    H1 3567   4.575   3.772   2.354
 1187TIP3    H2 3568   4.607   3.772   2.206
 1188TIP3   OH2 3569   4.976   3.562   3.100
 1188TIP3    H1 3570   5.039   3.491   3.112
 1188TIP3    H2 3571   4.892   3.524   3.123
 1189TIP3   OH2 3572   1.668   0.593   1.542
 1189TIP3    H1 3573   1.683   0.499   1.547
 1189TIP3    H2 3574   1.649   0.610   1.450
 1190TIP3   OH2 3575   1.285   2.580   1.079
 1190TIP3    H1 3576   1.316   2.631   1.154
 1190TIP3    H2 3577   1.341   2.608   1.006
 1191TIP3   OH2 3578   4.607   4.097   3.340
 1191TIP3    H1 3579   4.514   4.081   3.325
 1191TIP3    H2 3580   4.647   4.010   3.343
 1192TIP3   OH2 3581   3.883   1.189   2.572
 1192TIP3    H1 3582   3.870   1.213   2.480
 1192TIP3    H2 3583   3.958   1.242   2.600
 1193TIP3   OH2 3584   2.592   3.937   1.859
 1193TIP3    H1 3585   2.548   3.882   1.795
 1193TIP3    H2 3586   2.581   3.891   1.942
 1194TIP3   OH2 3587   1.095   5.988   1.308
 1194TIP3    H1 3588   1.089   5.898   1.276
 1194TIP3    H2 3589   1.020   5.997   1.367
 1195TIP3   OH2 3590   4.625   4.392   1.278
 1195TIP3    H1 3591   4.639   4.304   1.243
 1195TIP3    H2 3592   4.570   4.436   1.214
 1196TIP3   OH2 3593   5.334   4.440   2.434
 1196TIP3    H1 3594   5.399   4.468   2.370
 1196TIP3    H2 3595   5.333   4.510   2.500
 1197TIP3   OH2 3596   1.324   5.262   0.052
 1197TIP3    H1 3597   1.383   5.307   0.112
 1197TIP3    H2 3598   1.375   5.252  -0.029
 1198TIP3   OH2 3599   4.784   5.600   4.881
 1198TIP3    H1 3600   4.852   5.633   4.938
 1198TIP3    H2 3601   4.714   5.666   4.886
 1199TIP3   OH2 3602   0.120   0.539   2.095
 1199TIP3    H1 3603   0.186   0.536   2.164
 1199TIP3    H2 3604   0.170   0.536   2.013
 1200TIP3   OH2 3605   3.282   4.442   3.049
 1200TIP3    H1 3606   3.354   4.431   2.987
 1200TIP3    H2 3607   3.283   4.536   3.070
 1201TIP3   OH2 3608   3.204   3.977   0.456
 1201TIP3    H1 3609   3.288   3.974   0.410
 1201TIP3    H2 3610   3.214   4.046   0.521
 1202TIP3   OH2 3611   3.429   6.003   2.661
 1202TIP3    H1 3612   3.484   5.963   2.594
 1202TIP3    H2 3613   3.343   6.011   2.620
 1203TIP3   OH2 3614   0.236   0.837   2.294
 1203TIP3    H1 3615   0.223   0.877   2.208
 1203TIP3    H2 3616   0.309   0.885   2.333
 1204TIP3   OH2 3617   0.646   5.021   0.537
 1204TIP3    H1 3618   0.560   5.029   0.497
 1204TIP3    H2 3619   0.629   5.033   0.631
 1205TIP3   OH2 3620   5.494   3.925   4.081
 1205TIP3    H1 3621   5.579   3.970   4.079
 1205TIP3    H2 3622   5.489   3.880   3.997
 1206TIP3   OH2 3623   4.556   1.375   2.646
 1206TIP3    H1 3624   4.531   1.466   2.660
 1206TIP3    H2 3625   4.632   1.362   2.702
 1207TIP3   OH2 3626   3.511   5.512   2.898
 1207TIP3    H1 3627   3.509   5.458   2.977
 1207TIP3    H2 3628   3.508   5.602   2.931
 1208TIP3   OH2 3629   5.011   2.024   4.048
 1208TIP3    H1 3630   4.983   2.056   3.962
 1208TIP3    H2 3631   5.107   2.031   4.045
 1209TIP3   OH2 3632   2.203   0.127   0.967
 1209TIP3    H1 3633   2.195   0.091   1.055
 1209TIP3    H2 3634   2.197   0.050   0.909
 1210TIP3   OH2 3635   5.403   4.888   2.769
 1210TIP3    H1 3636   5.344   4.940   2.825
 1210TIP3    H2 3637   5.466   4.850   2.830
 1211TIP3   OH2 3638   2.683   5.599   2.183
 1211TIP3    H1 3639   2.588   5.595   2.170
 1211TIP3    H2 3640   2.719   5.611   2.095
 1212TIP3   OH2 3641   4.113   2.143   5.121
 1212TIP3    H1 3642   4.203   2.174   5.117
 1212TIP3    H2 3643   4.090   2.123   5.030
 1213TIP3   OH2 3644   5.669   2.562   3.763
 1213TIP3    H1 3645   5.634   2.587   3.677
 1213TIP3    H2 3646   5.726   2.634   3.788
 1214TIP3   OH2 3647   5.840   0.451   4.169
 1214TIP3    H1 3648   5.849   0.368   4.215
 1214TIP3    H2 3649   5.745   0.468   4.168
 1215TIP3   OH2 3650   1.933   1.800   2.129
 1215TIP3    H1 3651   1.854   1.751   2.151
 1215TIP3    H2 3652   1.926   1.881   2.178
 1216TIP3   OH2 3653   4.674   2.047   1.133
 1216TIP3    H1 3654   4.761   2.030   1.171
 1216TIP3    H2 3655   4.687   2.124   1.078
 1217TIP3   OH2 3656   5.881   2.111   2.979
 1217TIP3    H1 3657   5.878   2.102   3.075
 1217TIP3    H2 3658   5.795   2.144   2.955
 1218TIP3   OH2 3659   0.107   1.087   2.027
 1218TIP3    H1 3660   0.160   1.113   1.952
 1218TIP3    H2 3661   0.027   1.052   1.989
 1219TIP3   OH2 3662   3.134   2.720   0.915
 1219TIP3    H1 3663   3.210   2.662   0.913
 1219TIP3    H2 3664   3.063   2.668   0.877
 1220TIP3   OH2 3665   2.006   4.025   0.160
 1220TIP3    H1 3666   1.981   3.934   0.175
 1220TIP3    H2 3667   1.947   4.076   0.216
 1221TIP3   OH2 3668   4.842   1.518   3.602
 1221TIP3    H1 3669   4.750   1.532   3.625
 1221TIP3    H2 3670   4.886   1.599   3.629
 1222TIP3   OH2 3671   2.894   2.961   1.867
 1222TIP3    H1 3672   2.935   3.028   1.813
 1222TIP3    H2 3673   2.856   3.009   1.941
 1223TIP3   OH2 3674   1.836   2.416   4.229
 1223TIP3    H1 3675   1.780   2.453   4.297
 1223TIP3    H2 3676   1.837   2.322   4.247
 1224TIP3   OH2 3677   3.542   5.064   1.618
 1224TIP3    H1 3678   3.589   4.982   1.607
 1224TIP3    H2 3679   3.610   5.127   1.646
 1225TIP3   OH2 3680   4.184   5.573   2.877
 1225TIP3    H1 3681   4.265   5.566   2.927
 1225TIP3    H2 3682   4.154   5.663   2.892
 1226TIP3   OH2 3683   4.599   4.791   4.064
 1226TIP3    H1 3684   4.521   4.750   4.100
 1226TIP3    H2 3685   4.609   4.751   3.977
 1227TIP3   OH2 3686   5.269   5.360   1.977
 1227TIP3    H1 3687   5.257   5.266   1.967
 1227TIP3    H2 3688   5.208   5.399   1.914
 1228TIP3   OH2 3689   2.467   2.760   3.709
 1228TIP3    H1 3690   2.509   2.680   3.677
 1228TIP3    H2 3691   2.378   2.735   3.730
 1229TIP3   OH2 3692   5.478   3.771   2.740
 1229TIP3    H1 3693   5.468   3.834   2.670
 1229TIP3    H2 3694   5.566   3.735   2.729
 1230TIP3   OH2 3695   4.407   3.718   0.827
 1230TIP3    H1 3696   4.389   3.741   0.919
 1230TIP3    H2 3697   4.366   3.633   0.815
 1231TIP3   OH2 3698   0.955   1.006   3.525
 1231TIP3    H1 3699   0.907   1.082   3.559
 1231TIP3    H2 3700   0.897   0.932   3.544
 1232TIP3   OH2 3701   0.355   3.702   0.084
 1232TIP3    H1 3702   0.281   3.642   0.083
 1232TIP3    H2 3703   0.322   3.782   0.044
 1233TIP3   OH2 3704   5.544   3.444   2.613
 1233TIP3    H1 3705   5.475   3.511   2.620
 1233TIP3    H2 3706   5.499   3.362   2.633
 1234TIP3   OH2 3707   5.251   1.364   3.414
 1234TIP3    H1 3708   5.266   1.429   3.483
 1234TIP3    H2 3709   5.321   1.380   3.350
 1235TIP3   OH2 3710   0.752   4.703   4.844
 1235TIP3    H1 3711   0.817   4.634   4.828
 1235TIP3    H2 3712   0.716   4.722   4.757
 1236TIP3   OH2 3713   4.780   2.713   2.086
 1236TIP3    H1 3714   4.833   2.745   2.159
 1236TIP3    H2 3715   4.702   2.676   2.127
 1237TIP3   OH2 3716   1.083   3.469   2.667
 1237TIP3    H1 3717   1.139   3.544   2.689
 1237TIP3    H2 3718   1.108   3.446   2.578
 1238TIP3   OH2 3719   5.186   2.999   3.162
 1238TIP3    H1 3720   5.203   2.943   3.238
 1238TIP3    H2 3721   5.096   2.979   3.138
 1239TIP3   OH2 3722   2.700   0.812   3.995
 1239TIP3    H1 3723   2.715   0.751   4.067
 1239TIP3    H2 3724   2.787   0.841   3.969
 1240TIP3   OH2 3725   1.826  -0.002   4.287
 1240TIP3    H1 3726   1.836   0.093   4.281
 1240TIP3    H2 3727   1.909  -0.033   4.323
 1241TIP3   OH2 3728   3.568   1.237   2.723
 1241TIP3    H1 3729   3.643   1.281   2.684
 1241TIP3    H2 3730   3.551   1.286   2.804
 1242TIP3   OH2 3731   4.011   3.195   3.756
 1242TIP3    H1 3732   4.048   3.249   3.825
 1242TIP3    H2 3733   4.058   3.221   3.677
 1243TIP3   OH2 3734   0.795   3.854   1.959
 1243TIP3    H1 3735   0.783   3.766   1.922
 1243TIP3    H2 3736   0.802   3.840   2.053
 1244TIP3   OH2 3737   6.100   5.373   2.777
 1244TIP3    H1 3738   6.012   5.407   2.797
 1244TIP3    H2 3739   6.146   5.448   2.739
 1245TIP3   OH2 3740   4.007   5.149   0.156
 1245TIP3    H1 3741   4.048   5.213   0.215
 1245TIP3    H2 3742   3.920   5.185   0.139
 1246TIP3   OH2 3743   1.627   0.316   3.775
 1246TIP3    H1 3744   1.605   0.270   3.857
 1246TIP3    H2 3745   1.718   0.344   3.788
 1247TIP3   OH2 3746   1.794   2.300   4.690
 1247TIP3    H1 3747   1.805   2.231   4.755
 1247TIP3    H2 3748   1.884   2.324   4.666
 1248TIP3   OH2 3749   0.883   2.401   4.837
 1248TIP3    H1 3750   0.818   2.331   4.826
 1248TIP3    H2 3751   0.882   2.447   4.753
 1249TIP3   OH2 3752   0.825   3.841   0.035
 1249TIP3    H1 3753   0.882   3.836   0.112
 1249TIP3    H2 3754   0.814   3.935   0.020
 1250TIP3   OH2 3755   1.127   2.977   4.579
 1250TIP3    H1 3756   1.035   2.958   4.598
 1250TIP3    H2 3757   1.165   3.002   4.664
 1251TIP3   OH2 3758   5.506   0.338   1.379
 1251TIP3    H1 3759   5.479   0.427   1.400
 1251TIP3    H2 3760   5.558   0.310   1.455
 1252TIP3   OH2 3761   3.216   1.117   1.489
 1252TIP3    H1 3762   3.306   1.083   1.483
 1252TIP3    H2 3763   3.194   1.143   1.400
 1253TIP3   OH2 3764   5.566   0.297   1.633
 1253TIP3    H1 3765   5.554   0.241   1.709
 1253TIP3    H2 3766   5.656   0.329   1.641
 1254TIP3   OH2 3767   3.684   2.072   4.220
 1254TIP3    H1 3768   3.699   2.004   4.286
 1254TIP3    H2 3769   3.764   2.072   4.167
 1255TIP3   OH2 3770   4.079   4.984   2.552
 1255TIP3    H1 3771   4.031   5.043   2.493
 1255TIP3    H2 3772   4.052   5.011   2.640
 1256TIP3   OH2 3773   4.816   0.986   5.060
 1256TIP3    H1 3774   4.723   0.992   5.082
 1256TIP3    H2 3775   4.837   0.893   5.073
 1257TIP3   OH2 3776   5.068   3.161   0.218
 1257TIP3    H1 3777   4.986   3.209   0.234
 1257TIP3    H2 3778   5.041   3.081   0.174
 1258TIP3   OH2 3779   4.393   5.385   1.271
 1258TIP3    H1 3780   4.308   5.400   1.229
 1258TIP3    H2 3781   4.372   5.341   1.353
 1259TIP3   OH2 3782   2.245   0.681   5.062
 1259TIP3    H1 3783   2.316   0.636   5.108
 1259TIP3    H2 3784   2.214   0.618   4.997
 1260TIP3   OH2 3785   0.292   1.923   5.040
 1260TIP3    H1 3786   0.245   1.840   5.044
 1260TIP3    H2 3787   0.245   1.974   4.974
 1261TIP3   OH2 3788   2.072   1.806   3.507
 1261TIP3    H1 3789   2.008   1.863   3.466
 1261TIP3    H2 3790   2.071   1.726   3.454
 1262TIP3   OH2 3791   5.747   1.680   2.573
 1262TIP3    H1 3792   5.824   1.724   2.610
 1262TIP3    H2 3793   5.777   1.644   2.490
 1263TIP3   OH2 3794   3.969   3.717   4.621
 1263TIP3    H1 3795   4.001   3.806   4.612
 1263TIP3    H2 3796   3.933   3.696   4.534
 1264TIP3   OH2 3797   3.671   1.135   5.064
 1264TIP3    H1 3798   3.598   1.074   5.067
 1264TIP3    H2 3799   3.717   1.115   4.983
 1265TIP3   OH2 3800   2.599   3.848   2.966
 1265TIP3    H1 3801   2.612   3.862   3.060
 1265TIP3    H2 3802   2.653   3.915   2.924
 1266TIP3   OH2 3803   3.863   2.940   1.023
 1266TIP3    H1 3804   3.795   2.912   1.083
 1266TIP3    H2 3805   3.875   3.033   1.042
 1267TIP3   OH2 3806   6.282   2.828   4.580
 1267TIP3    H1 3807   6.273   2.874   4.664
 1267TIP3    H2 3808   6.196   2.837   4.538
 1268TIP3   OH2 3809   5.631   2.433   4.097
 1268TIP3    H1 3810   5.723   2.449   4.078
 1268TIP3    H2 3811   5.589   2.519   4.091
 1269TIP3   OH2 3812   2.855   4.471   4.433
 1269TIP3    H1 3813   2.869   4.388   4.386
 1269TIP3    H2 3814   2.780   4.453   4.490
 1270TIP3   OH2 3815   5.523   1.869   0.275
 1270TIP3    H1 3816   5.514   1.817   0.355
 1270TIP3    H2 3817   5.463   1.827   0.213
 1271TIP3   OH2 3818   4.202   0.591   1.131
 1271TIP3    H1 3819   4.144   0.521   1.160
 1271TIP3    H2 3820   4.225   0.639   1.210
 1272TIP3   OH2 3821   3.175   5.199   1.854
 1272TIP3    H1 3822   3.228   5.222   1.778
 1272TIP3    H2 3823   3.092   5.169   1.818
 1273TIP3   OH2 3824   4.958   4.893   0.135
 1273TIP3    H1 3825   4.890   4.953   0.104
 1273TIP3    H2 3826   5.028   4.902   0.071
 1274TIP3   OH2 3827   2.534   2.398   0.297
 1274TIP3    H1 3828   2.604   2.393   0.233
 1274TIP3    H2 3829   2.460   2.435   0.249
 1275TIP3   OH2 3830   2.597   2.629   1.989
 1275TIP3    H1 3831   2.594   2.589   1.901
 1275TIP3    H2 3832   2.578   2.557   2.048
 1276TIP3   OH2 3833   5.038   4.883   4.848
 1276TIP3    H1 3834   5.032   4.807   4.790
 1276TIP3    H2 3835   5.004   4.956   4.796
 1277TIP3   OH2 3836   0.967   0.980   1.079
 1277TIP3    H1 3837   0.904   0.921   1.121
 1277TIP3    H2 3838   1.027   1.006   1.149
 1278TIP3   OH2 3839   2.697   1.999   0.032
 1278TIP3    H1 3840   2.663   1.911   0.046
 1278TIP3    H2 3841   2.633   2.056   0.075
 1279TIP3   OH2 3842   2.980   4.940   3.205
 1279TIP3    H1 3843   2.963   5.022   3.159
 1279TIP3    H2 3844   2.939   4.951   3.291
 1280TIP3   OH2 3845   1.395   2.183   0.780
 1280TIP3    H1 3846   1.489   2.188   0.762
 1280TIP3    H2 3847   1.354   2.205   0.696
 1281TIP3   OH2 3848   5.084   1.018   1.158
 1281TIP3    H1 3849   5.010   0.959   1.171
 1281TIP3    H2 3850   5.133   0.979   1.086
 1282TIP3   OH2 3851   4.354   4.029   0.434
 1282TIP3    H1 3852   4.448   4.013   0.435
 1282TIP3    H2 3853   4.315   3.943   0.450
 1283TIP3   OH2 3854   4.488   4.742   3.687
 1283TIP3    H1 3855   4.559   4.736   3.624
 1283TIP3    H2 3856   4.519   4.693   3.763
 1284TIP3   OH2 3857   3.695   3.496   3.662
 1284TIP3    H1 3858   3.693   3.478   3.756
 1284TIP3    H2 3859   3.608   3.469   3.630
 1285TIP3   OH2 3860   0.586   5.733   3.867
 1285TIP3    H1 3861   0.634   5.680   3.804
 1285TIP3    H2 3862   0.499   5.694   3.870
 1286TIP3   OH2 3863   1.535   3.230   3.527
 1286TIP3    H1 3864   1.456   3.207   3.576
 1286TIP3    H2 3865   1.573   3.146   3.501
 1287TIP3   OH2 3866   4.853   0.616   4.138
 1287TIP3    H1 3867   4.873   0.572   4.056
 1287TIP3    H2 3868   4.766   0.654   4.125
 1288TIP3   OH2 3869   4.052   3.167   2.223
 1288TIP3    H1 3870   4.061   3.209   2.138
 1288TIP3    H2 3871   4.121   3.099   2.224
 1289TIP3   OH2 3872   0.963   5.656   2.802
 1289TIP3    H1 3873   0.918   5.621   2.725
 1289TIP3    H2 3874   1.021   5.724   2.767
 1290TIP3   OH2 3875   1.621   1.728   1.413
 1290TIP3    H1 3876   1.614   1.731   1.509
 1290TIP3    H2 3877   1.554   1.789   1.382
 1291TIP3   OH2 3878   4.426   0.786   4.341
 1291TIP3    H1 3879   4.388   0.736   4.268
 1291TIP3    H2 3880   4.360   0.780   4.410
 1292TIP3   OH2 3881   1.265   5.375   2.994
 1292TIP3    H1 3882   1.232   5.286   2.983
 1292TIP3    H2 3883   1.323   5.370   3.070
 1293TIP3   OH2 3884   5.960   2.416   3.554
 1293TIP3    H1 3885   6.035   2.472   3.534
 1293TIP3    H2 3886   5.884   2.465   3.522
 1294TIP3   OH2 3887   6.111   0.124   4.769
 1294TIP3    H1 3888   6.111   0.218   4.756
 1294TIP3    H2 3889   6.039   0.092   4.715
 1295TIP3   OH2 3890   4.659   3.185   0.493
 1295TIP3    H1 3891   4.700   3.147   0.570
 1295TIP3    H2 3892   4.604   3.256   0.527
 1296TIP3   OH2 3893   0.097   3.185   0.986
 1296TIP3    H1 3894   0.111   3.092   0.968
 1296TIP3    H2 3895   0.087   3.189   1.081
 1297TIP3   OH2 3896   2.341   2.412   1.243
 1297TIP3    H1 3897   2.310   2.499   1.270
 1297TIP3    H2 3898   2.283   2.351   1.288
 1298TIP3   OH2 3899   4.994   0.153   0.036
 1298TIP3    H1 3900   4.931   0.086   0.062
 1298TIP3    H2 3901   5.079   0.115   0.055
 1299TIP3   OH2 3902   5.035   1.515   1.040
 1299TIP3    H1 3903   4.960   1.528   0.982
 1299TIP3    H2 3904   5.096   1.584   1.016
 1300TIP3   OH2 3905   4.263   1.945   2.892
 1300TIP3    H1 3906   4.216   1.967   2.972
 1300TIP3    H2 3907   4.344   1.996   2.897
 1301TIP3   OH2 3908   0.601   1.982   1.626
 1301TIP3    H1 3909   0.630   2.010   1.539
 1301TIP3    H2 3910   0.554   1.900   1.610
 1302TIP3   OH2 3911   3.957   3.034   3.977
 1302TIP3    H1 3912   3.906   2.957   3.954
 1302TIP3    H2 3913   3.965   3.083   3.896
 1303TIP3   OH2 3914   1.718   4.572   3.037
 1303TIP3    H1 3915   1.743   4.575   3.129
 1303TIP3    H2 3916   1.674   4.487   3.027
 1304TIP3   OH2 3917   1.953   5.980   4.331
 1304TIP3    H1 3918   1.895   5.904   4.329
 1304TIP3    H2 3919   2.037   5.946   4.298
 1305TIP3   OH2 3920   0.738   1.647   3.536
 1305TIP3    H1 3921   0.812   1.703   3.557
 1305TIP3    H2 3922   0.770   1.589   3.466
 1306TIP3   OH2 3923   5.205   2.256   0.469
 1306TIP3    H1 3924   5.220   2.338   0.420
 1306TIP3    H2 3925   5.128   2.274   0.522
 1307TIP3   OH2 3926   6.089   3.321   0.860
 1307TIP3    H1 3927   6.156   3.379   0.825
 1307TIP3    H2 3928   6.012   3.377   0.872
 1308TIP3   OH2 3929   5.778   0.636   0.222
 1308TIP3    H1 3930   5.820   0.692   0.157
 1308TIP3    H2 3931   5.837   0.638   0.297
 1309TIP3   OH2 3932   3.404   2.874   0.231
 1309TIP3    H1 3933   3.443   2.790   0.257
 1309TIP3    H2 3934   3.317   2.874   0.272
 1310TIP3   OH2 3935   4.829   0.395   0.113
 1310TIP3    H1 3936   4.855   0.302   0.117
 1310TIP3    H2 3937   4.787   0.404   0.028
 1311TIP3   OH2 3938   0.779   3.645   2.416
 1311TIP3    H1 3939   0.793   3.662   2.509
 1311TIP3    H2 3940   0.696   3.598   2.412
 1312TIP3   OH2 3941   5.030   2.993   4.120
 1312TIP3    H1 3942   4.945   3.006   4.077
 1312TIP3    H2 3943   5.062   2.909   4.085
 1313TIP3   OH2 3944   0.086   4.857   4.723
 1313TIP3    H1 3945   0.137   4.812   4.655
 1313TIP3    H2 3946   0.019   4.905   4.674
 1314TIP3   OH2 3947   4.886   4.406   4.926
 1314TIP3    H1 3948   4.790   4.399   4.925
 1314TIP3    H2 3949   4.908   4.443   4.840
 1315TIP3   OH2 3950   4.748   5.533   2.807
 1315TIP3    H1 3951   4.746   5.591   2.732
 1315TIP3    H2 3952   4.657   5.509   2.823
 1316TIP3   OH2 3953   4.238   4.044   1.657
 1316TIP3    H1 3954   4.152   4.003   1.645
 1316TIP3    H2 3955   4.285   3.985   1.716
 1317TIP3   OH2 3956   6.394   4.741   0.857
 1317TIP3    H1 3957   6.310   4.768   0.820
 1317TIP3    H2 3958   6.392   4.645   0.855
 1318TIP3   OH2 3959   5.300   5.913   2.432
 1318TIP3    H1 3960   5.309   5.896   2.338
 1318TIP3    H2 3961   5.352   5.844   2.474
 1319TIP3   OH2 3962   0.121   3.972   4.861
 1319TIP3    H1 3963   0.039   3.963   4.908
 1319TIP3    H2 3964   0.127   3.893   4.807
 1320TIP3   OH2 3965   0.212   3.084   1.532
 1320TIP3    H1 3966   0.207   2.995   1.496
 1320TIP3    H2 3967   0.301   3.112   1.514
 1321TIP3   OH2 3968   0.680   2.906   0.705
 1321TIP3    H1 3969   0.657   2.825   0.749
 1321TIP3    H2 3970   0.680   2.884   0.612
 1322TIP3   OH2 3971   6.058   4.239   1.963
 1322TIP3    H1 3972   6.083   4.308   1.901
 1322TIP3    H2 3973   6.139   4.192   1.980
 1323TIP3   OH2 3974   0.633   2.861   5.074
 1323TIP3    H1 3975   0.696   2.810   5.124
 1323TIP3    H2 3976   0.684   2.899   5.003
 1324TIP3   OH2 3977   5.787   2.002   5.011
 1324TIP3    H1 3978   5.796   2.097   5.000
 1324TIP3    H2 3979   5.694   1.988   5.030
 1325TIP3   OH2 3980   4.375   0.696   1.452
 1325TIP3    H1 3981   4.438   0.631   1.420
 1325TIP3    H2 3982   4.384   0.694   1.547
 1326TIP3   OH2 3983   5.379   2.378   4.406
 1326TIP3    H1 3984   5.375   2.317   4.480
 1326TIP3    H2 3985   5.464   2.361   4.366
 1327TIP3   OH2 3986   2.461   3.175   0.399
 1327TIP3    H1 3987   2.534   3.184   0.338
 1327TIP3    H2 3988   2.429   3.264   0.410
 1328TIP3   OH2 3989   1.673   3.623   0.318
 1328TIP3    H1 3990   1.626   3.660   0.243
 1328TIP3    H2 3991   1.636   3.535   0.328
 1329TIP3   OH2 3992   0.030   2.495   4.052
 1329TIP3    H1 3993  -0.063   2.475   4.041
 1329TIP3    H2 3994   0.069   2.413   4.083
 1330TIP3   OH2 3995   3.195   1.880   4.479
 1330TIP3    H1 3996   3.205   1.814   4.410
 1330TIP3    H2 3997   3.140   1.837   4.545
 1331TIP3   OH2 3998   3.535   5.648   0.007
 1331TIP3    H1 3999   3.449   5.615   0.031
 1331TIP3    H2 4000   3.561   5.703   0.080
 1332TIP3   OH2 4001   6.056   3.500   0.387
 1332TIP3    H1 4002   6.130   3.522   0.330
 1332TIP3    H2 4003   6.082   3.418   0.429
 1333TIP3   OH2 4004   0.533   1.970   3.597
 1333TIP3    H1 4005   0.472   1.902   3.627
 1333TIP3    H2 4006   0.610   1.958   3.651
 1334TIP3   OH2 4007   5.830   5.229   1.797
 1334TIP3    H1 4008   5.822   5.236   1.892
 1334TIP3    H2 4009   5.744   5.253   1.764
 1335TIP3   OH2 4010   3.404   3.144   0.122
 1335TIP3    H1 4011   3.364   3.060   0.146
 1335TIP3    H2 4012   3.391   3.151   0.028
 1336TIP3   OH2 4013   2.247   0.588   0.605
 1336TIP3    H1 4014   2.261   0.664   0.549
 1336TIP3    H2 4015   2.286   0.612   0.689
 1337TIP3   OH2 4016   5.128   3.074   4.948
 1337TIP3    H1 4017   5.101   3.005   5.009
 1337TIP3    H2 4018   5.153   3.147   5.004
 1338TIP3   OH2 4019   5.668   3.326   2.993
 1338TIP3    H1 4020   5.577   3.296   2.999
 1338TIP3    H2 4021   5.696   3.298   2.906
 1339TIP3   OH2 4022   0.393   0.202   3.571
 1339TIP3    H1 4023   0.423   0.259   3.500
 1339TIP3    H2 4024   0.318   0.248   3.609
 1340TIP3   OH2 4025   4.771   5.461   2.476
 1340TIP3    H1 4026   4.737   5.381   2.517
 1340TIP3    H2 4027   4.863   5.464   2.503
 1341TIP3   OH2 4028   1.529   1.078   3.475
 1341TIP3    H1 4029   1.469   1.095   3.547
 1341TIP3    H2 4030   1.517   0.985   3.455
 1342TIP3   OH2 4031   1.053   3.263   2.866
 1342TIP3    H1 4032   1.047   3.334   2.802
 1342TIP3    H2 4033   1.108   3.197   2.824
 1343TIP3   OH2 4034   4.765   1.777   1.980
 1343TIP3    H1 4035   4.807   1.744   2.060
 1343TIP3    H2 4036   4.680   1.734   1.979
 1344TIP3   OH2 4037   1.961   2.324   1.557
 1344TIP3    H1 4038   1.917   2.387   1.500
 1344TIP3    H2 4039   1.891   2.284   1.607
 1345TIP3   OH2 4040   5.662   1.005   2.198
 1345TIP3    H1 4041   5.567   0.990   2.192
 1345TIP3    H2 4042   5.699   0.948   2.131
 1346TIP3   OH2 4043   2.597   0.055   0.705
 1346TIP3    H1 4044   2.585   0.105   0.624
 1346TIP3    H2 4045   2.537  -0.019   0.696
 1347TIP3   OH2 4046   3.816   0.936   3.615
 1347TIP3    H1 4047   3.799   1.021   3.656
 1347TIP3    H2 4048   3.870   0.889   3.679
 1348TIP3   OH2 4049   0.080   2.192   1.582
 1348TIP3    H1 4050   0.140   2.132   1.626
 1348TIP3    H2 4051   0.118   2.204   1.494
 1349TIP3   OH2 4052   5.989   5.834   1.201
 1349TIP3    H1 4053   6.053   5.874   1.260
 1349TIP3    H2 4054   5.913   5.893   1.205
 1350TIP3   OH2 4055   3.642   4.420   2.896
 1350TIP3    H1 4056   3.560   4.376   2.872
 1350TIP3    H2 4057   3.710   4.361   2.867
 1351TIP3   OH2 4058   1.253   1.713   0.603
 1351TIP3    H1 4059   1.290   1.671   0.525
 1351TIP3    H2 4060   1.238   1.641   0.664
 1352TIP3   OH2 4061   1.934   0.031   1.069
 1352TIP3    H1 4062   1.949   0.036   0.974
 1352TIP3    H2 4063   1.853  -0.019   1.078
 1353TIP3   OH2 4064   1.028   3.939   5.180
 1353TIP3    H1 4065   1.019   4.005   5.249
 1353TIP3    H2 4066   1.104   3.968   5.129
 1354TIP3   OH2 4067   4.336   4.962   4.808
 1354TIP3    H1 4068   4.268   5.025   4.832
 1354TIP3    H2 4069   4.358   4.984   4.718
 1355TIP3   OH2 4070   5.519   4.442   2.772
 1355TIP3    H1 4071   5.538   4.434   2.866
 1355TIP3    H2 4072   5.450   4.376   2.757
 1356TIP3   OH2 4073   5.931   2.929   2.624
 1356TIP3    H1 4074   6.015   2.900   2.660
 1356TIP3    H2 4075   5.936   2.905   2.532
 1357TIP3   OH2 4076   4.792   2.490   0.108
 1357TIP3    H1 4077   4.726   2.436   0.064
 1357TIP3    H2 4078   4.768   2.580   0.083
 1358TIP3   OH2 4079   0.116   2.764   3.337
 1358TIP3    H1 4080   0.065   2.734   3.262
 1358TIP3    H2 4081   0.152   2.684   3.376
 1359TIP3   OH2 4082   0.215   1.577   4.495
 1359TIP3    H1 4083   0.138   1.625   4.526
 1359TIP3    H2 4084   0.271   1.567   4.572
 1360TIP3   OH2 4085   1.224   0.452   4.756
 1360TIP3    H1 4086   1.165   0.514   4.713
 1360TIP3    H2 4087   1.292   0.507   4.795
 1361TIP3   OH2 4088   4.927   0.260   1.126
 1361TIP3    H1 4089   4.938   0.353   1.146
 1361TIP3    H2 4090   5.001   0.238   1.069
 1362TIP3   OH2 4091   3.787   2.071   3.675
 1362TIP3    H1 4092   3.739   2.124   3.611
 1362TIP3    H2 4093   3.754   2.100   3.760
 1363TIP3   OH2 4094   0.681   1.619   0.584
 1363TIP3    H1 4095   0.612   1.660   0.531
 1363TIP3    H2 4096   0.647   1.622   0.673
 1364TIP3   OH2 4097   2.495   0.305   0.007
 1364TIP3    H1 4098   2.488   0.293   0.101
 1364TIP3    H2 4099   2.454   0.390  -0.009
 1365TIP3   OH2 4100   1.458   5.837   4.706
 1365TIP3    H1 4101   1.460   5.806   4.615
 1365TIP3    H2 4102   1.368   5.868   4.718
 1366TIP3   OH2 4103   5.075   4.255   2.378
 1366TIP3    H1 4104   5.050   4.249   2.471
 1366TIP3    H2 4105   5.114   4.341   2.370
 1367TIP3   OH2 4106   3.956   2.667   0.598
 1367TIP3    H1 4107   3.962   2.572   0.582
 1367TIP3    H2 4108   4.013   2.705   0.531
 1368TIP3   OH2 4109   4.917   3.306   2.311
 1368TIP3    H1 4110   4.920   3.222   2.267
 1368TIP3    H2 4111   5.002   3.346   2.295
 1369TIP3   OH2 4112   1.385   3.462   2.999
 1369TIP3    H1 4113   1.448   3.534   2.997
 1369TIP3    H2 4114   1.417   3.399   2.935
 1370TIP3   OH2 4115   5.267   3.799   1.025
 1370TIP3    H1 4116   5.280   3.876   0.970
 1370TIP3    H2 4117   5.243   3.834   1.110
 1371TIP3   OH2 4118   5.804   4.994   4.428
 1371TIP3    H1 4119   5.722   5.007   4.476
 1371TIP3    H2 4120   5.872   5.023   4.489
 1372TIP3   OH2 4121   1.062   2.037   4.347
 1372TIP3    H1 4122   1.157   2.043   4.358
 1372TIP3    H2 4123   1.050   2.034   4.252
 1373TIP3   OH2 4124   2.843   5.284   2.435
 1373TIP3    H1 4125   2.766   5.317   2.390
 1373TIP3    H2 4126   2.903   5.258   2.365
 1374TIP3   OH2 4127   3.960   3.752   4.336
 1374TIP3    H1 4128   4.047   3.789   4.327
 1374TIP3    H2 4129   3.948   3.700   4.256
 1375TIP3   OH2 4130   1.530   4.291   2.677
 1375TIP3    H1 4131   1.623   4.275   2.694
 1375TIP3    H2 4132   1.530   4.352   2.603
 1376TIP3   OH2 4133   4.192   5.633   1.785
 1376TIP3    H1 4134   4.185   5.588   1.869
 1376TIP3    H2 4135   4.284   5.622   1.759
 1377TIP3   OH2 4136   4.707   3.762   3.604
 1377TIP3    H1 4137   4.725   3.782   3.512
 1377TIP3    H2 4138   4.627   3.809   3.623
 1378TIP3   OH2 4139   4.999   3.423   4.732
 1378TIP3    H1 4140   5.027   3.331   4.732
 1378TIP3    H2 4141   4.939   3.430   4.658
 1379TIP3   OH2 4142   5.657   1.556   2.065
 1379TIP3    H1 4143   5.697   1.642   2.078
 1379TIP3    H2 4144   5.599   1.568   1.989
 1380TIP3   OH2 4145   3.250   4.775   1.369
 1380TIP3    H1 4146   3.245   4.857   1.417
 1380TIP3    H2 4147   3.179   4.780   1.305
 1381TIP3   OH2 4148   1.020   4.299   0.920
 1381TIP3    H1 4149   1.055   4.271   0.836
 1381TIP3    H2 4150   1.028   4.395   0.919
 1382TIP3   OH2 4151   2.512   1.924   4.201
 1382TIP3    H1 4152   2.545   1.848   4.248
 1382TIP3    H2 4153   2.575   1.938   4.130
 1383TIP3   OH2 4154   0.066   3.980   1.368
 1383TIP3    H1 4155  -0.017   3.944   1.336
 1383TIP3    H2 4156   0.042   4.033   1.444
 1384TIP3   OH2 4157   1.691   5.826   2.234
 1384TIP3    H1 4158   1.670   5.916   2.258
 1384TIP3    H2 4159   1.633   5.807   2.160
 1385TIP3   OH2 4160   5.860   5.089   0.854
 1385TIP3    H1 4161   5.804   5.097   0.777
 1385TIP3    H2 4162   5.947   5.072   0.819
 1386TIP3   OH2 4163   1.158   4.244   1.534
 1386TIP3    H1 4164   1.147   4.302   1.609
 1386TIP3    H2 4165   1.071   4.204   1.522
 1387TIP3   OH2 4166   1.024   4.495   0.322
 1387TIP3    H1 4167   1.090   4.546   0.276
 1387TIP3    H2 4168   1.062   4.408   0.330
 1388TIP3   OH2 4169   5.491   4.284   3.744
 1388TIP3    H1 4170   5.571   4.294   3.693
 1388TIP3    H2 4171   5.448   4.370   3.738
 1389TIP3   OH2 4172   0.594   4.735   4.102
 1389TIP3    H1 4173   0.660   4.764   4.165
 1389TIP3    H2 4174   0.615   4.643   4.086
 1390TIP3   OH2 4175   2.066   2.395   4.584
 1390TIP3    H1 4176   2.028   2.481   4.566
 1390TIP3    H2 4177   2.159   2.411   4.598
 1391TIP3   OH2 4178   2.506   2.720   3.280
 1391TIP3    H1 4179   2.562   2.780   3.329
 1391TIP3    H2 4180   2.537   2.726   3.190
 1392TIP3   OH2 4181   4.770   5.275   4.542
 1392TIP3    H1 4182   4.720   5.356   4.543
 1392TIP3    H2 4183   4.710   5.210   4.578
 1393TIP3   OH2 4184   1.217   2.571   1.633
 1393TIP3    H1 4185   1.266   2.530   1.704
 1393TIP3    H2 4186   1.125   2.558   1.657
 1394TIP3   OH2 4187   2.728   5.045   3.326
 1394TIP3    H1 4188   2.705   5.126   3.280
 1394TIP3    H2 4189   2.760   5.075   3.411
 1395TIP3   OH2 4190   4.867   3.321   2.847
 1395TIP3    H1 4191   4.873   3.334   2.752
 1395TIP3    H2 4192   4.956   3.302   2.874
 1396TIP3   OH2 4193   0.885   5.948   3.924
 1396TIP3    H1 4194   0.901   6.016   3.858
 1396TIP3    H2 4195   0.792   5.928   3.916
 1397TIP3   OH2 4196   0.283   4.606   3.170
 1397TIP3    H1 4197   0.295   4.682   3.227
 1397TIP3    H2 4198   0.255   4.642   3.086
 1398TIP3   OH2 4199   3.960   4.723   2.351
 1398TIP3    H1 4200   4.027   4.675   2.303
 1398TIP3    H2 4201   4.008   4.777   2.414
 1399TIP3   OH2 4202   5.956   1.183   1.264
 1399TIP3    H1 4203   5.886   1.247   1.248
 1399TIP3    H2 4204   6.021   1.201   1.196
 1400TIP3   OH2 4205   5.892   2.814   3.569
 1400TIP3    H1 4206   5.951   2.870   3.619
 1400TIP3    H2 4207   5.948   2.771   3.504
 1401TIP3   OH2 4208   5.638   0.141   2.117
 1401TIP3    H1 4209   5.666   0.062   2.070
 1401TIP3    H2 4210   5.545   0.126   2.134
 1402TIP3   OH2 4211   5.387   3.637   1.644
 1402TIP3    H1 4212   5.420   3.726   1.657
 1402TIP3    H2 4213   5.406   3.592   1.727
 1403TIP3   OH2 4214   1.220   5.556   2.699
 1403TIP3    H1 4215   1.152   5.489   2.706
 1403TIP3    H2 4216   1.298   5.508   2.671
 1404TIP3   OH2 4217   0.840   2.477   0.239
 1404TIP3    H1 4218   0.752   2.455   0.269
 1404TIP3    H2 4219   0.827   2.520   0.154
 1405TIP3   OH2 4220   2.012   0.644   2.148
 1405TIP3    H1 4221   1.964   0.700   2.088
 1405TIP3    H2 4222   2.102   0.644   2.113
 1406TIP3   OH2 4223   1.133   3.867   2.475
 1406TIP3    H1 4224   1.092   3.928   2.415
 1406TIP3    H2 4225   1.184   3.808   2.419
 1407TIP3   OH2 4226   1.969   5.935   1.012
 1407TIP3    H1 4227   1.876   5.914   1.012
 1407TIP3    H2 4228   1.987   5.965   0.923
 1408TIP3   OH2 4229   5.772   2.628   1.290
 1408TIP3    H1 4230   5.744   2.565   1.357
 1408TIP3    H2 4231   5.813   2.699   1.341
 1409TIP3   OH2 4232   0.301   4.732   2.724
 1409TIP3    H1 4233   0.313   4.785   2.803
 1409TIP3    H2 4234   0.217   4.688   2.738
 1410TIP3   OH2 4235   5.272   3.104   4.049
 1410TIP3    H1 4236   5.313   3.154   4.119
 1410TIP3    H2 4237   5.197   3.061   4.090
 1411TIP3   OH2 4238   1.986   3.469   1.868
 1411TIP3    H1 4239   1.939   3.537   1.915
 1411TIP3    H2 4240   2.018   3.410   1.936
 1412TIP3   OH2 4241   1.018   1.258   2.113
 1412TIP3    H1 4242   1.056   1.171   2.117
 1412TIP3    H2 4243   1.093   1.317   2.107
 1413TIP3   OH2 4244   1.786   0.568   3.166
 1413TIP3    H1 4245   1.736   0.649   3.156
 1413TIP3    H2 4246   1.742   0.522   3.238
 1414TIP3   OH2 4247   2.086   2.542   1.990
 1414TIP3    H1 4248   2.109   2.499   1.907
 1414TIP3    H2 4249   2.165   2.591   2.013
 1415TIP3   OH2 4250   2.749   0.828   3.413
 1415TIP3    H1 4251   2.736   0.923   3.415
 1415TIP3    H2 4252   2.660   0.792   3.415
 1416TIP3   OH2 4253   0.151   0.975   3.985
 1416TIP3    H1 4254   0.091   0.901   3.977
 1416TIP3    H2 4255   0.229   0.949   3.936
 1417TIP3   OH2 4256   0.430   1.133   0.263
 1417TIP3    H1 4257   0.472   1.058   0.221
 1417TIP3    H2 4258   0.502   1.189   0.291
 1418TIP3   OH2 4259   0.781   4.072   4.134
 1418TIP3    H1 4260   0.768   4.077   4.039
 1418TIP3    H2 4261   0.851   4.007   4.145
 1419TIP3   OH2 4262   0.304   1.584   2.441
 1419TIP3    H1 4263   0.248   1.511   2.469
 1419TIP3    H2 4264   0.339   1.620   2.523
 1420TIP3   OH2 4265   2.391   4.192   4.472
 1420TIP3    H1 4266   2.413   4.102   4.448
 1420TIP3    H2 4267   2.472   4.241   4.457
 1421TIP3   OH2 4268   0.235   1.736   2.704
 1421TIP3    H1 4269   0.188   1.807   2.748
 1421TIP3    H2 4270   0.172   1.665   2.699
 1422TIP3   OH2 4271   2.252   1.204   3.506
 1422TIP3    H1 4272   2.270   1.298   3.513
 1422TIP3    H2 4273   2.335   1.162   3.527
 1423TIP3   OH2 4274   1.086   2.777   1.368
 1423TIP3    H1 4275   0.992   2.793   1.362
 1423TIP3    H2 4276   1.096   2.727   1.449
 1424TIP3   OH2 4277   4.586   3.340   2.644
 1424TIP3    H1 4278   4.649   3.360   2.713
 1424TIP3    H2 4279   4.615   3.392   2.569
 1425TIP3   OH2 4280   5.533   4.032   0.913
 1425TIP3    H1 4281   5.579   4.107   0.877
 1425TIP3    H2 4282   5.602   3.977   0.949
 1426TIP3   OH2 4283   4.463   0.105   1.499
 1426TIP3    H1 4284   4.396   0.139   1.558
 1426TIP3    H2 4285   4.416   0.083   1.418
 1427TIP3   OH2 4286   3.411   2.916   0.983
 1427TIP3    H1 4287   3.315   2.911   0.984
 1427TIP3    H2 4288   3.431   2.989   0.924
 1428TIP3   OH2 4289   0.416   1.266   4.829
 1428TIP3    H1 4290   0.409   1.287   4.736
 1428TIP3    H2 4291   0.506   1.290   4.852
 1429TIP3   OH2 4292   3.069   3.195   2.713
 1429TIP3    H1 4293   3.097   3.132   2.646
 1429TIP3    H2 4294   3.149   3.217   2.760
 1430TIP3   OH2 4295   4.516   0.591   2.309
 1430TIP3    H1 4296   4.423   0.569   2.313
 1430TIP3    H2 4297   4.534   0.635   2.392
 1431TIP3   OH2 4298   3.102   2.328   1.477
 1431TIP3    H1 4299   3.106   2.302   1.385
 1431TIP3    H2 4300   3.186   2.301   1.513
 1432TIP3   OH2 4301   1.723   4.952   2.582
 1432TIP3    H1 4302   1.641   4.986   2.619
 1432TIP3    H2 4303   1.789   4.973   2.647
 1433TIP3   OH2 4304   2.219   4.587   3.022
 1433TIP3    H1 4305   2.199   4.517   2.960
 1433TIP3    H2 4306   2.312   4.575   3.043
 1434TIP3   OH2 4307   5.562   5.661   4.570
 1434TIP3    H1 4308   5.566   5.616   4.486
 1434TIP3    H2 4309   5.594   5.597   4.634
 1435TIP3   OH2 4310   4.168   1.798   3.732
 1435TIP3    H1 4311   4.081   1.794   3.772
 1435TIP3    H2 4312   4.174   1.719   3.679
 1436TIP3   OH2 4313   1.218   1.636   4.927
 1436TIP3    H1 4314   1.133   1.636   4.884
 1436TIP3    H2 4315   1.219   1.717   4.978
 1437TIP3   OH2 4316   3.399   2.849   4.256
 1437TIP3    H1 4317   3.372   2.925   4.204
 1437TIP3    H2 4318   3.327   2.787   4.247
 1438TIP3   OH2 4319   2.974   0.030   2.375
 1438TIP3    H1 4320   2.911   0.011   2.444
 1438TIP3    H2 4321   3.027  -0.049   2.367
 1439TIP3   OH2 4322   2.551   2.812   2.193
 1439TIP3    H1 4323   2.600   2.764   2.127
 1439TIP3    H2 4324   2.535   2.748   2.263
 1440TIP3   OH2 4325   4.381   3.088   4.735
 1440TIP3    H1 4326   4.472   3.100   4.761
 1440TIP3    H2 4327   4.386   3.042   4.651
 1441TIP3   OH2 4328   1.582   1.356   0.484
 1441TIP3    H1 4329   1.655   1.328   0.539
 1441TIP3    H2 4330   1.508   1.363   0.544
 1442TIP3   OH2 4331   5.260   1.920   2.733
 1442TIP3    H1 4332   5.344   1.883   2.708
 1442TIP3    H2 4333   5.241   1.985   2.665
 1443TIP3   OH2 4334   3.618   4.958   0.923
 1443TIP3    H1 4335   3.588   5.019   0.857
 1443TIP3    H2 4336   3.543   4.947   0.982
 1444TIP3   OH2 4337   0.995   2.238   3.999
 1444TIP3    H1 4338   1.073   2.275   3.957
 1444TIP3    H2 4339   1.016   2.145   4.011
 1445TIP3   OH2 4340   0.425   2.431   4.082
 1445TIP3    H1 4341   0.372   2.450   4.004
 1445TIP3    H2 4342   0.372   2.461   4.155
 1446TIP3   OH2 4343   1.801   4.921   2.331
 1446TIP3    H1 4344   1.887   4.960   2.316
 1446TIP3    H2 4345   1.787   4.926   2.425
 1447TIP3   OH2 4346   2.352   2.705   0.469
 1447TIP3    H1 4347   2.332   2.757   0.391
 1447TIP3    H2 4348   2.371   2.618   0.435
 1448TIP3   OH2 4349   6.265   0.973   1.903
 1448TIP3    H1 4350   6.249   1.042   1.840
 1448TIP3    H2 4351   6.311   0.905   1.854
 1449TIP3   OH2 4352   5.390   3.517   3.144
 1449TIP3    H1 4353   5.357   3.429   3.124
 1449TIP3    H2 4354   5.479   3.504   3.176
 1450TIP3   OH2 4355   0.153   0.631   3.540
 1450TIP3    H1 4356   0.066   0.607   3.509
 1450TIP3    H2 4357   0.212   0.574   3.491
 1451TIP3   OH2 4358   0.406   0.985   1.580
 1451TIP3    H1 4359   0.423   1.053   1.645
 1451TIP3    H2 4360   0.491   0.967   1.541
 1452TIP3   OH2 4361   2.241   1.293   4.560
 1452TIP3    H1 4362   2.279   1.380   4.546
 1452TIP3    H2 4363   2.302   1.234   4.516
 1453TIP3   OH2 4364   2.623   1.927   1.299
 1453TIP3    H1 4365   2.682   1.852   1.293
 1453TIP3    H2 4366   2.679   1.999   1.328
 1454TIP3   OH2 4367   1.080   0.618   2.139
 1454TIP3    H1 4368   1.065   0.700   2.092
 1454TIP3    H2 4369   0.994   0.579   2.148
 1455TIP3   OH2 4370   3.230   3.055   3.636
 1455TIP3    H1 4371   3.151   3.002   3.634
 1455TIP3    H2 4372   3.203   3.135   3.682
 1456TIP3   OH2 4373   0.179   0.953   0.314
 1456TIP3    H1 4374   0.091   0.979   0.288
 1456TIP3    H2 4375   0.224   1.036   0.330
 1457TIP3   OH2 4376   0.529   4.827   4.377
 1457TIP3    H1 4377   0.442   4.867   4.380
 1457TIP3    H2 4378   0.574   4.873   4.307
 1458TIP3   OH2 4379   0.683   5.266   5.131
 1458TIP3    H1 4380   0.768   5.274   5.086
 1458TIP3    H2 4381   0.677   5.346   5.184
 1459TIP3   OH2 4382   1.390   2.078   1.854
 1459TIP3    H1 4383   1.453   2.137   1.897
 1459TIP3    H2 4384   1.441   2.035   1.785
 1460TIP3   OH2 4385   1.780   2.189   0.200
 1460TIP3    H1 4386   1.792   2.099   0.170
 1460TIP3    H2 4387   1.781   2.241   0.119
 1461TIP3   OH2 4388   3.452   1.907   3.807
 1461TIP3    H1 4389   3.382   1.874   3.863
 1461TIP3    H2 4390   3.502   1.966   3.863
 1462TIP3   OH2 4391   2.032   3.989   1.412
 1462TIP3    H1 4392   1.959   3.927   1.409
 1462TIP3    H2 4393   2.013   4.052   1.342
 1463TIP3   OH2 4394   4.896   4.533   1.456
 1463TIP3    H1 4395   4.887   4.518   1.550
 1463TIP3    H2 4396   4.806   4.547   1.426
 1464TIP3   OH2 4397   6.237   0.189   0.855
 1464TIP3    H1 4398   6.275   0.276   0.842
 1464TIP3    H2 4399   6.312   0.129   0.851
 1465TIP3   OH2 4400   4.433   4.570   4.145
 1465TIP3    H1 4401   4.490   4.523   4.206
 1465TIP3    H2 4402   4.361   4.601   4.199
 1466TIP3   OH2 4403   0.603   0.247   0.064
 1466TIP3    H1 4404   0.624   0.327   0.112
 1466TIP3    H2 4405   0.553   0.194   0.127
 1467TIP3   OH2 4406   5.074   0.510   3.550
 1467TIP3    H1 4407   5.148   0.463   3.512
 1467TIP3    H2 4408   5.113   0.587   3.591
 1468TIP3   OH2 4409   0.570   4.166   3.295
 1468TIP3    H1 4410   0.553   4.079   3.330
 1468TIP3    H2 4411   0.647   4.197   3.343
 1469TIP3   OH2 4412   5.173   2.577   4.755
 1469TIP3    H1 4413   5.217   2.562   4.672
 1469TIP3    H2 4414   5.202   2.663   4.783
 1470TIP3   OH2 4415   2.244   5.102   1.076
 1470TIP3    H1 4416   2.339   5.097   1.083
 1470TIP3    H2 4417   2.218   5.021   1.033
 1471TIP3   OH2 4418   6.102   0.360   4.567
 1471TIP3    H1 4419   6.039   0.393   4.630
 1471TIP3    H2 4420   6.169   0.429   4.562
 1472TIP3   OH2 4421   3.352   4.090   1.519
 1472TIP3    H1 4422   3.438   4.091   1.477
 1472TIP3    H2 4423   3.297   4.144   1.463
 1473TIP3   OH2 4424   4.401   1.143   1.704
 1473TIP3    H1 4425   4.428   1.201   1.633
 1473TIP3    H2 4426   4.463   1.070   1.702
 1474TIP3   OH2 4427   1.132   1.054   1.309
 1474TIP3    H1 4428   1.141   1.149   1.318
 1474TIP3    H2 4429   1.065   1.031   1.373
 1475TIP3   OH2 4430   4.761   0.479   4.393
 1475TIP3    H1 4431   4.835   0.509   4.447
 1475TIP3    H2 4432   4.783   0.509   4.305
 1476TIP3   OH2 4433   2.108   3.788   2.000
 1476TIP3    H1 4434   2.171   3.728   2.039
 1476TIP3    H2 4435   2.044   3.805   2.069
 1477TIP3   OH2 4436   2.836   5.184   0.292
 1477TIP3    H1 4437   2.805   5.099   0.260
 1477TIP3    H2 4438   2.921   5.166   0.331
 1478TIP3   OH2 4439   3.374   2.760   5.169
 1478TIP3    H1 4440   3.426   2.833   5.136
 1478TIP3    H2 4441   3.437   2.692   5.191
 1479TIP3   OH2 4442   4.317   0.214   4.013
 1479TIP3    H1 4443   4.254   0.273   3.972
 1479TIP3    H2 4444   4.293   0.212   4.105
 1480TIP3   OH2 4445   2.654   3.340   3.563
 1480TIP3    H1 4446   2.672   3.310   3.652
 1480TIP3    H2 4447   2.577   3.397   3.571
 1481TIP3   OH2 4448   4.483   0.527   3.112
 1481TIP3    H1 4449   4.485   0.617   3.145
 1481TIP3    H2 4450   4.434   0.534   3.030
 1482TIP3   OH2 4451   1.506   2.649   4.245
 1482TIP3    H1 4452   1.583   2.618   4.293
 1482TIP3    H2 4453   1.445   2.675   4.314
 1483TIP3   OH2 4454   5.782   4.471   0.431
 1483TIP3    H1 4455   5.875   4.491   0.422
 1483TIP3    H2 4456   5.750   4.532   0.498
 1484TIP3   OH2 4457   0.925   4.624   0.086
 1484TIP3    H1 4458   0.917   4.587   0.174
 1484TIP3    H2 4459   0.863   4.574   0.033
 1485TIP3   OH2 4460   1.378   1.041   1.205
 1485TIP3    H1 4461   1.417   1.009   1.287
 1485TIP3    H2 4462   1.284   1.038   1.222
 1486TIP3   OH2 4463   1.847   0.425   0.610
 1486TIP3    H1 4464   1.926   0.398   0.563
 1486TIP3    H2 4465   1.872   0.425   0.702
 1487TIP3   OH2 4466   3.890   1.792   0.871
 1487TIP3    H1 4467   3.917   1.837   0.951
 1487TIP3    H2 4468   3.863   1.705   0.900
 1488TIP3   OH2 4469   5.439   4.270   4.067
 1488TIP3    H1 4470   5.528   4.261   4.100
 1488TIP3    H2 4471   5.448   4.322   3.987
 1489TIP3   OH2 4472   3.521   0.970   2.749
 1489TIP3    H1 4473   3.553   0.959   2.839
 1489TIP3    H2 4474   3.528   1.063   2.732
 1490TIP3   OH2 4475   2.664   2.246   2.191
 1490TIP3    H1 4476   2.630   2.257   2.102
 1490TIP3    H2 4477   2.681   2.152   2.199
 1491TIP3   OH2 4478   5.326   1.758   0.102
 1491TIP3    H1 4479   5.242   1.793   0.072
 1491TIP3    H2 4480   5.315   1.663   0.097
 1492TIP3   OH2 4481   3.110   3.528   2.456
 1492TIP3    H1 4482   3.105   3.438   2.423
 1492TIP3    H2 4483   3.160   3.521   2.538
 1493TIP3   OH2 4484   2.837   4.403   3.324
 1493TIP3    H1 4485   2.916   4.435   3.367
 1493TIP3    H2 4486   2.845   4.307   3.326
 1494TIP3   OH2 4487   5.271   1.229   2.317
 1494TIP3    H1 4488   5.312   1.144   2.334
 1494TIP3    H2 4489   5.338   1.279   2.269
 1495TIP3   OH2 4490   2.593   0.068   1.855
 1495TIP3    H1 4491   2.651   0.066   1.932
 1495TIP3    H2 4492   2.506   0.083   1.891
 1496TIP3   OH2 4493   2.730   2.773   1.786
 1496TIP3    H1 4494   2.790   2.844   1.805
 1496TIP3    H2 4495   2.678   2.763   1.866
 1497TIP3   OH2 4496   3.265   0.862   0.429
 1497TIP3    H1 4497   3.332   0.920   0.392
 1497TIP3    H2 4498   3.315   0.794   0.475
 1498TIP3   OH2 4499   0.832   2.526   4.560
 1498TIP3    H1 4500   0.908   2.561   4.514
 1498TIP3    H2 4501   0.787   2.472   4.494
 1499TIP3   OH2 4502   2.836   0.388   2.442
 1499TIP3    H1 4503   2.824   0.479   2.415
 1499TIP3    H2 4504   2.884   0.393   2.524
 1500TIP3   OH2 4505   5.079   4.973   1.649
 1500TIP3    H1 4506   5.174   4.967   1.659
 1500TIP3    H2 4507   5.049   5.017   1.728
 1501TIP3   OH2 4508   5.418   1.120   0.369
 1501TIP3    H1 4509   5.418   1.127   0.464
 1501TIP3    H2 4510   5.396   1.028   0.352
 1502TIP3   OH2 4511   1.549   2.179   1.088
 1502TIP3    H1 4512   1.632   2.220   1.113
 1502TIP3    H2 4513   1.482   2.231   1.133
 1503TIP3   OH2 4514   3.854   2.837   5.036
 1503TIP3    H1 4515   3.759   2.847   5.032
 1503TIP3    H2 4516   3.887   2.927   5.040
 1504TIP3   OH2 4517   2.572   0.849   3.084
 1504TIP3    H1 4518   2.534   0.846   2.996
 1504TIP3    H2 4519   2.560   0.761   3.119
 1505TIP3   OH2 4520   3.838   0.829   4.693
 1505TIP3    H1 4521   3.810   0.746   4.730
 1505TIP3    H2 4522   3.928   0.840   4.723
 1506TIP3   OH2 4523   3.913   3.911   3.903
 1506TIP3    H1 4524   3.908   3.841   3.837
 1506TIP3    H2 4525   3.867   3.875   3.978
 1507TIP3   OH2 4526  -0.021   4.922   2.729
 1507TIP3    H1 4527   0.050   4.895   2.788
 1507TIP3    H2 4528   0.021   4.983   2.669
 1508TIP3   OH2 4529   1.518   2.695   1.925
 1508TIP3    H1 4530   1.519   2.600   1.934
 1508TIP3    H2 4531   1.531   2.711   1.831
 1509TIP3   OH2 4532   4.746   2.564   4.901
 1509TIP3    H1 4533   4.674   2.541   4.843
 1509TIP3    H2 4534   4.757   2.658   4.888
 1510TIP3   OH2 4535   5.175   3.378   0.527
 1510TIP3    H1 4536   5.117   3.303   0.539
 1510TIP3    H2 4537   5.139   3.446   0.583
 1511TIP3   OH2 4538   3.989   2.391   3.304
 1511TIP3    H1 4539   3.964   2.483   3.298
 1511TIP3    H2 4540   4.059   2.389   3.369
 1512TIP3   OH2 4541   5.979   2.969   0.119
 1512TIP3    H1 4542   5.986   2.893   0.062
 1512TIP3    H2 4543   5.930   3.033   0.068
 1513TIP3   OH2 4544   5.847   5.787   1.963
 1513TIP3    H1 4545   5.863   5.729   1.888
 1513TIP3    H2 4546   5.818   5.869   1.925
 1514TIP3   OH2 4547   3.976   1.037   4.453
 1514TIP3    H1 4548   3.962   1.122   4.497
 1514TIP3    H2 4549   4.021   1.059   4.372
 1515TIP3   OH2 4550   6.047   2.896   0.931
 1515TIP3    H1 4551   6.045   2.855   0.845
 1515TIP3    H2 4552   6.018   2.986   0.915
 1516TIP3   OH2 4553   5.971   4.641   2.363
 1516TIP3    H1 4554   6.014   4.562   2.331
 1516TIP3    H2 4555   6.015   4.713   2.317
 1517TIP3   OH2 4556   0.791   5.791   2.972
 1517TIP3    H1 4557   0.701   5.760   2.961
 1517TIP3    H2 4558   0.839   5.752   2.899
 1518TIP3   OH2 4559   1.211   3.698   2.735
 1518TIP3    H1 4560   1.163   3.780   2.733
 1518TIP3    H2 4561   1.210   3.672   2.828
 1519TIP3   OH2 4562   3.614   4.892   4.421
 1519TIP3    H1 4563   3.592   4.963   4.480
 1519TIP3    H2 4564   3.544   4.828   4.432
 1520TIP3   OH2 4565   3.282   4.107   0.160
 1520TIP3    H1 4566   3.215   4.039   0.168
 1520TIP3    H2 4567   3.324   4.089   0.076
 1521TIP3   OH2 4568   3.489   1.399   5.119
 1521TIP3    H1 4569   3.467   1.307   5.105
 1521TIP3    H2 4570   3.584   1.402   5.111
 1522TIP3   OH2 4571   0.268   3.939   0.402
 1522TIP3    H1 4572   0.205   3.877   0.439
 1522TIP3    H2 4573   0.274   4.009   0.467
 1523TIP3   OH2 4574   5.752   3.918   1.478
 1523TIP3    H1 4575   5.737   3.826   1.503
 1523TIP3    H2 4576   5.671   3.962   1.501
 1524TIP3   OH2 4577   5.788   1.820   0.800
 1524TIP3    H1 4578   5.744   1.852   0.879
 1524TIP3    H2 4579   5.737   1.856   0.728
 1525TIP3   OH2 4580   2.285   5.538   0.368
 1525TIP3    H1 4581   2.246   5.620   0.335
 1525TIP3    H2 4582   2.374   5.540   0.335
 1526TIP3   OH2 4583   1.919   2.408   2.185
 1526TIP3    H1 4584   1.956   2.349   2.251
 1526TIP3    H2 4585   1.995   2.445   2.141
 1527TIP3   OH2 4586   3.423   4.534   5.033
 1527TIP3    H1 4587   3.363   4.578   5.094
 1527TIP3    H2 4588   3.487   4.601   5.011
 1528TIP3   OH2 4589   2.220   5.392   0.602
 1528TIP3    H1 4590   2.293   5.348   0.646
 1528TIP3    H2 4591   2.254   5.411   0.514
 1529TIP3   OH2 4592   0.426   2.025   4.700
 1529TIP3    H1 4593   0.490   1.960   4.671
 1529TIP3    H2 4594   0.393   2.064   4.618
 1530TIP3   OH2 4595   1.096   2.072   1.265
 1530TIP3    H1 4596   1.169   2.133   1.274
 1530TIP3    H2 4597   1.026   2.123   1.225
 1531TIP3   OH2 4598   6.308   3.209   5.238
 1531TIP3    H1 4599   6.312   3.139   5.173
 1531TIP3    H2 4600   6.227   3.256   5.218
 1532TIP3   OH2 4601   1.279   2.648   2.670
 1532TIP3    H1 4602   1.277   2.571   2.613
 1532TIP3    H2 4603   1.350   2.702   2.634
 1533TIP3   OH2 4604   3.405   5.428   3.604
 1533TIP3    H1 4605   3.499   5.440   3.618
 1533TIP3    H2 4606   3.367   5.433   3.691
 1534TIP3   OH2 4607   6.260   0.098   3.818
 1534TIP3    H1 4608   6.353   0.074   3.822
 1534TIP3    H2 4609   6.244   0.143   3.902
 1535TIP3   OH2 4610   5.868   5.894   0.904
 1535TIP3    H1 4611   5.831   5.928   0.986
 1535TIP3    H2 4612   5.861   5.798   0.913
 1536TIP3   OH2 4613   1.205   0.418   3.642
 1536TIP3    H1 4614   1.260   0.404   3.565
 1536TIP3    H2 4615   1.141   0.347   3.639
 1537TIP3   OH2 4616   1.584   1.674   4.973
 1537TIP3    H1 4617   1.557   1.730   5.046
 1537TIP3    H2 4618   1.546   1.715   4.896
 1538TIP3   OH2 4619   1.673   5.115   0.699
 1538TIP3    H1 4620   1.628   5.062   0.765
 1538TIP3    H2 4621   1.754   5.068   0.680
 1539TIP3   OH2 4622   0.933   2.236   0.034
 1539TIP3    H1 4623   0.921   2.331   0.043
 1539TIP3    H2 4624   1.025   2.221   0.055
 1540TIP3   OH2 4625   2.241   5.498   2.277
 1540TIP3    H1 4626   2.223   5.584   2.314
 1540TIP3    H2 4627   2.275   5.447   2.350
 1541TIP3   OH2 4628   2.423   0.904   0.221
 1541TIP3    H1 4629   2.374   0.891   0.140
 1541TIP3    H2 4630   2.511   0.871   0.201
 1542TIP3   OH2 4631   0.614   5.600   2.373
 1542TIP3    H1 4632   0.569   5.682   2.351
 1542TIP3    H2 4633   0.654   5.572   2.290
 1543TIP3   OH2 4634   0.000   3.421   1.725
 1543TIP3    H1 4635  -0.095   3.412   1.720
 1543TIP3    H2 4636   0.021   3.488   1.660
 1544TIP3   OH2 4637   5.375   3.553   4.111
 1544TIP3    H1 4638   5.471   3.560   4.110
 1544TIP3    H2 4639   5.353   3.548   4.204
 1545TIP3   OH2 4640   3.057   3.020   4.659
 1545TIP3    H1 4641   3.058   3.103   4.611
 1545TIP3    H2 4642   3.089   2.955   4.596
 1546TIP3   OH2 4643   1.422   3.940   0.382
 1546TIP3    H1 4644   1.327   3.945   0.371
 1546TIP3    H2 4645   1.438   3.851   0.413
 1547TIP3   OH2 4646   0.107   2.789   1.569
 1547TIP3    H1 4647   0.166   2.728   1.525
 1547TIP3    H2 4648   0.033   2.798   1.509
 1548TIP3   OH2 4649   1.079   2.995   2.002
 1548TIP3    H1 4650   1.159   2.957   2.039
 1548TIP3    H2 4651   1.054   3.063   2.064
 1549TIP3   OH2 4652   1.805   5.195   4.310
 1549TIP3    H1 4653   1.863   5.119   4.306
 1549TIP3    H2 4654   1.858   5.268   4.280
 1550TIP3   OH2 4655   1.893   5.899   4.906
 1550TIP3    H1 4656   1.943   5.891   4.825
 1550TIP3    H2 4657   1.806   5.928   4.878
 1551TIP3   OH2 4658   2.516   5.042   1.121
 1551TIP3    H1 4659   2.540   5.062   1.212
 1551TIP3    H2 4660   2.470   4.959   1.127
 1552TIP3   OH2 4661   3.526   3.714   2.916
 1552TIP3    H1 4662   3.497   3.634   2.961
 1552TIP3    H2 4663   3.490   3.706   2.828
 1553TIP3   OH2 4664   4.175   5.665   3.251
 1553TIP3    H1 4665   4.177   5.663   3.347
 1553TIP3    H2 4666   4.113   5.735   3.230
 1554TIP3   OH2 4667   4.156   3.639   2.327
 1554TIP3    H1 4668   4.176   3.546   2.321
 1554TIP3    H2 4669   4.171   3.660   2.420
 1555TIP3   OH2 4670   4.042   4.885   0.087
 1555TIP3    H1 4671   4.023   4.974   0.117
 1555TIP3    H2 4672   4.091   4.845   0.159
 1556TIP3   OH2 4673   1.771   4.437   4.168
 1556TIP3    H1 4674   1.788   4.454   4.075
 1556TIP3    H2 4675   1.711   4.362   4.168
 1557TIP3   OH2 4676   2.053   5.381   1.885
 1557TIP3    H1 4677   2.017   5.415   1.804
 1557TIP3    H2 4678   2.051   5.456   1.945
 1558TIP3   OH2 4679   1.911   0.793   5.101
 1558TIP3    H1 4680   1.982   0.857   5.099
 1558TIP3    H2 4681   1.847   0.830   5.163
 1559TIP3   OH2 4682   0.383   5.720   2.652
 1559TIP3    H1 4683   0.374   5.647   2.591
 1559TIP3    H2 4684   0.303   5.771   2.641
 1560TIP3   OH2 4685   5.051   3.266   1.615
 1560TIP3    H1 4686   5.025   3.179   1.582
 1560TIP3    H2 4687   5.060   3.319   1.536
 1561TIP3   OH2 4688   1.207   4.554   0.610
 1561TIP3    H1 4689   1.112   4.561   0.614
 1561TIP3    H2 4690   1.229   4.486   0.674
 1562TIP3   OH2 4691   4.946   3.823   0.869
 1562TIP3    H1 4692   4.925   3.890   0.804
 1562TIP3    H2 4693   4.943   3.870   0.953
 1563TIP3   OH2 4694   6.205   0.968   1.580
 1563TIP3    H1 4695   6.265   0.894   1.585
 1563TIP3    H2 4696   6.119   0.932   1.601
 1564TIP3   OH2 4697   1.253   0.231   1.776
 1564TIP3    H1 4698   1.218   0.278   1.700
 1564TIP3    H2 4699   1.253   0.296   1.847
 1565TIP3   OH2 4700   2.365   3.373   3.368
 1565TIP3    H1 4701   2.270   3.363   3.356
 1565TIP3    H2 4702   2.376   3.387   3.462
 1566TIP3   OH2 4703   2.789   1.616   3.152
 1566TIP3    H1 4704   2.800   1.709   3.167
 1566TIP3    H2 4705   2.760   1.609   3.061
 1567TIP3   OH2 4706   6.124   3.946   3.808
 1567TIP3    H1 4707   6.206   3.967   3.764
 1567TIP3    H2 4708   6.056   3.960   3.741
 1568TIP3   OH2 4709   3.516   4.273   2.105
 1568TIP3    H1 4710   3.475   4.355   2.078
 1568TIP3    H2 4711   3.447   4.207   2.097
 1569TIP3   OH2 4712   3.142   2.926   0.291
 1569TIP3    H1 4713   3.088   2.975   0.353
 1569TIP3    H2 4714   3.088   2.851   0.267
 1570TIP3   OH2 4715   4.797   3.580   0.117
 1570TIP3    H1 4716   4.728   3.523   0.083
 1570TIP3    H2 4717   4.783   3.580   0.212
 1571TIP3   OH2 4718   5.270   5.494   4.625
 1571TIP3    H1 4719   5.181   5.485   4.660
 1571TIP3    H2 4720   5.281   5.588   4.610
 1572TIP3   OH2 4721   2.439   3.953   2.485
 1572TIP3    H1 4722   2.421   3.981   2.574
 1572TIP3    H2 4723   2.355   3.964   2.439
 1573TIP3   OH2 4724   5.954   0.230   2.860
 1573TIP3    H1 4725   5.925   0.186   2.941
 1573TIP3    H2 4726   6.005   0.163   2.814
 1574TIP3   OH2 4727   2.835   3.622   4.987
 1574TIP3    H1 4728   2.759   3.599   5.040
 1574TIP3    H2 4729   2.820   3.713   4.962
 1575TIP3   OH2 4730   5.691   3.668   1.526
 1575TIP3    H1 4731   5.673   3.613   1.450
 1575TIP3    H2 4732   5.663   3.615   1.601
 1576TIP3   OH2 4733   6.259   0.524   1.515
 1576TIP3    H1 4734   6.292   0.446   1.560
 1576TIP3    H2 4735   6.177   0.545   1.560
 1577TIP3   OH2 4736   0.603   3.213   2.770
 1577TIP3    H1 4737   0.629   3.236   2.681
 1577TIP3    H2 4738   0.683   3.227   2.822
 1578TIP3   OH2 4739   5.841   3.690   3.751
 1578TIP3    H1 4740   5.762   3.722   3.707
 1578TIP3    H2 4741   5.913   3.712   3.692
 1579TIP3   OH2 4742   4.038   5.613   2.272
 1579TIP3    H1 4743   4.066   5.539   2.326
 1579TIP3    H2 4744   4.112   5.630   2.214
 1580TIP3   OH2 4745   0.779   5.438   3.659
 1580TIP3    H1 4746   0.792   5.399   3.746
 1580TIP3    H2 4747   0.862   5.483   3.641
 1581TIP3   OH2 4748   5.752   1.640   4.394
 1581TIP3    H1 4749   5.810   1.710   4.422
 1581TIP3    H2 4750   5.707   1.612   4.473
 1582TIP3   OH2 4751   0.480   5.849   2.335
 1582TIP3    H1 4752   0.387   5.829   2.330
 1582TIP3    H2 4753   0.484   5.934   2.378
 1583TIP3   OH2 4754   5.903   5.083   4.182
 1583TIP3    H1 4755   5.841   5.048   4.246
 1583TIP3    H2 4756   5.935   5.165   4.221
 1584TIP3   OH2 4757   1.874   4.058   3.031
 1584TIP3    H1 4758   1.790   4.059   2.984
 1584TIP3    H2 4759   1.894   4.150   3.046
 1585TIP3   OH2 4760   5.817   1.822   3.173
 1585TIP3    H1 4761   5.793   1.739   3.132
 1585TIP3    H2 4762   5.736   1.873   3.171
 1586TIP3   OH2 4763   5.879   5.824   3.003
 1586TIP3    H1 4764   5.974   5.816   3.001
 1586TIP3    H2 4765   5.863   5.918   3.007
 1587TIP3   OH2 4766   2.561   2.523   4.263
 1587TIP3    H1 4767   2.604   2.456   4.210
 1587TIP3    H2 4768   2.584   2.501   4.353
 1588TIP3   OH2 4769   4.643   4.007   2.716
 1588TIP3    H1 4770   4.621   4.039   2.629
 1588TIP3    H2 4771   4.692   3.926   2.700
 1589TIP3   OH2 4772   6.246   2.036   4.212
 1589TIP3    H1 4773   6.235   1.941   4.212
 1589TIP3    H2 4774   6.157   2.071   4.208
 1590TIP3   OH2 4775   1.665   2.952   3.577
 1590TIP3    H1 4776   1.575   2.927   3.598
 1590TIP3    H2 4777   1.719   2.903   3.639
 1591TIP3   OH2 4778   3.293   2.069   3.208
 1591TIP3    H1 4779   3.225   2.046   3.145
 1591TIP3    H2 4780   3.304   2.163   3.200
 1592TIP3   OH2 4781   3.223   3.378   3.041
 1592TIP3    H1 4782   3.137   3.342   3.020
 1592TIP3    H2 4783   3.283   3.332   2.982
 1593TIP3   OH2 4784   4.688   3.005   2.925
 1593TIP3    H1 4785   4.657   3.071   2.987
 1593TIP3    H2 4786   4.675   3.046   2.839
 1594TIP3   OH2 4787   5.628   2.855   2.190
 1594TIP3    H1 4788   5.555   2.845   2.129
 1594TIP3    H2 4789   5.650   2.765   2.216
 1595TIP3   OH2 4790   0.685   2.866   0.110
 1595TIP3    H1 4791   0.714   2.938   0.054
 1595TIP3    H2 4792   0.729   2.882   0.193
 1596TIP3   OH2 4793   0.164   5.936   2.881
 1596TIP3    H1 4794   0.090   5.995   2.869
 1596TIP3    H2 4795   0.172   5.890   2.797
 1597TIP3   OH2 4796   2.062   4.575   1.954
 1597TIP3    H1 4797   1.993   4.575   1.887
 1597TIP3    H2 4798   2.111   4.655   1.937
 1598TIP3   OH2 4799   2.247   3.360   1.318
 1598TIP3    H1 4800   2.284   3.277   1.287
 1598TIP3    H2 4801   2.164   3.335   1.359
 1599TIP3   OH2 4802   4.265   1.689   4.741
 1599TIP3    H1 4803   4.282   1.783   4.750
 1599TIP3    H2 4804   4.350   1.652   4.717
 1600TIP3   OH2 4805   2.884   3.193   5.018
 1600TIP3    H1 4806   2.848   3.219   5.103
 1600TIP3    H2 4807   2.975   3.171   5.037
 1601TIP3   OH2 4808   5.870   3.503   4.582
 1601TIP3    H1 4809   5.824   3.419   4.581
 1601TIP3    H2 4810   5.908   3.512   4.495
 1602TIP3   OH2 4811   3.850   0.754   0.170
 1602TIP3    H1 4812   3.756   0.739   0.159
 1602TIP3    H2 4813   3.885   0.671   0.203
 1603TIP3   OH2 4814   2.451   3.579   4.675
 1603TIP3    H1 4815   2.448   3.488   4.645
 1603TIP3    H2 4816   2.537   3.590   4.714
 1604TIP3   OH2 4817   3.571   0.194   3.015
 1604TIP3    H1 4818   3.492   0.236   2.982
 1604TIP3    H2 4819   3.574   0.217   3.108
 1605TIP3   OH2 4820   1.175   5.531   1.888
 1605TIP3    H1 4821   1.137   5.510   1.973
 1605TIP3    H2 4822   1.269   5.521   1.900
 1606TIP3   OH2 4823   2.816   5.236   4.548
 1606TIP3    H1 4824   2.883   5.169   4.532
 1606TIP3    H2 4825   2.773   5.248   4.464
 1607TIP3   OH2 4826   2.474   1.533   0.885
 1607TIP3    H1 4827   2.538   1.561   0.819
 1607TIP3    H2 4828   2.527   1.498   0.956
 1608TIP3   OH2 4829   3.950   3.111   2.606
 1608TIP3    H1 4830   3.868   3.144   2.643
 1608TIP3    H2 4831   3.985   3.183   2.554
 1609TIP3   OH2 4832   3.740   4.885   4.186
 1609TIP3    H1 4833   3.716   4.889   4.279
 1609TIP3    H2 4834   3.828   4.922   4.182
 1610TIP3   OH2 4835   6.143   3.453   2.013
 1610TIP3    H1 4836   6.194   3.373   2.025
 1610TIP3    H2 4837   6.130   3.460   1.919
 1611TIP3   OH2 4838   1.848   4.208   4.486
 1611TIP3    H1 4839   1.857   4.113   4.493
 1611TIP3    H2 4840   1.918   4.234   4.427
 1612TIP3   OH2 4841   4.997   4.069   3.146
 1612TIP3    H1 4842   4.976   3.978   3.167
 1612TIP3    H2 4843   5.059   4.096   3.214
 1613TIP3   OH2 4844   3.941   0.811   0.811
 1613TIP3    H1 4845   3.941   0.716   0.805
 1613TIP3    H2 4846   3.997   0.840   0.739
 1614TIP3   OH2 4847   1.268   1.768   1.724
 1614TIP3    H1 4848   1.204   1.830   1.759
 1614TIP3    H2 4849   1.353   1.812   1.737
 1615TIP3   OH2 4850   1.919   4.310   4.723
 1615TIP3    H1 4851   1.900   4.272   4.637
 1615TIP3    H2 4852   1.916   4.236   4.783
 1616TIP3   OH2 4853   2.515   3.093   2.175
 1616TIP3    H1 4854   2.462   3.085   2.095
 1616TIP3    H2 4855   2.531   3.003   2.202
 1617TIP3   OH2 4856   0.131   1.936   3.378
 1617TIP3    H1 4857   0.072   1.923   3.452
 1617TIP3    H2 4858   0.184   1.857   3.374
 1618TIP3   OH2 4859   5.330   2.377   3.160
 1618TIP3    H1 4860   5.357   2.312   3.096
 1618TIP3    H2 4861   5.385   2.453   3.143
 1619TIP3   OH2 4862   4.717   5.317   1.940
 1619TIP3    H1 4863   4.804   5.355   1.931
 1619TIP3    H2 4864   4.711   5.295   2.033
 1620TIP3   OH2 4865   3.254   2.325   4.983
 1620TIP3    H1 4866   3.260   2.382   5.061
 1620TIP3    H2 4867   3.195   2.255   5.010
 1621TIP3   OH2 4868   3.961   1.244   5.130
 1621TIP3    H1 4869   3.871   1.242   5.163
 1621TIP3    H2 4870   3.995   1.328   5.159
 1622TIP3   OH2 4871   5.367   0.690   4.334
 1622TIP3    H1 4872   5.356   0.771   4.384
 1622TIP3    H2 4873   5.277   0.658   4.320
 1623TIP3   OH2 4874   5.999   4.474   3.043
 1623TIP3    H1 4875   5.911   4.470   3.081
 1623TIP3    H2 4876   6.006   4.562   3.007
 1624TIP3   OH2 4877   3.250   1.559   2.676
 1624TIP3    H1 4878   3.261   1.523   2.764
 1624TIP3    H2 4879   3.339   1.571   2.643
 1625TIP3   OH2 4880   2.727   3.174   0.610
 1625TIP3    H1 4881   2.640   3.191   0.647
 1625TIP3    H2 4882   2.720   3.087   0.571
 1626TIP3   OH2 4883   5.762   3.155   4.781
 1626TIP3    H1 4884   5.792   3.132   4.694
 1626TIP3    H2 4885   5.741   3.071   4.822
 1627TIP3   OH2 4886   0.843   3.532   4.991
 1627TIP3    H1 4887   0.921   3.481   5.016
 1627TIP3    H2 4888   0.827   3.508   4.900
 1628TIP3   OH2 4889   5.944   0.713   4.135
 1628TIP3    H1 4890   5.950   0.620   4.113
 1628TIP3    H2 4891   5.911   0.714   4.225
 1629TIP3   OH2 4892   5.129   5.437   3.393
 1629TIP3    H1 4893   5.114   5.531   3.389
 1629TIP3    H2 4894   5.053   5.402   3.439
 1630TIP3   OH2 4895   1.195   4.538   3.802
 1630TIP3    H1 4896   1.165   4.564   3.889
 1630TIP3    H2 4897   1.119   4.493   3.763
 1631TIP3   OH2 4898   4.833   3.051   4.661
 1631TIP3    H1 4899   4.822   3.002   4.580
 1631TIP3    H2 4900   4.921   3.087   4.655
 1632TIP3   OH2 4901   4.972   2.608   0.495
 1632TIP3    H1 4902   4.984   2.545   0.424
 1632TIP3    H2 4903   5.013   2.568   0.571
 1633TIP3   OH2 4904   4.393   0.324   4.778
 1633TIP3    H1 4905   4.444   0.363   4.850
 1633TIP3    H2 4906   4.426   0.368   4.700
 1634TIP3   OH2 4907   5.821   0.973   1.809
 1634TIP3    H1 4908   5.843   1.051   1.759
 1634TIP3    H2 4909   5.895   0.914   1.795
 1635TIP3   OH2 4910   2.162   3.399   3.784
 1635TIP3    H1 4911   2.157   3.364   3.873
 1635TIP3    H2 4912   2.076   3.380   3.746
 1636TIP3   OH2 4913   3.328   0.839   1.177
 1636TIP3    H1 4914   3.347   0.851   1.084
 1636TIP3    H2 4915   3.412   0.815   1.216
 1637TIP3   OH2 4916   3.801   2.079   2.541
 1637TIP3    H1 4917   3.833   2.109   2.626
 1637TIP3    H2 4918   3.859   2.006   2.518
 1638TIP3   OH2 4919   4.732   1.504   4.368
 1638TIP3    H1 4920   4.759   1.564   4.437
 1638TIP3    H2 4921   4.799   1.515   4.300
 1639TIP3   OH2 4922   5.512   0.324   3.383
 1639TIP3    H1 4923   5.579   0.381   3.346
 1639TIP3    H2 4924   5.526   0.240   3.338
 1640TIP3   OH2 4925   6.285   2.398   0.187
 1640TIP3    H1 4926   6.227   2.385   0.112
 1640TIP3    H2 4927   6.373   2.400   0.150
 1641TIP3   OH2 4928   4.852   5.270   2.793
 1641TIP3    H1 4929   4.838   5.364   2.809
 1641TIP3    H2 4930   4.941   5.265   2.758
 1642TIP3   OH2 4931   0.005   4.255   0.181
 1642TIP3    H1 4932  -0.019   4.305   0.260
 1642TIP3    H2 4933  -0.059   4.283   0.115
 1643TIP3   OH2 4934   0.231   4.005   4.240
 1643TIP3    H1 4935   0.227   4.100   4.231
 1643TIP3    H2 4936   0.143   3.975   4.217
 1644TIP3   OH2 4937   4.834   1.816   3.515
 1644TIP3    H1 4938   4.786   1.899   3.519
 1644TIP3    H2 4939   4.859   1.799   3.606
 1645TIP3   OH2 4940   4.670   3.570   0.640
 1645TIP3    H1 4941   4.612   3.495   0.626
 1645TIP3    H2 4942   4.660   3.591   0.733
 1646TIP3   OH2 4943   0.716   5.083   3.645
 1646TIP3    H1 4944   0.777   5.039   3.585
 1646TIP3    H2 4945   0.758   5.076   3.731
 1647TIP3   OH2 4946   0.590   2.992   1.935
 1647TIP3    H1 4947   0.651   2.924   1.964
 1647TIP3    H2 4948   0.521   2.993   2.002
 1648TIP3   OH2 4949   2.291   5.617   0.848
 1648TIP3    H1 4950   2.273   5.539   0.900
 1648TIP3    H2 4951   2.284   5.690   0.911
 1649TIP3   OH2 4952   3.017   1.134   3.482
 1649TIP3    H1 4953   3.013   1.039   3.477
 1649TIP3    H2 4954   2.931   1.160   3.515
 1650TIP3   OH2 4955   0.519   3.880   4.954
 1650TIP3    H1 4956   0.543   3.803   4.904
 1650TIP3    H2 4957   0.594   3.897   5.010
 1651TIP3   OH2 4958   1.166   3.976   2.050
 1651TIP3    H1 4959   1.114   4.017   1.981
 1651TIP3    H2 4960   1.236   3.930   2.003
 1652TIP3   OH2 4961   3.554   3.188   1.922
 1652TIP3    H1 4962   3.569   3.231   2.006
 1652TIP3    H2 4963   3.464   3.156   1.927
 1653TIP3   OH2 4964   0.160   1.584   1.243
 1653TIP3    H1 4965   0.105   1.594   1.165
 1653TIP3    H2 4966   0.116   1.517   1.295
 1654TIP3   OH2 4967   0.925   4.730   2.411
 1654TIP3    H1 4968   0.991   4.674   2.369
 1654TIP3    H2 4969   0.864   4.752   2.341
 1655TIP3   OH2 4970   3.931   2.219   3.071
 1655TIP3    H1 4971   3.939   2.299   3.123
 1655TIP3    H2 4972   3.840   2.193   3.081
 1656TIP3   OH2 4973   2.930   2.665   3.200
 1656TIP3    H1 4974   3.009   2.702   3.160
 1656TIP3    H2 4975   2.923   2.709   3.284
 1657TIP3   OH2 4976   3.439   0.263   4.386
 1657TIP3    H1 4977   3.428   0.310   4.303
 1657TIP3    H2 4978   3.533   0.249   4.393
 1658TIP3   OH2 4979   2.641   5.376   2.961
 1658TIP3    H1 4980   2.720   5.400   3.009
 1658TIP3    H2 4981   2.643   5.431   2.883
 1659TIP3   OH2 4982   0.701   5.735   0.364
 1659TIP3    H1 4983   0.669   5.691   0.286
 1659TIP3    H2 4984   0.666   5.684   0.437
 1660TIP3   OH2 4985   3.835   0.697   1.258
 1660TIP3    H1 4986   3.930   0.706   1.260
 1660TIP3    H2 4987   3.817   0.620   1.311
 1661TIP3   OH2 4988   0.545   5.670   0.149
 1661TIP3    H1 4989   0.481   5.599   0.155
 1661TIP3    H2 4990   0.507   5.731   0.086
 1662TIP3   OH2 4991   2.702   2.424   4.973
 1662TIP3    H1 4992   2.712   2.393   5.063
 1662TIP3    H2 4993   2.668   2.513   4.982
 1663TIP3   OH2 4994   1.652   4.587   1.508
 1663TIP3    H1 4995   1.670   4.544   1.424
 1663TIP3    H2 4996   1.715   4.659   1.513
 1664TIP3   OH2 4997   1.003   1.732   2.651
 1664TIP3    H1 4998   1.088   1.725   2.694
 1664TIP3    H2 4999   0.939   1.727   2.722
 1665TIP3   OH2 5000   1.466   5.121   4.201
 1665TIP3    H1 5001   1.556   5.122   4.234
 1665TIP3    H2 5002   1.459   5.039   4.152
 1666TIP3   OH2 5003   4.758   3.815   3.315
 1666TIP3    H1 5004   4.852   3.800   3.302
 1666TIP3    H2 5005   4.718   3.795   3.231
 1667TIP3   OH2 5006   1.098   5.171   3.548
 1667TIP3    H1 5007   1.048   5.095   3.578
 1667TIP3    H2 5008   1.045   5.208   3.478
 1668TIP3   OH2 5009   1.298   5.191   2.268
 1668TIP3    H1 5010   1.387   5.193   2.304
 1668TIP3    H2 5011   1.310   5.180   2.174
 1669TIP3   OH2 5012   3.347   1.904   1.804
 1669TIP3    H1 5013   3.340   1.981   1.860
 1669TIP3    H2 5014   3.387   1.837   1.860
 1670TIP3   OH2 5015   3.807   3.061   0.570
 1670TIP3    H1 5016   3.772   3.005   0.501
 1670TIP3    H2 5017   3.764   3.145   0.557
 1671TIP3   OH2 5018   0.026   4.897   1.102
 1671TIP3    H1 5019   0.063   4.819   1.059
 1671TIP3    H2 5020  -0.069   4.885   1.095
 1672TIP3   OH2 5021   5.810   2.597   2.820
 1672TIP3    H1 5022   5.797   2.692   2.817
 1672TIP3    H2 5023   5.723   2.561   2.801
 1673TIP3   OH2 5024   6.132   3.906   0.221
 1673TIP3    H1 5025   6.124   3.922   0.127
 1673TIP3    H2 5026   6.224   3.884   0.234
 1674TIP3   OH2 5027   4.345   1.148   4.637
 1674TIP3    H1 5028   4.379   1.200   4.710
 1674TIP3    H2 5029   4.388   1.063   4.646
 1675TIP3   OH2 5030   3.528   0.595   5.079
 1675TIP3    H1 5031   3.574   0.526   5.031
 1675TIP3    H2 5032   3.481   0.549   5.149
 1676TIP3   OH2 5033   2.523   0.780   0.724
 1676TIP3    H1 5034   2.568   0.707   0.766
 1676TIP3    H2 5035   2.492   0.835   0.796
 1677TIP3   OH2 5036   2.310   5.771   5.007
 1677TIP3    H1 5037   2.303   5.833   4.934
 1677TIP3    H2 5038   2.283   5.822   5.083
 1678TIP3   OH2 5039   1.890   1.097   2.368
 1678TIP3    H1 5040   1.803   1.122   2.398
 1678TIP3    H2 5041   1.909   1.016   2.414
 1679TIP3   OH2 5042   4.774   2.714   0.675
 1679TIP3    H1 5043   4.842   2.694   0.611
 1679TIP3    H2 5044   4.769   2.636   0.731
 1680TIP3   OH2 5045   3.789   1.942   2.025
 1680TIP3    H1 5046   3.796   1.864   2.079
 1680TIP3    H2 5047   3.878   1.979   2.024
 1681TIP3   OH2 5048   1.593   4.111   0.205
 1681TIP3    H1 5049   1.589   4.034   0.262
 1681TIP3    H2 5050   1.686   4.130   0.197
 1682TIP3   OH2 5051   2.035   1.486   4.444
 1682TIP3    H1 5052   2.086   1.429   4.502
 1682TIP3    H2 5053   2.002   1.555   4.502
 1683TIP3   OH2 5054   1.072   5.620   1.480
 1683TIP3    H1 5055   1.070   5.555   1.550
 1683TIP3    H2 5056   1.146   5.595   1.425
 1684TIP3   OH2 5057   3.046   0.353   3.299
 1684TIP3    H1 5058   2.975   0.411   3.272
 1684TIP3    H2 5059   3.010   0.304   3.372
 1685TIP3   OH2 5060   0.021   1.638   0.364
 1685TIP3    H1 5061  -0.019   1.636   0.451
 1685TIP3    H2 5062   0.113   1.616   0.379
 1686TIP3   OH2 5063   3.643   4.962   2.518
 1686TIP3    H1 5064   3.640   4.868   2.502
 1686TIP3    H2 5065   3.672   5.000   2.434
 1687TIP3   OH2 5066   4.635   0.291   4.523
 1687TIP3    H1 5067   4.676   0.333   4.599
 1687TIP3    H2 5068   4.676   0.333   4.447
 1688TIP3   OH2 5069   0.533   3.517   2.095
 1688TIP3    H1 5070   0.591   3.542   2.023
 1688TIP3    H2 5071   0.539   3.422   2.099
 1689TIP3   OH2 5072   6.132   5.075   1.515
 1689TIP3    H1 5073   6.226   5.058   1.516
 1689TIP3    H2 5074   6.116   5.131   1.591
 1690TIP3   OH2 5075   5.017   3.976   4.800
 1690TIP3    H1 5076   4.941   3.978   4.858
 1690TIP3    H2 5077   5.007   3.895   4.750
 1691TIP3   OH2 5078   3.185   0.702   3.690
 1691TIP3    H1 5079   3.180   0.618   3.737
 1691TIP3    H2 5080   3.173   0.677   3.598
 1692TIP3   OH2 5081   1.846   1.864   1.411
 1692TIP3    H1 5082   1.761   1.821   1.421
 1692TIP3    H2 5083   1.901   1.801   1.365
 1693TIP3   OH2 5084   1.616   0.854   5.090
 1693TIP3    H1 5085   1.641   0.903   5.012
 1693TIP3    H2 5086   1.566   0.917   5.143
 1694TIP3   OH2 5087   6.057   4.371   2.612
 1694TIP3    H1 5088   6.033   4.462   2.626
 1694TIP3    H2 5089   6.026   4.325   2.690
 1695TIP3   OH2 5090   4.111   4.282   0.484
 1695TIP3    H1 5091   4.101   4.188   0.475
 1695TIP3    H2 5092   4.148   4.294   0.572
 1696TIP3   OH2 5093   2.718   0.266   3.048
 1696TIP3    H1 5094   2.794   0.208   3.050
 1696TIP3    H2 5095   2.753   0.351   3.024
 1697TIP3   OH2 5096   0.244   2.325   1.917
 1697TIP3    H1 5097   0.241   2.418   1.937
 1697TIP3    H2 5098   0.334   2.310   1.887
 1698TIP3   OH2 5099   1.634   5.457   0.600
 1698TIP3    H1 5100   1.577   5.520   0.557
 1698TIP3    H2 5101   1.697   5.432   0.532
 1699TIP3   OH2 5102   0.070   5.503   4.535
 1699TIP3    H1 5103  -0.016   5.484   4.499
 1699TIP3    H2 5104   0.113   5.558   4.469
 1700TIP3   OH2 5105   4.738   3.225   1.034
 1700TIP3    H1 5106   4.765   3.291   0.969
 1700TIP3    H2 5107   4.688   3.274   1.098
 1701TIP3   OH2 5108   3.166   0.053   4.165
 1701TIP3    H1 5109   3.144   0.017   4.251
 1701TIP3    H2 5110   3.105   0.011   4.105
 1702TIP3   OH2 5111   3.948   4.559   0.875
 1702TIP3    H1 5112   4.021   4.499   0.890
 1702TIP3    H2 5113   3.880   4.531   0.937
 1703TIP3   OH2 5114   2.589   0.623   3.701
 1703TIP3    H1 5115   2.524   0.633   3.769
 1703TIP3    H2 5116   2.671   0.604   3.748
 1704TIP3   OH2 5117   2.726   4.185   3.727
 1704TIP3    H1 5118   2.772   4.212   3.806
 1704TIP3    H2 5119   2.739   4.090   3.723
 1705TIP3   OH2 5120   4.921   0.865   3.867
 1705TIP3    H1 5121   4.939   0.887   3.958
 1705TIP3    H2 5122   4.891   0.947   3.827
 1706TIP3   OH2 5123   3.965   4.415   2.223
 1706TIP3    H1 5124   4.040   4.452   2.177
 1706TIP3    H2 5125   3.997   4.333   2.261
 1707TIP3   OH2 5126   6.271   4.039   1.586
 1707TIP3    H1 5127   6.317   4.032   1.670
 1707TIP3    H2 5128   6.179   4.028   1.609
 1708TIP3   OH2 5129   0.706   1.017   3.299
 1708TIP3    H1 5130   0.755   0.950   3.348
 1708TIP3    H2 5131   0.765   1.092   3.295
 1709TIP3   OH2 5132   5.104   1.062   2.009
 1709TIP3    H1 5133   5.156   1.141   2.017
 1709TIP3    H2 5134   5.166   0.996   1.977
 1710TIP3   OH2 5135   1.401   0.895   1.459
 1710TIP3    H1 5136   1.416   0.987   1.480
 1710TIP3    H2 5137   1.456   0.847   1.521
 1711TIP3   OH2 5138   1.813   5.504   4.309
 1711TIP3    H1 5139   1.867   5.495   4.231
 1711TIP3    H2 5140   1.877   5.515   4.380
 1712TIP3   OH2 5141   3.508   3.645   2.637
 1712TIP3    H1 5142   3.476   3.677   2.553
 1712TIP3    H2 5143   3.603   3.637   2.626
 1713TIP3   OH2 5144   5.725   1.893   0.080
 1713TIP3    H1 5145   5.809   1.939   0.070
 1713TIP3    H2 5146   5.698   1.912   0.170
 1714TIP3   OH2 5147   2.461   0.587   3.935
 1714TIP3    H1 5148   2.489   0.501   3.905
 1714TIP3    H2 5149   2.525   0.611   4.002
 1715TIP3   OH2 5150   0.670   5.376   1.691
 1715TIP3    H1 5151   0.633   5.446   1.745
 1715TIP3    H2 5152   0.676   5.415   1.604
 1716TIP3   OH2 5153   0.856   3.790   2.671
 1716TIP3    H1 5154   0.928   3.852   2.678
 1716TIP3    H2 5155   0.787   3.838   2.624
 1717TIP3   OH2 5156   0.817   5.776   0.716
 1717TIP3    H1 5157   0.870   5.804   0.641
 1717TIP3    H2 5158   0.732   5.753   0.678
 1718TIP3   OH2 5159   3.124   0.614   0.550
 1718TIP3    H1 5160   3.216   0.633   0.567
 1718TIP3    H2 5161   3.125   0.537   0.494
 1719TIP3   OH2 5162   3.317   2.484   4.062
 1719TIP3    H1 5163   3.263   2.419   4.106
 1719TIP3    H2 5164   3.269   2.503   3.981
 1720TIP3   OH2 5165   1.089  -0.020   1.469
 1720TIP3    H1 5166   1.183  -0.005   1.458
 1720TIP3    H2 5167   1.048   0.041   1.407
 1721TIP3   OH2 5168   4.249   4.588   3.650
 1721TIP3    H1 5169   4.317   4.652   3.670
 1721TIP3    H2 5170   4.191   4.633   3.588
 1722TIP3   OH2 5171   4.635   3.271   4.079
 1722TIP3    H1 5172   4.569   3.313   4.023
 1722TIP3    H2 5173   4.635   3.324   4.159
 1723TIP3   OH2 5174   5.941   1.647   2.056
 1723TIP3    H1 5175   5.866   1.595   2.084
 1723TIP3    H2 5176   5.912   1.738   2.064
 1724TIP3   OH2 5177   1.720   4.159   4.974
 1724TIP3    H1 5178   1.648   4.105   4.942
 1724TIP3    H2 5179   1.678   4.237   5.010
 1725TIP3   OH2 5180   5.819   1.277   4.765
 1725TIP3    H1 5181   5.853   1.310   4.682
 1725TIP3    H2 5182   5.876   1.317   4.831
 1726TIP3   OH2 5183   5.245   4.463   0.248
 1726TIP3    H1 5184   5.339   4.477   0.248
 1726TIP3    H2 5185   5.223   4.445   0.339
 1727TIP3   OH2 5186   6.138  -0.031   3.261
 1727TIP3    H1 5187   6.142   0.059   3.229
 1727TIP3    H2 5188   6.201  -0.034   3.333
 1728TIP3   OH2 5189   4.915   2.171   3.795
 1728TIP3    H1 5190   4.934   2.240   3.858
 1728TIP3    H2 5191   4.937   2.208   3.710
 1729TIP3   OH2 5192   4.501   2.793   2.899
 1729TIP3    H1 5193   4.557   2.868   2.880
 1729TIP3    H2 5194   4.435   2.793   2.830
 1730TIP3   OH2 5195   1.522   4.858   0.454
 1730TIP3    H1 5196   1.493   4.823   0.538
 1730TIP3    H2 5197   1.462   4.931   0.436
 1731TIP3   OH2 5198   5.846   4.372   1.742
 1731TIP3    H1 5199   5.874   4.461   1.763
 1731TIP3    H2 5200   5.758   4.382   1.706
 1732TIP3   OH2 5201   4.458   1.522   4.657
 1732TIP3    H1 5202   4.429   1.460   4.589
 1732TIP3    H2 5203   4.554   1.523   4.648
 1733TIP3   OH2 5204   0.563   3.626   4.097
 1733TIP3    H1 5205   0.573   3.631   4.002
 1733TIP3    H2 5206   0.498   3.694   4.118
 1734TIP3   OH2 5207   2.979   3.299   4.537
 1734TIP3    H1 5208   2.913   3.301   4.467
 1734TIP3    H2 5209   2.933   3.331   4.614
 1735TIP3   OH2 5210   5.896   1.651   4.753
 1735TIP3    H1 5211   5.815   1.612   4.787
 1735TIP3    H2 5212   5.932   1.700   4.827
 1736TIP3   OH2 5213   2.011   3.547   0.299
 1736TIP3    H1 5214   2.078   3.559   0.232
 1736TIP3    H2 5215   1.955   3.477   0.266
 1737TIP3   OH2 5216   2.836   2.498   0.577
 1737TIP3    H1 5217   2.749   2.538   0.571
 1737TIP3    H2 5218   2.870   2.499   0.487
 1738TIP3   OH2 5219   5.004   2.853   0.774
 1738TIP3    H1 5220   5.015   2.758   0.769
 1738TIP3    H2 5221   4.911   2.866   0.791
 1739TIP3   OH2 5222   4.242   0.707   2.657
 1739TIP3    H1 5223   4.253   0.765   2.733
 1739TIP3    H2 5224   4.148   0.710   2.639
 1740TIP3   OH2 5225   2.452   0.482   4.425
 1740TIP3    H1 5226   2.371   0.432   4.435
 1740TIP3    H2 5227   2.447   0.518   4.336
 1741TIP3   OH2 5228   0.773   1.760   3.200
 1741TIP3    H1 5229   0.805   1.795   3.283
 1741TIP3    H2 5230   0.818   1.810   3.133
 1742TIP3   OH2 5231   2.577   3.279   0.104
 1742TIP3    H1 5232   2.647   3.241   0.050
 1742TIP3    H2 5233   2.496   3.256   0.059
 1743TIP3   OH2 5234   3.582   2.081   3.964
 1743TIP3    H1 5235   3.616   2.075   4.054
 1743TIP3    H2 5236   3.589   2.174   3.942
 1744TIP3   OH2 5237   4.812   1.345   2.495
 1744TIP3    H1 5238   4.829   1.316   2.585
 1744TIP3    H2 5239   4.893   1.327   2.448
 1745TIP3   OH2 5240   0.471   5.327   3.676
 1745TIP3    H1 5241   0.520   5.330   3.758
 1745TIP3    H2 5242   0.535   5.295   3.612
 1746TIP3   OH2 5243   4.013   0.135   3.995
 1746TIP3    H1 5244   4.036   0.142   4.088
 1746TIP3    H2 5245   4.046   0.215   3.955
 1747TIP3   OH2 5246   3.336   2.081   0.173
 1747TIP3    H1 5247   3.345   2.105   0.081
 1747TIP3    H2 5248   3.289   1.997   0.171
 1748TIP3   OH2 5249   0.288   5.240   0.421
 1748TIP3    H1 5250   0.262   5.296   0.494
 1748TIP3    H2 5251   0.228   5.263   0.351
 1749TIP3   OH2 5252   4.010   1.168   2.983
 1749TIP3    H1 5253   4.001   1.075   2.962
 1749TIP3    H2 5254   3.976   1.175   3.073
 1750TIP3   OH2 5255   1.208   0.102   0.268
 1750TIP3    H1 5256   1.297   0.076   0.290
 1750TIP3    H2 5257   1.212   0.198   0.260
 1751TIP3   OH2 5258   4.655   2.276   0.984
 1751TIP3    H1 5259   4.559   2.285   0.990
 1751TIP3    H2 5260   4.688   2.342   1.044
 1752TIP3   OH2 5261   5.704   5.716   2.832
 1752TIP3    H1 5262   5.749   5.777   2.891
 1752TIP3    H2 5263   5.716   5.752   2.745
 1753TIP3   OH2 5264   3.204   4.751   4.093
 1753TIP3    H1 5265   3.149   4.678   4.122
 1753TIP3    H2 5266   3.237   4.790   4.174
 1754TIP3   OH2 5267   5.314   5.089   2.024
 1754TIP3    H1 5268   5.305   4.997   1.999
 1754TIP3    H2 5269   5.345   5.087   2.114
 1755TIP3   OH2 5270   2.651   0.559   4.829
 1755TIP3    H1 5271   2.639   0.464   4.819
 1755TIP3    H2 5272   2.613   0.597   4.750
 1756TIP3   OH2 5273   4.921   5.594   1.317
 1756TIP3    H1 5274   4.856   5.642   1.266
 1756TIP3    H2 5275   4.904   5.502   1.298
 1757TIP3   OH2 5276   2.355   5.185   3.991
 1757TIP3    H1 5277   2.278   5.138   4.023
 1757TIP3    H2 5278   2.421   5.171   4.058
 1758TIP3   OH2 5279   6.074   5.258   1.684
 1758TIP3    H1 5280   5.993   5.277   1.732
 1758TIP3    H2 5281   6.116   5.344   1.674
 1759TIP3   OH2 5282   1.455   0.150   3.298
 1759TIP3    H1 5283   1.472   0.203   3.376
 1759TIP3    H2 5284   1.526   0.173   3.237
 1760TIP3   OH2 5285   0.668   3.746   3.584
 1760TIP3    H1 5286   0.759   3.716   3.587
 1760TIP3    H2 5287   0.634   3.729   3.672
 1761TIP3   OH2 5288   5.158   0.413   3.060
 1761TIP3    H1 5289   5.121   0.332   3.025
 1761TIP3    H2 5290   5.141   0.479   2.992
 1762TIP3   OH2 5291   0.608   0.453   0.275
 1762TIP3    H1 5292   0.663   0.526   0.249
 1762TIP3    H2 5293   0.519   0.487   0.271
 1763TIP3   OH2 5294   0.340   1.483   0.644
 1763TIP3    H1 5295   0.297   1.495   0.729
 1763TIP3    H2 5296   0.320   1.393   0.619
 1764TIP3   OH2 5297   0.858   3.103   0.125
 1764TIP3    H1 5298   0.914   3.048   0.071
 1764TIP3    H2 5299   0.829   3.173   0.066
 1765TIP3   OH2 5300   3.619   5.428   0.767
 1765TIP3    H1 5301   3.703   5.389   0.742
 1765TIP3    H2 5302   3.632   5.522   0.757
 1766TIP3   OH2 5303   0.260   4.407   0.279
 1766TIP3    H1 5304   0.290   4.404   0.188
 1766TIP3    H2 5305   0.231   4.497   0.291
 1767TIP3   OH2 5306   0.504   0.786   3.398
 1767TIP3    H1 5307   0.521   0.697   3.427
 1767TIP3    H2 5308   0.553   0.794   3.315
 1768TIP3   OH2 5309   0.064   3.722   3.757
 1768TIP3    H1 5310   0.005   3.687   3.823
 1768TIP3    H2 5311   0.018   3.707   3.674
 1769TIP3   OH2 5312   2.220   2.177   4.464
 1769TIP3    H1 5313   2.278   2.199   4.391
 1769TIP3    H2 5314   2.157   2.250   4.467
 1770TIP3   OH2 5315   0.590   3.349   4.185
 1770TIP3    H1 5316   0.616   3.441   4.192
 1770TIP3    H2 5317   0.586   3.332   4.091
 1771TIP3   OH2 5318   2.851   2.280   2.446
 1771TIP3    H1 5319   2.779   2.225   2.416
 1771TIP3    H2 5320   2.836   2.364   2.403
 1772TIP3   OH2 5321   3.116   4.140   1.164
 1772TIP3    H1 5322   3.049   4.129   1.231
 1772TIP3    H2 5323   3.188   4.184   1.210
 1773TIP3   OH2 5324   1.028   5.496   4.827
 1773TIP3    H1 5325   0.946   5.450   4.808
 1773TIP3    H2 5326   1.091   5.426   4.845
 1774TIP3   OH2 5327   4.396   1.900   1.114
 1774TIP3    H1 5328   4.467   1.868   1.059
 1774TIP3    H2 5329   4.438   1.931   1.194
 1775TIP3   OH2 5330   5.350   0.375   2.779
 1775TIP3    H1 5331   5.266   0.420   2.768
 1775TIP3    H2 5332   5.404   0.438   2.826
 1776TIP3   OH2 5333   1.408   2.453   4.687
 1776TIP3    H1 5334   1.440   2.494   4.768
 1776TIP3    H2 5335   1.320   2.424   4.708
 1777TIP3   OH2 5336   3.759   2.868   2.971
 1777TIP3    H1 5337   3.684   2.811   2.984
 1777TIP3    H2 5338   3.826   2.811   2.934
 1778TIP3   OH2 5339   2.963   3.562   3.465
 1778TIP3    H1 5340   2.868   3.557   3.475
 1778TIP3    H2 5341   2.987   3.481   3.421
 1779TIP3   OH2 5342   5.321   0.062   4.827
 1779TIP3    H1 5343   5.257   0.121   4.787
 1779TIP3    H2 5344   5.405   0.088   4.790
 1780TIP3   OH2 5345   2.580   5.308   1.654
 1780TIP3    H1 5346   2.575   5.272   1.566
 1780TIP3    H2 5347   2.490   5.309   1.685
 1781TIP3   OH2 5348   1.482   2.997   4.353
 1781TIP3    H1 5349   1.411   2.941   4.322
 1781TIP3    H2 5350   1.440   3.082   4.367
 1782TIP3   OH2 5351   3.378   3.811   4.900
 1782TIP3    H1 5352   3.371   3.750   4.973
 1782TIP3    H2 5353   3.335   3.891   4.931
 1783TIP3   OH2 5354   4.892   5.738   1.022
 1783TIP3    H1 5355   4.846   5.654   1.031
 1783TIP3    H2 5356   4.908   5.746   0.928
 1784TIP3   OH2 5357   5.907   2.819   2.362
 1784TIP3    H1 5358   5.895   2.890   2.299
 1784TIP3    H2 5359   5.969   2.760   2.320
 1785TIP3   OH2 5360   5.360   5.186   3.455
 1785TIP3    H1 5361   5.289   5.151   3.509
 1785TIP3    H2 5362   5.382   5.114   3.396
 1786TIP3   OH2 5363   2.053   2.000   2.569
 1786TIP3    H1 5364   1.992   1.932   2.542
 1786TIP3    H2 5365   2.116   2.006   2.497
 1787TIP3   OH2 5366   3.300   4.272   1.317
 1787TIP3    H1 5367   3.371   4.306   1.262
 1787TIP3    H2 5368   3.293   4.335   1.389
 1788TIP3   OH2 5369   3.974   0.504   0.292
 1788TIP3    H1 5370   4.039   0.434   0.296
 1788TIP3    H2 5371   3.935   0.506   0.379
 1789TIP3   OH2 5372   5.526   2.787   1.434
 1789TIP3    H1 5373   5.534   2.840   1.514
 1789TIP3    H2 5374   5.590   2.826   1.374
 1790TIP3   OH2 5375   1.349   5.883   1.179
 1790TIP3    H1 5376   1.269   5.921   1.143
 1790TIP3    H2 5377   1.369   5.809   1.121
 1791TIP3   OH2 5378   2.862   3.814   1.749
 1791TIP3    H1 5379   2.953   3.815   1.778
 1791TIP3    H2 5380   2.849   3.899   1.706
 1792TIP3   OH2 5381   4.183   0.108   2.618
 1792TIP3    H1 5382   4.115   0.142   2.677
 1792TIP3    H2 5383   4.250   0.175   2.617
 1793TIP3   OH2 5384   0.003   0.559   5.133
 1793TIP3    H1 5385   0.003   0.524   5.221
 1793TIP3    H2 5386   0.093   0.588   5.117
 1794TIP3   OH2 5387   2.246   3.891   1.790
 1794TIP3    H1 5388   2.218   3.843   1.869
 1794TIP3    H2 5389   2.226   3.832   1.718
 1795TIP3   OH2 5390   0.731   1.615   1.697
 1795TIP3    H1 5391   0.702   1.527   1.675
 1795TIP3    H2 5392   0.709   1.668   1.621
 1796TIP3   OH2 5393   3.059   4.504   4.086
 1796TIP3    H1 5394   2.972   4.464   4.078
 1796TIP3    H2 5395   3.119   4.430   4.080
 1797TIP3   OH2 5396   1.907   1.055   0.939
 1797TIP3    H1 5397   1.968   1.013   0.879
 1797TIP3    H2 5398   1.924   1.148   0.928
 1798TIP3   OH2 5399   3.984   2.161   0.446
 1798TIP3    H1 5400   3.992   2.126   0.357
 1798TIP3    H2 5401   3.975   2.083   0.501
 1799TIP3   OH2 5402   1.350   4.841   4.005
 1799TIP3    H1 5403   1.366   4.831   4.098
 1799TIP3    H2 5404   1.409   4.778   3.963
 1800TIP3   OH2 5405   2.045   4.527   4.859
 1800TIP3    H1 5406   2.076   4.524   4.769
 1800TIP3    H2 5407   1.987   4.452   4.868
 1801TIP3   OH2 5408   0.832   5.822   4.795
 1801TIP3    H1 5409   0.899   5.786   4.853
 1801TIP3    H2 5410   0.857   5.913   4.782
 1802TIP3   OH2 5411   1.498   1.751   2.017
 1802TIP3    H1 5412   1.574   1.755   2.074
 1802TIP3    H2 5413   1.513   1.673   1.963
 1803TIP3   OH2 5414   0.648   2.764   3.359
 1803TIP3    H1 5415   0.653   2.745   3.453
 1803TIP3    H2 5416   0.568   2.816   3.350
 1804TIP3   OH2 5417   5.297   3.894  -0.064
 1804TIP3    H1 5418   5.380   3.890  -0.111
 1804TIP3    H2 5419   5.313   3.844   0.016
 1805TIP3   OH2 5420   2.373   2.166   4.229
 1805TIP3    H1 5421   2.441   2.099   4.231
 1805TIP3    H2 5422   2.407   2.232   4.168
 1806TIP3   OH2 5423   0.282   5.450   2.124
 1806TIP3    H1 5424   0.302   5.537   2.090
 1806TIP3    H2 5425   0.247   5.402   2.049
 1807TIP3   OH2 5426   1.172   4.710   2.014
 1807TIP3    H1 5427   1.166   4.717   2.109
 1807TIP3    H2 5428   1.265   4.696   1.997
 1808TIP3   OH2 5429   6.172   0.205   3.126
 1808TIP3    H1 5430   6.155   0.183   3.034
 1808TIP3    H2 5431   6.218   0.289   3.123
 1809TIP3   OH2 5432   3.436   2.860   1.970
 1809TIP3    H1 5433   3.450   2.768   1.993
 1809TIP3    H2 5434   3.341   2.867   1.958
 1810TIP3   OH2 5435   3.813   3.494   0.967
 1810TIP3    H1 5436   3.908   3.504   0.961
 1810TIP3    H2 5437   3.795   3.481   1.060
 1811TIP3   OH2 5438   5.867   1.972   3.774
 1811TIP3    H1 5439   5.823   1.915   3.711
 1811TIP3    H2 5440   5.886   1.915   3.849
 1812TIP3   OH2 5441   3.929   5.901   3.906
 1812TIP3    H1 5442   3.994   5.968   3.883
 1812TIP3    H2 5443   3.906   5.920   3.997
 1813TIP3   OH2 5444   3.461   1.512   0.162
 1813TIP3    H1 5445   3.457   1.604   0.138
 1813TIP3    H2 5446   3.413   1.506   0.244
 1814TIP3   OH2 5447   3.195   2.574   1.216
 1814TIP3    H1 5448   3.104   2.554   1.195
 1814TIP3    H2 5449   3.194   2.667   1.239
 1815TIP3   OH2 5450   5.492   2.596   3.148
 1815TIP3    H1 5451   5.573   2.550   3.169
 1815TIP3    H2 5452   5.516   2.689   3.146
 1816TIP3   OH2 5453   0.435   3.330   1.471
 1816TIP3    H1 5454   0.505   3.379   1.512
 1816TIP3    H2 5455   0.377   3.397   1.433
 1817TIP3   OH2 5456   3.622   3.245   1.375
 1817TIP3    H1 5457   3.542   3.207   1.339
 1817TIP3    H2 5458   3.593   3.299   1.448
 1818TIP3   OH2 5459   4.275   2.993   2.168
 1818TIP3    H1 5460   4.361   2.962   2.195
 1818TIP3    H2 5461   4.251   2.938   2.094
 1819TIP3   OH2 5462   2.956   0.257   1.051
 1819TIP3    H1 5463   2.914   0.229   1.132
 1819TIP3    H2 5464   2.915   0.203   0.983
 1820TIP3   OH2 5465   5.211   4.578   0.964
 1820TIP3    H1 5466   5.294   4.570   0.917
 1820TIP3    H2 5467   5.230   4.640   1.035
 1821TIP3   OH2 5468   4.958   4.356   0.456
 1821TIP3    H1 5469   4.987   4.268   0.480
 1821TIP3    H2 5470   4.999   4.413   0.522
 1822TIP3   OH2 5471   5.519   0.584   4.557
 1822TIP3    H1 5472   5.604   0.541   4.555
 1822TIP3    H2 5473   5.469   0.544   4.486
 1823TIP3   OH2 5474   1.783   1.494   1.563
 1823TIP3    H1 5475   1.719   1.455   1.503
 1823TIP3    H2 5476   1.867   1.482   1.521
 1824TIP3   OH2 5477   2.128   1.102   0.184
 1824TIP3    H1 5478   2.127   1.019   0.232
 1824TIP3    H2 5479   2.211   1.143   0.209
 1825TIP3   OH2 5480   1.833   5.622   0.205
 1825TIP3    H1 5481   1.861   5.553   0.145
 1825TIP3    H2 5482   1.904   5.628   0.269
 1826TIP3   OH2 5483   0.110   0.010   4.385
 1826TIP3    H1 5484   0.173   0.068   4.428
 1826TIP3    H2 5485   0.149  -0.008   4.299
 1827TIP3   OH2 5486   1.552   3.982   4.875
 1827TIP3    H1 5487   1.457   3.965   4.876
 1827TIP3    H2 5488   1.591   3.898   4.851
 1828TIP3   OH2 5489   4.651   0.864   2.311
 1828TIP3    H1 5490   4.611   0.868   2.398
 1828TIP3    H2 5491   4.582   0.896   2.252
 1829TIP3   OH2 5492   3.564   2.278   4.382
 1829TIP3    H1 5493   3.584   2.228   4.303
 1829TIP3    H2 5494   3.561   2.211   4.451
 1830TIP3   OH2 5495   5.265   0.366   5.086
 1830TIP3    H1 5496   5.289   0.433   5.022
 1830TIP3    H2 5497   5.342   0.357   5.142
 1831TIP3   OH2 5498   3.756   5.634   1.060
 1831TIP3    H1 5499   3.808   5.706   1.024
 1831TIP3    H2 5500   3.779   5.559   1.006
 1832TIP3   OH2 5501   3.486   2.422   1.414
 1832TIP3    H1 5502   3.572   2.425   1.455
 1832TIP3    H2 5503   3.502   2.440   1.322
 1833TIP3   OH2 5504   5.866   4.799   3.156
 1833TIP3    H1 5505   5.793   4.860   3.145
 1833TIP3    H2 5506   5.884   4.799   3.250
 1834TIP3   OH2 5507   6.258   1.180   1.381
 1834TIP3    H1 5508   6.260   1.109   1.316
 1834TIP3    H2 5509   6.215   1.142   1.457
 1835TIP3   OH2 5510   3.160   1.888   0.792
 1835TIP3    H1 5511   3.133   1.802   0.760
 1835TIP3    H2 5512   3.105   1.904   0.869
 1836TIP3   OH2 5513   0.025   3.747   4.149
 1836TIP3    H1 5514  -0.046   3.727   4.088
 1836TIP3    H2 5515   0.049   3.662   4.187
 1837TIP3   OH2 5516   1.901   0.033   3.894
 1837TIP3    H1 5517   1.974   0.048   3.833
 1837TIP3    H2 5518   1.824   0.030   3.838
 1838TIP3   OH2 5519   0.517   1.481   0.344
 1838TIP3    H1 5520   0.592   1.469   0.285
 1838TIP3    H2 5521   0.528   1.413   0.410
 1839TIP3   OH2 5522   1.592   1.743   0.473
 1839TIP3    H1 5523   1.527   1.677   0.450
 1839TIP3    H2 5524   1.541   1.821   0.491
 1840TIP3   OH2 5525   4.283   2.013   3.494
 1840TIP3    H1 5526   4.347   2.040   3.561
 1840TIP3    H2 5527   4.201   2.052   3.523
 1841TIP3   OH2 5528   5.801   0.815   2.042
 1841TIP3    H1 5529   5.788   0.862   1.959
 1841TIP3    H2 5530   5.896   0.815   2.055
 1842TIP3   OH2 5531   5.414   4.660   4.402
 1842TIP3    H1 5532   5.410   4.565   4.395
 1842TIP3    H2 5533   5.404   4.678   4.496
 1843TIP3   OH2 5534   0.591   6.019   3.496
 1843TIP3    H1 5535   0.565   6.003   3.405
 1843TIP3    H2 5536   0.509   6.027   3.543
 1844TIP3   OH2 5537   3.091   5.737   2.123
 1844TIP3    H1 5538   3.038   5.665   2.157
 1844TIP3    H2 5539   3.110   5.791   2.200
 1845TIP3   OH2 5540   0.310   4.447   4.457
 1845TIP3    H1 5541   0.223   4.438   4.496
 1845TIP3    H2 5542   0.351   4.519   4.505
 1846TIP3   OH2 5543   2.622   4.887   3.749
 1846TIP3    H1 5544   2.623   4.819   3.682
 1846TIP3    H2 5545   2.531   4.919   3.750
 1847TIP3   OH2 5546   1.730   2.338   0.473
 1847TIP3    H1 5547   1.807   2.322   0.526
 1847TIP3    H2 5548   1.738   2.278   0.399
 1848TIP3   OH2 5549   1.505   0.488   1.044
 1848TIP3    H1 5550   1.441   0.422   1.020
 1848TIP3    H2 5551   1.587   0.460   1.003
 1849TIP3   OH2 5552   0.981   5.723   0.413
 1849TIP3    H1 5553   0.890   5.738   0.388
 1849TIP3    H2 5554   1.017   5.671   0.341
 1850TIP3   OH2 5555   1.974   4.641   4.413
 1850TIP3    H1 5556   2.024   4.614   4.490
 1850TIP3    H2 5557   1.883   4.617   4.433
 1851TIP3   OH2 5558   0.620   3.495   4.643
 1851TIP3    H1 5559   0.646   3.406   4.665
 1851TIP3    H2 5560   0.642   3.504   4.550
 1852TIP3   OH2 5561   5.604   0.509   2.370
 1852TIP3    H1 5562   5.565   0.441   2.425
 1852TIP3    H2 5563   5.687   0.472   2.340
 1853TIP3   OH2 5564   6.284   1.327   3.415
 1853TIP3    H1 5565   6.322   1.262   3.357
 1853TIP3    H2 5566   6.323   1.309   3.501
 1854TIP3   OH2 5567   5.785   0.241   2.595
 1854TIP3    H1 5568   5.711   0.267   2.539
 1854TIP3    H2 5569   5.848   0.203   2.534
 1855TIP3   OH2 5570   1.625   0.691   4.126
 1855TIP3    H1 5571   1.628   0.759   4.058
 1855TIP3    H2 5572   1.705   0.641   4.112
 1856TIP3   OH2 5573   1.501   0.305   3.534
 1856TIP3    H1 5574   1.544   0.374   3.483
 1856TIP3    H2 5575   1.520   0.327   3.625
 1857TIP3   OH2 5576   5.839   4.808   5.161
 1857TIP3    H1 5577   5.814   4.745   5.093
 1857TIP3    H2 5578   5.771   4.800   5.228
 1858TIP3   OH2 5579   4.932   5.903   3.015
 1858TIP3    H1 5580   4.896   5.905   2.926
 1858TIP3    H2 5581   5.011   5.851   3.009
 1859TIP3   OH2 5582   1.932   4.698   4.107
 1859TIP3    H1 5583   1.904   4.701   4.198
 1859TIP3    H2 5584   2.008   4.641   4.106
 1860TIP3   OH2 5585   1.989   1.391   2.421
 1860TIP3    H1 5586   1.908   1.440   2.409
 1860TIP3    H2 5587   1.971   1.305   2.383
 1861TIP3   OH2 5588   3.664   4.894   3.542
 1861TIP3    H1 5589   3.588   4.877   3.485
 1861TIP3    H2 5590   3.646   4.980   3.580
 1862TIP3   OH2 5591   2.765   2.164   4.690
 1862TIP3    H1 5592   2.680   2.206   4.707
 1862TIP3    H2 5593   2.773   2.163   4.595
 1863TIP3   OH2 5594   0.935   0.061   0.143
 1863TIP3    H1 5595   1.018   0.062   0.189
 1863TIP3    H2 5596   0.958   0.042   0.052
 1864TIP3   OH2 5597   0.543   1.558   4.883
 1864TIP3    H1 5598   0.533   1.594   4.971
 1864TIP3    H2 5599   0.605   1.486   4.893
 1865TIP3   OH2 5600   4.459   2.613   3.093
 1865TIP3    H1 5601   4.477   2.670   3.018
 1865TIP3    H2 5602   4.538   2.618   3.147
 1866TIP3   OH2 5603   2.689   5.535   0.817
 1866TIP3    H1 5604   2.777   5.572   0.813
 1866TIP3    H2 5605   2.676   5.514   0.910
 1867TIP3   OH2 5606   3.898   4.945   0.708
 1867TIP3    H1 5607   3.954   4.905   0.641
 1867TIP3    H2 5608   3.913   4.893   0.786
 1868TIP3   OH2 5609   5.674   3.538   0.274
 1868TIP3    H1 5610   5.714   3.453   0.291
 1868TIP3    H2 5611   5.617   3.523   0.199
 1869TIP3   OH2 5612   0.769   1.198   0.180
 1869TIP3    H1 5613   0.717   1.200   0.100
 1869TIP3    H2 5614   0.776   1.290   0.206
 1870TIP3   OH2 5615   3.312   5.643   1.410
 1870TIP3    H1 5616   3.387   5.668   1.356
 1870TIP3    H2 5617   3.252   5.600   1.349
 1871TIP3   OH2 5618   0.252   4.059   0.690
 1871TIP3    H1 5619   0.263   4.140   0.641
 1871TIP3    H2 5620   0.339   4.019   0.689
 1872TIP3   OH2 5621   1.251   2.784   3.875
 1872TIP3    H1 5622   1.235   2.872   3.909
 1872TIP3    H2 5623   1.339   2.762   3.906
 1873TIP3   OH2 5624   3.762   3.542   2.741
 1873TIP3    H1 5625   3.852   3.547   2.773
 1873TIP3    H2 5626   3.748   3.449   2.723
 1874TIP3   OH2 5627   5.861   5.786   4.236
 1874TIP3    H1 5628   5.909   5.869   4.244
 1874TIP3    H2 5629   5.769   5.811   4.247
 1875TIP3   OH2 5630   5.146   0.726   2.693
 1875TIP3    H1 5631   5.239   0.748   2.690
 1875TIP3    H2 5632   5.110   0.762   2.612
 1876TIP3   OH2 5633   2.116   5.947   1.819
 1876TIP3    H1 5634   2.113   5.858   1.786
 1876TIP3    H2 5635   2.208   5.964   1.836
 1877TIP3   OH2 5636   0.184   5.981   1.829
 1877TIP3    H1 5637   0.131   6.040   1.775
 1877TIP3    H2 5638   0.259   5.959   1.774
 1878TIP3   OH2 5639   1.263   1.892   2.047
 1878TIP3    H1 5640   1.284   1.955   1.978
 1878TIP3    H2 5641   1.339   1.834   2.050
 1879TIP3   OH2 5642   2.086   0.312   0.539
 1879TIP3    H1 5643   2.153   0.246   0.524
 1879TIP3    H2 5644   2.135   0.392   0.561
 1880TIP3   OH2 5645   1.838   4.395   0.033
 1880TIP3    H1 5646   1.920   4.347   0.038
 1880TIP3    H2 5647   1.864   4.486   0.018
 1881TIP3   OH2 5648   5.773   5.002   2.838
 1881TIP3    H1 5649   5.744   5.091   2.819
 1881TIP3    H2 5650   5.848   4.988   2.780
 1882TIP3   OH2 5651   2.444   0.467   3.530
 1882TIP3    H1 5652   2.527   0.427   3.505
 1882TIP3    H2 5653   2.461   0.504   3.617
 1883TIP3   OH2 5654   0.538   2.430  -0.010
 1883TIP3    H1 5655   0.560   2.374   0.064
 1883TIP3    H2 5656   0.451   2.464   0.009
 1884TIP3   OH2 5657   1.950   3.319   1.417
 1884TIP3    H1 5658   1.859   3.290   1.420
 1884TIP3    H2 5659   1.951   3.403   1.462
 1885TIP3   OH2 5660   3.282   4.715   1.918
 1885TIP3    H1 5661   3.345   4.787   1.924
 1885TIP3    H2 5662   3.320   4.645   1.971
 1886TIP3   OH2 5663   1.992   0.719   3.059
 1886TIP3    H1 5664   1.927   0.659   3.096
 1886TIP3    H2 5665   2.024   0.769   3.134
 1887TIP3   OH2 5666   5.008   4.734   4.632
 1887TIP3    H1 5667   5.030   4.648   4.596
 1887TIP3    H2 5668   5.072   4.794   4.593
 1888TIP3   OH2 5669   0.570   4.453   4.150
 1888TIP3    H1 5670   0.571   4.358   4.143
 1888TIP3    H2 5671   0.488   4.473   4.195
 1889TIP3   OH2 5672   1.617   2.152   4.127
 1889TIP3    H1 5673   1.534   2.191   4.099
 1889TIP3    H2 5674   1.644   2.204   4.203
 1890TIP3   OH2 5675   4.666   0.064   5.107
 1890TIP3    H1 5676   4.628  -0.011   5.153
 1890TIP3    H2 5677   4.733   0.026   5.050
 1891TIP3   OH2 5678   6.225   4.745   4.884
 1891TIP3    H1 5679   6.256   4.764   4.972
 1891TIP3    H2 5680   6.301   4.764   4.828
 1892TIP3   OH2 5681   5.832   3.057   4.523
 1892TIP3    H1 5682   5.891   2.982   4.524
 1892TIP3    H2 5683   5.789   3.052   4.437
 1893TIP3   OH2 5684   2.921   4.278   0.337
 1893TIP3    H1 5685   3.007   4.240   0.356
 1893TIP3    H2 5686   2.888   4.305   0.422
 1894TIP3   OH2 5687   6.389   0.216   3.386
 1894TIP3    H1 5688   6.439   0.217   3.304
 1894TIP3    H2 5689   6.400   0.127   3.419
 1895TIP3   OH2 5690   3.315   1.064   2.171
 1895TIP3    H1 5691   3.317   1.160   2.172
 1895TIP3    H2 5692   3.285   1.042   2.083
 1896TIP3   OH2 5693   2.613   0.605   0.101
 1896TIP3    H1 5694   2.640   0.693   0.127
 1896TIP3    H2 5695   2.593   0.612   0.007
 1897TIP3   OH2 5696   0.897   1.623   0.431
 1897TIP3    H1 5697   0.957   1.689   0.465
 1897TIP3    H2 5698   0.820   1.628   0.488
 1898TIP3   OH2 5699   4.656   4.275   0.896
 1898TIP3    H1 5700   4.574   4.309   0.861
 1898TIP3    H2 5701   4.691   4.219   0.827
 1899TIP3   OH2 5702   4.335   5.220   0.697
 1899TIP3    H1 5703   4.317   5.130   0.671
 1899TIP3    H2 5704   4.423   5.218   0.732
 1900TIP3   OH2 5705   5.459   1.798   4.757
 1900TIP3    H1 5706   5.475   1.874   4.702
 1900TIP3    H2 5707   5.364   1.787   4.755
 1901TIP3   OH2 5708   2.903   0.475   0.090
 1901TIP3    H1 5709   2.904   0.492  -0.005
 1901TIP3    H2 5710   2.819   0.508   0.119
 1902TIP3   OH2 5711   3.852   4.607   0.637
 1902TIP3    H1 5712   3.893   4.581   0.719
 1902TIP3    H2 5713   3.910   4.573   0.569
 1903TIP3   OH2 5714   1.842   2.390   0.731
 1903TIP3    H1 5715   1.796   2.306   0.735
 1903TIP3    H2 5716   1.803   2.442   0.801
 1904TIP3   OH2 5717   1.606   0.415   0.732
 1904TIP3    H1 5718   1.579   0.499   0.769
 1904TIP3    H2 5719   1.672   0.437   0.667
 1905TIP3   OH2 5720   1.877   3.099   3.116
 1905TIP3    H1 5721   1.877   3.137   3.203
 1905TIP3    H2 5722   1.918   3.013   3.127
 1906TIP3   OH2 5723   5.976   1.622   0.739
 1906TIP3    H1 5724   5.904   1.679   0.768
 1906TIP3    H2 5725   5.938   1.569   0.670
 1907TIP3   OH2 5726   5.771   0.374   0.155
 1907TIP3    H1 5727   5.788   0.460   0.194
 1907TIP3    H2 5728   5.822   0.313   0.208
 1908TIP3   OH2 5729   6.124   5.392   4.108
 1908TIP3    H1 5730   6.107   5.373   4.201
 1908TIP3    H2 5731   6.052   5.450   4.082
 1909TIP3   OH2 5732   1.652   4.676   2.227
 1909TIP3    H1 5733   1.670   4.767   2.250
 1909TIP3    H2 5734   1.665   4.671   2.133
 1910TIP3   OH2 5735   5.858   1.868   1.227
 1910TIP3    H1 5736   5.901   1.943   1.185
 1910TIP3    H2 5737   5.927   1.825   1.277
 1911TIP3   OH2 5738   5.850   3.584   0.538
 1911TIP3    H1 5739   5.938   3.599   0.503
 1911TIP3    H2 5740   5.793   3.585   0.461
 1912TIP3   OH2 5741   5.122   2.191   2.294
 1912TIP3    H1 5742   5.181   2.122   2.264
 1912TIP3    H2 5743   5.175   2.246   2.352
 1913TIP3   OH2 5744   6.066   0.820   2.010
 1913TIP3    H1 5745   6.120   0.891   1.973
 1913TIP3    H2 5746   6.124   0.775   2.070
 1914TIP3   OH2 5747  -0.017   0.316   4.970
 1914TIP3    H1 5748  -0.033   0.241   5.028
 1914TIP3    H2 5749   0.004   0.388   5.030
 1915TIP3   OH2 5750   0.325   0.066   1.856
 1915TIP3    H1 5751   0.368   0.039   1.937
 1915TIP3    H2 5752   0.391   0.050   1.788
 1916TIP3   OH2 5753   6.244   4.388   0.409
 1916TIP3    H1 5754   6.207   4.300   0.404
 1916TIP3    H2 5755   6.168   4.446   0.400
 1917TIP3   OH2 5756   4.159   1.039   3.580
 1917TIP3    H1 5757   4.188   1.124   3.613
 1917TIP3    H2 5758   4.181   0.977   3.649
 1918TIP3   OH2 5759   5.041   3.450   0.020
 1918TIP3    H1 5760   5.050   3.389   0.093
 1918TIP3    H2 5761   4.972   3.510   0.047
 1919TIP3   OH2 5762   3.537   2.723   3.966
 1919TIP3    H1 5763   3.505   2.810   3.943
 1919TIP3    H2 5764   3.461   2.678   4.004
 1920TIP3   OH2 5765   0.704   3.953   0.888
 1920TIP3    H1 5766   0.772   3.985   0.947
 1920TIP3    H2 5767   0.623   3.955   0.939
 1921TIP3   OH2 5768   3.416   4.792   2.817
 1921TIP3    H1 5769   3.506   4.778   2.787
 1921TIP3    H2 5770   3.373   4.708   2.807
 1922TIP3   OH2 5771   0.820   2.870   0.346
 1922TIP3    H1 5772   0.887   2.811   0.311
 1922TIP3    H2 5773   0.748   2.812   0.370
 1923TIP3   OH2 5774   2.554   2.386   2.616
 1923TIP3    H1 5775   2.625   2.401   2.553
 1923TIP3    H2 5776   2.595   2.400   2.701
 1924TIP3   OH2 5777   1.056   0.706   0.863
 1924TIP3    H1 5778   1.055   0.793   0.823
 1924TIP3    H2 5779   1.004   0.652   0.803
 1925TIP3   OH2 5780   1.395   2.942   1.489
 1925TIP3    H1 5781   1.352   3.021   1.457
 1925TIP3    H2 5782   1.474   2.934   1.436
 1926TIP3   OH2 5783   4.234   0.442   2.547
 1926TIP3    H1 5784   4.173   0.423   2.476
 1926TIP3    H2 5785   4.234   0.538   2.553
 1927TIP3   OH2 5786   6.003   1.268   4.995
 1927TIP3    H1 5787   5.988   1.175   5.013
 1927TIP3    H2 5788   6.003   1.310   5.081
 1928TIP3   OH2 5789   0.193   3.540   3.335
 1928TIP3    H1 5790   0.202   3.494   3.419
 1928TIP3    H2 5791   0.191   3.470   3.270
 1929TIP3   OH2 5792   2.777   1.742   0.655
 1929TIP3    H1 5793   2.834   1.752   0.579
 1929TIP3    H2 5794   2.731   1.659   0.639
 1930TIP3   OH2 5795   1.180   3.534   1.147
 1930TIP3    H1 5796   1.155   3.468   1.212
 1930TIP3    H2 5797   1.168   3.617   1.193
 1931TIP3   OH2 5798   4.006   0.815   3.153
 1931TIP3    H1 5799   4.008   0.860   3.069
 1931TIP3    H2 5800   3.916   0.824   3.183
 1932TIP3   OH2 5801   3.260   2.558   1.752
 1932TIP3    H1 5802   3.302   2.556   1.666
 1932TIP3    H2 5803   3.323   2.604   1.808
 1933TIP3   OH2 5804   6.360   4.394   2.125
 1933TIP3    H1 5805   6.430   4.401   2.189
 1933TIP3    H2 5806   6.401   4.357   2.047
 1934TIP3   OH2 5807   3.598   2.139   3.360
 1934TIP3    H1 5808   3.576   2.054   3.398
 1934TIP3    H2 5809   3.597   2.200   3.434
 1935TIP3   OH2 5810   1.561   0.613   5.245
 1935TIP3    H1 5811   1.546   0.552   5.173
 1935TIP3    H2 5812   1.591   0.693   5.202
 1936TIP3   OH2 5813   5.006   2.286   0.680
 1936TIP3    H1 5814   4.936   2.221   0.669
 1936TIP3    H2 5815   5.076   2.240   0.725
 1937TIP3   OH2 5816   1.816   0.294   1.310
 1937TIP3    H1 5817   1.777   0.328   1.391
 1937TIP3    H2 5818   1.849   0.207   1.334
 1938TIP3   OH2 5819   2.179   2.956   2.318
 1938TIP3    H1 5820   2.131   2.873   2.318
 1938TIP3    H2 5821   2.135   3.008   2.251
 1939TIP3   OH2 5822   1.972   1.222   2.665
 1939TIP3    H1 5823   1.989   1.302   2.616
 1939TIP3    H2 5824   1.888   1.237   2.708
 1940TIP3   OH2 5825   5.842   1.228   3.665
 1940TIP3    H1 5826   5.871   1.275   3.743
 1940TIP3    H2 5827   5.860   1.136   3.684
 1941TIP3   OH2 5828   1.409   1.904   0.860
 1941TIP3    H1 5829   1.389   1.991   0.825
 1941TIP3    H2 5830   1.367   1.901   0.946
 1942TIP3   OH2 5831   4.683   1.963   4.674
 1942TIP3    H1 5832   4.760   1.913   4.702
 1942TIP3    H2 5833   4.718   2.045   4.641
 1943TIP3   OH2 5834   1.441   1.617   0.796
 1943TIP3    H1 5835   1.457   1.561   0.872
 1943TIP3    H2 5836   1.400   1.696   0.831
 1944TIP3   OH2 5837   5.526   2.729   0.598
 1944TIP3    H1 5838   5.511   2.792   0.528
 1944TIP3    H2 5839   5.612   2.752   0.633
 1945TIP3   OH2 5840   2.744   5.520   1.635
 1945TIP3    H1 5841   2.708   5.433   1.651
 1945TIP3    H2 5842   2.682   5.580   1.676
 1946TIP3   OH2 5843   4.243   3.884   3.494
 1946TIP3    H1 5844   4.153   3.906   3.518
 1946TIP3    H2 5845   4.236   3.853   3.404
 1947TIP3   OH2 5846   3.635   4.956   5.090
 1947TIP3    H1 5847   3.582   4.960   5.170
 1947TIP3    H2 5848   3.618   5.039   5.046
 1948TIP3   OH2 5849   5.581   1.287   2.081
 1948TIP3    H1 5850   5.616   1.376   2.079
 1948TIP3    H2 5851   5.605   1.255   2.168
 1949TIP3   OH2 5852   4.471   4.352   0.674
 1949TIP3    H1 5853   4.548   4.361   0.617
 1949TIP3    H2 5854   4.465   4.258   0.690
 1950TIP3   OH2 5855   1.071   0.317   4.940
 1950TIP3    H1 5856   1.060   0.376   5.015
 1950TIP3    H2 5857   1.121   0.368   4.876
 1951TIP3   OH2 5858   4.719   1.985   3.728
 1951TIP3    H1 5859   4.790   2.049   3.731
 1951TIP3    H2 5860   4.715   1.950   3.817
 1952TIP3   OH2 5861   4.932   5.928   0.214
 1952TIP3    H1 5862   4.996   5.984   0.170
 1952TIP3    H2 5863   4.985   5.865   0.262
 1953TIP3   OH2 5864   3.502   0.920   0.639
 1953TIP3    H1 5865   3.531   0.955   0.555
 1953TIP3    H2 5866   3.574   0.939   0.699
 1954TIP3   OH2 5867   0.483   5.119   2.476
 1954TIP3    H1 5868   0.552   5.144   2.413
 1954TIP3    H2 5869   0.470   5.197   2.529
 1955TIP3   OH2 5870   4.201   1.181   3.174
 1955TIP3    H1 5871   4.199   1.118   3.246
 1955TIP3    H2 5872   4.147   1.141   3.105
 1956TIP3   OH2 5873   2.082   2.162   0.636
 1956TIP3    H1 5874   2.154   2.112   0.673
 1956TIP3    H2 5875   2.063   2.119   0.553
 1957TIP3   OH2 5876   5.913   0.939   2.809
 1957TIP3    H1 5877   5.922   0.955   2.903
 1957TIP3    H2 5878   5.907   1.026   2.770
 1958TIP3   OH2 5879   2.752   4.896   4.659
 1958TIP3    H1 5880   2.711   4.914   4.574
 1958TIP3    H2 5881   2.679   4.895   4.721
 1959TIP3   OH2 5882   4.588   2.754   4.637
 1959TIP3    H1 5883   4.550   2.822   4.582
 1959TIP3    H2 5884   4.575   2.673   4.589
 1960TIP3   OH2 5885   2.747   4.345   0.534
 1960TIP3    H1 5886   2.677   4.362   0.471
 1960TIP3    H2 5887   2.717   4.268   0.582
 1961TIP3   OH2 5888   2.924   5.144   3.831
 1961TIP3    H1 5889   2.898   5.236   3.833
 1961TIP3    H2 5890   2.845   5.097   3.801
 1962TIP3   OH2 5891   0.865   1.299   0.920
 1962TIP3    H1 5892   0.844   1.223   0.865
 1962TIP3    H2 5893   0.841   1.271   1.008
 1963TIP3   OH2 5894   0.742   0.824   4.324
 1963TIP3    H1 5895   0.687   0.789   4.394
 1963TIP3    H2 5896   0.681   0.858   4.259
 1964TIP3   OH2 5897   0.636   5.022   0.831
 1964TIP3    H1 5898   0.671   4.937   0.858
 1964TIP3    H2 5899   0.698   5.086   0.865
 1965TIP3   OH2 5900   3.361   0.685   4.695
 1965TIP3    H1 5901   3.370   0.774   4.662
 1965TIP3    H2 5902   3.441   0.668   4.744
 1966TIP3   OH2 5903   0.112   3.245   2.035
 1966TIP3    H1 5904   0.081   3.217   2.121
 1966TIP3    H2 5905   0.038   3.228   1.976
 1967TIP3   OH2 5906   4.504   5.336   1.715
 1967TIP3    H1 5907   4.516   5.256   1.766
 1967TIP3    H2 5908   4.436   5.314   1.652
 1968TIP3   OH2 5909   4.215   4.737   4.356
 1968TIP3    H1 5910   4.244   4.670   4.418
 1968TIP3    H2 5911   4.151   4.789   4.405
 1969TIP3   OH2 5912   1.324   1.057   2.648
 1969TIP3    H1 5913   1.357   0.975   2.685
 1969TIP3    H2 5914   1.237   1.036   2.616
 1970TIP3   OH2 5915   4.151   4.810   5.088
 1970TIP3    H1 5916   4.232   4.779   5.126
 1970TIP3    H2 5917   4.142   4.900   5.119
 1971TIP3   OH2 5918   5.848   1.545   0.512
 1971TIP3    H1 5919   5.863   1.451   0.502
 1971TIP3    H2 5920   5.753   1.555   0.509
 1972TIP3   OH2 5921   2.312   4.133   1.734
 1972TIP3    H1 5922   2.405   4.143   1.712
 1972TIP3    H2 5923   2.303   4.040   1.756
 1973TIP3   OH2 5924   4.575   2.939   3.830
 1973TIP3    H1 5925   4.480   2.940   3.822
 1973TIP3    H2 5926   4.604   2.881   3.759
 1974TIP3   OH2 5927   3.642   0.296   0.325
 1974TIP3    H1 5928   3.585   0.313   0.249
 1974TIP3    H2 5929   3.692   0.377   0.335
 1975TIP3   OH2 5930   6.174   3.978   4.172
 1975TIP3    H1 5931   6.195   3.892   4.209
 1975TIP3    H2 5932   6.252   4.001   4.121
 1976TIP3   OH2 5933   6.215   2.324   4.467
 1976TIP3    H1 5934   6.213   2.405   4.416
 1976TIP3    H2 5935   6.230   2.255   4.402
 1977TIP3   OH2 5936   5.648   0.100   4.711
 1977TIP3    H1 5937   5.691   0.154   4.777
 1977TIP3    H2 5938   5.691   0.014   4.719
 1978TIP3   OH2 5939   3.557   0.113   1.311
 1978TIP3    H1 5940   3.488   0.172   1.282
 1978TIP3    H2 5941   3.560   0.044   1.245
 1979TIP3   OH2 5942   2.339   5.253   3.383
 1979TIP3    H1 5943   2.246   5.269   3.401
 1979TIP3    H2 5944   2.382   5.335   3.405
 1980TIP3   OH2 5945   2.970   2.451   1.670
 1980TIP3    H1 5946   3.028   2.414   1.604
 1980TIP3    H2 5947   3.025   2.510   1.721
 1981TIP3   OH2 5948   5.146   2.831   1.063
 1981TIP3    H1 5949   5.237   2.820   1.091
 1981TIP3    H2 5950   5.152   2.894   0.991
 1982TIP3   OH2 5951   2.883   5.811   1.155
 1982TIP3    H1 5952   2.876   5.898   1.193
 1982TIP3    H2 5953   2.793   5.786   1.134
 1983TIP3   OH2 5954   2.240   2.949   1.389
 1983TIP3    H1 5955   2.213   2.912   1.305
 1983TIP3    H2 5956   2.162   2.995   1.421
 1984TIP3   OH2 5957   6.268   2.590   4.368
 1984TIP3    H1 5958   6.189   2.624   4.410
 1984TIP3    H2 5959   6.326   2.665   4.361
 1985TIP3   OH2 5960   4.946   4.224   2.141
 1985TIP3    H1 5961   5.007   4.242   2.212
 1985TIP3    H2 5962   4.860   4.250   2.175
 1986TIP3   OH2 5963   5.156   1.469   4.916
 1986TIP3    H1 5964   5.236   1.484   4.967
 1986TIP3    H2 5965   5.117   1.391   4.955
 1987TIP3   OH2 5966   0.047   0.511   2.862
 1987TIP3    H1 5967   0.053   0.601   2.830
 1987TIP3    H2 5968  -0.002   0.465   2.793
 1988TIP3   OH2 5969   3.149   4.864   2.839
 1988TIP3    H1 5970   3.137   4.926   2.911
 1988TIP3    H2 5971   3.242   4.842   2.842
 1989TIP3   OH2 5972   3.028   0.853   0.643
 1989TIP3    H1 5973   2.974   0.857   0.564
 1989TIP3    H2 5974   3.079   0.772   0.633
 1990TIP3   OH2 5975   5.092   4.130   3.429
 1990TIP3    H1 5976   5.125   4.216   3.457
 1990TIP3    H2 5977   5.008   4.121   3.475
 1991TIP3   OH2 5978   1.544   4.448   3.476
 1991TIP3    H1 5979   1.634   4.470   3.452
 1991TIP3    H2 5980   1.550   4.359   3.510
 1992TIP3   OH2 5981   4.545   1.490   3.553
 1992TIP3    H1 5982   4.500   1.479   3.469
 1992TIP3    H2 5983   4.494   1.557   3.599
 1993TIP3   OH2 5984   2.584   3.351   5.049
 1993TIP3    H1 5985   2.589   3.446   5.062
 1993TIP3    H2 5986   2.635   3.314   5.121
 1994TIP3   OH2 5987   1.258   5.344   3.729
 1994TIP3    H1 5988   1.307   5.309   3.803
 1994TIP3    H2 5989   1.199   5.272   3.703
 1995TIP3   OH2 5990   4.292   5.651   4.781
 1995TIP3    H1 5991   4.259   5.576   4.830
 1995TIP3    H2 5992   4.215   5.706   4.767
 1996TIP3   OH2 5993   4.042   5.831   4.471
 1996TIP3    H1 5994   4.060   5.810   4.563
 1996TIP3    H2 5995   4.019   5.747   4.431
 1997TIP3   OH2 5996   1.755   3.099   4.153
 1997TIP3    H1 5997   1.713   3.028   4.202
 1997TIP3    H2 5998   1.682   3.152   4.120
 1998TIP3   OH2 5999   3.103   5.808   4.910
 1998TIP3    H1 6000   3.163   5.743   4.873
 1998TIP3    H2 6001   3.128   5.890   4.869
 1999TIP3   OH2 6002   0.240   0.690   5.098
 1999TIP3    H1 6003   0.330   0.673   5.125
 1999TIP3    H2 6004   0.224   0.781   5.123
 2000TIP3   OH2 6005  -0.003   2.936   3.085
 2000TIP3    H1 6006   0.050   2.993   3.031
 2000TIP3    H2 6007   0.018   2.847   3.055
 2001TIP3   OH2 6008   5.473   0.787   4.980
 2001TIP3    H1 6009   5.486   0.794   4.885
 2001TIP3    H2 6010   5.515   0.704   5.003
 2002TIP3   OH2 6011   0.274   0.708   3.234
 2002TIP3    H1 6012   0.356   0.723   3.282
 2002TIP3    H2 6013   0.252   0.617   3.255
 2003TIP3   OH2 6014   3.075   2.838   0.657
 2003TIP3    H1 6015   3.125   2.817   0.736
 2003TIP3    H2 6016   2.985   2.846   0.687
 2004TIP3   OH2 6017   5.467   2.580   2.573
 2004TIP3    H1 6018   5.419   2.597   2.491
 2004TIP3    H2 6019   5.550   2.627   2.562
 2005TIP3   OH2 6020   1.095   4.405   4.450
 2005TIP3    H1 6021   1.144   4.452   4.517
 2005TIP3    H2 6022   1.046   4.473   4.404
 2006TIP3   OH2 6023   4.375   0.626   0.089
 2006TIP3    H1 6024   4.430   0.639   0.012
 2006TIP3    H2 6025   4.317   0.702   0.091
 2007TIP3   OH2 6026   0.987   5.087   4.099
 2007TIP3    H1 6027   1.029   5.157   4.149
 2007TIP3    H2 6028   0.911   5.062   4.152
 2008TIP3   OH2 6029   0.758   0.147   1.548
 2008TIP3    H1 6030   0.699   0.208   1.591
 2008TIP3    H2 6031   0.841   0.156   1.594
 2009TIP3   OH2 6032   5.818   3.228   2.717
 2009TIP3    H1 6033   5.784   3.169   2.649
 2009TIP3    H2 6034   5.781   3.313   2.695
 2010TIP3   OH2 6035   3.169   2.236   1.218
 2010TIP3    H1 6036   3.132   2.278   1.141
 2010TIP3    H2 6037   3.253   2.202   1.189
 2011TIP3   OH2 6038   3.642   5.913   5.013
 2011TIP3    H1 6039   3.649   5.839   5.074
 2011TIP3    H2 6040   3.559   5.955   5.036
 2012TIP3   OH2 6041   0.710   4.923   1.938
 2012TIP3    H1 6042   0.782   4.926   2.001
 2012TIP3    H2 6043   0.722   4.840   1.892
 2013TIP3   OH2 6044   6.164   3.416   5.066
 2013TIP3    H1 6045   6.135   3.443   4.979
 2013TIP3    H2 6046   6.251   3.378   5.052
 2014TIP3   OH2 6047   0.498   0.772   4.862
 2014TIP3    H1 6048   0.547   0.728   4.931
 2014TIP3    H2 6049   0.408   0.775   4.894
 2015TIP3   OH2 6050   3.192   5.041   3.845
 2015TIP3    H1 6051   3.235   5.044   3.759
 2015TIP3    H2 6052   3.116   5.099   3.836
 2016TIP3   OH2 6053   5.543   4.142   2.068
 2016TIP3    H1 6054   5.619   4.162   2.124
 2016TIP3    H2 6055   5.581   4.102   1.990
 2017TIP3   OH2 6056   5.643   5.270   2.808
 2017TIP3    H1 6057   5.675   5.341   2.863
 2017TIP3    H2 6058   5.549   5.285   2.801
 2018TIP3   OH2 6059   4.871   2.913   4.420
 2018TIP3    H1 6060   4.882   2.818   4.420
 2018TIP3    H2 6061   4.869   2.937   4.327
 2019TIP3   OH2 6062   5.848   5.627   2.475
 2019TIP3    H1 6063   5.763   5.671   2.475
 2019TIP3    H2 6064   5.881   5.638   2.386
 2020TIP3   OH2 6065   0.666   5.809   2.569
 2020TIP3    H1 6066   0.640   5.876   2.632
 2020TIP3    H2 6067   0.591   5.750   2.564
 2021TIP3   OH2 6068   4.313   4.617   0.067
 2021TIP3    H1 6069   4.328   4.598   0.159
 2021TIP3    H2 6070   4.366   4.695   0.049
 2022TIP3   OH2 6071   5.104   5.541   4.004
 2022TIP3    H1 6072   5.182   5.487   3.992
 2022TIP3    H2 6073   5.057   5.500   4.076
 2023TIP3   OH2 6074   2.035   3.839   4.288
 2023TIP3    H1 6075   2.107   3.792   4.245
 2023TIP3    H2 6076   2.015   3.910   4.228
 2024TIP3   OH2 6077   3.775   5.333   0.187
 2024TIP3    H1 6078   3.682   5.347   0.166
 2024TIP3    H2 6079   3.818   5.414   0.160
 2025TIP3   OH2 6080   1.979   1.196   4.086
 2025TIP3    H1 6081   2.009   1.278   4.125
 2025TIP3    H2 6082   2.059   1.152   4.058
 2026TIP3   OH2 6083   1.631   3.347   1.683
 2026TIP3    H1 6084   1.537   3.336   1.695
 2026TIP3    H2 6085   1.646   3.326   1.590
 2027TIP3   OH2 6086   4.398   1.379   3.291
 2027TIP3    H1 6087   4.462   1.308   3.295
 2027TIP3    H2 6088   4.316   1.335   3.268
 2028TIP3   OH2 6089   1.612   1.419   3.997
 2028TIP3    H1 6090   1.522   1.453   4.000
 2028TIP3    H2 6091   1.660   1.483   3.945
 2029TIP3   OH2 6092   6.019   1.210   2.720
 2029TIP3    H1 6093   6.067   1.230   2.800
 2029TIP3    H2 6094   6.076   1.241   2.649
 2030TIP3   OH2 6095   2.643   0.364   5.110
 2030TIP3    H1 6096   2.665   0.336   5.021
 2030TIP3    H2 6097   2.721   0.344   5.161
 2031TIP3   OH2 6098   2.707   5.330   1.196
 2031TIP3    H1 6099   2.780   5.269   1.181
 2031TIP3    H2 6100   2.746   5.402   1.245
 2032TIP3   OH2 6101   0.283   3.374   4.604
 2032TIP3    H1 6102   0.244   3.290   4.579
 2032TIP3    H2 6103   0.321   3.408   4.524
 2033TIP3   OH2 6104   6.318   1.556   1.061
 2033TIP3    H1 6105   6.247   1.619   1.045
 2033TIP3    H2 6106   6.273   1.476   1.086
 2034TIP3   OH2 6107   0.030   1.098   2.602
 2034TIP3    H1 6108  -0.032   1.086   2.674
 2034TIP3    H2 6109   0.075   1.014   2.595
 2035TIP3   OH2 6110   1.515   4.268   1.849
 2035TIP3    H1 6111   1.481   4.271   1.759
 2035TIP3    H2 6112   1.601   4.227   1.841
 2036TIP3   OH2 6113   5.053   1.415   3.757
 2036TIP3    H1 6114   4.966   1.430   3.721
 2036TIP3    H2 6115   5.079   1.500   3.794
 2037TIP3   OH2 6116   5.889   1.742   1.493
 2037TIP3    H1 6117   5.893   1.657   1.448
 2037TIP3    H2 6118   5.840   1.724   1.573
 2038TIP3   OH2 6119   1.006   2.656   0.382
 2038TIP3    H1 6120   0.954   2.585   0.343
 2038TIP3    H2 6121   1.095   2.622   0.383
 2039TIP3   OH2 6122   1.824   1.593   3.091
 2039TIP3    H1 6123   1.805   1.595   2.998
 2039TIP3    H2 6124   1.847   1.683   3.113
 2040TIP3   OH2 6125   3.491   4.887   1.939
 2040TIP3    H1 6126   3.513   4.980   1.945
 2040TIP3    H2 6127   3.569   4.846   1.902
 2041TIP3   OH2 6128   4.929   5.072   4.694
 2041TIP3    H1 6129   4.935   5.028   4.609
 2041TIP3    H2 6130   4.852   5.128   4.687
 2042TIP3   OH2 6131   1.576   4.646   3.867
 2042TIP3    H1 6132   1.536   4.656   3.781
 2042TIP3    H2 6133   1.569   4.553   3.887
 2043TIP3   OH2 6134   2.455   1.061   3.264
 2043TIP3    H1 6135   2.447   1.036   3.356
 2043TIP3    H2 6136   2.482   0.980   3.220
 2044TIP3   OH2 6137   6.251   5.843   5.186
 2044TIP3    H1 6138   6.315   5.905   5.152
 2044TIP3    H2 6139   6.293   5.806   5.264
 2045TIP3   OH2 6140   5.705   5.459   5.169
 2045TIP3    H1 6141   5.798   5.479   5.177
 2045TIP3    H2 6142   5.682   5.490   5.081
 2046TIP3   OH2 6143   3.157   3.855   1.737
 2046TIP3    H1 6144   3.179   3.796   1.810
 2046TIP3    H2 6145   3.241   3.876   1.697
 2047TIP3   OH2 6146   2.347   3.828   2.914
 2047TIP3    H1 6147   2.438   3.835   2.943
 2047TIP3    H2 6148   2.309   3.914   2.931
 2048TIP3   OH2 6149   2.205   2.305   3.848
 2048TIP3    H1 6150   2.150   2.296   3.770
 2048TIP3    H2 6151   2.148   2.345   3.913
 2049TIP3   OH2 6152   2.910   5.732   0.082
 2049TIP3    H1 6153   2.882   5.644   0.059
 2049TIP3    H2 6154   2.995   5.720   0.126
 2050TIP3   OH2 6155   3.492   1.645   0.568
 2050TIP3    H1 6156   3.463   1.737   0.573
 2050TIP3    H2 6157   3.496   1.617   0.659
 2051TIP3   OH2 6158   3.550   3.156   4.751
 2051TIP3    H1 6159   3.620   3.204   4.706
 2051TIP3    H2 6160   3.541   3.075   4.701
 2052TIP3   OH2 6161   0.279   5.185   3.125
 2052TIP3    H1 6162   0.343   5.153   3.061
 2052TIP3    H2 6163   0.195   5.150   3.094
 2053TIP3   OH2 6164   4.226   0.007   5.027
 2053TIP3    H1 6165   4.156  -0.052   5.000
 2053TIP3    H2 6166   4.213   0.086   4.974
 2054TIP3   OH2 6167   0.338   2.841   1.718
 2054TIP3    H1 6168   0.379   2.924   1.697
 2054TIP3    H2 6169   0.254   2.843   1.672
 2055TIP3   OH2 6170   4.263   5.763   0.062
 2055TIP3    H1 6171   4.280   5.802  -0.024
 2055TIP3    H2 6172   4.173   5.787   0.082
 2056TIP3   OH2 6173   4.262   1.539   0.929
 2056TIP3    H1 6174   4.246   1.630   0.955
 2056TIP3    H2 6175   4.208   1.527   0.851
 2057TIP3   OH2 6176   4.139   2.372   4.651
 2057TIP3    H1 6177   4.076   2.313   4.610
 2057TIP3    H2 6178   4.095   2.456   4.654
 2058TIP3   OH2 6179   1.499   0.925   4.580
 2058TIP3    H1 6180   1.406   0.930   4.558
 2058TIP3    H2 6181   1.520   1.013   4.613
 2059TIP3   OH2 6182   0.868   3.275   2.122
 2059TIP3    H1 6183   0.916   3.297   2.043
 2059TIP3    H2 6184   0.903   3.334   2.189
 2060TIP3   OH2 6185   4.477   0.367   0.179
 2060TIP3    H1 6186   4.511   0.367   0.089
 2060TIP3    H2 6187   4.401   0.425   0.176
 2061TIP3   OH2 6188   2.933   3.943   2.305
 2061TIP3    H1 6189   3.010   3.970   2.254
 2061TIP3    H2 6190   2.885   3.885   2.247
 2062TIP3   OH2 6191   4.816   0.979   3.290
 2062TIP3    H1 6192   4.811   0.901   3.233
 2062TIP3    H2 6193   4.888   1.030   3.252
 2063TIP3   OH2 6194   2.775   2.896   3.965
 2063TIP3    H1 6195   2.716   2.821   3.976
 2063TIP3    H2 6196   2.823   2.901   4.048
 2064TIP3   OH2 6197   3.376  -0.012   0.501
 2064TIP3    H1 6198   3.455  -0.052   0.536
 2064TIP3    H2 6199   3.380  -0.027   0.407
 2065TIP3   OH2 6200   5.091   0.490   2.802
 2065TIP3    H1 6201   5.092   0.584   2.785
 2065TIP3    H2 6202   5.059   0.451   2.720
 2066TIP3   OH2 6203   2.093   5.516   1.445
 2066TIP3    H1 6204   2.072   5.588   1.387
 2066TIP3    H2 6205   2.013   5.500   1.495
 2067TIP3   OH2 6206   2.690   4.559   0.328
 2067TIP3    H1 6207   2.630   4.581   0.258
 2067TIP3    H2 6208   2.777   4.560   0.287
 2068TIP3   OH2 6209   4.661   3.788   1.795
 2068TIP3    H1 6210   4.723   3.821   1.730
 2068TIP3    H2 6211   4.645   3.697   1.769
 2069TIP3   OH2 6212   4.518   0.939   4.621
 2069TIP3    H1 6213   4.483   0.924   4.709
 2069TIP3    H2 6214   4.569   0.861   4.602
 2070TIP3   OH2 6215   3.593   4.475   0.049
 2070TIP3    H1 6216   3.510   4.439   0.079
 2070TIP3    H2 6217   3.569   4.535  -0.021
 2071TIP3   OH2 6218   2.407   1.829   0.916
 2071TIP3    H1 6219   2.500   1.851   0.914
 2071TIP3    H2 6220   2.404   1.740   0.951
 2072TIP3   OH2 6221   2.882   5.588   5.191
 2072TIP3    H1 6222   2.795   5.550   5.180
 2072TIP3    H2 6223   2.874   5.676   5.154
 2073TIP3   OH2 6224   3.731   0.049   0.415
 2073TIP3    H1 6225   3.696   0.129   0.377
 2073TIP3    H2 6226   3.826   0.061   0.415
 2074TIP3   OH2 6227   0.070   1.076   4.439
 2074TIP3    H1 6228   0.118   1.114   4.366
 2074TIP3    H2 6229   0.011   1.145   4.468
 2075TIP3   OH2 6230   0.274   4.705   2.418
 2075TIP3    H1 6231   0.277   4.718   2.513
 2075TIP3    H2 6232   0.317   4.783   2.382
 2076TIP3   OH2 6233   5.459  -0.006   0.567
 2076TIP3    H1 6234   5.487   0.047   0.492
 2076TIP3    H2 6235   5.517  -0.082   0.565
 2077TIP3   OH2 6236   4.992   0.278   1.865
 2077TIP3    H1 6237   5.084   0.257   1.851
 2077TIP3    H2 6238   4.945   0.213   1.813
 2078TIP3   OH2 6239   2.883   2.470   2.646
 2078TIP3    H1 6240   2.930   2.459   2.563
 2078TIP3    H2 6241   2.951   2.478   2.712
 2079TIP3   OH2 6242   2.308   0.330   3.342
 2079TIP3    H1 6243   2.353   0.372   3.416
 2079TIP3    H2 6244   2.217   0.324   3.371
 2080TIP3   OH2 6245   3.057   2.147   1.750
 2080TIP3    H1 6246   3.043   2.118   1.840
 2080TIP3    H2 6247   3.105   2.229   1.758
 2081TIP3   OH2 6248   2.573   3.101   4.717
 2081TIP3    H1 6249   2.633   3.043   4.765
 2081TIP3    H2 6250   2.617   3.115   4.632
 2082TIP3   OH2 6251   3.500   0.707   1.502
 2082TIP3    H1 6252   3.506   0.742   1.413
 2082TIP3    H2 6253   3.464   0.619   1.491
 2083TIP3   OH2 6254   2.125   2.158   0.035
 2083TIP3    H1 6255   2.074   2.211   0.096
 2083TIP3    H2 6256   2.148   2.218  -0.036
 2084TIP3   OH2 6257   5.188   5.678   0.739
 2084TIP3    H1 6258   5.269   5.719   0.711
 2084TIP3    H2 6259   5.122   5.747   0.733
 2085TIP3   OH2 6260   2.808   5.836   1.986
 2085TIP3    H1 6261   2.766   5.781   1.920
 2085TIP3    H2 6262   2.898   5.847   1.954
 2086TIP3   OH2 6263   2.841   0.935   3.026
 2086TIP3    H1 6264   2.750   0.915   3.046
 2086TIP3    H2 6265   2.840   1.024   2.992
 2087TIP3   OH2 6266   2.382   4.226   4.112
 2087TIP3    H1 6267   2.371   4.267   4.198
 2087TIP3    H2 6268   2.438   4.287   4.064
 2088TIP3   OH2 6269   4.569   1.669   1.409
 2088TIP3    H1 6270   4.639   1.734   1.408
 2088TIP3    H2 6271   4.604   1.596   1.358
 2089TIP3   OH2 6272   2.207  -0.013   5.007
 2089TIP3    H1 6273   2.298   0.009   5.028
 2089TIP3    H2 6274   2.179   0.056   4.947
 2090TIP3   OH2 6275   6.185   4.616   3.441
 2090TIP3    H1 6276   6.200   4.608   3.347
 2090TIP3    H2 6277   6.273   4.627   3.478
 2091TIP3   OH2 6278   0.856   2.956   3.918
 2091TIP3    H1 6279   0.835   2.919   3.832
 2091TIP3    H2 6280   0.805   3.037   3.922
 2092TIP3   OH2 6281   6.188   5.734   2.019
 2092TIP3    H1 6282   6.172   5.641   2.036
 2092TIP3    H2 6283   6.101   5.771   2.003
 2093TIP3   OH2 6284   3.282   1.111   1.206
 2093TIP3    H1 6285   3.290   1.024   1.167
 2093TIP3    H2 6286   3.310   1.171   1.138
 2094TIP3   OH2 6287   0.632   5.819   2.124
 2094TIP3    H1 6288   0.616   5.900   2.077
 2094TIP3    H2 6289   0.564   5.816   2.191
 2095TIP3   OH2 6290   5.405  -0.029   3.669
 2095TIP3    H1 6291   5.383   0.057   3.633
 2095TIP3    H2 6292   5.331  -0.085   3.645
 2096TIP3   OH2 6293   1.759   1.952   5.053
 2096TIP3    H1 6294   1.834   1.898   5.076
 2096TIP3    H2 6295   1.726   1.985   5.136
 2097TIP3   OH2 6296   4.740   4.916   3.067
 2097TIP3    H1 6297   4.738   4.878   2.979
 2097TIP3    H2 6298   4.802   4.988   3.060
 2098TIP3   OH2 6299   2.888   4.297   3.933
 2098TIP3    H1 6300   2.845   4.262   4.011
 2098TIP3    H2 6301   2.981   4.290   3.951
 2099TIP3   OH2 6302   2.351   4.122   3.401
 2099TIP3    H1 6303   2.446   4.127   3.408
 2099TIP3    H2 6304   2.320   4.207   3.433
 2100TIP3   OH2 6305   5.856   0.427   1.051
 2100TIP3    H1 6306   5.761   0.426   1.042
 2100TIP3    H2 6307   5.887   0.368   0.982
 2101TIP3   OH2 6308   2.758   1.083   4.918
 2101TIP3    H1 6309   2.846   1.063   4.950
 2101TIP3    H2 6310   2.763   1.174   4.888
 2102TIP3   OH2 6311   1.121   5.388   1.650
 2102TIP3    H1 6312   1.201   5.394   1.598
 2102TIP3    H2 6313   1.148   5.411   1.739
 2103TIP3   OH2 6314   1.686   0.848   2.386
 2103TIP3    H1 6315   1.761   0.876   2.438
 2103TIP3    H2 6316   1.710   0.761   2.354
 2104TIP3   OH2 6317   0.193   0.525   2.607
 2104TIP3    H1 6318   0.186   0.456   2.672
 2104TIP3    H2 6319   0.237   0.597   2.653
 2105TIP3   OH2 6320   3.990   0.595   3.957
 2105TIP3    H1 6321   3.975   0.627   4.046
 2105TIP3    H2 6322   3.966   0.669   3.901
 2106TIP3   OH2 6323   3.934   4.128   0.709
 2106TIP3    H1 6324   3.975   4.214   0.710
 2106TIP3    H2 6325   3.973   4.083   0.634
 2107TIP3   OH2 6326   4.544   1.647   2.744
 2107TIP3    H1 6327   4.624   1.690   2.776
 2107TIP3    H2 6328   4.508   1.710   2.680
 2108TIP3   OH2 6329   0.915   0.857   2.167
 2108TIP3    H1 6330   0.838   0.822   2.211
 2108TIP3    H2 6331   0.884   0.937   2.125
 2109TIP3   OH2 6332   2.684   1.927   3.357
 2109TIP3    H1 6333   2.751   1.917   3.425
 2109TIP3    H2 6334   2.730   1.970   3.285
 2110TIP3   OH2 6335   2.826   3.944   3.802
 2110TIP3    H1 6336   2.840   3.913   3.713
 2110TIP3    H2 6337   2.858   3.873   3.858
 2111TIP3   OH2 6338   5.019   3.872   4.268
 2111TIP3    H1 6339   5.012   3.894   4.175
 2111TIP3    H2 6340   5.113   3.867   4.284
 2112TIP3   OH2 6341   5.432   4.876   3.548
 2112TIP3    H1 6342   5.354   4.923   3.576
 2112TIP3    H2 6343   5.433   4.885   3.453
 2113TIP3   OH2 6344   2.751   3.903   1.152
 2113TIP3    H1 6345   2.728   3.967   1.220
 2113TIP3    H2 6346   2.679   3.840   1.152
 2114TIP3   OH2 6347   2.892   3.171   0.819
 2114TIP3    H1 6348   2.849   3.224   0.752
 2114TIP3    H2 6349   2.858   3.205   0.902
 2115TIP3   OH2 6350   3.356   2.891   1.338
 2115TIP3    H1 6351   3.281   2.854   1.292
 2115TIP3    H2 6352   3.317   2.958   1.396
 2116TIP3   OH2 6353   4.989   4.275   0.087
 2116TIP3    H1 6354   5.071   4.271   0.137
 2116TIP3    H2 6355   4.953   4.187   0.094
 2117TIP3   OH2 6356   5.024   2.587   5.168
 2117TIP3    H1 6357   4.998   2.520   5.231
 2117TIP3    H2 6358   4.952   2.592   5.106
 2118TIP3   OH2 6359   3.960   4.422   4.821
 2118TIP3    H1 6360   3.927   4.412   4.732
 2118TIP3    H2 6361   3.962   4.516   4.836
 2119TIP3   OH2 6362   5.289   0.866   1.936
 2119TIP3    H1 6363   5.348   0.817   1.994
 2119TIP3    H2 6364   5.347   0.922   1.885
 2120TIP3   OH2 6365   1.490   4.984   3.797
 2120TIP3    H1 6366   1.527   5.055   3.849
 2120TIP3    H2 6367   1.433   4.937   3.858
 2121TIP3   OH2 6368   2.198   3.614   2.793
 2121TIP3    H1 6369   2.266   3.659   2.842
 2121TIP3    H2 6370   2.139   3.579   2.861
 2122TIP3   OH2 6371   4.787   5.760   2.601
 2122TIP3    H1 6372   4.877   5.782   2.580
 2122TIP3    H2 6373   4.739   5.770   2.519
 2123TIP3   OH2 6374   4.321   4.211   2.337
 2123TIP3    H1 6375   4.246   4.257   2.377
 2123TIP3    H2 6376   4.366   4.278   2.286
 2124TIP3   OH2 6377   5.124   3.556   1.626
 2124TIP3    H1 6378   5.086   3.515   1.548
 2124TIP3    H2 6379   5.218   3.538   1.618
 2125TIP3   OH2 6380   4.346   1.010   0.518
 2125TIP3    H1 6381   4.377   1.100   0.510
 2125TIP3    H2 6382   4.385   0.964   0.444
 2126TIP3   OH2 6383   2.887   5.757   0.836
 2126TIP3    H1 6384   2.935   5.753   0.918
 2126TIP3    H2 6385   2.953   5.784   0.771
 2127TIP3   OH2 6386   3.811   0.447   0.489
 2127TIP3    H1 6387   3.731   0.499   0.477
 2127TIP3    H2 6388   3.822   0.442   0.584
 2128TIP3   OH2 6389   2.512   2.198   5.064
 2128TIP3    H1 6390   2.454   2.238   5.129
 2128TIP3    H2 6391   2.458   2.131   5.022
 2129TIP3   OH2 6392   0.107   0.392   3.995
 2129TIP3    H1 6393   0.176   0.382   4.061
 2129TIP3    H2 6394   0.114   0.314   3.940
 2130TIP3   OH2 6395   2.979   3.253   3.026
 2130TIP3    H1 6396   2.951   3.162   3.037
 2130TIP3    H2 6397   2.903   3.305   3.052
 2131TIP3   OH2 6398   5.912   4.552   3.446
 2131TIP3    H1 6399   5.996   4.596   3.436
 2131TIP3    H2 6400   5.876   4.588   3.528
 2132TIP3   OH2 6401   4.015   5.195   0.561
 2132TIP3    H1 6402   4.047   5.105   0.564
 2132TIP3    H2 6403   4.064   5.235   0.489
 2133TIP3   OH2 6404   5.397   0.514   2.193
 2133TIP3    H1 6405   5.481   0.506   2.237
 2133TIP3    H2 6406   5.419   0.538   2.104
 2134TIP3   OH2 6407   5.204   5.764   3.153
 2134TIP3    H1 6408   5.145   5.760   3.229
 2134TIP3    H2 6409   5.287   5.730   3.186
 2135TIP3   OH2 6410   1.880   0.786   4.829
 2135TIP3    H1 6411   1.934   0.855   4.792
 2135TIP3    H2 6412   1.894   0.793   4.924
 2136TIP3   OH2 6413   5.978   4.063   1.621
 2136TIP3    H1 6414   5.994   4.045   1.713
 2136TIP3    H2 6415   5.902   4.009   1.598
 2137TIP3   OH2 6416   3.186   1.681   4.945
 2137TIP3    H1 6417   3.183   1.585   4.953
 2137TIP3    H2 6418   3.145   1.699   4.861
 2138TIP3   OH2 6419   1.915   0.092   5.043
 2138TIP3    H1 6420   1.954   0.009   5.071
 2138TIP3    H2 6421   1.857   0.117   5.115
 2139TIP3   OH2 6422   1.166   3.332   4.734
 2139TIP3    H1 6423   1.248   3.284   4.725
 2139TIP3    H2 6424   1.190   3.411   4.784
 2140TIP3   OH2 6425   3.122   2.589   0.523
 2140TIP3    H1 6426   3.057   2.529   0.560
 2140TIP3    H2 6427   3.082   2.676   0.533
 2141TIP3   OH2 6428   1.566   5.938   2.905
 2141TIP3    H1 6429   1.510   5.891   2.966
 2141TIP3    H2 6430   1.550   5.897   2.820
 2142TIP3   OH2 6431   3.874   4.362   3.453
 2142TIP3    H1 6432   3.843   4.278   3.421
 2142TIP3    H2 6433   3.887   4.348   3.547
 2143TIP3   OH2 6434   0.940   0.680   1.312
 2143TIP3    H1 6435   0.938   0.600   1.260
 2143TIP3    H2 6436   1.032   0.690   1.337
 2144TIP3   OH2 6437   1.497   5.726   3.101
 2144TIP3    H1 6438   1.470   5.671   3.027
 2144TIP3    H2 6439   1.593   5.722   3.100
 2145TIP3   OH2 6440   3.561   0.290   3.828
 2145TIP3    H1 6441   3.604   0.223   3.775
 2145TIP3    H2 6442   3.509   0.241   3.892
 2146TIP3   OH2 6443   2.520   3.185   0.803
 2146TIP3    H1 6444   2.552   3.152   0.887
 2146TIP3    H2 6445   2.441   3.133   0.786
 2147TIP3   OH2 6446   2.281   3.418   0.415
 2147TIP3    H1 6447   2.210   3.367   0.455
 2147TIP3    H2 6448   2.254   3.509   0.425
 2148TIP3   OH2 6449   6.193   0.926   3.418
 2148TIP3    H1 6450   6.165   0.884   3.499
 2148TIP3    H2 6451   6.132   0.892   3.352
 2149TIP3   OH2 6452   0.876   1.042   4.766
 2149TIP3    H1 6453   0.781   1.037   4.759
 2149TIP3    H2 6454   0.908   0.992   4.690
 2150TIP3   OH2 6455   2.237   5.069   4.478
 2150TIP3    H1 6456   2.226   5.161   4.501
 2150TIP3    H2 6457   2.331   5.056   4.471
 2151TIP3   OH2 6458   1.761   2.543   4.446
 2151TIP3    H1 6459   1.717   2.529   4.530
 2151TIP3    H2 6460   1.841   2.591   4.468
 2152TIP3   OH2 6461   5.770   4.594   1.403
 2152TIP3    H1 6462   5.687   4.547   1.401
 2152TIP3    H2 6463   5.784   4.612   1.496
 2153TIP3   OH2 6464   1.676   4.009   1.218
 2153TIP3    H1 6465   1.607   3.953   1.255
 2153TIP3    H2 6466   1.733   3.949   1.171
 2154TIP3   OH2 6467   6.313   4.222   4.676
 2154TIP3    H1 6468   6.340   4.143   4.722
 2154TIP3    H2 6469   6.373   4.290   4.706
 2155TIP3   OH2 6470   3.438   4.634   3.973
 2155TIP3    H1 6471   3.457   4.658   4.064
 2155TIP3    H2 6472   3.344   4.649   3.963
 2156TIP3   OH2 6473   4.921   0.446   1.489
 2156TIP3    H1 6474   4.889   0.484   1.408
 2156TIP3    H2 6475   4.852   0.385   1.516
 2157TIP3   OH2 6476   0.377   1.999   2.069
 2157TIP3    H1 6477   0.293   1.960   2.089
 2157TIP3    H2 6478   0.357   2.072   2.010
 2158TIP3   OH2 6479   5.923   5.649   4.513
 2158TIP3    H1 6480   5.940   5.722   4.572
 2158TIP3    H2 6481   5.882   5.689   4.436
 2159TIP3   OH2 6482   0.339   3.509   4.357
 2159TIP3    H1 6483   0.424   3.467   4.347
 2159TIP3    H2 6484   0.356   3.602   4.344
 2160TIP3   OH2 6485   4.191   3.515   0.789
 2160TIP3    H1 6486   4.099   3.495   0.771
 2160TIP3    H2 6487   4.234   3.514   0.703
 2161TIP3   OH2 6488   1.436   4.301   1.327
 2161TIP3    H1 6489   1.454   4.225   1.271
 2161TIP3    H2 6490   1.464   4.273   1.414
 2162TIP3   OH2 6491   2.362   2.279   1.576
 2162TIP3    H1 6492   2.286   2.280   1.519
 2162TIP3    H2 6493   2.433   2.316   1.523
 2163TIP3   OH2 6494   5.982   1.105   0.942
 2163TIP3    H1 6495   5.988   1.201   0.934
 2163TIP3    H2 6496   5.899   1.090   0.988
 2164TIP3   OH2 6497   5.903   3.095   0.829
 2164TIP3    H1 6498   5.955   3.175   0.835
 2164TIP3    H2 6499   5.814   3.125   0.812
 2165TIP3   OH2 6500   0.518   0.646   5.133
 2165TIP3    H1 6501   0.512   0.738   5.157
 2165TIP3    H2 6502   0.538   0.601   5.215
 2166TIP3   OH2 6503   4.614   3.920   0.424
 2166TIP3    H1 6504   4.682   3.858   0.449
 2166TIP3    H2 6505   4.660   3.988   0.374
 2167TIP3   OH2 6506   3.262   3.034   2.183
 2167TIP3    H1 6507   3.174   2.996   2.180
 2167TIP3    H2 6508   3.286   3.046   2.091
 2168TIP3   OH2 6509   2.812   1.228   4.591
 2168TIP3    H1 6510   2.764   1.292   4.643
 2168TIP3    H2 6511   2.884   1.201   4.647
 2169TIP3   OH2 6512   4.021   5.969   1.534
 2169TIP3    H1 6513   4.078   5.935   1.466
 2169TIP3    H2 6514   3.998   5.893   1.587
 2170TIP3   OH2 6515   3.102   5.734   1.642
 2170TIP3    H1 6516   3.121   5.769   1.729
 2170TIP3    H2 6517   3.123   5.641   1.649
 2171TIP3   OH2 6518   5.142   2.723   1.427
 2171TIP3    H1 6519   5.120   2.714   1.520
 2171TIP3    H2 6520   5.060   2.707   1.381
 2172TIP3   OH2 6521   1.397   2.311   3.147
 2172TIP3    H1 6522   1.410   2.218   3.125
 2172TIP3    H2 6523   1.318   2.336   3.100
 2173TIP3   OH2 6524   3.888   5.780   2.865
 2173TIP3    H1 6525   3.979   5.762   2.887
 2173TIP3    H2 6526   3.853   5.697   2.833
 2174TIP3   OH2 6527   3.136   5.433   0.369
 2174TIP3    H1 6528   3.046   5.450   0.340
 2174TIP3    H2 6529   3.130   5.426   0.464
 2175TIP3   OH2 6530   3.787   2.859   0.774
 2175TIP3    H1 6531   3.810   2.943   0.733
 2175TIP3    H2 6532   3.795   2.876   0.868
 2176TIP3   OH2 6533   1.536   2.914   2.889
 2176TIP3    H1 6534   1.445   2.889   2.875
 2176TIP3    H2 6535   1.572   2.846   2.946
 2177TIP3   OH2 6536   0.815   2.822   1.332
 2177TIP3    H1 6537   0.806   2.777   1.248
 2177TIP3    H2 6538   0.725   2.827   1.366
 2178TIP3   OH2 6539   5.154  -0.002   1.908
 2178TIP3    H1 6540   5.186   0.088   1.907
 2178TIP3    H2 6541   5.226  -0.053   1.945
 2179TIP3   OH2 6542   4.119   1.567   4.116
 2179TIP3    H1 6543   4.133   1.541   4.025
 2179TIP3    H2 6544   4.025   1.556   4.130
 2180TIP3   OH2 6545   5.498   1.371   4.801
 2180TIP3    H1 6546   5.496   1.285   4.841
 2180TIP3    H2 6547   5.411   1.408   4.817
 2181TIP3   OH2 6548   3.060   4.137   2.938
 2181TIP3    H1 6549   3.075   4.084   2.859
 2181TIP3    H2 6550   3.064   4.228   2.907
 2182TIP3   OH2 6551   0.668   3.037   2.399
 2182TIP3    H1 6552   0.604   2.969   2.376
 2182TIP3    H2 6553   0.724   2.996   2.464
 2183TIP3   OH2 6554   0.962   4.097   4.839
 2183TIP3    H1 6555   1.026   4.025   4.833
 2183TIP3    H2 6556   1.016   4.176   4.843
 2184TIP3   OH2 6557   5.755   1.645   3.414
 2184TIP3    H1 6558   5.786   1.735   3.409
 2184TIP3    H2 6559   5.752   1.615   3.323
 2185TIP3   OH2 6560   5.216   4.358   3.600
 2185TIP3    H1 6561   5.253   4.270   3.613
 2185TIP3    H2 6562   5.255   4.411   3.669
 2186TIP3   OH2 6563   4.489   0.056   3.819
 2186TIP3    H1 6564   4.483   0.117   3.893
 2186TIP3    H2 6565   4.402   0.015   3.815
 2187TIP3   OH2 6566   4.189   3.592   4.703
 2187TIP3    H1 6567   4.113   3.639   4.669
 2187TIP3    H2 6568   4.173   3.586   4.797
 2188TIP3   OH2 6569   5.072   2.971   1.961
 2188TIP3    H1 6570   5.151   2.982   2.014
 2188TIP3    H2 6571   5.084   3.031   1.887
 2189TIP3   OH2 6572   1.394   0.465  -0.023
 2189TIP3    H1 6573   1.458   0.508   0.032
 2189TIP3    H2 6574   1.444   0.401  -0.074
 2190TIP3   OH2 6575   5.752   3.751   5.003
 2190TIP3    H1 6576   5.841   3.761   4.971
 2190TIP3    H2 6577   5.711   3.691   4.942
 2191TIP3   OH2 6578   4.685   3.818   2.481
 2191TIP3    H1 6579   4.735   3.879   2.426
 2191TIP3    H2 6580   4.750   3.757   2.515
 2192TIP3   OH2 6581   6.043   2.737   0.730
 2192TIP3    H1 6582   6.122   2.684   0.717
 2192TIP3    H2 6583   5.974   2.690   0.684
 2193TIP3   OH2 6584   2.080   4.435   3.611
 2193TIP3    H1 6585   2.002   4.464   3.660
 2193TIP3    H2 6586   2.119   4.367   3.666
 2194TIP3   OH2 6587   5.636   5.223   4.318
 2194TIP3    H1 6588   5.541   5.236   4.321
 2194TIP3    H2 6589   5.660   5.195   4.406
 2195TIP3   OH2 6590   0.032   3.517   4.300
 2195TIP3    H1 6591  -0.006   3.432   4.322
 2195TIP3    H2 6592   0.065   3.550   4.384
 2196TIP3   OH2 6593   0.337   0.099   4.128
 2196TIP3    H1 6594   0.251   0.077   4.092
 2196TIP3    H2 6595   0.321   0.176   4.183
 2197TIP3   OH2 6596   4.924   2.899   3.580
 2197TIP3    H1 6597   4.906   2.836   3.649
 2197TIP3    H2 6598   4.956   2.977   3.626
 2198TIP3   OH2 6599   5.294   0.227   1.606
 2198TIP3    H1 6600   5.314   0.150   1.554
 2198TIP3    H2 6601   5.368   0.286   1.591
 2199TIP3   OH2 6602   3.930   4.364   3.722
 2199TIP3    H1 6603   3.999   4.405   3.773
 2199TIP3    H2 6604   3.921   4.276   3.760
 2200TIP3   OH2 6605   2.574   2.730   4.882
 2200TIP3    H1 6606   2.591   2.810   4.931
 2200TIP3    H2 6607   2.505   2.753   4.820
 2201TIP3   OH2 6608   0.222   3.873   4.556
 2201TIP3    H1 6609   0.288   3.818   4.597
 2201TIP3    H2 6610   0.257   3.962   4.564
 2202TIP3   OH2 6611   5.255   4.983   4.989
 2202TIP3    H1 6612   5.233   5.072   5.018
 2202TIP3    H2 6613   5.172   4.948   4.956
 2203TIP3   OH2 6614   4.200   4.674   1.420
 2203TIP3    H1 6615   4.151   4.613   1.474
 2203TIP3    H2 6616   4.286   4.634   1.409
 2204TIP3   OH2 6617   3.796   1.202   4.029
 2204TIP3    H1 6618   3.769   1.282   3.984
 2204TIP3    H2 6619   3.852   1.233   4.101
 2205TIP3   OH2 6620   3.482   5.741   0.507
 2205TIP3    H1 6621   3.520   5.656   0.531
 2205TIP3    H2 6622   3.538   5.772   0.435
 2206TIP3   OH2 6623   0.492   5.350   2.620
 2206TIP3    H1 6624   0.459   5.428   2.576
 2206TIP3    H2 6625   0.545   5.384   2.692
 2207TIP3   OH2 6626   3.497   3.892   1.170
 2207TIP3    H1 6627   3.412   3.882   1.127
 2207TIP3    H2 6628   3.481   3.955   1.240
 2208TIP3   OH2 6629   5.377   5.802   5.176
 2208TIP3    H1 6630   5.425   5.840   5.250
 2208TIP3    H2 6631   5.437   5.810   5.102
 2209TIP3   OH2 6632   2.563   0.251   3.267
 2209TIP3    H1 6633   2.622   0.279   3.196
 2209TIP3    H2 6634   2.614   0.263   3.347
 2210TIP3   OH2 6635   5.957   5.540   5.211
 2210TIP3    H1 6636   5.966   5.635   5.203
 2210TIP3    H2 6637   6.002   5.505   5.134
 2211TIP3   OH2 6638   0.535   0.883   0.481
 2211TIP3    H1 6639   0.622   0.914   0.454
 2211TIP3    H2 6640   0.547   0.790   0.497
 2212TIP3   OH2 6641   5.473   5.548   0.304
 2212TIP3    H1 6642   5.422   5.482   0.352
 2212TIP3    H2 6643   5.433   5.632   0.330
 2213TIP3   OH2 6644   1.262   1.462   2.117
 2213TIP3    H1 6645   1.335   1.402   2.129
 2213TIP3    H2 6646   1.234   1.485   2.206
 2214TIP3   OH2 6647   2.659   0.637   0.908
 2214TIP3    H1 6648   2.748   0.659   0.879
 2214TIP3    H2 6649   2.672   0.560   0.964
 2215TIP3   OH2 6650   4.838   3.490   4.512
 2215TIP3    H1 6651   4.828   3.585   4.502
 2215TIP3    H2 6652   4.809   3.453   4.429
 2216TIP3   OH2 6653   2.490   2.362   4.052
 2216TIP3    H1 6654   2.478   2.433   3.988
 2216TIP3    H2 6655   2.542   2.297   4.006
 2217TIP3   OH2 6656   1.363   0.019   4.010
 2217TIP3    H1 6657   1.327   0.086   4.067
 2217TIP3    H2 6658   1.458   0.030   4.016
 2218TIP3   OH2 6659   1.837   1.940   0.521
 2218TIP3    H1 6660   1.854   1.898   0.437
 2218TIP3    H2 6661   1.815   1.867   0.580
 2219TIP3   OH2 6662   1.298   3.567   1.457
 2219TIP3    H1 6663   1.339   3.638   1.506
 2219TIP3    H2 6664   1.271   3.505   1.524
 2220TIP3   OH2 6665   0.921   3.000   2.586
 2220TIP3    H1 6666   0.895   3.083   2.624
 2220TIP3    H2 6667   0.989   3.022   2.523
 2221TIP3   OH2 6668   3.364   0.103   2.422
 2221TIP3    H1 6669   3.378   0.150   2.340
 2221TIP3    H2 6670   3.412   0.020   2.410
 2222TIP3   OH2 6671   4.363   0.649   1.897
 2222TIP3    H1 6672   4.358   0.744   1.907
 2222TIP3    H2 6673   4.360   0.635   1.802
 2223TIP3   OH2 6674   3.675   0.076   3.704
 2223TIP3    H1 6675   3.743   0.046   3.765
 2223TIP3    H2 6676   3.621  -0.002   3.690
 2224TIP3   OH2 6677   3.327   0.772   2.746
 2224TIP3    H1 6678   3.398   0.835   2.755
 2224TIP3    H2 6679   3.297   0.782   2.655
 2225TIP3   OH2 6680   1.462   0.791   3.437
 2225TIP3    H1 6681   1.387   0.789   3.496
 2225TIP3    H2 6682   1.424   0.800   3.350
 2226TIP3   OH2 6683   5.497   0.831   4.695
 2226TIP3    H1 6684   5.537   0.880   4.624
 2226TIP3    H2 6685   5.436   0.771   4.651
 2227TIP3   OH2 6686   0.187   0.460   3.277
 2227TIP3    H1 6687   0.174   0.398   3.205
 2227TIP3    H2 6688   0.106   0.454   3.328
 2228TIP3   OH2 6689   1.330   2.340   1.210
 2228TIP3    H1 6690   1.324   2.428   1.171
 2228TIP3    H2 6691   1.288   2.349   1.296
 2229TIP3   OH2 6692   1.865   4.169   0.368
 2229TIP3    H1 6693   1.920   4.149   0.443
 2229TIP3    H2 6694   1.850   4.264   0.372
 2230TIP3   OH2 6695   2.553   2.493   3.422
 2230TIP3    H1 6696   2.535   2.559   3.355
 2230TIP3    H2 6697   2.600   2.424   3.376
 2231TIP3   OH2 6698   3.817   1.531   4.412
 2231TIP3    H1 6699   3.785   1.491   4.331
 2231TIP3    H2 6700   3.838   1.456   4.468
 2232TIP3   OH2 6701   3.800   1.871   2.869
 2232TIP3    H1 6702   3.806   1.858   2.963
 2232TIP3    H2 6703   3.707   1.882   2.851
 2233TIP3   OH2 6704   2.392   0.243   4.657
 2233TIP3    H1 6705   2.358   0.168   4.705
 2233TIP3    H2 6706   2.320   0.269   4.598
 2234TIP3   OH2 6707   0.182   2.490   3.472
 2234TIP3    H1 6708   0.188   2.403   3.432
 2234TIP3    H2 6709   0.146   2.475   3.559
 2235TIP3   OH2 6710   3.272   0.852   1.612
 2235TIP3    H1 6711   3.335   0.794   1.569
 2235TIP3    H2 6712   3.231   0.901   1.541
 2236TIP3   OH2 6713   0.634   3.229   3.217
 2236TIP3    H1 6714   0.712   3.283   3.222
 2236TIP3    H2 6715   0.587   3.261   3.140
 2237TIP3   OH2 6716   4.788   4.800   4.261
 2237TIP3    H1 6717   4.746   4.816   4.177
 2237TIP3    H2 6718   4.856   4.735   4.242
 2238TIP3   OH2 6719   1.439   5.629   2.387
 2238TIP3    H1 6720   1.435   5.659   2.478
 2238TIP3    H2 6721   1.532   5.626   2.367
 2239TIP3   OH2 6722   5.106   1.663   0.653
 2239TIP3    H1 6723   5.061   1.578   0.653
 2239TIP3    H2 6724   5.077   1.705   0.572
 2240TIP3   OH2 6725   4.069   1.798   1.940
 2240TIP3    H1 6726   4.135   1.819   1.873
 2240TIP3    H2 6727   4.049   1.883   1.981
 2241TIP3   OH2 6728   3.182   3.137   1.026
 2241TIP3    H1 6729   3.195   3.143   0.932
 2241TIP3    H2 6730   3.114   3.202   1.045
 2242TIP3   OH2 6731   4.504   0.612   0.329
 2242TIP3    H1 6732   4.477   0.639   0.241
 2242TIP3    H2 6733   4.565   0.539   0.313
 2243TIP3   OH2 6734   2.791   5.809   3.632
 2243TIP3    H1 6735   2.702   5.800   3.667
 2243TIP3    H2 6736   2.780   5.850   3.546
 2244TIP3   OH2 6737   6.280   4.430   2.957
 2244TIP3    H1 6738   6.307   4.346   2.920
 2244TIP3    H2 6739   6.185   4.429   2.952
 2245TIP3   OH2 6740   0.849   3.744   3.212
 2245TIP3    H1 6741   0.849   3.834   3.245
 2245TIP3    H2 6742   0.887   3.751   3.124
 2246TIP3   OH2 6743   4.958   4.593   2.476
 2246TIP3    H1 6744   4.996   4.669   2.519
 2246TIP3    H2 6745   5.000   4.518   2.518
 2247TIP3   OH2 6746   0.179   5.217   0.118
 2247TIP3    H1 6747   0.145   5.138   0.075
 2247TIP3    H2 6748   0.106   5.249   0.171
 2248TIP3   OH2 6749   4.131   5.863   4.200
 2248TIP3    H1 6750   4.050   5.914   4.195
 2248TIP3    H2 6751   4.107   5.775   4.171
 2249TIP3   OH2 6752   6.238   5.421   0.697
 2249TIP3    H1 6753   6.241   5.469   0.614
 2249TIP3    H2 6754   6.258   5.330   0.672
 2250TIP3   OH2 6755   4.937   4.160   1.438
 2250TIP3    H1 6756   5.025   4.132   1.465
 2250TIP3    H2 6757   4.891   4.079   1.418
 2251TIP3   OH2 6758   4.524   4.972   2.117
 2251TIP3    H1 6759   4.465   5.043   2.142
 2251TIP3    H2 6760   4.559   4.938   2.200
 2252TIP3   OH2 6761   2.910   3.462   2.076
 2252TIP3    H1 6762   2.866   3.462   2.160
 2252TIP3    H2 6763   2.902   3.552   2.045
 2253TIP3   OH2 6764   2.081   5.273   4.245
 2253TIP3    H1 6765   2.155   5.319   4.284
 2253TIP3    H2 6766   2.120   5.201   4.195
 2254TIP3   OH2 6767   2.204   5.999   0.530
 2254TIP3    H1 6768   2.200   5.909   0.563
 2254TIP3    H2 6769   2.238   5.990   0.441
 2255TIP3   OH2 6770   3.818   1.138   2.122
 2255TIP3    H1 6771   3.812   1.196   2.198
 2255TIP3    H2 6772   3.771   1.059   2.148
 2256TIP3   OH2 6773   5.771   5.870   3.672
 2256TIP3    H1 6774   5.747   5.848   3.762
 2256TIP3    H2 6775   5.688   5.880   3.626
 2257TIP3   OH2 6776   5.057   4.107   0.598
 2257TIP3    H1 6777   5.072   4.169   0.669
 2257TIP3    H2 6778   5.139   4.059   0.590
 2258TIP3   OH2 6779   2.448   3.231   4.362
 2258TIP3    H1 6780   2.411   3.143   4.359
 2258TIP3    H2 6781   2.428   3.268   4.276
 2259TIP3   OH2 6782   4.693   4.136   1.702
 2259TIP3    H1 6783   4.745   4.111   1.778
 2259TIP3    H2 6784   4.754   4.130   1.628
 2260TIP3   OH2 6785   3.853   5.940   1.947
 2260TIP3    H1 6786   3.893   6.025   1.928
 2260TIP3    H2 6787   3.894   5.913   2.029
 2261TIP3   OH2 6788   3.583   1.406   2.414
 2261TIP3    H1 6789   3.539   1.469   2.470
 2261TIP3    H2 6790   3.514   1.346   2.385
 2262TIP3   OH2 6791   1.539   3.605   3.278
 2262TIP3    H1 6792   1.536   3.513   3.251
 2262TIP3    H2 6793   1.632   3.625   3.285
 2263TIP3   OH2 6794   4.766   4.698   3.668
 2263TIP3    H1 6795   4.856   4.669   3.658
 2263TIP3    H2 6796   4.727   4.634   3.728
 2264TIP3   OH2 6797   3.133   3.273   2.366
 2264TIP3    H1 6798   3.212   3.241   2.409
 2264TIP3    H2 6799   3.094   3.196   2.326
 2265TIP3   OH2 6800   1.936   0.878   0.552
 2265TIP3    H1 6801   1.958   0.836   0.635
 2265TIP3    H2 6802   1.901   0.963   0.577
 2266TIP3   OH2 6803   2.606   3.591   5.163
 2266TIP3    H1 6804   2.517   3.600   5.198
 2266TIP3    H2 6805   2.660   3.646   5.219
 2267TIP3   OH2 6806   5.248   2.099   3.469
 2267TIP3    H1 6807   5.220   2.094   3.377
 2267TIP3    H2 6808   5.229   2.189   3.496
 2268TIP3   OH2 6809   0.507   4.144   4.221
 2268TIP3    H1 6810   0.412   4.153   4.208
 2268TIP3    H2 6811   0.524   4.052   4.201
 2269TIP3   OH2 6812   0.507   3.540   0.671
 2269TIP3    H1 6813   0.593   3.504   0.696
 2269TIP3    H2 6814   0.512   3.551   0.576
 2270TIP3   OH2 6815   1.050   2.881   5.086
 2270TIP3    H1 6816   0.993   2.805   5.097
 2270TIP3    H2 6817   1.104   2.883   5.165
 2271TIP3   OH2 6818   2.271   3.059   2.813
 2271TIP3    H1 6819   2.258   3.090   2.723
 2271TIP3    H2 6820   2.341   2.994   2.806
 2272TIP3   OH2 6821   4.886   1.258   0.854
 2272TIP3    H1 6822   4.810   1.260   0.796
 2272TIP3    H2 6823   4.860   1.200   0.925
 2273TIP3   OH2 6824   1.246   5.523   4.624
 2273TIP3    H1 6825   1.161   5.556   4.653
 2273TIP3    H2 6826   1.252   5.435   4.662
 2274TIP3   OH2 6827   5.080   5.292   4.528
 2274TIP3    H1 6828   5.058   5.378   4.566
 2274TIP3    H2 6829   5.002   5.239   4.543
 2275TIP3   OH2 6830   0.632   3.601   2.828
 2275TIP3    H1 6831   0.671   3.573   2.911
 2275TIP3    H2 6832   0.684   3.676   2.801
 2276TIP3   OH2 6833   3.475   1.600   3.286
 2276TIP3    H1 6834   3.475   1.508   3.257
 2276TIP3    H2 6835   3.430   1.598   3.370
 2277TIP3   OH2 6836   2.195   0.954   1.632
 2277TIP3    H1 6837   2.182   0.885   1.567
 2277TIP3    H2 6838   2.115   0.955   1.683
 2278TIP3   OH2 6839   5.874   5.925   2.709
 2278TIP3    H1 6840   5.969   5.931   2.703
 2278TIP3    H2 6841   5.848   6.002   2.760
 2279TIP3   OH2 6842   6.113   0.470   1.170
 2279TIP3    H1 6843   6.029   0.462   1.125
 2279TIP3    H2 6844   6.124   0.386   1.215
 2280TIP3   OH2 6845   0.126   1.839   3.851
 2280TIP3    H1 6846   0.176   1.915   3.879
 2280TIP3    H2 6847   0.187   1.788   3.798
 2281TIP3   OH2 6848   4.747   4.244   4.713
 2281TIP3    H1 6849   4.794   4.244   4.797
 2281TIP3    H2 6850   4.683   4.174   4.721
 2282TIP3   OH2 6851   4.294   0.978   2.529
 2282TIP3    H1 6852   4.316   1.069   2.510
 2282TIP3    H2 6853   4.201   0.972   2.508
 2283TIP3   OH2 6854   5.574   4.969   1.597
 2283TIP3    H1 6855   5.662   4.940   1.618
 2283TIP3    H2 6856   5.581   5.064   1.586
 2284TIP3   OH2 6857   5.630   2.290   3.296
 2284TIP3    H1 6858   5.726   2.290   3.291
 2284TIP3    H2 6859   5.605   2.198   3.283
 2285TIP3   OH2 6860   3.626   5.640   3.803
 2285TIP3    H1 6861   3.607   5.605   3.890
 2285TIP3    H2 6862   3.618   5.734   3.813
 2286TIP3   OH2 6863   1.809   2.365   5.080
 2286TIP3    H1 6864   1.765   2.318   5.151
 2286TIP3    H2 6865   1.852   2.297   5.029
 2287TIP3   OH2 6866   1.187   2.047   0.334
 2287TIP3    H1 6867   1.158   2.119   0.390
 2287TIP3    H2 6868   1.143   1.970   0.370
 2288TIP3   OH2 6869   0.240   2.529   0.839
 2288TIP3    H1 6870   0.236   2.536   0.743
 2288TIP3    H2 6871   0.330   2.502   0.857
 2289TIP3   OH2 6872   6.313   4.783   5.141
 2289TIP3    H1 6873   6.296   4.824   5.225
 2289TIP3    H2 6874   6.360   4.702   5.162
 2290TIP3   OH2 6875   2.729   2.787   0.443
 2290TIP3    H1 6876   2.665   2.857   0.436
 2290TIP3    H2 6877   2.775   2.805   0.526
 2291TIP3   OH2 6878   5.638  -0.031   1.059
 2291TIP3    H1 6879   5.679   0.047   1.098
 2291TIP3    H2 6880   5.567   0.004   1.005
 2292TIP3   OH2 6881   1.186   2.379   2.028
 2292TIP3    H1 6882   1.134   2.364   2.107
 2292TIP3    H2 6883   1.152   2.461   1.991
 2293TIP3   OH2 6884   5.700   2.611   4.404
 2293TIP3    H1 6885   5.776   2.650   4.448
 2293TIP3    H2 6886   5.705   2.644   4.314
 2294TIP3   OH2 6887   1.397   1.176   5.009
 2294TIP3    H1 6888   1.477   1.146   4.965
 2294TIP3    H2 6889   1.380   1.262   4.970
 2295TIP3   OH2 6890   6.380   4.469   0.840
 2295TIP3    H1 6891   6.405   4.446   0.750
 2295TIP3    H2 6892   6.310   4.407   0.862
 2296TIP3   OH2 6893   5.400   4.423   1.161
 2296TIP3    H1 6894   5.382   4.428   1.068
 2296TIP3    H2 6895   5.334   4.479   1.202
 2297TIP3   OH2 6896   2.088   4.065   4.148
 2297TIP3    H1 6897   2.075   4.139   4.207
 2297TIP3    H2 6898   2.173   4.029   4.173
 2298TIP3   OH2 6899   0.814   3.810   2.222
 2298TIP3    H1 6900   0.893   3.857   2.248
 2298TIP3    H2 6901   0.794   3.754   2.297
 2299TIP3   OH2 6902   1.585   5.555   1.361
 2299TIP3    H1 6903   1.659   5.615   1.354
 2299TIP3    H2 6904   1.608   5.498   1.435
 2300TIP3   OH2 6905   6.011   2.175   4.252
 2300TIP3    H1 6906   5.979   2.213   4.170
 2300TIP3    H2 6907   5.935   2.174   4.309
 2301TIP3   OH2 6908   3.586   0.404   1.484
 2301TIP3    H1 6909   3.548   0.364   1.563
 2301TIP3    H2 6910   3.539   0.362   1.411
 2302TIP3   OH2 6911   4.427   0.561   4.981
 2302TIP3    H1 6912   4.435   0.482   5.034
 2302TIP3    H2 6913   4.479   0.543   4.903
 2303TIP3   OH2 6914   1.090   3.971   3.994
 2303TIP3    H1 6915   1.131   4.053   3.968
 2303TIP3    H2 6916   1.105   3.965   4.089
 2304TIP3   OH2 6917   5.657   1.667   4.134
 2304TIP3    H1 6918   5.683   1.716   4.056
 2304TIP3    H2 6919   5.671   1.728   4.206
 2305TIP3   OH2 6920   3.997   2.543   1.977
 2305TIP3    H1 6921   3.975   2.450   1.970
 2305TIP3    H2 6922   4.000   2.560   2.071
 2306TIP3   OH2 6923   5.944   0.572   0.537
 2306TIP3    H1 6924   5.917   0.500   0.480
 2306TIP3    H2 6925   5.964   0.530   0.621
 2307TIP3   OH2 6926   6.145   2.226   2.620
 2307TIP3    H1 6927   6.065   2.278   2.623
 2307TIP3    H2 6928   6.127   2.158   2.554
 2308TIP3   OH2 6929   3.510   2.633   0.311
 2308TIP3    H1 6930   3.496   2.543   0.341
 2308TIP3    H2 6931   3.584   2.627   0.251
 2309TIP3   OH2 6932   0.319   3.630   5.011
 2309TIP3    H1 6933   0.410   3.610   4.988
 2309TIP3    H2 6934   0.296   3.704   4.954
 2310TIP3   OH2 6935   1.909   3.611   4.984
 2310TIP3    H1 6936   1.992   3.627   5.028
 2310TIP3    H2 6937   1.913   3.663   4.904
 2311TIP3   OH2 6938   5.037   0.832   4.688
 2311TIP3    H1 6939   5.089   0.819   4.768
 2311TIP3    H2 6940   4.948   0.807   4.713
 2312TIP3   OH2 6941   3.547   3.257   4.091
 2312TIP3    H1 6942   3.562   3.166   4.116
 2312TIP3    H2 6943   3.474   3.254   4.030
 2313TIP3   OH2 6944   5.967   0.840   1.581
 2313TIP3    H1 6945   5.987   0.746   1.589
 2313TIP3    H2 6946   5.873   0.843   1.563
 2314TIP3   OH2 6947   0.352   0.072   4.914
 2314TIP3    H1 6948   0.432   0.026   4.890
 2314TIP3    H2 6949   0.324   0.032   4.996
 2315TIP3   OH2 6950   0.940   3.122   0.390
 2315TIP3    H1 6951   0.896   3.117   0.305
 2315TIP3    H2 6952   0.920   3.038   0.432
 2316TIP3   OH2 6953   0.683   4.730   0.523
 2316TIP3    H1 6954   0.705   4.821   0.501
 2316TIP3    H2 6955   0.593   4.734   0.556
 2317TIP3   OH2 6956   6.058   3.767   5.093
 2317TIP3    H1 6957   6.094   3.683   5.064
 2317TIP3    H2 6958   6.028   3.751   5.182
 2318TIP3   OH2 6959   1.358   0.144   1.505
 2318TIP3    H1 6960   1.299   0.219   1.507
 2318TIP3    H2 6961   1.410   0.156   1.425
 2319TIP3   OH2 6962   2.101   5.288   3.515
 2319TIP3    H1 6963   2.092   5.198   3.546
 2319TIP3    H2 6964   2.104   5.341   3.594
 2320TIP3   OH2 6965   5.093   2.208   1.487
 2320TIP3    H1 6966   5.122   2.142   1.550
 2320TIP3    H2 6967   5.170   2.223   1.432
 2321TIP3   OH2 6968   4.862   0.523   3.890
 2321TIP3    H1 6969   4.851   0.428   3.888
 2321TIP3    H2 6970   4.842   0.552   3.801
 2322TIP3   OH2 6971   3.926   1.889   1.139
 2322TIP3    H1 6972   3.922   1.927   1.227
 2322TIP3    H2 6973   3.834   1.876   1.114
 2323TIP3   OH2 6974   3.739   2.358   1.535
 2323TIP3    H1 6975   3.710   2.287   1.593
 2323TIP3    H2 6976   3.818   2.323   1.493
 2324TIP3   OH2 6977   2.223   2.987   3.786
 2324TIP3    H1 6978   2.204   2.894   3.801
 2324TIP3    H2 6979   2.166   3.033   3.847
 2325TIP3   OH2 6980   4.143   1.403   2.212
 2325TIP3    H1 6981   4.072   1.451   2.169
 2325TIP3    H2 6982   4.158   1.451   2.294
 2326TIP3   OH2 6983   5.118   1.844   2.193
 2326TIP3    H1 6984   5.120   1.922   2.137
 2326TIP3    H2 6985   5.028   1.841   2.226
 2327TIP3   OH2 6986   6.222   4.880   3.852
 2327TIP3    H1 6987   6.313   4.851   3.842
 2327TIP3    H2 6988   6.194   4.843   3.937
 2328TIP3   OH2 6989   6.121   4.849   3.096
 2328TIP3    H1 6990   6.128   4.837   3.001
 2328TIP3    H2 6991   6.030   4.825   3.117
 2329TIP3   OH2 6992   3.432   0.489   3.685
 2329TIP3    H1 6993   3.489   0.554   3.645
 2329TIP3    H2 6994   3.491   0.425   3.725
 2330TIP3   OH2 6995   2.156   0.938   5.065
 2330TIP3    H1 6996   2.153   0.961   4.972
 2330TIP3    H2 6997   2.209   0.859   5.068
 2331TIP3   OH2 6998   1.188   2.202   0.088
 2331TIP3    H1 6999   1.262   2.262   0.076
 2331TIP3    H2 7000   1.209   2.154   0.168
 2332TIP3   OH2 7001   4.108   1.658   5.056
 2332TIP3    H1 7002   4.133   1.746   5.082
 2332TIP3    H2 7003   4.071   1.668   4.968
 2333TIP3   OH2 7004   4.789   0.698   4.797
 2333TIP3    H1 7005   4.736   0.683   4.719
 2333TIP3    H2 7006   4.731   0.744   4.858
 2334TIP3   OH2 7007   2.592   1.016   4.727
 2334TIP3    H1 7008   2.521   1.022   4.791
 2334TIP3    H2 7009   2.671   1.006   4.779
 2335TIP3   OH2 7010   5.110   4.280   5.025
 2335TIP3    H1 7011   5.027   4.300   4.981
 2335TIP3    H2 7012   5.154   4.364   5.030
 2336TIP3   OH2 7013   2.212   4.620   0.731
 2336TIP3    H1 7014   2.199   4.687   0.664
 2336TIP3    H2 7015   2.257   4.549   0.686
 2337TIP3   OH2 7016   5.672   4.453   2.049
 2337TIP3    H1 7017   5.666   4.418   1.960
 2337TIP3    H2 7018   5.742   4.402   2.090
 2338TIP3   OH2 7019   5.490   4.749   3.195
 2338TIP3    H1 7020   5.555   4.762   3.126
 2338TIP3    H2 7021   5.524   4.677   3.247
 2339TIP3   OH2 7022   6.337  -0.009   4.656
 2339TIP3    H1 7023   6.261   0.003   4.713
 2339TIP3    H2 7024   6.409   0.033   4.704
 2340TIP3   OH2 7025   0.592   0.533   3.891
 2340TIP3    H1 7026   0.544   0.452   3.911
 2340TIP3    H2 7027   0.682   0.504   3.875
 2341TIP3   OH2 7028   2.685   1.070   5.188
 2341TIP3    H1 7029   2.709   0.990   5.236
 2341TIP3    H2 7030   2.730   1.061   5.104
 2342TIP3   OH2 7031   1.721   0.597   2.788
 2342TIP3    H1 7032   1.645   0.591   2.846
 2342TIP3    H2 7033   1.684   0.607   2.701
 2343TIP3   OH2 7034   4.018   1.772   4.515
 2343TIP3    H1 7035   4.102   1.747   4.478
 2343TIP3    H2 7036   3.963   1.694   4.507
 2344TIP3   OH2 7037   3.952   3.635   2.041
 2344TIP3    H1 7038   3.924   3.713   1.992
 2344TIP3    H2 7039   4.019   3.595   1.987
 2345TIP3   OH2 7040   2.884   4.543   2.516
 2345TIP3    H1 7041   2.810   4.486   2.495
 2345TIP3    H2 7042   2.844   4.628   2.535
 2346TIP3   OH2 7043   4.643   2.849   3.583
 2346TIP3    H1 7044   4.702   2.921   3.563
 2346TIP3    H2 7045   4.592   2.837   3.502
 2347TIP3   OH2 7046   5.392   3.555   1.363
 2347TIP3    H1 7047   5.466   3.588   1.313
 2347TIP3    H2 7048   5.398   3.600   1.448
 2348TIP3   OH2 7049   0.263   1.320   0.197
 2348TIP3    H1 7050   0.310   1.241   0.225
 2348TIP3    H2 7051   0.317   1.356   0.127
 2349TIP3   OH2 7052   3.605   0.988   3.416
 2349TIP3    H1 7053   3.546   1.061   3.436
 2349TIP3    H2 7054   3.661   0.980   3.494
 2350TIP3   OH2 7055   0.986   5.552   0.162
 2350TIP3    H1 7056   0.917   5.584   0.104
 2350TIP3    H2 7057   1.067   5.563   0.111
 2351TIP3   OH2 7058   4.749   5.928   4.298
 2351TIP3    H1 7059   4.759   5.988   4.372
 2351TIP3    H2 7060   4.683   5.969   4.243
 2352TIP3   OH2 7061   0.111   0.230   2.677
 2352TIP3    H1 7062   0.034   0.257   2.627
 2352TIP3    H2 7063   0.182   0.227   2.613
 2353TIP3   OH2 7064   3.355   1.291   0.028
 2353TIP3    H1 7065   3.417   1.228   0.065
 2353TIP3    H2 7066   3.389   1.377   0.054
 2354TIP3   OH2 7067   5.371   5.895   4.860
 2354TIP3    H1 7068   5.286   5.914   4.820
 2354TIP3    H2 7069   5.363   5.805   4.892
 2355TIP3   OH2 7070   5.950   2.957   2.109
 2355TIP3    H1 7071   5.957   2.890   2.041
 2355TIP3    H2 7072   5.894   3.025   2.071
 2356TIP3   OH2 7073   3.726   4.328   0.473
 2356TIP3    H1 7074   3.693   4.390   0.538
 2356TIP3    H2 7075   3.791   4.378   0.424
 2357TIP3   OH2 7076   1.123   0.665   4.623
 2357TIP3    H1 7077   1.101   0.730   4.690
 2357TIP3    H2 7078   1.188   0.708   4.568
 2358TIP3   OH2 7079   4.765   2.843   1.797
 2358TIP3    H1 7080   4.682   2.822   1.754
 2358TIP3    H2 7081   4.744   2.846   1.890
 2359TIP3   OH2 7082   1.672   1.205   0.072
 2359TIP3    H1 7083   1.748   1.217   0.015
 2359TIP3    H2 7084   1.597   1.221   0.016
 2360TIP3   OH2 7085   1.849   4.736   5.018
 2360TIP3    H1 7086   1.897   4.785   5.085
 2360TIP3    H2 7087   1.908   4.665   4.993
 2361TIP3   OH2 7088   2.802   5.857   4.341
 2361TIP3    H1 7089   2.726   5.912   4.319
 2361TIP3    H2 7090   2.850   5.848   4.259
 2362TIP3   OH2 7091   2.861   5.661   4.764
 2362TIP3    H1 7092   2.955   5.648   4.761
 2362TIP3    H2 7093   2.848   5.754   4.746
 2363TIP3   OH2 7094   0.629   3.446   3.763
 2363TIP3    H1 7095   0.686   3.512   3.801
 2363TIP3    H2 7096   0.651   3.446   3.670
 2364TIP3   OH2 7097   2.379   5.908   1.885
 2364TIP3    H1 7098   2.410   5.902   1.795
 2364TIP3    H2 7099   2.443   5.966   1.928
 2365TIP3   OH2 7100   1.457   1.772   4.761
 2365TIP3    H1 7101   1.439   1.698   4.704
 2365TIP3    H2 7102   1.371   1.810   4.780
 2366TIP3   OH2 7103  -0.038   2.643   0.353
 2366TIP3    H1 7104  -0.050   2.734   0.377
 2366TIP3    H2 7105   0.057   2.634   0.339
 2367TIP3   OH2 7106   5.169   3.419   2.186
 2367TIP3    H1 7107   5.165   3.441   2.093
 2367TIP3    H2 7108   5.141   3.499   2.230
 2368TIP3   OH2 7109   2.247   0.807   2.105
 2368TIP3    H1 7110   2.328   0.851   2.080
 2368TIP3    H2 7111   2.250   0.801   2.200
 2369TIP3   OH2 7112   2.730   0.096   1.638
 2369TIP3    H1 7113   2.677   0.097   1.718
 2369TIP3    H2 7114   2.736   0.188   1.612
 2370TIP3   OH2 7115   5.626   1.864   1.447
 2370TIP3    H1 7116   5.580   1.804   1.389
 2370TIP3    H2 7117   5.706   1.817   1.471
 2371TIP3   OH2 7118   5.712   2.999   3.168
 2371TIP3    H1 7119   5.711   3.058   3.244
 2371TIP3    H2 7120   5.754   3.051   3.099
 2372TIP3   OH2 7121   5.233   1.463   4.168
 2372TIP3    H1 7122   5.238   1.368   4.169
 2372TIP3    H2 7123   5.166   1.485   4.233
 2373TIP3   OH2 7124   5.686   0.571   4.983
 2373TIP3    H1 7125   5.687   0.576   4.888
 2373TIP3    H2 7126   5.626   0.500   5.003
 2374TIP3   OH2 7127   5.768   2.627   4.939
 2374TIP3    H1 7128   5.849   2.576   4.944
 2374TIP3    H2 7129   5.798   2.717   4.926
 2375TIP3   OH2 7130   1.435   1.507   1.882
 2375TIP3    H1 7131   1.350   1.500   1.926
 2375TIP3    H2 7132   1.487   1.437   1.920
 2376TIP3   OH2 7133   0.879   2.200   1.128
 2376TIP3    H1 7134   0.874   2.146   1.049
 2376TIP3    H2 7135   0.811   2.166   1.186
 2377TIP3   OH2 7136   6.225   5.277   2.208
 2377TIP3    H1 7137   6.181   5.194   2.191
 2377TIP3    H2 7138   6.311   5.251   2.242
 2378TIP3   OH2 7139   2.268   1.938   0.089
 2378TIP3    H1 7140   2.206   2.007   0.067
 2378TIP3    H2 7141   2.252   1.920   0.181
 2379TIP3   OH2 7142   4.282   4.596   4.583
 2379TIP3    H1 7143   4.258   4.633   4.668
 2379TIP3    H2 7144   4.348   4.531   4.604
 2380TIP3   OH2 7145   0.887   5.560   1.293
 2380TIP3    H1 7146   0.951   5.503   1.251
 2380TIP3    H2 7147   0.925   5.580   1.378
 2381TIP3   OH2 7148   1.288   4.781   1.291
 2381TIP3    H1 7149   1.287   4.693   1.329
 2381TIP3    H2 7150   1.235   4.834   1.350
 2382TIP3   OH2 7151   3.882   2.806   0.356
 2382TIP3    H1 7152   3.859   2.720   0.323
 2382TIP3    H2 7153   3.802   2.858   0.346
 2383TIP3   OH2 7154   4.815   0.249   3.836
 2383TIP3    H1 7155   4.867   0.181   3.879
 2383TIP3    H2 7156   4.845   0.247   3.745
 2384TIP3   OH2 7157   4.261   0.002   2.106
 2384TIP3    H1 7158   4.242  -0.062   2.038
 2384TIP3    H2 7159   4.304   0.074   2.060
 2385TIP3   OH2 7160   6.240   1.302   2.919
 2385TIP3    H1 7161   6.335   1.307   2.925
 2385TIP3    H2 7162   6.213   1.253   2.997
 2386TIP3   OH2 7163   5.240   5.138   0.280
 2386TIP3    H1 7164   5.265   5.046   0.271
 2386TIP3    H2 7165   5.282   5.167   0.361
 2387TIP3   OH2 7166   0.700   5.347   0.114
 2387TIP3    H1 7167   0.618   5.309   0.082
 2387TIP3    H2 7168   0.766   5.281   0.095
 2388TIP3   OH2 7169   5.493   1.524   0.167
 2388TIP3    H1 7170   5.545   1.474   0.230
 2388TIP3    H2 7171   5.403   1.497   0.184
 2389TIP3   OH2 7172   0.506   4.554   2.815
 2389TIP3    H1 7173   0.468   4.635   2.781
 2389TIP3    H2 7174   0.431   4.498   2.836
 2390TIP3   OH2 7175   3.819   5.363   4.886
 2390TIP3    H1 7176   3.797   5.330   4.799
 2390TIP3    H2 7177   3.737   5.397   4.921
 2391TIP3   OH2 7178   1.142   1.404   4.086
 2391TIP3    H1 7179   1.122   1.417   4.178
 2391TIP3    H2 7180   1.058   1.382   4.046
 2392TIP3   OH2 7181   2.883   1.934   2.451
 2392TIP3    H1 7182   2.924   1.985   2.382
 2392TIP3    H2 7183   2.956   1.892   2.497
 2393TIP3   OH2 7184   4.297   4.680   0.951
 2393TIP3    H1 7185   4.235   4.752   0.938
 2393TIP3    H2 7186   4.340   4.670   0.866
 2394TIP3   OH2 7187   3.374   4.766   0.587
 2394TIP3    H1 7188   3.457   4.764   0.635
 2394TIP3    H2 7189   3.309   4.733   0.650
 2395TIP3   OH2 7190   0.291   0.990   3.281
 2395TIP3    H1 7191   0.289   0.904   3.239
 2395TIP3    H2 7192   0.330   0.974   3.367
 2396TIP3   OH2 7193   1.698   2.735   3.022
 2396TIP3    H1 7194   1.729   2.772   3.104
 2396TIP3    H2 7195   1.691   2.641   3.039
 2397TIP3   OH2 7196   5.741   5.073   3.557
 2397TIP3    H1 7197   5.826   5.091   3.597
 2397TIP3    H2 7198   5.678   5.119   3.613
 2398TIP3   OH2 7199   3.855   4.934   3.242
 2398TIP3    H1 7200   3.870   4.880   3.319
 2398TIP3    H2 7201   3.763   4.918   3.219
 2399TIP3   OH2 7202   2.290   4.296   2.577
 2399TIP3    H1 7203   2.231   4.371   2.567
 2399TIP3    H2 7204   2.359   4.311   2.513
 2400TIP3   OH2 7205   5.826   2.584   2.141
 2400TIP3    H1 7206   5.874   2.658   2.102
 2400TIP3    H2 7207   5.813   2.523   2.069
 2401TIP3   OH2 7208   2.907   4.094   1.372
 2401TIP3    H1 7209   2.924   4.084   1.465
 2401TIP3    H2 7210   2.823   4.049   1.359
 2402TIP3   OH2 7211   1.117   4.806   1.058
 2402TIP3    H1 7212   1.144   4.726   1.014
 2402TIP3    H2 7213   1.137   4.792   1.150
 2403TIP3   OH2 7214   3.909   2.108   1.766
 2403TIP3    H1 7215   3.988   2.132   1.718
 2403TIP3    H2 7216   3.894   2.016   1.743
 2404TIP3   OH2 7217   0.360   4.107   4.668
 2404TIP3    H1 7218   0.424   4.074   4.732
 2404TIP3    H2 7219   0.414   4.148   4.600
 2405TIP3   OH2 7220   4.238   4.697   1.855
 2405TIP3    H1 7221   4.280   4.623   1.898
 2405TIP3    H2 7222   4.306   4.733   1.798
 2406TIP3   OH2 7223   5.159   5.542   1.769
 2406TIP3    H1 7224   5.206   5.608   1.718
 2406TIP3    H2 7225   5.143   5.471   1.707
 2407TIP3   OH2 7226   0.395   5.960   1.536
 2407TIP3    H1 7227   0.333   6.014   1.486
 2407TIP3    H2 7228   0.471   6.016   1.550
 2408TIP3   OH2 7229   1.400   4.762   2.525
 2408TIP3    H1 7230   1.444   4.789   2.605
 2408TIP3    H2 7231   1.307   4.778   2.542
 2409TIP3   OH2 7232   2.325   1.866   4.453
 2409TIP3    H1 7233   2.396   1.924   4.483
 2409TIP3    H2 7234   2.361   1.778   4.460
 2410TIP3   OH2 7235   0.214   5.817   4.578
 2410TIP3    H1 7236   0.242   5.743   4.631
 2410TIP3    H2 7237   0.212   5.784   4.489
 2411TIP3   OH2 7238   5.229   5.808   3.585
 2411TIP3    H1 7239   5.181   5.800   3.503
 2411TIP3    H2 7240   5.171   5.768   3.651
 2412TIP3   OH2 7241   0.632   1.847   2.378
 2412TIP3    H1 7242   0.658   1.758   2.403
 2412TIP3    H2 7243   0.541   1.838   2.351
 2413TIP3   OH2 7244   1.551   4.267   4.128
 2413TIP3    H1 7245   1.551   4.284   4.222
 2413TIP3    H2 7246   1.466   4.302   4.098
 2414TIP3   OH2 7247   5.704   3.498   2.049
 2414TIP3    H1 7248   5.772   3.431   2.049
 2414TIP3    H2 7249   5.666   3.493   2.137
 2415TIP3   OH2 7250   3.594   3.991   3.481
 2415TIP3    H1 7251   3.637   3.926   3.536
 2415TIP3    H2 7252   3.511   3.949   3.455
 2416TIP3   OH2 7253   4.490   6.043   1.138
 2416TIP3    H1 7254   4.485   5.961   1.187
 2416TIP3    H2 7255   4.579   6.044   1.102
 2417TIP3   OH2 7256   0.499   4.572   3.850
 2417TIP3    H1 7257   0.522   4.566   3.943
 2417TIP3    H2 7258   0.433   4.640   3.847
 2418TIP3   OH2 7259   3.341   1.329   2.112
 2418TIP3    H1 7260   3.338   1.415   2.154
 2418TIP3    H2 7261   3.306   1.345   2.024
 2419TIP3   OH2 7262   4.341   0.967   3.391
 2419TIP3    H1 7263   4.416   0.960   3.450
 2419TIP3    H2 7264   4.270   0.997   3.446
 2420TIP3   OH2 7265   5.475   3.269   2.200
 2420TIP3    H1 7266   5.434   3.258   2.285
 2420TIP3    H2 7267   5.540   3.339   2.214
 2421TIP3   OH2 7268   4.905   0.738   2.834
 2421TIP3    H1 7269   4.986   0.788   2.838
 2421TIP3    H2 7270   4.836   0.802   2.853
 2422TIP3   OH2 7271   5.626   5.215   0.147
 2422TIP3    H1 7272   5.698   5.252   0.198
 2422TIP3    H2 7273   5.665   5.195   0.061
 2423TIP3   OH2 7274   6.064   1.837   0.130
 2423TIP3    H1 7275   6.006   1.907   0.159
 2423TIP3    H2 7276   6.056   1.769   0.198
 2424TIP3   OH2 7277   0.144   3.356   2.850
 2424TIP3    H1 7278   0.069   3.375   2.794
 2424TIP3    H2 7279   0.220   3.378   2.796
 2425TIP3   OH2 7280   3.672   2.663   0.562
 2425TIP3    H1 7281   3.692   2.612   0.484
 2425TIP3    H2 7282   3.577   2.661   0.569
 2426TIP3   OH2 7283   2.332   4.262   0.801
 2426TIP3    H1 7284   2.300   4.218   0.723
 2426TIP3    H2 7285   2.390   4.198   0.843
 2427TIP3   OH2 7286   4.439   2.505   2.824
 2427TIP3    H1 7287   4.446   2.574   2.890
 2427TIP3    H2 7288   4.523   2.460   2.827
 2428TIP3   OH2 7289   4.988   4.536   0.191
 2428TIP3    H1 7290   4.961   4.444   0.192
 2428TIP3    H2 7291   5.082   4.534   0.203
 2429TIP3   OH2 7292   2.745   5.360   4.279
 2429TIP3    H1 7293   2.734   5.361   4.184
 2429TIP3    H2 7294   2.756   5.453   4.302
 2430TIP3   OH2 7295   5.651   0.009   3.088
 2430TIP3    H1 7296   5.726   0.057   3.124
 2430TIP3    H2 7297   5.582   0.022   3.153
 2431TIP3   OH2 7298   0.494   3.419   0.051
 2431TIP3    H1 7299   0.589   3.427   0.039
 2431TIP3    H2 7300   0.464   3.509   0.067
 2432TIP3   OH2 7301   4.880   4.043   1.923
 2432TIP3    H1 7302   4.932   3.970   1.959
 2432TIP3    H2 7303   4.899   4.116   1.982
 2433TIP3   OH2 7304   4.904   1.374   4.699
 2433TIP3    H1 7305   4.970   1.380   4.769
 2433TIP3    H2 7306   4.854   1.455   4.707
 2434TIP3   OH2 7307   1.833   4.488   3.492
 2434TIP3    H1 7308   1.929   4.486   3.486
 2434TIP3    H2 7309   1.804   4.418   3.433
 2435TIP3   OH2 7310   4.246   4.944   0.814
 2435TIP3    H1 7311   4.239   5.006   0.886
 2435TIP3    H2 7312   4.158   4.941   0.776
 2436TIP3   OH2 7313   2.330   1.487   3.526
 2436TIP3    H1 7314   2.248   1.531   3.505
 2436TIP3    H2 7315   2.345   1.507   3.618
 2437TIP3   OH2 7316   0.458   4.447   2.407
 2437TIP3    H1 7317   0.365   4.449   2.385
 2437TIP3    H2 7318   0.473   4.359   2.441
 2438TIP3   OH2 7319   4.368   0.545   4.583
 2438TIP3    H1 7320   4.315   0.625   4.583
 2438TIP3    H2 7321   4.313   0.480   4.541
 2439TIP3   OH2 7322   0.831   0.472   2.176
 2439TIP3    H1 7323   0.882   0.419   2.238
 2439TIP3    H2 7324   0.750   0.492   2.224
 2440TIP3   OH2 7325   5.549   5.153   3.748
 2440TIP3    H1 7326   5.474   5.211   3.738
 2440TIP3    H2 7327   5.579   5.167   3.838
 2441TIP3   OH2 7328   3.788   4.997   2.746
 2441TIP3    H1 7329   3.808   4.906   2.767
 2441TIP3    H2 7330   3.731   4.991   2.670
 2442TIP3   OH2 7331   5.410   1.389   0.460
 2442TIP3    H1 7332   5.476   1.341   0.409
 2442TIP3    H2 7333   5.460   1.438   0.525
 2443TIP3   OH2 7334   0.011   1.452   0.139
 2443TIP3    H1 7335   0.091   1.403   0.157
 2443TIP3    H2 7336   0.013   1.524   0.201
 2444TIP3   OH2 7337   4.439   2.695   2.446
 2444TIP3    H1 7338   4.522   2.728   2.481
 2444TIP3    H2 7339   4.393   2.774   2.417
 2445TIP3   OH2 7340   0.806   1.457   0.231
 2445TIP3    H1 7341   0.850   1.498   0.305
 2445TIP3    H2 7342   0.811   1.522   0.161
 2446TIP3   OH2 7343   1.406   2.702   3.279
 2446TIP3    H1 7344   1.405   2.788   3.237
 2446TIP3    H2 7345   1.324   2.661   3.250
 2447TIP3   OH2 7346   2.227   1.843   1.893
 2447TIP3    H1 7347   2.142   1.887   1.880
 2447TIP3    H2 7348   2.215   1.757   1.853
 2448TIP3   OH2 7349   1.078   1.667   0.998
 2448TIP3    H1 7350   1.132   1.590   0.979
 2448TIP3    H2 7351   1.030   1.684   0.917
 2449TIP3   OH2 7352   3.370   1.365   4.857
 2449TIP3    H1 7353   3.373   1.341   4.950
 2449TIP3    H2 7354   3.277   1.362   4.834
 2450TIP3   OH2 7355   1.812   2.019   1.637
 2450TIP3    H1 7356   1.832   1.981   1.552
 2450TIP3    H2 7357   1.894   2.012   1.686
 2451TIP3   OH2 7358   2.475   2.132   0.103
 2451TIP3    H1 7359   2.452   2.221   0.131
 2451TIP3    H2 7360   2.391   2.090   0.086
 2452TIP3   OH2 7361   2.300   4.831   4.059
 2452TIP3    H1 7362   2.380   4.872   4.092
 2452TIP3    H2 7363   2.250   4.809   4.137
 2453TIP3   OH2 7364   0.179   4.359   2.343
 2453TIP3    H1 7365   0.183   4.271   2.305
 2453TIP3    H2 7366   0.135   4.347   2.427
 2454TIP3   OH2 7367   4.955   0.855   1.771
 2454TIP3    H1 7368   4.912   0.770   1.777
 2454TIP3    H2 7369   5.027   0.850   1.834
 2455TIP3   OH2 7370   1.203   0.473   1.620
 2455TIP3    H1 7371   1.140   0.494   1.689
 2455TIP3    H2 7372   1.287   0.503   1.655
 2456TIP3   OH2 7373   6.095   2.421   4.029
 2456TIP3    H1 7374   6.034   2.419   3.956
 2456TIP3    H2 7375   6.043   2.451   4.103
 2457TIP3   OH2 7376   1.829   3.853   3.531
 2457TIP3    H1 7377   1.847   3.791   3.461
 2457TIP3    H2 7378   1.830   3.800   3.611
 2458TIP3   OH2 7379   2.399   4.798   1.168
 2458TIP3    H1 7380   2.309   4.782   1.195
 2458TIP3    H2 7381   2.407   4.754   1.083
 2459TIP3   OH2 7382   5.635   2.518   0.795
 2459TIP3    H1 7383   5.569   2.567   0.748
 2459TIP3    H2 7384   5.652   2.569   0.874
 2460TIP3   OH2 7385   5.693   1.242   1.740
 2460TIP3    H1 7386   5.777   1.254   1.694
 2460TIP3    H2 7387   5.640   1.316   1.711
 2461TIP3   OH2 7388   6.182   4.754   2.215
 2461TIP3    H1 7389   6.235   4.787   2.142
 2461TIP3    H2 7390   6.235   4.684   2.254
 2462TIP3   OH2 7391   0.811   1.231   3.637
 2462TIP3    H1 7392   0.739   1.277   3.679
 2462TIP3    H2 7393   0.798   1.245   3.544
 2463TIP3   OH2 7394   4.105   4.387   1.000
 2463TIP3    H1 7395   4.077   4.302   1.034
 2463TIP3    H2 7396   4.110   4.443   1.077
 2464TIP3   OH2 7397   5.283   4.131   0.957
 2464TIP3    H1 7398   5.370   4.119   0.919
 2464TIP3    H2 7399   5.243   4.201   0.904
 2465TIP3   OH2 7400   1.192   1.815   4.493
 2465TIP3    H1 7401   1.106   1.847   4.464
 2465TIP3    H2 7402   1.193   1.834   4.587
 2466TIP3   OH2 7403   3.884   3.867   1.096
 2466TIP3    H1 7404   3.870   3.887   1.003
 2466TIP3    H2 7405   3.971   3.828   1.100
 2467TIP3   OH2 7406   1.125   3.785   1.299
 2467TIP3    H1 7407   1.154   3.873   1.322
 2467TIP3    H2 7408   1.159   3.729   1.369
 2468TIP3   OH2 7409   5.962   4.379   4.620
 2468TIP3    H1 7410   5.982   4.401   4.530
 2468TIP3    H2 7411   5.873   4.345   4.618
 2469TIP3   OH2 7412   2.496   5.235   1.365
 2469TIP3    H1 7413   2.560   5.257   1.297
 2469TIP3    H2 7414   2.450   5.317   1.382
 2470TIP3   OH2 7415   0.980   0.151   1.280
 2470TIP3    H1 7416   0.962   0.236   1.320
 2470TIP3    H2 7417   1.037   0.172   1.205
 2471TIP3   OH2 7418   1.942   0.536   2.459
 2471TIP3    H1 7419   1.939   0.600   2.387
 2471TIP3    H2 7420   2.012   0.569   2.516
 2472TIP3   OH2 7421   1.672   2.198   4.393
 2472TIP3    H1 7422   1.735   2.140   4.435
 2472TIP3    H2 7423   1.638   2.253   4.464
 2473TIP3   OH2 7424   4.004   0.884   2.888
 2473TIP3    H1 7425   4.022   0.791   2.871
 2473TIP3    H2 7426   3.956   0.914   2.812
 2474TIP3   OH2 7427   4.579   4.718   3.240
 2474TIP3    H1 7428   4.543   4.671   3.315
 2474TIP3    H2 7429   4.581   4.654   3.169
 2475TIP3   OH2 7430   4.093   2.099   0.962
 2475TIP3    H1 7431   4.090   2.108   1.058
 2475TIP3    H2 7432   4.029   2.162   0.930
 2476TIP3   OH2 7433   2.916   0.574   1.697
 2476TIP3    H1 7434   2.947   0.484   1.700
 2476TIP3    H2 7435   2.982   0.621   1.646
 2477TIP3   OH2 7436   3.276   1.581   2.210
 2477TIP3    H1 7437   3.225   1.647   2.163
 2477TIP3    H2 7438   3.212   1.539   2.269
 2478TIP3   OH2 7439   2.717   2.828   1.460
 2478TIP3    H1 7440   2.745   2.741   1.488
 2478TIP3    H2 7441   2.710   2.821   1.365
 2479TIP3   OH2 7442   5.199   1.659   2.596
 2479TIP3    H1 7443   5.130   1.650   2.663
 2479TIP3    H2 7444   5.223   1.751   2.599
 2480TIP3   OH2 7445   1.551   4.053   0.940
 2480TIP3    H1 7446   1.551   4.059   0.845
 2480TIP3    H2 7447   1.590   4.135   0.970
 2481TIP3   OH2 7448   3.444   1.288   1.762
 2481TIP3    H1 7449   3.508   1.253   1.700
 2481TIP3    H2 7450   3.462   1.240   1.844
 2482TIP3   OH2 7451   0.514   1.864   4.122
 2482TIP3    H1 7452   0.530   1.854   4.215
 2482TIP3    H2 7453   0.522   1.776   4.086
 2483TIP3   OH2 7454   3.247   5.477   3.897
 2483TIP3    H1 7455   3.165   5.470   3.945
 2483TIP3    H2 7456   3.278   5.566   3.915
 2484TIP3   OH2 7457   2.924   3.760   3.994
 2484TIP3    H1 7458   2.856   3.693   3.998
 2484TIP3    H2 7459   2.926   3.797   4.082
 2485TIP3   OH2 7460   1.842   5.325   3.363
 2485TIP3    H1 7461   1.835   5.265   3.288
 2485TIP3    H2 7462   1.920   5.295   3.409
 2486TIP3   OH2 7463   6.327   1.673   2.517
 2486TIP3    H1 7464   6.343   1.591   2.564
 2486TIP3    H2 7465   6.371   1.660   2.433
 2487TIP3   OH2 7466   5.083   4.636   1.935
 2487TIP3    H1 7467   5.095   4.721   1.977
 2487TIP3    H2 7468   5.151   4.632   1.869
 2488TIP3   OH2 7469   2.655   4.347   1.015
 2488TIP3    H1 7470   2.678   4.387   0.931
 2488TIP3    H2 7471   2.592   4.408   1.054
 2489TIP3   OH2 7472   5.458   4.885   3.969
 2489TIP3    H1 7473   5.495   4.893   3.881
 2489TIP3    H2 7474   5.439   4.975   3.995
 2490TIP3   OH2 7475   0.612   2.076   3.985
 2490TIP3    H1 7476   0.646   2.046   3.901
 2490TIP3    H2 7477   0.590   1.995   4.031
 2491TIP3   OH2 7478   0.645   5.145   4.861
 2491TIP3    H1 7479   0.735   5.173   4.876
 2491TIP3    H2 7480   0.592   5.220   4.886
 2492TIP3   OH2 7481   6.057   0.947   2.265
 2492TIP3    H1 7482   6.065   0.964   2.171
 2492TIP3    H2 7483   6.138   0.980   2.303
 2493TIP3   OH2 7484   2.021   3.906   4.837
 2493TIP3    H1 7485   1.944   3.911   4.781
 2493TIP3    H2 7486   2.094   3.895   4.776
 2494TIP3   OH2 7487   6.136   5.063   0.791
 2494TIP3    H1 7488   6.162   4.971   0.779
 2494TIP3    H2 7489   6.176   5.109   0.717
 2495TIP3   OH2 7490   1.548   5.029   1.987
 2495TIP3    H1 7491   1.632   4.995   2.019
 2495TIP3    H2 7492   1.572   5.098   1.926
 2496TIP3   OH2 7493   1.550   0.961   0.124
 2496TIP3    H1 7494   1.591   1.031   0.073
 2496TIP3    H2 7495   1.569   0.983   0.215
 2497TIP3   OH2 7496   2.455   0.167   2.152
 2497TIP3    H1 7497   2.392   0.226   2.195
 2497TIP3    H2 7498   2.530   0.166   2.211
 2498TIP3   OH2 7499   3.447   3.908   0.349
 2498TIP3    H1 7500   3.516   3.962   0.310
 2498TIP3    H2 7501   3.421   3.848   0.279
 2499TIP3   OH2 7502   0.645   2.305   5.072
 2499TIP3    H1 7503   0.557   2.327   5.040
 2499TIP3    H2 7504   0.662   2.218   5.036
 2500TIP3   OH2 7505   2.899   5.404   3.801
 2500TIP3    H1 7506   2.910   5.475   3.864
 2500TIP3    H2 7507   2.884   5.448   3.717
 2501TIP3   OH2 7508   0.527   1.773   0.207
 2501TIP3    H1 7509   0.557   1.704   0.266
 2501TIP3    H2 7510   0.466   1.730   0.148
 2502TIP3   OH2 7511   6.109   2.778   5.111
 2502TIP3    H1 7512   6.140   2.693   5.081
 2502TIP3    H2 7513   6.073   2.761   5.198
 2503TIP3   OH2 7514   3.683   4.830   1.526
 2503TIP3    H1 7515   3.759   4.800   1.477
 2503TIP3    H2 7516   3.717   4.895   1.587
 2504TIP3   OH2 7517   5.282   2.606   0.198
 2504TIP3    H1 7518   5.216   2.537   0.209
 2504TIP3    H2 7519   5.263   2.669   0.268
 2505TIP3   OH2 7520   3.772   5.811   2.486
 2505TIP3    H1 7521   3.789   5.731   2.535
 2505TIP3    H2 7522   3.856   5.857   2.484
 2506TIP3   OH2 7523   2.947   5.454   0.003
 2506TIP3    H1 7524   2.873   5.396  -0.017
 2506TIP3    H2 7525   3.016   5.394   0.032
 2507TIP3   OH2 7526   1.546   3.663   2.910
 2507TIP3    H1 7527   1.492   3.655   2.831
 2507TIP3    H2 7528   1.633   3.686   2.877
 2508TIP3   OH2 7529   4.730   1.048   3.680
 2508TIP3    H1 7530   4.787   1.081   3.610
 2508TIP3    H2 7531   4.648   1.098   3.670
 2509TIP3   OH2 7532   2.036   4.800   2.574
 2509TIP3    H1 7533   1.957   4.749   2.588
 2509TIP3    H2 7534   2.017   4.854   2.497
 2510TIP3   OH2 7535   2.407   4.712   0.910
 2510TIP3    H1 7536   2.390   4.653   0.836
 2510TIP3    H2 7537   2.448   4.789   0.870
 2511TIP3   OH2 7538   1.121   5.164   3.163
 2511TIP3    H1 7539   1.170   5.113   3.228
 2511TIP3    H2 7540   1.033   5.126   3.164
 2512TIP3   OH2 7541   2.790   4.831   2.047
 2512TIP3    H1 7542   2.703   4.868   2.060
 2512TIP3    H2 7543   2.817   4.801   2.134
 2513TIP3   OH2 7544   0.897   1.451   5.024
 2513TIP3    H1 7545   0.941   1.442   4.940
 2513TIP3    H2 7546   0.925   1.374   5.074
 2514TIP3   OH2 7547   4.456   4.009   1.841
 2514TIP3    H1 7548   4.518   4.055   1.784
 2514TIP3    H2 7549   4.489   3.920   1.845
 2515TIP3   OH2 7550   5.231   2.157   0.792
 2515TIP3    H1 7551   5.259   2.242   0.826
 2515TIP3    H2 7552   5.299   2.132   0.730
 2516TIP3   OH2 7553   1.169   2.701   4.602
 2516TIP3    H1 7554   1.141   2.793   4.609
 2516TIP3    H2 7555   1.105   2.661   4.544
 2517TIP3   OH2 7556   5.541   1.895   0.688
 2517TIP3    H1 7557   5.508   1.835   0.620
 2517TIP3    H2 7558   5.477   1.966   0.690
 2518TIP3   OH2 7559   0.382   5.414   0.160
 2518TIP3    H1 7560   0.335   5.334   0.134
 2518TIP3    H2 7561   0.340   5.483   0.109
 2519TIP3   OH2 7562   5.330   1.363   3.917
 2519TIP3    H1 7563   5.298   1.395   4.002
 2519TIP3    H2 7564   5.275   1.288   3.897
 2520TIP3   OH2 7565   5.762   4.592   0.758
 2520TIP3    H1 7566   5.734   4.616   0.846
 2520TIP3    H2 7567   5.847   4.551   0.769
 2521TIP3   OH2 7568   6.123   4.908   0.030
 2521TIP3    H1 7569   6.044   4.890  -0.022
 2521TIP3    H2 7570   6.147   4.997   0.006
 2522TIP3   OH2 7571   2.236   0.839   1.333
 2522TIP3    H1 7572   2.329   0.862   1.334
 2522TIP3    H2 7573   2.231   0.758   1.383
 2523TIP3   OH2 7574   3.874   1.140   4.844
 2523TIP3    H1 7575   3.954   1.127   4.895
 2523TIP3    H2 7576   3.875   1.070   4.779
 2524TIP3   OH2 7577   3.619   4.055   0.036
 2524TIP3    H1 7578   3.572   4.079  -0.044
 2524TIP3    H2 7579   3.657   4.137   0.066
 2525TIP3   OH2 7580   3.238   0.600   1.750
 2525TIP3    H1 7581   3.223   0.690   1.720
 2525TIP3    H2 7582   3.256   0.550   1.670
 2526TIP3   OH2 7583   0.721   0.708   0.913
 2526TIP3    H1 7584   0.770   0.752   0.844
 2526TIP3    H2 7585   0.728   0.766   0.989
 2527TIP3   OH2 7586   2.196   1.877   2.774
 2527TIP3    H1 7587   2.163   1.788   2.757
 2527TIP3    H2 7588   2.150   1.932   2.711
 2528TIP3   OH2 7589   3.704   0.070   1.887
 2528TIP3    H1 7590   3.691  -0.023   1.905
 2528TIP3    H2 7591   3.618   0.100   1.858
 2529TIP3   OH2 7592   5.709   3.370   5.085
 2529TIP3    H1 7593   5.790   3.405   5.120
 2529TIP3    H2 7594   5.681   3.433   5.019
 2530TIP3   OH2 7595   2.214   3.597   4.999
 2530TIP3    H1 7596   2.235   3.670   4.940
 2530TIP3    H2 7597   2.260   3.522   4.962
 2531TIP3   OH2 7598   4.953   1.395   1.522
 2531TIP3    H1 7599   4.920   1.481   1.551
 2531TIP3    H2 7600   5.047   1.407   1.513
 2532TIP3   OH2 7601   0.381   0.047   2.399
 2532TIP3    H1 7602   0.348   0.116   2.342
 2532TIP3    H2 7603   0.312  -0.019   2.400
 2533TIP3   OH2 7604   0.036   1.393   2.074
 2533TIP3    H1 7605  -0.004   1.407   1.988
 2533TIP3    H2 7606   0.126   1.369   2.055
 2534TIP3   OH2 7607   1.436   4.381   1.030
 2534TIP3    H1 7608   1.456   4.370   1.123
 2534TIP3    H2 7609   1.512   4.344   0.985
 2535TIP3   OH2 7610   1.958   4.397   1.595
 2535TIP3    H1 7611   1.962   4.312   1.640
 2535TIP3    H2 7612   1.894   4.384   1.525
 2536TIP3   OH2 7613   5.577   4.973   0.278
 2536TIP3    H1 7614   5.670   4.951   0.282
 2536TIP3    H2 7615   5.575   5.069   0.273
 2537TIP3   OH2 7616   1.118   3.929   0.070
 2537TIP3    H1 7617   1.061   3.933  -0.007
 2537TIP3    H2 7618   1.200   3.968   0.042
 2538TIP3   OH2 7619   1.842   4.467   3.911
 2538TIP3    H1 7620   1.922   4.417   3.900
 2538TIP3    H2 7621   1.868   4.558   3.895
 2539TIP3   OH2 7622   3.080   1.635   0.732
 2539TIP3    H1 7623   3.000   1.625   0.783
 2539TIP3    H2 7624   3.146   1.586   0.781
 2540TIP3   OH2 7625   4.258   5.450   0.555
 2540TIP3    H1 7626   4.275   5.366   0.599
 2540TIP3    H2 7627   4.271   5.516   0.624
 2541TIP3   OH2 7628   0.193   4.389   1.234
 2541TIP3    H1 7629   0.253   4.315   1.239
 2541TIP3    H2 7630   0.189   4.422   1.324
 2542TIP3   OH2 7631   2.204   1.673   4.773
 2542TIP3    H1 7632   2.190   1.668   4.868
 2542TIP3    H2 7633   2.174   1.760   4.749
 2543TIP3   OH2 7634   0.109   1.638   2.269
 2543TIP3    H1 7635   0.186   1.624   2.325
 2543TIP3    H2 7636   0.107   1.562   2.212
 2544TIP3   OH2 7637   4.680   2.332   2.174
 2544TIP3    H1 7638   4.685   2.295   2.087
 2544TIP3    H2 7639   4.664   2.258   2.232
 2545TIP3   OH2 7640   6.128   4.827   1.115
 2545TIP3    H1 7641   6.067   4.813   1.043
 2545TIP3    H2 7642   6.086   4.893   1.171
 2546TIP3   OH2 7643   3.793   4.704   4.517
 2546TIP3    H1 7644   3.776   4.691   4.610
 2546TIP3    H2 7645   3.723   4.762   4.487
 2547TIP3   OH2 7646   0.274   1.353   4.093
 2547TIP3    H1 7647   0.361   1.326   4.063
 2547TIP3    H2 7648   0.285   1.445   4.116
 2548TIP3   OH2 7649   4.807   2.512   1.054
 2548TIP3    H1 7650   4.894   2.525   1.091
 2548TIP3    H2 7651   4.757   2.589   1.083
 2549TIP3   OH2 7652   3.171   2.648   3.500
 2549TIP3    H1 7653   3.208   2.734   3.478
 2549TIP3    H2 7654   3.082   2.651   3.465
 2550TIP3   OH2 7655   4.711   1.713   3.135
 2550TIP3    H1 7656   4.631   1.669   3.164
 2550TIP3    H2 7657   4.758   1.648   3.083
 2551TIP3   OH2 7658   1.010   5.033   2.048
 2551TIP3    H1 7659   1.016   5.031   1.953
 2551TIP3    H2 7660   1.100   5.022   2.079
 2552TIP3   OH2 7661   5.773   4.533   3.190
 2552TIP3    H1 7662   5.774   4.531   3.285
 2552TIP3    H2 7663   5.815   4.616   3.167
 2553TIP3   OH2 7664  -0.009   4.609   2.406
 2553TIP3    H1 7665  -0.022   4.520   2.437
 2553TIP3    H2 7666   0.086   4.621   2.403
 2554TIP3   OH2 7667   3.272   3.416   4.219
 2554TIP3    H1 7668   3.355   3.442   4.177
 2554TIP3    H2 7669   3.225   3.369   4.151
 2555TIP3   OH2 7670   3.084   2.037   4.201
 2555TIP3    H1 7671   3.016   1.984   4.242
 2555TIP3    H2 7672   3.165   1.988   4.216
 2556TIP3   OH2 7673   4.078   1.493   2.852
 2556TIP3    H1 7674   4.073   1.489   2.757
 2556TIP3    H2 7675   3.994   1.460   2.883
 2557TIP3   OH2 7676   3.455   3.092   0.782
 2557TIP3    H1 7677   3.494   3.177   0.764
 2557TIP3    H2 7678   3.382   3.085   0.720
 2558TIP3   OH2 7679   2.970   1.414   3.133
 2558TIP3    H1 7680   3.037   1.441   3.195
 2558TIP3    H2 7681   2.906   1.485   3.134
 2559TIP3   OH2 7682   5.835   2.154   4.042
 2559TIP3    H1 7683   5.881   2.217   3.986
 2559TIP3    H2 7684   5.746   2.150   4.007
 2560TIP3   OH2 7685   4.652   2.600   3.276
 2560TIP3    H1 7686   4.639   2.505   3.282
 2560TIP3    H2 7687   4.725   2.618   3.335
 2561TIP3   OH2 7688   4.775   5.122   0.104
 2561TIP3    H1 7689   4.743   5.151   0.019
 2561TIP3    H2 7690   4.844   5.184   0.126
 2562TIP3   OH2 7691   0.072   5.180   4.908
 2562TIP3    H1 7692   0.155   5.211   4.872
 2562TIP3    H2 7693   0.066   5.089   4.881
 2563TIP3   OH2 7694   4.294   3.101   1.510
 2563TIP3    H1 7695   4.239   3.082   1.433
 2563TIP3    H2 7696   4.380   3.118   1.473
 2564TIP3   OH2 7697   1.225   2.127   2.456
 2564TIP3    H1 7698   1.205   2.128   2.362
 2564TIP3    H2 7699   1.321   2.132   2.460
 2565TIP3   OH2 7700   0.677   4.500   3.177
 2565TIP3    H1 7701   0.632   4.429   3.131
 2565TIP3    H2 7702   0.627   4.579   3.155
 2566TIP3   OH2 7703   5.861   0.851   0.061
 2566TIP3    H1 7704   5.801   0.922   0.081
 2566TIP3    H2 7705   5.940   0.894   0.028
 2567TIP3   OH2 7706   5.333   5.051   1.734
 2567TIP3    H1 7707   5.320   5.074   1.826
 2567TIP3    H2 7708   5.394   4.977   1.736
 2568TIP3   OH2 7709   4.224   5.088   1.070
 2568TIP3    H1 7710   4.184   5.149   1.131
 2568TIP3    H2 7711   4.281   5.033   1.124
 2569TIP3   OH2 7712   4.449   1.773   3.769
 2569TIP3    H1 7713   4.354   1.781   3.777
 2569TIP3    H2 7714   4.469   1.807   3.682
 2570TIP3   OH2 7715   5.553   3.689   3.612
 2570TIP3    H1 7716   5.525   3.764   3.665
 2570TIP3    H2 7717   5.571   3.727   3.526
 2571TIP3   OH2 7718   1.828   0.872   1.499
 2571TIP3    H1 7719   1.813   0.855   1.406
 2571TIP3    H2 7720   1.891   0.806   1.526
 2572TIP3   OH2 7721   3.725   1.170   3.682
 2572TIP3    H1 7722   3.691   1.221   3.608
 2572TIP3    H2 7723   3.675   1.201   3.758
 2573TIP3   OH2 7724   0.620   2.594   4.935
 2573TIP3    H1 7725   0.611   2.686   4.957
 2573TIP3    H2 7726   0.703   2.568   4.975
 2574TIP3   OH2 7727   4.165   5.897   1.829
 2574TIP3    H1 7728   4.112   5.933   1.758
 2574TIP3    H2 7729   4.173   5.804   1.808
 2575TIP3   OH2 7730   1.789   4.388   2.817
 2575TIP3    H1 7731   1.741   4.352   2.891
 2575TIP3    H2 7732   1.739   4.467   2.793
 2576TIP3   OH2 7733   3.224   1.785   3.496
 2576TIP3    H1 7734   3.246   1.703   3.541
 2576TIP3    H2 7735   3.134   1.773   3.466
 2577TIP3   OH2 7736   0.866   4.004   0.633
 2577TIP3    H1 7737   0.795   3.974   0.576
 2577TIP3    H2 7738   0.844   3.967   0.719
 2578TIP3   OH2 7739   5.276   2.177   4.600
 2578TIP3    H1 7740   5.329   2.132   4.665
 2578TIP3    H2 7741   5.267   2.114   4.529
 2579TIP3   OH2 7742   4.787   1.854   3.975
 2579TIP3    H1 7743   4.741   1.844   4.058
 2579TIP3    H2 7744   4.875   1.883   4.000
 2580TIP3   OH2 7745   4.849   1.613   0.815
 2580TIP3    H1 7746   4.854   1.560   0.736
 2580TIP3    H2 7747   4.896   1.694   0.793
 2581TIP3   OH2 7748   0.785   0.093   4.193
 2581TIP3    H1 7749   0.858   0.133   4.241
 2581TIP3    H2 7750   0.814   0.094   4.102
 2582TIP3   OH2 7751   2.367   0.818   0.491
 2582TIP3    H1 7752   2.414   0.790   0.569
 2582TIP3    H2 7753   2.436   0.846   0.430
 2583TIP3   OH2 7754   0.620   3.270   5.014
 2583TIP3    H1 7755   0.663   3.265   4.929
 2583TIP3    H2 7756   0.685   3.236   5.076
 2584TIP3   OH2 7757   2.594   5.274   3.587
 2584TIP3    H1 7758   2.610   5.365   3.611
 2584TIP3    H2 7759   2.501   5.260   3.607
 2585TIP3   OH2 7760   5.055   2.017   0.559
 2585TIP3    H1 7761   5.032   1.975   0.477
 2585TIP3    H2 7762   5.139   2.060   0.541
 2586TIP3   OH2 7763   0.840   5.237   2.919
 2586TIP3    H1 7764   0.862   5.230   2.826
 2586TIP3    H2 7765   0.924   5.257   2.962
 2587TIP3   OH2 7766   3.139   1.451   4.591
 2587TIP3    H1 7767   3.106   1.503   4.518
 2587TIP3    H2 7768   3.217   1.498   4.620
 2588TIP3   OH2 7769   3.583   4.865   3.140
 2588TIP3    H1 7770   3.619   4.784   3.103
 2588TIP3    H2 7771   3.524   4.837   3.209
 2589TIP3   OH2 7772   6.266   2.887   2.716
 2589TIP3    H1 7773   6.335   2.830   2.751
 2589TIP3    H2 7774   6.306   2.973   2.712
 2590TIP3   OH2 7775   1.521   1.416   1.421
 2590TIP3    H1 7776   1.481   1.435   1.336
 2590TIP3    H2 7777   1.465   1.460   1.484
 2591TIP3   OH2 7778   6.166   3.948   4.888
 2591TIP3    H1 7779   6.139   3.906   4.970
 2591TIP3    H2 7780   6.171   3.877   4.824
 2592TIP3   OH2 7781   5.532   5.642   1.135
 2592TIP3    H1 7782   5.542   5.617   1.043
 2592TIP3    H2 7783   5.617   5.623   1.174
 2593TIP3   OH2 7784   5.506   4.469   0.346
 2593TIP3    H1 7785   5.518   4.539   0.282
 2593TIP3    H2 7786   5.591   4.460   0.388
 2594TIP3   OH2 7787   5.830   0.240   0.815
 2594TIP3    H1 7788   5.785   0.174   0.868
 2594TIP3    H2 7789   5.841   0.199   0.730
 2595TIP3   OH2 7790   5.390   1.403   1.467
 2595TIP3    H1 7791   5.385   1.461   1.391
 2595TIP3    H2 7792   5.358   1.319   1.436
 2596TIP3   OH2 7793   3.040   5.458   1.313
 2596TIP3    H1 7794   2.952   5.493   1.328
 2596TIP3    H2 7795   3.074   5.510   1.240
 2597TIP3   OH2 7796   5.077   4.277   4.117
 2597TIP3    H1 7797   5.017   4.203   4.121
 2597TIP3    H2 7798   5.162   4.241   4.143
 2598TIP3   OH2 7799   4.301   1.494   1.451
 2598TIP3    H1 7800   4.319   1.529   1.364
 2598TIP3    H2 7801   4.379   1.442   1.473
 2599TIP3   OH2 7802   2.411   1.593   1.287
 2599TIP3    H1 7803   2.390   1.524   1.349
 2599TIP3    H2 7804   2.442   1.665   1.342
 2600TIP3   OH2 7805   0.867   1.012   5.056
 2600TIP3    H1 7806   0.943   1.063   5.085
 2600TIP3    H2 7807   0.863   1.026   4.962
 2601TIP3   OH2 7808   5.311   3.047   1.315
 2601TIP3    H1 7809   5.278   2.986   1.381
 2601TIP3    H2 7810   5.310   2.997   1.233
 2602TIP3   OH2 7811   1.629   0.730   4.729
 2602TIP3    H1 7812   1.580   0.807   4.698
 2602TIP3    H2 7813   1.716   0.764   4.749
 2603TIP3   OH2 7814   5.584   1.543   0.590
 2603TIP3    H1 7815   5.620   1.522   0.677
 2603TIP3    H2 7816   5.526   1.617   0.606
 2604TIP3   OH2 7817   4.283   0.511   3.726
 2604TIP3    H1 7818   4.366   0.542   3.762
 2604TIP3    H2 7819   4.237   0.591   3.700
 2605TIP3   OH2 7820   1.465   4.653   4.611
 2605TIP3    H1 7821   1.543   4.649   4.667
 2605TIP3    H2 7822   1.433   4.743   4.621
 2606TIP3   OH2 7823   0.568   5.040   3.925
 2606TIP3    H1 7824   0.595   5.106   3.861
 2606TIP3    H2 7825   0.561   4.959   3.875
 2607TIP3   OH2 7826   5.692   5.515   4.877
 2607TIP3    H1 7827   5.766   5.470   4.836
 2607TIP3    H2 7828   5.725   5.603   4.894
 2608TIP3   OH2 7829   4.355   1.267   2.521
 2608TIP3    H1 7830   4.377   1.281   2.429
 2608TIP3    H2 7831   4.434   1.293   2.568
 2609TIP3   OH2 7832   3.135   0.776   2.510
 2609TIP3    H1 7833   3.075   0.814   2.573
 2609TIP3    H2 7834   3.093   0.694   2.483
 2610TIP3   OH2 7835   5.380   4.205   2.778
 2610TIP3    H1 7836   5.318   4.241   2.842
 2610TIP3    H2 7837   5.422   4.132   2.823
 2611TIP3   OH2 7838   3.077   1.740   2.519
 2611TIP3    H1 7839   3.131   1.756   2.442
 2611TIP3    H2 7840   3.118   1.665   2.562
 2612TIP3   OH2 7841   4.272   1.228   2.862
 2612TIP3    H1 7842   4.274   1.323   2.851
 2612TIP3    H2 7843   4.183   1.210   2.891
 2613TIP3   OH2 7844   1.440   5.769   1.425
 2613TIP3    H1 7845   1.471   5.688   1.383
 2613TIP3    H2 7846   1.423   5.828   1.352
 2614TIP3   OH2 7847   4.168   2.161   1.215
 2614TIP3    H1 7848   4.254   2.150   1.174
 2614TIP3    H2 7849   4.177   2.117   1.300
 2615TIP3   OH2 7850  -0.010   0.757   1.777
 2615TIP3    H1 7851   0.053   0.686   1.789
 2615TIP3    H2 7852  -0.095   0.714   1.781
 2616TIP3   OH2 7853   5.340   4.790   0.567
 2616TIP3    H1 7854   5.303   4.782   0.479
 2616TIP3    H2 7855   5.375   4.879   0.570
 2617TIP3   OH2 7856   4.072   1.236   1.554
 2617TIP3    H1 7857   4.157   1.252   1.512
 2617TIP3    H2 7858   4.050   1.319   1.597
 2618TIP3   OH2 7859   2.340   0.135   1.405
 2618TIP3    H1 7860   2.283   0.077   1.355
 2618TIP3    H2 7861   2.285   0.212   1.423
 2619TIP3   OH2 7862   2.693   5.965   0.163
 2619TIP3    H1 7863   2.599   5.975   0.148
 2619TIP3    H2 7864   2.714   5.879   0.126
 2620TIP3   OH2 7865   3.906   1.860   3.795
 2620TIP3    H1 7866   3.833   1.802   3.815
 2620TIP3    H2 7867   3.868   1.927   3.739
 2621TIP3   OH2 7868   2.247   3.710   1.095
 2621TIP3    H1 7869   2.243   3.806   1.096
 2621TIP3    H2 7870   2.323   3.690   1.040
 2622TIP3   OH2 7871   3.416   2.546   3.545
 2622TIP3    H1 7872   3.494   2.565   3.494
 2622TIP3    H2 7873   3.348   2.601   3.507
 2623TIP3   OH2 7874   2.143   3.633   1.323
 2623TIP3    H1 7875   2.200   3.562   1.354
 2623TIP3    H2 7876   2.191   3.673   1.251
 2624TIP3   OH2 7877   6.101   5.472   4.983
 2624TIP3    H1 7878   6.155   5.497   5.058
 2624TIP3    H2 7879   6.164   5.446   4.916
 2625TIP3   OH2 7880   5.275   4.094   4.222
 2625TIP3    H1 7881   5.349   4.094   4.161
 2625TIP3    H2 7882   5.258   4.002   4.239
 2626TIP3   OH2 7883   4.258   2.030   3.830
 2626TIP3    H1 7884   4.209   1.968   3.776
 2626TIP3    H2 7885   4.336   2.050   3.778
 2627TIP3   OH2 7886   0.874   5.814   4.248
 2627TIP3    H1 7887   0.787   5.788   4.218
 2627TIP3    H2 7888   0.879   5.783   4.339
 2628TIP3   OH2 7889   1.163   3.927   3.091
 2628TIP3    H1 7890   1.251   3.895   3.110
 2628TIP3    H2 7891   1.113   3.908   3.170
 2629TIP3   OH2 7892   2.611   1.942   1.624
 2629TIP3    H1 7893   2.702   1.969   1.630
 2629TIP3    H2 7894   2.589   1.953   1.531
 2630TIP3   OH2 7895   4.925   0.991   2.343
 2630TIP3    H1 7896   4.830   0.979   2.344
 2630TIP3    H2 7897   4.960   0.902   2.350
 2631TIP3   OH2 7898   3.641   1.617   1.703
 2631TIP3    H1 7899   3.691   1.536   1.696
 2631TIP3    H2 7900   3.596   1.611   1.787
 2632TIP3   OH2 7901   0.223   2.699   4.805
 2632TIP3    H1 7902   0.156   2.644   4.764
 2632TIP3    H2 7903   0.283   2.721   4.733
 2633TIP3   OH2 7904   1.041   4.056   4.248
 2633TIP3    H1 7905   1.104   4.087   4.313
 2633TIP3    H2 7906   1.026   4.131   4.191
 2634TIP3   OH2 7907   1.969   3.271   4.296
 2634TIP3    H1 7908   1.901   3.227   4.245
 2634TIP3    H2 7909   1.994   3.347   4.242
 2635TIP3   OH2 7910   1.960   0.215   1.744
 2635TIP3    H1 7911   1.944   0.257   1.829
 2635TIP3    H2 7912   2.055   0.207   1.738
 2636TIP3   OH2 7913   2.286   2.527   4.194
 2636TIP3    H1 7914   2.376   2.499   4.210
 2636TIP3    H2 7915   2.241   2.448   4.165
 2637TIP3   OH2 7916   5.768   0.656   4.722
 2637TIP3    H1 7917   5.801   0.670   4.633
 2637TIP3    H2 7918   5.689   0.710   4.727
 2638TIP3   OH2 7919   3.624   5.082   2.985
 2638TIP3    H1 7920   3.609   5.019   3.056
 2638TIP3    H2 7921   3.650   5.028   2.910
 2639TIP3   OH2 7922   1.349   1.385   0.631
 2639TIP3    H1 7923   1.388   1.424   0.709
 2639TIP3    H2 7924   1.256   1.406   0.637
 2640TIP3   OH2 7925   3.727   5.665   0.760
 2640TIP3    H1 7926   3.723   5.703   0.672
 2640TIP3    H2 7927   3.821   5.649   0.775
 2641TIP3   OH2 7928   2.573   4.544   2.097
 2641TIP3    H1 7929   2.615   4.467   2.059
 2641TIP3    H2 7930   2.620   4.561   2.178
 2642TIP3   OH2 7931   3.943   2.208   2.233
 2642TIP3    H1 7932   3.847   2.201   2.237
 2642TIP3    H2 7933   3.962   2.295   2.269
 2643TIP3   OH2 7934   1.719   1.356   2.718
 2643TIP3    H1 7935   1.652   1.414   2.754
 2643TIP3    H2 7936   1.677   1.271   2.710
 2644TIP3   OH2 7937   4.452   3.671   4.651
 2644TIP3    H1 7938   4.361   3.641   4.659
 2644TIP3    H2 7939   4.452   3.724   4.572
 2645TIP3   OH2 7940   2.055   2.194   5.123
 2645TIP3    H1 7941   1.993   2.228   5.188
 2645TIP3    H2 7942   2.140   2.193   5.168
 2646TIP3   OH2 7943   0.937   1.628   4.342
 2646TIP3    H1 7944   0.888   1.687   4.400
 2646TIP3    H2 7945   0.870   1.569   4.306
 2647TIP3   OH2 7946   4.167   4.120   2.703
 2647TIP3    H1 7947   4.190   4.092   2.614
 2647TIP3    H2 7948   4.093   4.064   2.727
 2648TIP3   OH2 7949   5.941   1.565   1.222
 2648TIP3    H1 7950   5.875   1.498   1.204
 2648TIP3    H2 7951   5.950   1.612   1.139
 2649TIP3   OH2 7952   3.073   4.394   2.827
 2649TIP3    H1 7953   3.107   4.450   2.758
 2649TIP3    H2 7954   3.110   4.431   2.908
 2650TIP3   OH2 7955   1.228   4.687   0.356
 2650TIP3    H1 7956   1.284   4.631   0.408
 2650TIP3    H2 7957   1.213   4.764   0.411
 2651TIP3   OH2 7958   1.877   3.572   4.684
 2651TIP3    H1 7959   1.949   3.516   4.713
 2651TIP3    H2 7960   1.879   3.566   4.588
 2652TIP3   OH2 7961   0.260   4.924   1.461
 2652TIP3    H1 7962   0.354   4.934   1.449
 2652TIP3    H2 7963   0.251   4.846   1.516
 2653TIP3   OH2 7964   1.409   5.297   3.503
 2653TIP3    H1 7965   1.357   5.217   3.493
 2653TIP3    H2 7966   1.360   5.349   3.566
 2654TIP3   OH2 7967   5.602   2.450   1.776
 2654TIP3    H1 7968   5.683   2.472   1.821
 2654TIP3    H2 7969   5.567   2.375   1.825
 2655TIP3   OH2 7970   0.536   5.006   1.394
 2655TIP3    H1 7971   0.616   4.977   1.352
 2655TIP3    H2 7972   0.561   5.086   1.442
 2656TIP3   OH2 7973   4.668   5.936   3.844
 2656TIP3    H1 7974   4.751   5.963   3.806
 2656TIP3    H2 7975   4.689   5.859   3.897
 2657TIP3   OH2 7976   1.216   3.404   0.107
 2657TIP3    H1 7977   1.190   3.376   0.195
 2657TIP3    H2 7978   1.207   3.499   0.109
 2658TIP3   OH2 7979   4.595   5.438   4.315
 2658TIP3    H1 7980   4.611   5.462   4.224
 2658TIP3    H2 7981   4.568   5.519   4.358
 2659TIP3   OH2 7982   3.612   4.065   2.836
 2659TIP3    H1 7983   3.630   4.059   2.742
 2659TIP3    H2 7984   3.525   4.026   2.846
 2660TIP3   OH2 7985   6.032   2.145   5.156
 2660TIP3    H1 7986   6.020   2.160   5.062
 2660TIP3    H2 7987   5.964   2.081   5.179
 2661TIP3   OH2 7988   1.067   4.998   1.728
 2661TIP3    H1 7989   1.151   5.041   1.714
 2661TIP3    H2 7990   1.083   4.906   1.703
 2662TIP3   OH2 7991   2.762   2.587   1.575
 2662TIP3    H1 7992   2.840   2.548   1.613
 2662TIP3    H2 7993   2.731   2.648   1.642
 2663TIP3   OH2 7994   2.922   0.931   2.676
 2663TIP3    H1 7995   2.834   0.902   2.652
 2663TIP3    H2 7996   2.912   0.967   2.764
 2664TIP3   OH2 7997   4.952   4.998   4.426
 2664TIP3    H1 7998   4.897   4.927   4.393
 2664TIP3    H2 7999   4.934   5.071   4.367
 2665TIP3   OH2 8000   3.348   0.593   2.945
 2665TIP3    H1 8001   3.319   0.657   2.879
 2665TIP3    H2 8002   3.358   0.645   3.025
 2666TIP3   OH2 8003   3.588   4.541   0.549
 2666TIP3    H1 8004   3.674   4.576   0.572
 2666TIP3    H2 8005   3.576   4.567   0.458
 2667TIP3   OH2 8006   6.021   0.595   2.531
 2667TIP3    H1 8007   5.955   0.615   2.597
 2667TIP3    H2 8008   6.093   0.655   2.550
 2668TIP3   OH2 8009   1.232   0.918   3.597
 2668TIP3    H1 8010   1.206   0.837   3.640
 2668TIP3    H2 8011   1.150   0.966   3.586
 2669TIP3   OH2 8012   2.993   1.677   3.373
 2669TIP3    H1 8013   2.947   1.720   3.301
 2669TIP3    H2 8014   3.027   1.595   3.335
 2670TIP3   OH2 8015   2.309   5.774   3.577
 2670TIP3    H1 8016   2.251   5.782   3.652
 2670TIP3    H2 8017   2.294   5.853   3.526
 2671TIP3   OH2 8018   1.560   1.938   1.685
 2671TIP3    H1 8019   1.647   1.979   1.685
 2671TIP3    H2 8020   1.574   1.850   1.719
 2672TIP3   OH2 8021   5.701   3.805   3.062
 2672TIP3    H1 8022   5.786   3.838   3.092
 2672TIP3    H2 8023   5.655   3.783   3.143
 2673TIP3   OH2 8024   4.325   0.032   3.498
 2673TIP3    H1 8025   4.324   0.121   3.532
 2673TIP3    H2 8026   4.243  -0.006   3.528
 2674TIP3   OH2 8027   5.567   5.267   3.167
 2674TIP3    H1 8028   5.490   5.324   3.160
 2674TIP3    H2 8029   5.623   5.311   3.232
 2675TIP3   OH2 8030   2.064   3.828   2.429
 2675TIP3    H1 8031   2.156   3.813   2.450
 2675TIP3    H2 8032   2.016   3.790   2.503
 2676TIP3   OH2 8033   5.179   0.397   0.190
 2676TIP3    H1 8034   5.161   0.486   0.161
 2676TIP3    H2 8035   5.177   0.345   0.109
 2677TIP3   OH2 8036   1.539   3.748   4.025
 2677TIP3    H1 8037   1.483   3.716   3.954
 2677TIP3    H2 8038   1.529   3.844   4.021
 2678TIP3   OH2 8039   4.750   4.739   2.845
 2678TIP3    H1 8040   4.830   4.707   2.803
 2678TIP3    H2 8041   4.687   4.667   2.834
 2679TIP3   OH2 8042   4.697   5.406   3.514
 2679TIP3    H1 8043   4.774   5.396   3.569
 2679TIP3    H2 8044   4.731   5.441   3.431
 2680TIP3   OH2 8045   5.924   2.231   0.708
 2680TIP3    H1 8046   5.963   2.144   0.722
 2680TIP3    H2 8047   5.916   2.239   0.613
 2681TIP3   OH2 8048   4.857   2.078   1.500
 2681TIP3    H1 8049   4.934   2.134   1.498
 2681TIP3    H2 8050   4.860   2.028   1.419
 2682TIP3   OH2 8051   4.542   1.940   0.369
 2682TIP3    H1 8052   4.466   1.910   0.319
 2682TIP3    H2 8053   4.505   1.973   0.451
 2683TIP3   OH2 8054   4.839   5.157   3.333
 2683TIP3    H1 8055   4.824   5.143   3.239
 2683TIP3    H2 8056   4.823   5.251   3.346
 2684TIP3   OH2 8057   3.378   0.160   4.048
 2684TIP3    H1 8058   3.412   0.238   4.092
 2684TIP3    H2 8059   3.300   0.136   4.099
 2685TIP3   OH2 8060   6.250   3.008   5.055
 2685TIP3    H1 8061   6.215   2.925   5.087
 2685TIP3    H2 8062   6.183   3.040   4.995
 2686TIP3   OH2 8063   3.701   4.708   2.420
 2686TIP3    H1 8064   3.795   4.720   2.408
 2686TIP3    H2 8065   3.690   4.613   2.418
 2687TIP3   OH2 8066   4.814   5.116   3.963
 2687TIP3    H1 8067   4.720   5.101   3.953
 2687TIP3    H2 8068   4.820   5.181   4.033
 2688TIP3   OH2 8069   0.113   2.082   1.881
 2688TIP3    H1 8070   0.154   2.164   1.908
 2688TIP3    H2 8071   0.037   2.072   1.937
 2689TIP3   OH2 8072   4.814   3.568   0.392
 2689TIP3    H1 8073   4.770   3.574   0.477
 2689TIP3    H2 8074   4.907   3.557   0.414
 2690TIP3   OH2 8075   3.482   1.683   4.906
 2690TIP3    H1 8076   3.513   1.624   4.975
 2690TIP3    H2 8077   3.396   1.711   4.936
 2691TIP3   OH2 8078   2.415   4.528   4.974
 2691TIP3    H1 8079   2.476   4.458   4.997
 2691TIP3    H2 8080   2.470   4.598   4.939
 2692TIP3   OH2 8081   2.023   5.402   0.310
 2692TIP3    H1 8082   2.009   5.401   0.215
 2692TIP3    H2 8083   2.103   5.452   0.321
 2693TIP3   OH2 8084   5.289   3.692   4.938
 2693TIP3    H1 8085   5.337   3.722   4.862
 2693TIP3    H2 8086   5.287   3.596   4.929
 2694TIP3   OH2 8087   4.902   4.176   2.882
 2694TIP3    H1 8088   4.838   4.114   2.846
 2694TIP3    H2 8089   4.929   4.137   2.966
 2695TIP3   OH2 8090   4.208   0.261   0.324
 2695TIP3    H1 8091   4.233   0.283   0.234
 2695TIP3    H2 8092   4.278   0.296   0.378
 2696TIP3   OH2 8093   5.534   2.653   0.290
 2696TIP3    H1 8094   5.532   2.578   0.350
 2696TIP3    H2 8095   5.449   2.651   0.246
 2697TIP3   OH2 8096   2.569   0.736   5.029
 2697TIP3    H1 8097   2.527   0.673   5.087
 2697TIP3    H2 8098   2.600   0.684   4.955
 2698TIP3   OH2 8099   4.189   3.258   1.125
 2698TIP3    H1 8100   4.276   3.224   1.101
 2698TIP3    H2 8101   4.133   3.233   1.052
 2699TIP3   OH2 8102   4.039   1.363   1.133
 2699TIP3    H1 8103   4.071   1.292   1.190
 2699TIP3    H2 8104   4.117   1.393   1.087
 2700TIP3   OH2 8105   2.096   2.761   1.615
 2700TIP3    H1 8106   2.052   2.826   1.560
 2700TIP3    H2 8107   2.167   2.810   1.657
 2701TIP3   OH2 8108   3.225   5.746   2.773
 2701TIP3    H1 8109   3.229   5.677   2.706
 2701TIP3    H2 8110   3.314   5.753   2.806
 2702TIP3   OH2 8111   4.921   4.102   0.992
 2702TIP3    H1 8112   4.956   4.191   0.998
 2702TIP3    H2 8113   4.865   4.104   0.915
 2703TIP3   OH2 8114   3.336   3.451   4.769
 2703TIP3    H1 8115   3.258   3.488   4.809
 2703TIP3    H2 8116   3.349   3.367   4.813
 2704TIP3   OH2 8117   5.579   1.845   3.744
 2704TIP3    H1 8118   5.519   1.808   3.809
 2704TIP3    H2 8119   5.640   1.774   3.724
 2705TIP3   OH2 8120   1.547   1.322   3.334
 2705TIP3    H1 8121   1.534   1.235   3.370
 2705TIP3    H2 8122   1.530   1.312   3.240
 2706TIP3   OH2 8123   3.001   2.726  -0.001
 2706TIP3    H1 8124   3.096   2.714   0.003
 2706TIP3    H2 8125   2.968   2.682   0.077
 2707TIP3   OH2 8126   1.555   0.477   0.297
 2707TIP3    H1 8127   1.648   0.493   0.313
 2707TIP3    H2 8128   1.534   0.532   0.221
 2708TIP3   OH2 8129   6.146   5.882   2.960
 2708TIP3    H1 8130   6.165   5.917   2.873
 2708TIP3    H2 8131   6.190   5.942   3.020
 2709TIP3   OH2 8132   0.366   0.997   0.684
 2709TIP3    H1 8133   0.402   0.969   0.768
 2709TIP3    H2 8134   0.406   0.939   0.620
 2710TIP3   OH2 8135   4.559   5.012   4.286
 2710TIP3    H1 8136   4.501   4.966   4.226
 2710TIP3    H2 8137   4.597   4.943   4.341
 2711TIP3   OH2 8138   4.195   3.975   1.973
 2711TIP3    H1 8139   4.180   3.939   2.060
 2711TIP3    H2 8140   4.290   3.969   1.961
 2712TIP3   OH2 8141   0.439   4.697   0.615
 2712TIP3    H1 8142   0.405   4.740   0.694
 2712TIP3    H2 8143   0.446   4.604   0.640
 2713TIP3   OH2 8144   1.573   1.603   4.274
 2713TIP3    H1 8145   1.481   1.612   4.247
 2713TIP3    H2 8146   1.588   1.509   4.279
 2714TIP3   OH2 8147   3.478   1.838   3.121
 2714TIP3    H1 8148   3.439   1.905   3.177
 2714TIP3    H2 8149   3.506   1.769   3.181
 2715TIP3   OH2 8150   4.757   1.344   2.849
 2715TIP3    H1 8151   4.683   1.346   2.910
 2715TIP3    H2 8152   4.819   1.284   2.889
 2716TIP3   OH2 8153   6.277   1.455   1.830
 2716TIP3    H1 8154   6.191   1.484   1.798
 2716TIP3    H2 8155   6.297   1.377   1.778
 2717TIP3   OH2 8156   3.809   0.981   0.546
 2717TIP3    H1 8157   3.903   1.001   0.540
 2717TIP3    H2 8158   3.806   0.887   0.562
 2718TIP3   OH2 8159   0.395   5.218   1.567
 2718TIP3    H1 8160   0.307   5.243   1.595
 2718TIP3    H2 8161   0.425   5.158   1.636
 2719TIP3   OH2 8162   2.967   1.757   1.721
 2719TIP3    H1 8163   2.930   1.829   1.670
 2719TIP3    H2 8164   2.967   1.788   1.811
 2720TIP3   OH2 8165   6.176   3.839   1.254
 2720TIP3    H1 8166   6.099   3.892   1.233
 2720TIP3    H2 8167   6.154   3.751   1.223
 2721TIP3   OH2 8168   3.424   5.726   1.715
 2721TIP3    H1 8169   3.365   5.655   1.689
 2721TIP3    H2 8170   3.382   5.763   1.793
 2722TIP3   OH2 8171   1.568   0.135   0.756
 2722TIP3    H1 8172   1.616   0.076   0.814
 2722TIP3    H2 8173   1.611   0.219   0.766
 2723TIP3   OH2 8174   3.367   1.985   4.173
 2723TIP3    H1 8175   3.371   1.898   4.214
 2723TIP3    H2 8176   3.448   1.990   4.121
 2724TIP3   OH2 8177   2.643   3.846   4.490
 2724TIP3    H1 8178   2.643   3.816   4.581
 2724TIP3    H2 8179   2.587   3.924   4.491
 2725TIP3   OH2 8180   4.539   1.995   4.434
 2725TIP3    H1 8181   4.536   2.090   4.439
 2725TIP3    H2 8182   4.584   1.968   4.514
 2726TIP3   OH2 8183   5.387   3.526   3.813
 2726TIP3    H1 8184   5.463   3.552   3.762
 2726TIP3    H2 8185   5.406   3.436   3.840
 2727TIP3   OH2 8186   5.016   3.807   3.219
 2727TIP3    H1 8187   4.992   3.736   3.159
 2727TIP3    H2 8188   5.096   3.777   3.261
 2728TIP3   OH2 8189   0.655   4.959   0.150
 2728TIP3    H1 8190   0.619   4.871   0.152
 2728TIP3    H2 8191   0.580   5.016   0.167
 2729TIP3   OH2 8192   3.052   4.002   3.173
 2729TIP3    H1 8193   3.028   4.038   3.088
 2729TIP3    H2 8194   3.140   4.038   3.190
 2730TIP3   OH2 8195   1.678   0.154   0.407
 2730TIP3    H1 8196   1.724   0.098   0.470
 2730TIP3    H2 8197   1.741   0.223   0.387
 2731TIP3   OH2 8198   5.802   4.668   4.918
 2731TIP3    H1 8199   5.845   4.582   4.923
 2731TIP3    H2 8200   5.714   4.652   4.953
 2732TIP3   OH2 8201   4.724   2.567   1.611
 2732TIP3    H1 8202   4.792   2.500   1.620
 2732TIP3    H2 8203   4.664   2.551   1.683
 2733TIP3   OH2 8204   0.758   3.325   0.579
 2733TIP3    H1 8205   0.744   3.295   0.490
 2733TIP3    H2 8206   0.732   3.252   0.634
 2734TIP3   OH2 8207   0.276   1.601   0.395
 2734TIP3    H1 8208   0.351   1.565   0.347
 2734TIP3    H2 8209   0.296   1.584   0.487
 2735TIP3   OH2 8210   6.090   0.261   2.271
 2735TIP3    H1 8211   6.028   0.191   2.250
 2735TIP3    H2 8212   6.137   0.277   2.189
 2736TIP3   OH2 8213   3.036   2.156   5.029
 2736TIP3    H1 8214   2.943   2.150   5.007
 2736TIP3    H2 8215   3.062   2.066   5.046
 2737TIP3   OH2 8216   2.303   2.423   0.144
 2737TIP3    H1 8217   2.305   2.404   0.051
 2737TIP3    H2 8218   2.218   2.465   0.158
 2738TIP3   OH2 8219   6.088   4.673   4.388
 2738TIP3    H1 8220   6.064   4.704   4.475
 2738TIP3    H2 8221   6.050   4.586   4.381
 2739TIP3   OH2 8222   4.060   0.547   3.476
 2739TIP3    H1 8223   4.049   0.638   3.448
 2739TIP3    H2 8224   4.124   0.511   3.415
 2740TIP3   OH2 8225   5.584   2.256   0.977
 2740TIP3    H1 8226   5.537   2.278   1.057
 2740TIP3    H2 8227   5.551   2.319   0.912
 2741TIP3   OH2 8228   4.720   5.036   0.698
 2741TIP3    H1 8229   4.761   4.987   0.770
 2741TIP3    H2 8230   4.630   5.003   0.696
 2742TIP3   OH2 8231   1.658   5.883   0.176
 2742TIP3    H1 8232   1.649   5.920   0.264
 2742TIP3    H2 8233   1.724   5.814   0.186
 2743TIP3   OH2 8234   2.980   2.605   3.827
 2743TIP3    H1 8235   2.891   2.586   3.797
 2743TIP3    H2 8236   3.016   2.519   3.851
 2744TIP3   OH2 8237   3.015   4.983   4.369
 2744TIP3    H1 8238   3.031   5.028   4.452
 2744TIP3    H2 8239   2.992   5.053   4.308
 2745TIP3   OH2 8240   2.683   0.448   0.295
 2745TIP3    H1 8241   2.624   0.493   0.235
 2745TIP3    H2 8242   2.689   0.505   0.371
 2746TIP3   OH2 8243   2.627   1.464   2.974
 2746TIP3    H1 8244   2.534   1.481   2.960
 2746TIP3    H2 8245   2.630   1.414   3.055
 2747TIP3   OH2 8246   1.557   0.987   2.178
 2747TIP3    H1 8247   1.562   0.916   2.113
 2747TIP3    H2 8248   1.611   0.956   2.251
 2748TIP3   OH2 8249   1.222   3.388   2.343
 2748TIP3    H1 8250   1.130   3.415   2.340
 2748TIP3    H2 8251   1.242   3.359   2.254
 2749TIP3   OH2 8252   1.332   4.301   0.710
 2749TIP3    H1 8253   1.396   4.247   0.664
 2749TIP3    H2 8254   1.308   4.249   0.787
 2750TIP3   OH2 8255   2.871   2.191   2.866
 2750TIP3    H1 8256   2.893   2.275   2.825
 2750TIP3    H2 8257   2.775   2.188   2.865
 2751TIP3   OH2 8258   6.043   2.173   4.873
 2751TIP3    H1 8259   5.957   2.192   4.836
 2751TIP3    H2 8260   6.101   2.170   4.798
 2752TIP3   OH2 8261   2.883   3.889   3.547
 2752TIP3    H1 8262   2.965   3.854   3.511
 2752TIP3    H2 8263   2.815   3.835   3.507
 2753TIP3   OH2 8264   1.757   1.982   4.545
 2753TIP3    H1 8265   1.731   1.901   4.500
 2753TIP3    H2 8266   1.678   2.012   4.589
 2754TIP3   OH2 8267   3.965   3.250   3.200
 2754TIP3    H1 8268   4.002   3.162   3.200
 2754TIP3    H2 8269   4.041   3.308   3.208
 2755TIP3   OH2 8270   2.122   0.477   3.676
 2755TIP3    H1 8271   2.122   0.523   3.592
 2755TIP3    H2 8272   2.196   0.516   3.724
 2756TIP3   OH2 8273   5.345   4.768   2.169
 2756TIP3    H1 8274   5.345   4.763   2.073
 2756TIP3    H2 8275   5.419   4.714   2.197
 2757TIP3   OH2 8276   1.905   5.419   2.953
 2757TIP3    H1 8277   1.879   5.459   3.036
 2757TIP3    H2 8278   2.000   5.428   2.951
 2758TIP3   OH2 8279   1.688   0.214   4.904
 2758TIP3    H1 8280   1.639   0.168   4.836
 2758TIP3    H2 8281   1.741   0.147   4.946
 2759TIP3   OH2 8282   2.174   0.737   1.852
 2759TIP3    H1 8283   2.230   0.660   1.857
 2759TIP3    H2 8284   2.203   0.792   1.924
 2760TIP3   OH2 8285   3.249   5.812   3.126
 2760TIP3    H1 8286   3.305   5.829   3.051
 2760TIP3    H2 8287   3.309   5.807   3.201
 2761TIP3   OH2 8288   0.320   1.961   0.699
 2761TIP3    H1 8289   0.339   2.054   0.710
 2761TIP3    H2 8290   0.284   1.934   0.784
 2762TIP3   OH2 8291   2.051   3.125  -0.015
 2762TIP3    H1 8292   2.007   3.189   0.041
 2762TIP3    H2 8293   1.980   3.079  -0.059
 2763TIP3   OH2 8294   4.093   3.935   3.159
 2763TIP3    H1 8295   4.101   4.018   3.207
 2763TIP3    H2 8296   4.133   3.953   3.074
 2764TIP3   OH2 8297   3.706   2.542   3.415
 2764TIP3    H1 8298   3.769   2.613   3.403
 2764TIP3    H2 8299   3.709   2.493   3.333
 2765TIP3   OH2 8300   6.093   3.828   0.751
 2765TIP3    H1 8301   6.157   3.821   0.680
 2765TIP3    H2 8302   6.088   3.923   0.768
 2766TIP3   OH2 8303   0.076   1.166   0.899
 2766TIP3    H1 8304   0.157   1.189   0.943
 2766TIP3    H2 8305   0.022   1.127   0.967
 2767TIP3   OH2 8306   0.161   5.701   0.551
 2767TIP3    H1 8307   0.173   5.624   0.608
 2767TIP3    H2 8308   0.145   5.664   0.464
 2768TIP3   OH2 8309   1.719   3.261   2.218
 2768TIP3    H1 8310   1.720   3.214   2.134
 2768TIP3    H2 8311   1.807   3.300   2.224
 2769TIP3   OH2 8312   2.378   4.906   0.254
 2769TIP3    H1 8313   2.343   4.982   0.301
 2769TIP3    H2 8314   2.433   4.944   0.186
 2770TIP3   OH2 8315   1.345   5.387   1.483
 2770TIP3    H1 8316   1.431   5.408   1.518
 2770TIP3    H2 8317   1.358   5.307   1.432
 2771TIP3   OH2 8318   4.907   3.794   1.658
 2771TIP3    H1 8319   4.973   3.863   1.672
 2771TIP3    H2 8320   4.958   3.715   1.642
 2772TIP3   OH2 8321   2.807   0.532   3.213
 2772TIP3    H1 8322   2.873   0.588   3.173
 2772TIP3    H2 8323   2.820   0.543   3.307
 2773TIP3   OH2 8324   2.591   3.603   0.479
 2773TIP3    H1 8325   2.630   3.530   0.432
 2773TIP3    H2 8326   2.572   3.569   0.566
 2774TIP3   OH2 8327   4.275   3.966   2.481
 2774TIP3    H1 8328   4.267   4.046   2.429
 2774TIP3    H2 8329   4.282   3.896   2.415
 2775TIP3   OH2 8330   1.800   5.633   2.704
 2775TIP3    H1 8331   1.878   5.687   2.717
 2775TIP3    H2 8332   1.825   5.546   2.734
 2776TIP3   OH2 8333   1.175   4.265   0.131
 2776TIP3    H1 8334   1.241   4.222   0.077
 2776TIP3    H2 8335   1.224   4.309   0.200
 2777TIP3   OH2 8336   1.113   5.452   3.437
 2777TIP3    H1 8337   1.110   5.533   3.386
 2777TIP3    H2 8338   1.096   5.480   3.527
 2778TIP3   OH2 8339   5.711   4.108   2.650
 2778TIP3    H1 8340   5.691   4.174   2.583
 2778TIP3    H2 8341   5.669   4.028   2.617
 2779TIP3   OH2 8342   0.204   4.685   1.310
 2779TIP3    H1 8343   0.194   4.780   1.307
 2779TIP3    H2 8344   0.139   4.652   1.248
 2780TIP3   OH2 8345   1.228   4.183   3.847
 2780TIP3    H1 8346   1.140   4.193   3.809
 2780TIP3    H2 8347   1.286   4.173   3.771
 2781TIP3   OH2 8348   4.436   4.341   3.212
 2781TIP3    H1 8349   4.361   4.399   3.227
 2781TIP3    H2 8350   4.486   4.346   3.293
 2782TIP3   OH2 8351   4.007   2.680   4.079
 2782TIP3    H1 8352   3.972   2.681   4.169
 2782TIP3    H2 8353   3.938   2.722   4.027
 2783TIP3   OH2 8354   3.553   1.896   2.546
 2783TIP3    H1 8355   3.627   1.901   2.607
 2783TIP3    H2 8356   3.492   1.836   2.587
 2784TIP3   OH2 8357   2.755   1.006   0.949
 2784TIP3    H1 8358   2.783   0.939   0.888
 2784TIP3    H2 8359   2.836   1.046   0.981
 2785TIP3   OH2 8360   2.517   2.589   1.075
 2785TIP3    H1 8361   2.458   2.521   1.044
 2785TIP3    H2 8362   2.513   2.582   1.171
 2786TIP3   OH2 8363   6.324   0.086   0.443
 2786TIP3    H1 8364   6.267   0.012   0.460
 2786TIP3    H2 8365   6.407   0.047   0.415
 2787TIP3   OH2 8366   3.245   1.885   2.354
 2787TIP3    H1 8367   3.227   1.947   2.284
 2787TIP3    H2 8368   3.275   1.939   2.427
 2788TIP3   OH2 8369   1.470   2.658   3.962
 2788TIP3    H1 8370   1.446   2.630   4.050
 2788TIP3    H2 8371   1.565   2.667   3.965
 2789TIP3   OH2 8372   5.328   4.324   1.898
 2789TIP3    H1 8373   5.263   4.254   1.897
 2789TIP3    H2 8374   5.382   4.306   1.975
 2790TIP3   OH2 8375   2.123   5.194   0.803
 2790TIP3    H1 8376   2.093   5.176   0.893
 2790TIP3    H2 8377   2.167   5.113   0.777
 2791TIP3   OH2 8378   0.740   2.497   3.235
 2791TIP3    H1 8379   0.668   2.437   3.257
 2791TIP3    H2 8380   0.710   2.582   3.267
 2792TIP3   OH2 8381   3.157   5.104   2.977
 2792TIP3    H1 8382   3.210   5.114   3.056
 2792TIP3    H2 8383   3.125   5.193   2.959
 2793TIP3   OH2 8384   5.305   0.266   1.904
 2793TIP3    H1 8385   5.294   0.360   1.916
 2793TIP3    H2 8386   5.324   0.256   1.811
 2794TIP3   OH2 8387   3.869   4.224   3.136
 2794TIP3    H1 8388   3.900   4.291   3.075
 2794TIP3    H2 8389   3.774   4.220   3.121
 2795TIP3   OH2 8390   2.043   1.153   0.655
 2795TIP3    H1 8391   2.096   1.232   0.667
 2795TIP3    H2 8392   2.096   1.083   0.692
 2796TIP3   OH2 8393   1.470   5.624   0.459
 2796TIP3    H1 8394   1.504   5.617   0.370
 2796TIP3    H2 8395   1.384   5.582   0.456
 2797TIP3   OH2 8396   0.397   2.070   4.380
 2797TIP3    H1 8397   0.421   2.000   4.320
 2797TIP3    H2 8398   0.415   2.151   4.331
 2798TIP3   OH2 8399   0.263   2.235   3.389
 2798TIP3    H1 8400   0.189   2.198   3.437
 2798TIP3    H2 8401   0.268   2.182   3.309
 2799TIP3   OH2 8402   5.816   3.281   0.576
 2799TIP3    H1 8403   5.863   3.364   0.585
 2799TIP3    H2 8404   5.798   3.273   0.482
 2800TIP3   OH2 8405   0.613   0.309   4.581
 2800TIP3    H1 8406   0.600   0.272   4.493
 2800TIP3    H2 8407   0.624   0.232   4.637
 2801TIP3   OH2 8408   1.124   4.595   2.269
 2801TIP3    H1 8409   1.216   4.579   2.248
 2801TIP3    H2 8410   1.077   4.521   2.230
 2802TIP3   OH2 8411   4.031   1.889   2.374
 2802TIP3    H1 8412   3.951   1.893   2.321
 2802TIP3    H2 8413   4.098   1.929   2.319
 2803TIP3   OH2 8414   1.014   4.580   0.828
 2803TIP3    H1 8415   0.929   4.558   0.867
 2803TIP3    H2 8416   0.993   4.643   0.759
 2804TIP3   OH2 8417   0.993   1.415   1.769
 2804TIP3    H1 8418   0.999   1.486   1.832
 2804TIP3    H2 8419   0.973   1.338   1.822
 2805TIP3   OH2 8420   5.660   3.305   4.495
 2805TIP3    H1 8421   5.671   3.211   4.482
 2805TIP3    H2 8422   5.673   3.343   4.408
 2806TIP3   OH2 8423  -0.039   1.196   1.714
 2806TIP3    H1 8424   0.057   1.195   1.707
 2806TIP3    H2 8425  -0.069   1.143   1.640
 2807TIP3   OH2 8426   6.107   3.577   1.146
 2807TIP3    H1 8427   6.118   3.591   1.052
 2807TIP3    H2 8428   6.156   3.497   1.164
 2808TIP3   OH2 8429   4.804   3.161   0.263
 2808TIP3    H1 8430   4.750   3.188   0.336
 2808TIP3    H2 8431   4.754   3.091   0.220
 2809TIP3   OH2 8432   2.638   0.040   4.224
 2809TIP3    H1 8433   2.616   0.106   4.158
 2809TIP3    H2 8434   2.608   0.077   4.307
 2810TIP3   OH2 8435   0.520   3.715   3.845
 2810TIP3    H1 8436   0.485   3.794   3.885
 2810TIP3    H2 8437   0.444   3.657   3.833
 2811TIP3   OH2 8438   2.565   2.811   2.991
 2811TIP3    H1 8439   2.524   2.777   2.911
 2811TIP3    H2 8440   2.658   2.816   2.971
 2812TIP3   OH2 8441   1.750   4.329   3.299
 2812TIP3    H1 8442   1.704   4.329   3.215
 2812TIP3    H2 8443   1.768   4.237   3.316
 2813TIP3   OH2 8444   0.733   1.577   2.116
 2813TIP3    H1 8445   0.679   1.634   2.062
 2813TIP3    H2 8446   0.671   1.533   2.175
 2814TIP3   OH2 8447   2.945   0.178   0.156
 2814TIP3    H1 8448   2.925   0.262   0.199
 2814TIP3    H2 8449   2.883   0.116   0.195
 2815TIP3   OH2 8450   0.630   0.196   1.987
 2815TIP3    H1 8451   0.701   0.255   1.960
 2815TIP3    H2 8452   0.659   0.109   1.960
 2816TIP3   OH2 8453   2.315   3.760   4.813
 2816TIP3    H1 8454   2.360   3.837   4.780
 2816TIP3    H2 8455   2.333   3.692   4.748
 2817TIP3   OH2 8456   5.056   5.703   3.770
 2817TIP3    H1 8457   5.081   5.647   3.843
 2817TIP3    H2 8458   4.966   5.679   3.750
 2818TIP3   OH2 8459   3.499   2.871   3.189
 2818TIP3    H1 8460   3.525   2.945   3.135
 2818TIP3    H2 8461   3.417   2.898   3.230
 2819TIP3   OH2 8462   2.870   5.685   3.934
 2819TIP3    H1 8463   2.916   5.631   3.999
 2819TIP3    H2 8464   2.936   5.747   3.904
 2820TIP3   OH2 8465   1.905   1.847   3.214
 2820TIP3    H1 8466   1.999   1.831   3.208
 2820TIP3    H2 8467   1.896   1.942   3.213
 2821TIP3   OH2 8468   0.319  -0.012   3.434
 2821TIP3    H1 8469   0.279   0.034   3.360
 2821TIP3    H2 8470   0.346   0.058   3.493
 2822TIP3   OH2 8471   0.917   2.404   3.448
 2822TIP3    H1 8472   1.003   2.372   3.420
 2822TIP3    H2 8473   0.883   2.451   3.372
 2823TIP3   OH2 8474   5.306   5.628   1.265
 2823TIP3    H1 8475   5.392   5.634   1.224
 2823TIP3    H2 8476   5.264   5.712   1.243
 2824TIP3   OH2 8477   1.277   5.532   0.815
 2824TIP3    H1 8478   1.216   5.565   0.750
 2824TIP3    H2 8479   1.254   5.440   0.826
 2825TIP3   OH2 8480   0.105   2.473   1.645
 2825TIP3    H1 8481   0.015   2.463   1.676
 2825TIP3    H2 8482   0.125   2.390   1.601
 2826TIP3   OH2 8483   3.899   5.482   1.310
 2826TIP3    H1 8484   3.929   5.570   1.286
 2826TIP3    H2 8485   3.822   5.468   1.256
 2827TIP3   OH2 8486   5.574   5.511   4.310
 2827TIP3    H1 8487   5.573   5.570   4.235
 2827TIP3    H2 8488   5.600   5.427   4.274
 2828TIP3   OH2 8489   0.734   2.813   2.632
 2828TIP3    H1 8490   0.795   2.886   2.626
 2828TIP3    H2 8491   0.654   2.850   2.671
 2829TIP3   OH2 8492   5.899   1.015   4.637
 2829TIP3    H1 8493   5.946   1.086   4.593
 2829TIP3    H2 8494   5.808   1.046   4.641
 2830TIP3   OH2 8495   4.086   4.696   1.153
 2830TIP3    H1 8496   4.071   4.624   1.215
 2830TIP3    H2 8497   4.179   4.691   1.132
 2831TIP3   OH2 8498   4.231   1.526   0.306
 2831TIP3    H1 8499   4.175   1.575   0.246
 2831TIP3    H2 8500   4.182   1.525   0.389
 2832TIP3   OH2 8501   5.737   2.346   1.338
 2832TIP3    H1 8502   5.816   2.342   1.392
 2832TIP3    H2 8503   5.665   2.337   1.400
 2833TIP3   OH2 8504   5.345   2.577   2.256
 2833TIP3    H1 8505   5.433   2.553   2.286
 2833TIP3    H2 8506   5.360   2.647   2.192
 2834TIP3   OH2 8507   3.392   5.748   4.164
 2834TIP3    H1 8508   3.377   5.827   4.216
 2834TIP3    H2 8509   3.363   5.771   4.076
 2835TIP3   OH2 8510   2.356   3.588   1.814
 2835TIP3    H1 8511   2.315   3.589   1.900
 2835TIP3    H2 8512   2.309   3.521   1.765
 2836TIP3   OH2 8513   6.034   5.875   0.493
 2836TIP3    H1 8514   5.965   5.815   0.465
 2836TIP3    H2 8515   6.035   5.867   0.588
 2837TIP3   OH2 8516   1.333   2.618   1.355
 2837TIP3    H1 8517   1.275   2.694   1.350
 2837TIP3    H2 8518   1.327   2.589   1.446
 2838TIP3   OH2 8519   2.264   3.594   2.091
 2838TIP3    H1 8520   2.304   3.591   2.178
 2838TIP3    H2 8521   2.237   3.504   2.074
 2839TIP3   OH2 8522   4.658   5.454   3.811
 2839TIP3    H1 8523   4.699   5.511   3.746
 2839TIP3    H2 8524   4.729   5.400   3.845
 2840TIP3   OH2 8525   4.841   3.983   2.331
 2840TIP3    H1 8526   4.934   3.996   2.350
 2840TIP3    H2 8527   4.826   4.032   2.251
 2841TIP3   OH2 8528   6.042   2.016   1.000
 2841TIP3    H1 8529   5.970   2.034   0.940
 2841TIP3    H2 8530   6.023   2.070   1.077
 2842TIP3   OH2 8531   5.543   3.020   3.991
 2842TIP3    H1 8532   5.453   3.051   4.001
 2842TIP3    H2 8533   5.541   2.929   4.019
 2843TIP3   OH2 8534   0.923   2.443   4.177
 2843TIP3    H1 8535   0.840   2.488   4.161
 2843TIP3    H2 8536   0.922   2.369   4.117
 2844TIP3   OH2 8537   2.384   5.386   4.747
 2844TIP3    H1 8538   2.474   5.357   4.732
 2844TIP3    H2 8539   2.386   5.426   4.834
 2845TIP3   OH2 8540   5.293   1.555   2.052
 2845TIP3    H1 8541   5.264   1.581   1.965
 2845TIP3    H2 8542   5.357   1.623   2.077
 2846TIP3   OH2 8543   0.624   5.338   3.919
 2846TIP3    H1 8544   0.594   5.317   4.007
 2846TIP3    H2 8545   0.714   5.369   3.931
 2847TIP3   OH2 8546   1.106   3.895   0.854
 2847TIP3    H1 8547   1.098   3.954   0.778
 2847TIP3    H2 8548   1.032   3.835   0.845
 2848TIP3   OH2 8549   4.459   4.526   3.423
 2848TIP3    H1 8550   4.375   4.491   3.453
 2848TIP3    H2 8551   4.500   4.560   3.502
 2849TIP3   OH2 8552   1.321   2.881   0.801
 2849TIP3    H1 8553   1.228   2.893   0.782
 2849TIP3    H2 8554   1.327   2.884   0.896
 2850TIP3   OH2 8555   3.212   1.643   0.021
 2850TIP3    H1 8556   3.170   1.567   0.063
 2850TIP3    H2 8557   3.156   1.662  -0.054
 2851TIP3   OH2 8558   3.984   3.475   5.187
 2851TIP3    H1 8559   3.929   3.515   5.120
 2851TIP3    H2 8560   4.070   3.514   5.174
 2852TIP3   OH2 8561   3.557   5.592   2.026
 2852TIP3    H1 8562   3.554   5.522   1.960
 2852TIP3    H2 8563   3.507   5.557   2.100
 2853TIP3   OH2 8564   3.269   5.461   1.653
 2853TIP3    H1 8565   3.280   5.498   1.565
 2853TIP3    H2 8566   3.175   5.448   1.662
 2854TIP3   OH2 8567   2.508   1.342   1.124
 2854TIP3    H1 8568   2.476   1.362   1.212
 2854TIP3    H2 8569   2.600   1.366   1.126
 2855TIP3   OH2 8570   6.171   1.628   1.383
 2855TIP3    H1 8571   6.201   1.711   1.346
 2855TIP3    H2 8572   6.113   1.592   1.316
 2856TIP3   OH2 8573   4.961   0.539   1.216
 2856TIP3    H1 8574   5.048   0.571   1.240
 2856TIP3    H2 8575   4.929   0.602   1.151
 2857TIP3   OH2 8576   5.404   3.729   0.207
 2857TIP3    H1 8577   5.463   3.706   0.136
 2857TIP3    H2 8578   5.460   3.766   0.275
 2858TIP3   OH2 8579   4.286   1.865   1.759
 2858TIP3    H1 8580   4.320   1.775   1.763
 2858TIP3    H2 8581   4.263   1.878   1.667
 2859TIP3   OH2 8582   2.340   1.475   2.174
 2859TIP3    H1 8583   2.413   1.495   2.117
 2859TIP3    H2 8584   2.314   1.386   2.149
 2860TIP3   OH2 8585   3.215   3.505   1.677
 2860TIP3    H1 8586   3.254   3.570   1.735
 2860TIP3    H2 8587   3.125   3.496   1.708
 2861TIP3   OH2 8588   5.933   1.453   4.282
 2861TIP3    H1 8589   5.972   1.491   4.203
 2861TIP3    H2 8590   5.859   1.511   4.302
 2862TIP3   OH2 8591   1.713   4.239   1.019
 2862TIP3    H1 8592   1.775   4.167   1.035
 2862TIP3    H2 8593   1.763   4.318   1.042
 2863TIP3   OH2 8594   6.292   4.169   2.868
 2863TIP3    H1 8595   6.276   4.114   2.946
 2863TIP3    H2 8596   6.206   4.206   2.848
 2864TIP3   OH2 8597   1.020   3.349   1.307
 2864TIP3    H1 8598   0.996   3.262   1.339
 2864TIP3    H2 8599   0.996   3.348   1.215
 2865TIP3   OH2 8600   4.989   5.977   3.822
 2865TIP3    H1 8601   4.975   6.012   3.734
 2865TIP3    H2 8602   4.995   5.882   3.809
 2866TIP3   OH2 8603   1.935   2.254   2.423
 2866TIP3    H1 8604   1.968   2.174   2.464
 2866TIP3    H2 8605   1.856   2.275   2.473
 2867TIP3   OH2 8606   3.386   3.197   4.960
 2867TIP3    H1 8607   3.432   3.191   4.876
 2867TIP3    H2 8608   3.447   3.243   5.018
 2868TIP3   OH2 8609   0.515   5.383   3.103
 2868TIP3    H1 8610   0.482   5.447   3.167
 2868TIP3    H2 8611   0.609   5.396   3.102
 2869TIP3   OH2 8612   2.694   1.375   2.134
 2869TIP3    H1 8613   2.650   1.426   2.066
 2869TIP3    H2 8614   2.687   1.428   2.213
 2870TIP3   OH2 8615   0.290   4.125   1.232
 2870TIP3    H1 8616   0.282   4.084   1.146
 2870TIP3    H2 8617   0.219   4.085   1.284
 2871TIP3   OH2 8618   0.289   0.173   4.510
 2871TIP3    H1 8619   0.245   0.194   4.593
 2871TIP3    H2 8620   0.363   0.118   4.535
 2872TIP3   OH2 8621   1.028   3.928   3.516
 2872TIP3    H1 8622   1.124   3.934   3.519
 2872TIP3    H2 8623   1.009   3.840   3.550
 2873TIP3   OH2 8624   0.533   2.413   4.702
 2873TIP3    H1 8625   0.602   2.347   4.705
 2873TIP3    H2 8626   0.569   2.488   4.750
 2874TIP3   OH2 8627   0.399   2.238   4.929
 2874TIP3    H1 8628   0.352   2.320   4.942
 2874TIP3    H2 8629   0.384   2.216   4.837
 2875TIP3   OH2 8630   4.918   3.341   2.583
 2875TIP3    H1 8631   4.868   3.298   2.514
 2875TIP3    H2 8632   5.000   3.367   2.541
 2876TIP3   OH2 8633   1.213   3.676   0.143
 2876TIP3    H1 8634   1.249   3.711   0.225
 2876TIP3    H2 8635   1.166   3.750   0.105
 2877TIP3   OH2 8636   1.409   1.129   3.703
 2877TIP3    H1 8637   1.362   1.048   3.721
 2877TIP3    H2 8638   1.400   1.180   3.784
 2878TIP3   OH2 8639   5.137   4.170   4.646
 2878TIP3    H1 8640   5.071   4.180   4.577
 2878TIP3    H2 8641   5.095   4.112   4.710
 2879TIP3   OH2 8642   1.801   0.999   3.408
 2879TIP3    H1 8643   1.768   0.970   3.324
 2879TIP3    H2 8644   1.723   1.028   3.456
 2880TIP3   OH2 8645   5.153   3.889   2.317
 2880TIP3    H1 8646   5.188   3.972   2.285
 2880TIP3    H2 8647   5.141   3.903   2.411
 2881TIP3   OH2 8648   3.009   3.382   1.516
 2881TIP3    H1 8649   2.931   3.434   1.496
 2881TIP3    H2 8650   3.079   3.446   1.528
 2882TIP3   OH2 8651   1.337   5.881   4.057
 2882TIP3    H1 8652   1.433   5.881   4.049
 2882TIP3    H2 8653   1.316   5.968   4.089
 2883TIP3   OH2 8654   0.474   2.210   1.793
 2883TIP3    H1 8655   0.487   2.128   1.746
 2883TIP3    H2 8656   0.542   2.268   1.759
 2884TIP3   OH2 8657   3.850   3.087   1.309
 2884TIP3    H1 8658   3.793   3.161   1.333
 2884TIP3    H2 8659   3.795   3.010   1.321
 2885TIP3   OH2 8660   4.318   2.518   4.070
 2885TIP3    H1 8661   4.271   2.465   4.005
 2885TIP3    H2 8662   4.270   2.503   4.152
 2886TIP3   OH2 8663   2.438   1.099   1.541
 2886TIP3    H1 8664   2.477   1.025   1.587
 2886TIP3    H2 8665   2.344   1.084   1.546
 2887TIP3   OH2 8666   4.221   3.254   0.384
 2887TIP3    H1 8667   4.191   3.163   0.386
 2887TIP3    H2 8668   4.280   3.258   0.308
 2888TIP3   OH2 8669   3.843   2.714   3.633
 2888TIP3    H1 8670   3.873   2.635   3.677
 2888TIP3    H2 8671   3.913   2.735   3.571
 2889TIP3   OH2 8672   0.026   3.071   2.300
 2889TIP3    H1 8673   0.064   3.133   2.362
 2889TIP3    H2 8674  -0.068   3.071   2.321
 2890TIP3   OH2 8675   3.738   3.276   2.665
 2890TIP3    H1 8676   3.682   3.204   2.636
 2890TIP3    H2 8677   3.772   3.314   2.584
 2891TIP3   OH2 8678   5.303   0.294   1.184
 2891TIP3    H1 8679   5.271   0.383   1.197
 2891TIP3    H2 8680   5.383   0.289   1.237
 2892TIP3   OH2 8681   2.253   5.969   2.466
 2892TIP3    H1 8682   2.196   5.985   2.542
 2892TIP3    H2 8683   2.221   6.030   2.400
 2893TIP3   OH2 8684   0.111   4.612   3.894
 2893TIP3    H1 8685   0.190   4.639   3.942
 2893TIP3    H2 8686   0.044   4.603   3.962
 2894TIP3   OH2 8687   3.454   5.432   2.250
 2894TIP3    H1 8688   3.372   5.399   2.285
 2894TIP3    H2 8689   3.501   5.354   2.221
 2895TIP3   OH2 8690   5.941   3.862   2.737
 2895TIP3    H1 8691   5.931   3.913   2.817
 2895TIP3    H2 8692   5.971   3.926   2.672
 2896TIP3   OH2 8693   4.008   5.901   0.370
 2896TIP3    H1 8694   4.029   5.814   0.336
 2896TIP3    H2 8695   3.923   5.890   0.413
 2897TIP3   OH2 8696   0.686   2.008   2.584
 2897TIP3    H1 8697   0.619   1.961   2.633
 2897TIP3    H2 8698   0.687   1.965   2.498
 2898TIP3   OH2 8699   3.116   2.289   0.700
 2898TIP3    H1 8700   3.024   2.311   0.711
 2898TIP3    H2 8701   3.118   2.228   0.627
 2899TIP3   OH2 8702   5.606   0.139   0.381
 2899TIP3    H1 8703   5.542   0.194   0.335
 2899TIP3    H2 8704   5.669   0.114   0.313
 2900TIP3   OH2 8705   4.066   3.189   0.898
 2900TIP3    H1 8706   3.984   3.232   0.875
 2900TIP3    H2 8707   4.070   3.113   0.839
 2901TIP3   OH2 8708   4.843   2.659   4.048
 2901TIP3    H1 8709   4.817   2.719   4.117
 2901TIP3    H2 8710   4.762   2.641   4.000
 2902TIP3   OH2 8711   0.964   2.172   4.578
 2902TIP3    H1 8712   0.895   2.221   4.534
 2902TIP3    H2 8713   1.003   2.118   4.509
 2903TIP3   OH2 8714   3.746   1.771   2.242
 2903TIP3    H1 8715   3.650   1.764   2.249
 2903TIP3    H2 8716   3.780   1.714   2.311
 2904TIP3   OH2 8717   1.217   2.923   0.353
 2904TIP3    H1 8718   1.124   2.900   0.363
 2904TIP3    H2 8719   1.263   2.851   0.397
 2905TIP3   OH2 8720   3.058   0.415   2.684
 2905TIP3    H1 8721   3.072   0.328   2.647
 2905TIP3    H2 8722   3.142   0.460   2.671
 2906TIP3   OH2 8723   3.292   5.330   4.962
 2906TIP3    H1 8724   3.278   5.293   5.050
 2906TIP3    H2 8725   3.242   5.411   4.962
 2907TIP3   OH2 8726   5.490   3.224   1.733
 2907TIP3    H1 8727   5.471   3.226   1.639
 2907TIP3    H2 8728   5.583   3.242   1.739
 2908TIP3   OH2 8729   2.356   3.351   2.016
 2908TIP3    H1 8730   2.444   3.388   2.010
 2908TIP3    H2 8731   2.365   3.262   1.982
 2909TIP3   OH2 8732   6.216   0.865   0.559
 2909TIP3    H1 8733   6.175   0.889   0.642
 2909TIP3    H2 8734   6.309   0.861   0.579
 2910TIP3   OH2 8735   1.972   1.931   0.804
 2910TIP3    H1 8736   1.978   1.998   0.737
 2910TIP3    H2 8737   2.037   1.865   0.779
 2911TIP3   OH2 8738   2.751   3.757   1.433
 2911TIP3    H1 8739   2.681   3.743   1.368
 2911TIP3    H2 8740   2.724   3.836   1.480
 2912TIP3   OH2 8741   2.516   0.052   3.694
 2912TIP3    H1 8742   2.434   0.048   3.643
 2912TIP3    H2 8743   2.490   0.024   3.781
 2913TIP3   OH2 8744   3.371   1.868   5.193
 2913TIP3    H1 8745   3.404   1.905   5.275
 2913TIP3    H2 8746   3.402   1.927   5.125
 2914TIP3   OH2 8747   2.703   4.565   2.921
 2914TIP3    H1 8748   2.643   4.516   2.977
 2914TIP3    H2 8749   2.731   4.502   2.855
 2915TIP3   OH2 8750   5.698   3.416   4.250
 2915TIP3    H1 8751   5.723   3.504   4.223
 2915TIP3    H2 8752   5.722   3.360   4.176
 2916TIP3   OH2 8753   0.546   1.282   3.704
 2916TIP3    H1 8754   0.479   1.213   3.702
 2916TIP3    H2 8755   0.515   1.347   3.641
 2917TIP3   OH2 8756   3.070   5.471   4.527
 2917TIP3    H1 8757   3.065   5.387   4.482
 2917TIP3    H2 8758   2.979   5.490   4.552
 2918TIP3   OH2 8759   3.763   4.259   1.962
 2918TIP3    H1 8760   3.676   4.278   1.998
 2918TIP3    H2 8761   3.810   4.217   2.034
 2919TIP3   OH2 8762   1.954   2.906   0.257
 2919TIP3    H1 8763   1.887   2.971   0.279
 2919TIP3    H2 8764   1.908   2.839   0.206
 2920TIP3   OH2 8765   4.404   3.570   3.113
 2920TIP3    H1 8766   4.400   3.501   3.046
 2920TIP3    H2 8767   4.455   3.640   3.072
 2921TIP3   OH2 8768   2.027   4.967   4.337
 2921TIP3    H1 8769   2.073   5.011   4.408
 2921TIP3    H2 8770   2.071   4.996   4.257
 2922TIP3   OH2 8771   5.960   2.773   1.864
 2922TIP3    H1 8772   6.051   2.750   1.848
 2922TIP3    H2 8773   5.953   2.864   1.835
 2923TIP3   OH2 8774   0.515   3.841   0.312
 2923TIP3    H1 8775   0.494   3.821   0.221
 2923TIP3    H2 8776   0.438   3.888   0.344
 2924TIP3   OH2 8777   6.020   4.847   1.980
 2924TIP3    H1 8778   5.951   4.827   2.044
 2924TIP3    H2 8779   6.039   4.939   1.994
 2925TIP3   OH2 8780   0.519   1.611   2.641
 2925TIP3    H1 8781   0.603   1.654   2.625
 2925TIP3    H2 8782   0.529   1.523   2.605
 2926TIP3   OH2 8783   3.760   5.348   0.463
 2926TIP3    H1 8784   3.761   5.336   0.368
 2926TIP3    H2 8785   3.822   5.283   0.495
 2927TIP3   OH2 8786   2.951   3.724   2.765
 2927TIP3    H1 8787   2.906   3.768   2.693
 2927TIP3    H2 8788   2.930   3.632   2.754
 2928TIP3   OH2 8789   5.396   3.796   5.174
 2928TIP3    H1 8790   5.387   3.891   5.178
 2928TIP3    H2 8791   5.348   3.770   5.096
 2929TIP3   OH2 8792   4.912   4.440   3.413
 2929TIP3    H1 8793   4.871   4.371   3.360
 2929TIP3    H2 8794   4.880   4.424   3.502
 2930TIP3   OH2 8795   4.510   0.766   2.554
 2930TIP3    H1 8796   4.429   0.816   2.568
 2930TIP3    H2 8797   4.502   0.691   2.613
 2931TIP3   OH2 8798   3.614   5.813   4.742
 2931TIP3    H1 8799   3.642   5.832   4.832
 2931TIP3    H2 8800   3.662   5.734   4.718
 2932TIP3   OH2 8801   2.911   4.227   0.963
 2932TIP3    H1 8802   2.970   4.204   1.035
 2932TIP3    H2 8803   2.838   4.272   1.006
 2933TIP3   OH2 8804   2.722   1.169   3.921
 2933TIP3    H1 8805   2.804   1.134   3.955
 2933TIP3    H2 8806   2.719   1.259   3.952
 2934TIP3   OH2 8807   2.760   3.852   0.786
 2934TIP3    H1 8808   2.830   3.916   0.795
 2934TIP3    H2 8809   2.796   3.784   0.729
 2935TIP3   OH2 8810   1.805   2.283   1.836
 2935TIP3    H1 8811   1.843   2.200   1.866
 2935TIP3    H2 8812   1.858   2.350   1.878
 2936TIP3   OH2 8813   4.487   1.288   1.473
 2936TIP3    H1 8814   4.580   1.267   1.480
 2936TIP3    H2 8815   4.460   1.248   1.390
 2937TIP3   OH2 8816   3.573   5.098   3.693
 2937TIP3    H1 8817   3.523   5.046   3.755
 2937TIP3    H2 8818   3.545   5.188   3.709
 2938TIP3   OH2 8819   1.532   5.452   4.287
 2938TIP3    H1 8820   1.625   5.466   4.305
 2938TIP3    H2 8821   1.523   5.469   4.193
 2939TIP3   OH2 8822   5.096   0.536   4.789
 2939TIP3    H1 8823   5.005   0.522   4.813
 2939TIP3    H2 8824   5.127   0.601   4.853
 2940TIP3   OH2 8825   2.417   4.971   2.402
 2940TIP3    H1 8826   2.360   4.960   2.478
 2940TIP3    H2 8827   2.500   5.002   2.439
 2941TIP3   OH2 8828   5.118   0.538   4.338
 2941TIP3    H1 8829   5.079   0.600   4.276
 2941TIP3    H2 8830   5.065   0.546   4.417
 2942TIP3   OH2 8831   2.019   2.421   4.020
 2942TIP3    H1 8832   1.979   2.443   4.104
 2942TIP3    H2 8833   1.959   2.456   3.955
 2943TIP3   OH2 8834   0.549   4.490   0.182
 2943TIP3    H1 8835   0.606   4.442   0.242
 2943TIP3    H2 8836   0.546   4.579   0.218
 2944TIP3   OH2 8837   2.880   1.860   4.226
 2944TIP3    H1 8838   2.904   1.788   4.284
 2944TIP3    H2 8839   2.849   1.818   4.146
 2945TIP3   OH2 8840   5.246   3.933   3.349
 2945TIP3    H1 8841   5.193   3.997   3.397
 2945TIP3    H2 8842   5.257   3.971   3.262
 2946TIP3   OH2 8843   5.989  -0.078   4.158
 2946TIP3    H1 8844   5.993  -0.151   4.221
 2946TIP3    H2 8845   5.959  -0.003   4.210
 2947TIP3   OH2 8846   4.564   0.523   2.063
 2947TIP3    H1 8847   4.517   0.571   1.995
 2947TIP3    H2 8848   4.554   0.577   2.141
 2948TIP3   OH2 8849   0.366   4.434  -0.021
 2948TIP3    H1 8850   0.313   4.514  -0.024
 2948TIP3    H2 8851   0.436   4.454   0.040
 2949TIP3   OH2 8852   1.488   3.336   4.483
 2949TIP3    H1 8853   1.465   3.279   4.556
 2949TIP3    H2 8854   1.492   3.424   4.521
 2950TIP3   OH2 8855   5.563   2.071   2.933
 2950TIP3    H1 8856   5.534   2.043   3.019
 2950TIP3    H2 8857   5.511   2.149   2.914
 2951TIP3   OH2 8858   1.815   1.503   4.915
 2951TIP3    H1 8859   1.731   1.544   4.936
 2951TIP3    H2 8860   1.869   1.520   4.991
 2952TIP3   OH2 8861   4.882   1.485   3.076
 2952TIP3    H1 8862   4.923   1.519   3.156
 2952TIP3    H2 8863   4.877   1.391   3.091
 2953TIP3   OH2 8864   4.217   1.379   4.972
 2953TIP3    H1 8865   4.291   1.401   4.915
 2953TIP3    H2 8866   4.221   1.443   5.043
 2954TIP3   OH2 8867   0.201   2.893   1.946
 2954TIP3    H1 8868   0.265   2.873   1.878
 2954TIP3    H2 8869   0.165   2.978   1.921
 2955TIP3   OH2 8870   3.492   1.616   2.564
 2955TIP3    H1 8871   3.528   1.676   2.499
 2955TIP3    H2 8872   3.554   1.621   2.637
 2956TIP3   OH2 8873   5.548   4.820   1.204
 2956TIP3    H1 8874   5.608   4.894   1.197
 2956TIP3    H2 8875   5.569   4.779   1.288
 2957TIP3   OH2 8876   4.400   4.059   3.844
 2957TIP3    H1 8877   4.320   4.030   3.888
 2957TIP3    H2 8878   4.401   4.154   3.857
 2958TIP3   OH2 8879   0.199   1.927   1.174
 2958TIP3    H1 8880   0.275   1.984   1.161
 2958TIP3    H2 8881   0.184   1.887   1.089
 2959TIP3   OH2 8882   0.730   2.871   4.806
 2959TIP3    H1 8883   0.659   2.916   4.759
 2959TIP3    H2 8884   0.806   2.879   4.748
 2960TIP3   OH2 8885   5.051   5.360   2.592
 2960TIP3    H1 8886   5.061   5.442   2.640
 2960TIP3    H2 8887   5.090   5.294   2.649
 2961TIP3   OH2 8888   6.015   3.189   3.085
 2961TIP3    H1 8889   6.002   3.117   3.147
 2961TIP3    H2 8890   6.094   3.234   3.116
 2962TIP3   OH2 8891   0.012   0.471   1.048
 2962TIP3    H1 8892  -0.082   0.487   1.050
 2962TIP3    H2 8893   0.024   0.393   1.103
 2963TIP3   OH2 8894   5.773   2.957   0.407
 2963TIP3    H1 8895   5.744   3.045   0.386
 2963TIP3    H2 8896   5.861   2.969   0.445
 2964TIP3   OH2 8897   3.460   3.463   2.958
 2964TIP3    H1 8898   3.381   3.454   3.011
 2964TIP3    H2 8899   3.457   3.389   2.897
 2965TIP3   OH2 8900   1.173   4.727   3.296
 2965TIP3    H1 8901   1.137   4.706   3.210
 2965TIP3    H2 8902   1.104   4.703   3.358
 2966TIP3   OH2 8903   1.227   5.434   2.382
 2966TIP3    H1 8904   1.270   5.349   2.379
 2966TIP3    H2 8905   1.298   5.497   2.391
 2967TIP3   OH2 8906   1.722   3.741   1.201
 2967TIP3    H1 8907   1.735   3.662   1.149
 2967TIP3    H2 8908   1.793   3.739   1.266
 2968TIP3   OH2 8909   4.280   4.570   2.740
 2968TIP3    H1 8910   4.243   4.488   2.772
 2968TIP3    H2 8911   4.257   4.572   2.647
 2969TIP3   OH2 8912   4.053   0.813   3.430
 2969TIP3    H1 8913   4.003   0.893   3.447
 2969TIP3    H2 8914   4.074   0.818   3.337
 2970TIP3   OH2 8915   4.288   1.036   4.404
 2970TIP3    H1 8916   4.383   1.020   4.400
 2970TIP3    H2 8917   4.278   1.104   4.470
 2971TIP3   OH2 8918   3.712   5.008   0.116
 2971TIP3    H1 8919   3.767   4.968   0.184
 2971TIP3    H2 8920   3.640   5.048   0.164
 2972TIP3   OH2 8921   0.637   5.674   3.239
 2972TIP3    H1 8922   0.676   5.587   3.227
 2972TIP3    H2 8923   0.543   5.658   3.245
 2973TIP3   OH2 8924   5.623   2.364   2.068
 2973TIP3    H1 8925   5.632   2.411   2.150
 2973TIP3    H2 8926   5.593   2.276   2.094
 2974TIP3   OH2 8927   0.263   5.997   3.942
 2974TIP3    H1 8928   0.196   6.049   3.897
 2974TIP3    H2 8929   0.284   6.048   4.020
 2975TIP3   OH2 8930   2.967   5.772   2.854
 2975TIP3    H1 8931   2.960   5.831   2.779
 2975TIP3    H2 8932   3.060   5.746   2.855
 2976TIP3   OH2 8933   2.486   0.601   1.421
 2976TIP3    H1 8934   2.566   0.654   1.415
 2976TIP3    H2 8935   2.473   0.567   1.333
 2977TIP3   OH2 8936   2.038   3.315   0.510
 2977TIP3    H1 8937   1.965   3.316   0.572
 2977TIP3    H2 8938   2.013   3.378   0.442
 2978TIP3   OH2 8939   2.935   5.773   0.512
 2978TIP3    H1 8940   3.029   5.787   0.498
 2978TIP3    H2 8941   2.893   5.851   0.476
 2979TIP3   OH2 8942   3.272   2.611   3.114
 2979TIP3    H1 8943   3.265   2.641   3.023
 2979TIP3    H2 8944   3.248   2.687   3.167
 2980TIP3   OH2 8945   5.606   5.790   5.035
 2980TIP3    H1 8946   5.618   5.857   5.103
 2980TIP3    H2 8947   5.689   5.792   4.986
 2981TIP3   OH2 8948   4.981   3.697   4.768
 2981TIP3    H1 8949   4.886   3.693   4.758
 2981TIP3    H2 8950   5.010   3.607   4.756
 2982TIP3   OH2 8951   1.595   1.042   0.999
 2982TIP3    H1 8952   1.556   1.054   1.085
 2982TIP3    H2 8953   1.685   1.073   1.008
 2983TIP3   OH2 8954   5.402   0.773   0.753
 2983TIP3    H1 8955   5.492   0.747   0.732
 2983TIP3    H2 8956   5.363   0.694   0.791
 2984TIP3   OH2 8957   3.151   3.722   0.691
 2984TIP3    H1 8958   3.192   3.807   0.708
 2984TIP3    H2 8959   3.205   3.682   0.623
 2985TIP3   OH2 8960   5.295   0.155   2.939
 2985TIP3    H1 8961   5.320   0.236   2.895
 2985TIP3    H2 8962   5.355   0.089   2.903
 2986TIP3   OH2 8963   2.299   2.430   0.983
 2986TIP3    H1 8964   2.236   2.367   0.949
 2986TIP3    H2 8965   2.298   2.416   1.078
 2987TIP3   OH2 8966   1.902   1.766   2.473
 2987TIP3    H1 8967   1.913   1.710   2.397
 2987TIP3    H2 8968   1.807   1.778   2.481
 2988TIP3   OH2 8969   0.946   4.709   1.699
 2988TIP3    H1 8970   0.874   4.767   1.675
 2988TIP3    H2 8971   0.916   4.664   1.778
 2989TIP3   OH2 8972   2.329   1.081   2.578
 2989TIP3    H1 8973   2.278   1.077   2.497
 2989TIP3    H2 8974   2.265   1.071   2.648
 2990TIP3   OH2 8975   4.095   3.616   0.265
 2990TIP3    H1 8976   4.141   3.691   0.228
 2990TIP3    H2 8977   4.122   3.542   0.210
 2991TIP3   OH2 8978   4.646   0.421   1.122
 2991TIP3    H1 8979   4.587   0.347   1.107
 2991TIP3    H2 8980   4.733   0.387   1.102
 2992TIP3   OH2 8981   1.522   2.109   2.782
 2992TIP3    H1 8982   1.514   2.068   2.868
 2992TIP3    H2 8983   1.518   2.036   2.720
 2993TIP3   OH2 8984   2.036   0.277   4.028
 2993TIP3    H1 8985   2.099   0.341   4.062
 2993TIP3    H2 8986   1.988   0.246   4.105
 2994TIP3   OH2 8987   4.110   4.698   0.311
 2994TIP3    H1 8988   4.025   4.687   0.267
 2994TIP3    H2 8989   4.089   4.746   0.391
 2995TIP3   OH2 8990   5.858   5.478   2.875
 2995TIP3    H1 8991   5.872   5.485   2.970
 2995TIP3    H2 8992   5.822   5.564   2.850
 2996TIP3   OH2 8993   2.906   2.209   4.069
 2996TIP3    H1 8994   2.899   2.271   4.142
 2996TIP3    H2 8995   2.962   2.139   4.102
 2997TIP3   OH2 8996   2.395   1.684   1.600
 2997TIP3    H1 8997   2.484   1.650   1.608
 2997TIP3    H2 8998   2.396   1.765   1.651
 2998TIP3   OH2 8999   0.872   4.917   0.374
 2998TIP3    H1 9000   0.818   4.989   0.407
 2998TIP3    H2 9001   0.847   4.909   0.282
 2999TIP3   OH2 9002   0.163   0.351   0.163
 2999TIP3    H1 9003   0.129   0.329   0.250
 2999TIP3    H2 9004   0.242   0.403   0.181
 3000TIP3   OH2 9005   4.298   2.969   3.037
 3000TIP3    H1 9006   4.366   2.902   3.041
 3000TIP3    H2 9007   4.216   2.921   3.040
 3001TIP3   OH2 9008   4.135   0.255   4.848
 3001TIP3    H1 9009   4.229   0.271   4.834
 3001TIP3    H2 9010   4.102   0.229   4.761
 3002TIP3   OH2 9011   1.575   2.499   3.263
 3002TIP3    H1 9012   1.512   2.432   3.235
 3002TIP3    H2 9013   1.524   2.580   3.263
 3003TIP3   OH2 9014   0.480   2.976   4.241
 3003TIP3    H1 9015   0.408   2.914   4.254
 3003TIP3    H2 9016   0.506   2.964   4.150
 3004TIP3   OH2 9017   4.418   2.310   0.208
 3004TIP3    H1 9018   4.343   2.351   0.250
 3004TIP3    H2 9019   4.381   2.234   0.162
 3005TIP3   OH2 9020   1.736   3.843   0.758
 3005TIP3    H1 9021   1.665   3.784   0.782
 3005TIP3    H2 9022   1.782   3.797   0.687
 3006TIP3   OH2 9023   5.826   4.330   3.917
 3006TIP3    H1 9024   5.832   4.274   3.840
 3006TIP3    H2 9025   5.805   4.417   3.883
 3007TIP3   OH2 9026   2.402   2.010   1.145
 3007TIP3    H1 9027   2.409   1.958   1.064
 3007TIP3    H2 9028   2.481   1.987   1.194
 3008TIP3   OH2 9029   2.965   4.244   4.279
 3008TIP3    H1 9030   3.057   4.241   4.255
 3008TIP3    H2 9031   2.927   4.166   4.239
 3009TIP3   OH2 9032   1.007   0.086   1.746
 3009TIP3    H1 9033   1.034   0.077   1.654
 3009TIP3    H2 9034   1.044   0.170   1.773
 3010TIP3   OH2 9035   5.282   4.125   3.776
 3010TIP3    H1 9036   5.345   4.197   3.782
 3010TIP3    H2 9037   5.198   4.164   3.798
 3011TIP3   OH2 9038   1.796   4.829   4.555
 3011TIP3    H1 9039   1.867   4.806   4.495
 3011TIP3    H2 9040   1.805   4.923   4.569
 3012TIP3   OH2 9041   6.126   5.586   0.020
 3012TIP3    H1 9042   6.092   5.669   0.055
 3012TIP3    H2 9043   6.102   5.588  -0.073
 3013TIP3   OH2 9044   0.804   5.557   2.596
 3013TIP3    H1 9045   0.735   5.586   2.536
 3013TIP3    H2 9046   0.860   5.501   2.543
 3014TIP3   OH2 9047   0.779   4.283   3.417
 3014TIP3    H1 9048   0.763   4.359   3.474
 3014TIP3    H2 9049   0.806   4.320   3.334
 3015TIP3   OH2 9050   2.592   0.876   1.674
 3015TIP3    H1 9051   2.602   0.807   1.609
 3015TIP3    H2 9052   2.655   0.855   1.743
 3016TIP3   OH2 9053   2.511   0.040   2.526
 3016TIP3    H1 9054   2.427   0.007   2.557
 3016TIP3    H2 9055   2.561   0.057   2.606
 3017TIP3   OH2 9056   2.826   0.553   3.834
 3017TIP3    H1 9057   2.890   0.560   3.905
 3017TIP3    H2 9058   2.810   0.459   3.825
 3018TIP3   OH2 9059   1.920   5.408   0.050
 3018TIP3    H1 9060   1.989   5.387  -0.012
 3018TIP3    H2 9061   1.853   5.341   0.035
 3019TIP3   OH2 9062   1.906   0.298   0.336
 3019TIP3    H1 9063   1.878   0.389   0.329
 3019TIP3    H2 9064   1.979   0.300   0.398
 3020TIP3   OH2 9065   4.533   5.758   4.862
 3020TIP3    H1 9066   4.519   5.814   4.938
 3020TIP3    H2 9067   4.447   5.720   4.843
 3021TIP3   OH2 9068   1.464   1.410   0.952
 3021TIP3    H1 9069   1.489   1.322   0.925
 3021TIP3    H2 9070   1.398   1.396   1.021
 3022TIP3   OH2 9071   4.313   4.119   0.987
 3022TIP3    H1 9072   4.341   4.094   0.899
 3022TIP3    H2 9073   4.226   4.081   0.996
 3023TIP3   OH2 9074   3.308   5.046   5.020
 3023TIP3    H1 9075   3.237   5.091   4.973
 3023TIP3    H2 9076   3.307   5.083   5.107
 3024TIP3   OH2 9077   2.954   1.533   4.087
 3024TIP3    H1 9078   2.977   1.553   4.178
 3024TIP3    H2 9079   3.022   1.577   4.035
 3025TIP3   OH2 9080   0.547   0.525   0.804
 3025TIP3    H1 9081   0.475   0.584   0.823
 3025TIP3    H2 9082   0.617   0.552   0.862
 3026TIP3   OH2 9083   2.912   2.708   4.914
 3026TIP3    H1 9084   2.918   2.747   5.001
 3026TIP3    H2 9085   2.820   2.717   4.889
 3027TIP3   OH2 9086   3.285   1.525   1.124
 3027TIP3    H1 9087   3.202   1.571   1.137
 3027TIP3    H2 9088   3.347   1.572   1.181
 3028TIP3   OH2 9089   4.698   2.045   3.451
 3028TIP3    H1 9090   4.673   2.104   3.522
 3028TIP3    H2 9091   4.678   2.093   3.371
 3029TIP3   OH2 9092   0.089   1.549   3.157
 3029TIP3    H1 9093   0.022   1.536   3.223
 3029TIP3    H2 9094   0.134   1.630   3.182
 3030TIP3   OH2 9095   0.871   2.371   2.694
 3030TIP3    H1 9096   0.948   2.428   2.694
 3030TIP3    H2 9097   0.904   2.285   2.669
 3031TIP3   OH2 9098   3.309   3.712   4.433
 3031TIP3    H1 9099   3.378   3.692   4.370
 3031TIP3    H2 9100   3.355   3.718   4.518
 3032TIP3   OH2 9101   3.724   1.431   4.825
 3032TIP3    H1 9102   3.716   1.452   4.918
 3032TIP3    H2 9103   3.711   1.336   4.820
 3033TIP3   OH2 9104   0.966   5.285   0.584
 3033TIP3    H1 9105   0.940   5.275   0.492
 3033TIP3    H2 9106   1.057   5.254   0.587
 3034TIP3   OH2 9107   4.472   5.583   2.785
 3034TIP3    H1 9108   4.436   5.604   2.871
 3034TIP3    H2 9109   4.441   5.494   2.767
 3035TIP3   OH2 9110   2.537   5.182   3.114
 3035TIP3    H1 9111   2.577   5.234   3.044
 3035TIP3    H2 9112   2.535   5.242   3.189
 3036TIP3   OH2 9113   1.460   0.708   0.519
 3036TIP3    H1 9114   1.423   0.620   0.510
 3036TIP3    H2 9115   1.554   0.693   0.532
 3037TIP3   OH2 9116   0.968   2.154   0.856
 3037TIP3    H1 9117   1.049   2.170   0.905
 3037TIP3    H2 9118   0.996   2.148   0.765
 3038TIP3   OH2 9119   4.537   3.590   1.394
 3038TIP3    H1 9120   4.551   3.542   1.476
 3038TIP3    H2 9121   4.480   3.663   1.419
 3039TIP3   OH2 9122   5.806   0.274   4.877
 3039TIP3    H1 9123   5.762   0.301   4.958
 3039TIP3    H2 9124   5.876   0.339   4.866
 3040TIP3   OH2 9125   0.107   0.830   2.545
 3040TIP3    H1 9126   0.154   0.852   2.464
 3040TIP3    H2 9127   0.170   0.779   2.596
 3041TIP3   OH2 9128   0.953   2.157   5.025
 3041TIP3    H1 9129   0.933   2.246   4.996
 3041TIP3    H2 9130   0.990   2.168   5.113
 3042TIP3   OH2 9131   1.307   5.120   1.684
 3042TIP3    H1 9132   1.375   5.155   1.742
 3042TIP3    H2 9133   1.335   5.145   1.596
 3043TIP3   OH2 9134   0.141   5.164   3.687
 3043TIP3    H1 9135   0.201   5.235   3.664
 3043TIP3    H2 9136   0.196   5.099   3.731
 3044TIP3   OH2 9137   3.003   2.770   2.274
 3044TIP3    H1 9138   2.994   2.864   2.257
 3044TIP3    H2 9139   3.016   2.764   2.368
 3045TIP3   OH2 9140   1.722   2.557   4.760
 3045TIP3    H1 9141   1.683   2.551   4.847
 3045TIP3    H2 9142   1.724   2.468   4.728
 3046TIP3   OH2 9143   3.539   1.516   1.356
 3046TIP3    H1 9144   3.603   1.447   1.337
 3046TIP3    H2 9145   3.476   1.475   1.415
 3047TIP3   OH2 9146   3.168   2.986   2.990
 3047TIP3    H1 9147   3.204   3.056   2.936
 3047TIP3    H2 9148   3.145   2.917   2.928
 3048TIP3   OH2 9149   2.091   0.133   2.827
 3048TIP3    H1 9150   2.114   0.160   2.738
 3048TIP3    H2 9151   2.029   0.199   2.857
 3049TIP3   OH2 9152   5.796   5.738   0.502
 3049TIP3    H1 9153   5.795   5.680   0.426
 3049TIP3    H2 9154   5.819   5.681   0.576
 3050TIP3   OH2 9155   0.321   0.753   2.707
 3050TIP3    H1 9156   0.371   0.818   2.657
 3050TIP3    H2 9157   0.361   0.755   2.794
 3051TIP3   OH2 9158   4.600   1.127   4.441
 3051TIP3    H1 9159   4.630   1.087   4.360
 3051TIP3    H2 9160   4.572   1.052   4.495
 3052TIP3   OH2 9161   2.571   0.192   1.221
 3052TIP3    H1 9162   2.580   0.111   1.169
 3052TIP3    H2 9163   2.496   0.175   1.278
 3053TIP3   OH2 9164   2.981   1.610   2.026
 3053TIP3    H1 9165   2.944   1.585   2.110
 3053TIP3    H2 9166   2.962   1.704   2.018
 3054TIP3   OH2 9167   3.874   1.771   4.135
 3054TIP3    H1 9168   3.822   1.838   4.092
 3054TIP3    H2 9169   3.963   1.808   4.138
 3055TIP3   OH2 9170   4.820   0.913   0.463
 3055TIP3    H1 9171   4.731   0.909   0.428
 3055TIP3    H2 9172   4.869   0.849   0.411
 3056TIP3   OH2 9173   1.201   2.890   1.684
 3056TIP3    H1 9174   1.275   2.874   1.625
 3056TIP3    H2 9175   1.171   2.802   1.708
 3057TIP3   OH2 9176   1.067   3.380   5.079
 3057TIP3    H1 9177   1.127   3.411   5.012
 3057TIP3    H2 9178   1.117   3.314   5.128
 3058TIP3   OH2 9179   3.297   0.603   4.411
 3058TIP3    H1 9180   3.391   0.594   4.397
 3058TIP3    H2 9181   3.288   0.613   4.506
 3059TIP3   OH2 9182   4.896   5.998   2.375
 3059TIP3    H1 9183   4.808   5.983   2.410
 3059TIP3    H2 9184   4.910   5.927   2.313
 3060TIP3   OH2 9185   2.208   2.150   1.967
 3060TIP3    H1 9186   2.286   2.117   1.921
 3060TIP3    H2 9187   2.241   2.179   2.052
 3061TIP3   OH2 9188   5.716   1.545   2.329
 3061TIP3    H1 9189   5.703   1.592   2.246
 3061TIP3    H2 9190   5.642   1.483   2.333
 3062TIP3   OH2 9191   5.918   1.156   1.591
 3062TIP3    H1 9192   5.964   1.240   1.593
 3062TIP3    H2 9193   5.903   1.139   1.498
 3063TIP3   OH2 9194   0.852   0.894   2.714
 3063TIP3    H1 9195   0.757   0.897   2.727
 3063TIP3    H2 9196   0.870   0.805   2.684
 3064TIP3   OH2 9197   2.118   5.902   4.724
 3064TIP3    H1 9198   2.150   5.816   4.696
 3064TIP3    H2 9199   2.179   5.964   4.684
 3065TIP3   OH2 9200   0.246   1.684   3.376
 3065TIP3    H1 9201   0.332   1.709   3.344
 3065TIP3    H2 9202   0.264   1.622   3.447
 3066TIP3   OH2 9203   0.214   3.479   4.092
 3066TIP3    H1 9204   0.167   3.483   4.176
 3066TIP3    H2 9205   0.303   3.455   4.116
 3067TIP3   OH2 9206   5.163   2.411   2.121
 3067TIP3    H1 9207   5.137   2.350   2.190
 3067TIP3    H2 9208   5.221   2.474   2.164
 3068TIP3   OH2 9209   4.717   4.133   0.282
 3068TIP3    H1 9210   4.691   4.223   0.302
 3068TIP3    H2 9211   4.729   4.132   0.187
 3069TIP3   OH2 9212   5.138   5.163   1.464
 3069TIP3    H1 9213   5.104   5.107   1.534
 3069TIP3    H2 9214   5.216   5.116   1.433
 3070TIP3   OH2 9215   4.081   3.009   0.707
 3070TIP3    H1 9216   4.019   3.000   0.634
 3070TIP3    H2 9217   4.106   2.919   0.729
 3071TIP3   OH2 9218   4.159   5.523   3.774
 3071TIP3    H1 9219   4.194   5.437   3.797
 3071TIP3    H2 9220   4.078   5.530   3.825
 3072TIP3   OH2 9221   0.541   3.061   3.927
 3072TIP3    H1 9222   0.555   3.049   3.833
 3072TIP3    H2 9223   0.491   3.143   3.933
 3073TIP3   OH2 9224   5.306   1.137   1.338
 3073TIP3    H1 9225   5.255   1.186   1.273
 3073TIP3    H2 9226   5.243   1.076   1.377
 3074TIP3   OH2 9227   2.469   0.662   1.114
 3074TIP3    H1 9228   2.380   0.628   1.106
 3074TIP3    H2 9229   2.514   0.629   1.036
 3075TIP3   OH2 9230   2.511   2.966   0.567
 3075TIP3    H1 9231   2.429   2.945   0.612
 3075TIP3    H2 9232   2.486   3.031   0.501
 3076TIP3   OH2 9233   4.538   2.538   0.524
 3076TIP3    H1 9234   4.615   2.590   0.499
 3076TIP3    H2 9235   4.561   2.448   0.498
 3077TIP3   OH2 9236   3.278   3.469   2.666
 3077TIP3    H1 9237   3.366   3.507   2.666
 3077TIP3    H2 9238   3.281   3.402   2.735
 3078TIP3   OH2 9239   3.142   0.359   1.257
 3078TIP3    H1 9240   3.055   0.396   1.270
 3078TIP3    H2 9241   3.135   0.307   1.176
 3079TIP3   OH2 9242   3.212   1.708   0.304
 3079TIP3    H1 9243   3.216   1.694   0.209
 3079TIP3    H2 9244   3.244   1.626   0.341
 3080TIP3   OH2 9245   4.152   4.470   3.878
 3080TIP3    H1 9246   4.114   4.545   3.923
 3080TIP3    H2 9247   4.185   4.506   3.795
 3081TIP3   OH2 9248   3.401   1.559   4.640
 3081TIP3    H1 9249   3.493   1.555   4.616
 3081TIP3    H2 9250   3.402   1.552   4.736
 3082TIP3   OH2 9251   0.141   2.839   3.853
 3082TIP3    H1 9252   0.120   2.888   3.774
 3082TIP3    H2 9253   0.178   2.904   3.913
 3083TIP3   OH2 9254   6.383   4.451   4.512
 3083TIP3    H1 9255   6.353   4.368   4.548
 3083TIP3    H2 9256   6.325   4.516   4.551
 3084TIP3   OH2 9257   3.953   5.990   2.725
 3084TIP3    H1 9258   4.027   5.957   2.674
 3084TIP3    H2 9259   3.922   5.914   2.774
 3085TIP3   OH2 9260   3.913   2.061   4.935
 3085TIP3    H1 9261   3.865   1.983   4.964
 3085TIP3    H2 9262   3.917   2.052   4.840
 3086TIP3   OH2 9263   3.274   0.002   2.780
 3086TIP3    H1 9264   3.194   0.038   2.741
 3086TIP3    H2 9265   3.297  -0.072   2.723
 3087TIP3   OH2 9266   1.459   5.394   3.218
 3087TIP3    H1 9267   1.438   5.347   3.299
 3087TIP3    H2 9268   1.456   5.487   3.243
 3088TIP3   OH2 9269   2.340   0.683   2.799
 3088TIP3    H1 9270   2.402   0.701   2.729
 3088TIP3    H2 9271   2.392   0.682   2.879
 3089TIP3   OH2 9272   2.238   1.728   2.469
 3089TIP3    H1 9273   2.248   1.758   2.378
 3089TIP3    H2 9274   2.212   1.637   2.461
 3090TIP3   OH2 9275   2.131   4.982   0.119
 3090TIP3    H1 9276   2.064   4.916   0.136
 3090TIP3    H2 9277   2.208   4.950   0.167
 3091TIP3   OH2 9278   5.206   1.029   3.669
 3091TIP3    H1 9279   5.172   1.075   3.593
 3091TIP3    H2 9280   5.153   1.061   3.742
 3092TIP3   OH2 9281   5.459   5.430   3.491
 3092TIP3    H1 9282   5.485   5.421   3.582
 3092TIP3    H2 9283   5.423   5.345   3.467
 3093TIP3   OH2 9284   3.520   5.378   1.820
 3093TIP3    H1 9285   3.600   5.367   1.768
 3093TIP3    H2 9286   3.455   5.409   1.757
 3094TIP3   OH2 9287   1.576   2.889   0.349
 3094TIP3    H1 9288   1.654   2.839   0.328
 3094TIP3    H2 9289   1.515   2.826   0.387
 3095TIP3   OH2 9290   1.517   3.649   0.698
 3095TIP3    H1 9291   1.444   3.603   0.740
 3095TIP3    H2 9292   1.503   3.637   0.604
 3096TIP3   OH2 9293   1.009   4.004   2.283
 3096TIP3    H1 9294   1.073   4.012   2.213
 3096TIP3    H2 9295   0.965   4.088   2.286
 3097TIP3   OH2 9296   0.172   1.673   5.060
 3097TIP3    H1 9297   0.130   1.633   5.136
 3097TIP3    H2 9298   0.218   1.601   5.017
 3098TIP3   OH2 9299   6.282   0.133   2.874
 3098TIP3    H1 9300   6.199   0.136   2.828
 3098TIP3    H2 9301   6.347   0.160   2.808
 3099TIP3   OH2 9302   2.428   3.721   3.875
 3099TIP3    H1 9303   2.440   3.632   3.907
 3099TIP3    H2 9304   2.425   3.711   3.779
 3100TIP3   OH2 9305   2.825   1.674   0.185
 3100TIP3    H1 9306   2.733   1.687   0.208
 3100TIP3    H2 9307   2.827   1.682   0.090
 3101TIP3   OH2 9308   5.514   0.110   1.825
 3101TIP3    H1 9309   5.440   0.133   1.881
 3101TIP3    H2 9310   5.557   0.038   1.872
 3102TIP3   OH2 9311   2.940   4.597   5.199
 3102TIP3    H1 9312   2.984   4.516   5.172
 3102TIP3    H2 9313   2.919   4.640   5.116
 3103TIP3   OH2 9314   0.741   3.618   1.231
 3103TIP3    H1 9315   0.783   3.601   1.315
 3103TIP3    H2 9316   0.797   3.682   1.188
 3104TIP3   OH2 9317   4.082   1.164   0.561
 3104TIP3    H1 9318   4.125   1.194   0.481
 3104TIP3    H2 9319   4.117   1.077   0.576
 3105TIP3   OH2 9320   5.309   5.802   4.490
 3105TIP3    H1 9321   5.383   5.748   4.518
 3105TIP3    H2 9322   5.271   5.755   4.416
 3106TIP3   OH2 9323   4.912   3.597   3.722
 3106TIP3    H1 9324   4.994   3.607   3.674
 3106TIP3    H2 9325   4.852   3.659   3.679
 3107TIP3   OH2 9326   2.128   1.284   1.392
 3107TIP3    H1 9327   2.065   1.355   1.377
 3107TIP3    H2 9328   2.136   1.278   1.487
 3108TIP3   OH2 9329   0.307   5.219   2.790
 3108TIP3    H1 9330   0.257   5.244   2.713
 3108TIP3    H2 9331   0.392   5.262   2.778
 3109TIP3   OH2 9332   0.540   5.714   2.872
 3109TIP3    H1 9333   0.579   5.627   2.870
 3109TIP3    H2 9334   0.491   5.720   2.790
 3110TIP3   OH2 9335   0.581   5.179   1.900
 3110TIP3    H1 9336   0.620   5.092   1.901
 3110TIP3    H2 9337   0.596   5.212   1.811
 3111TIP3   OH2 9338   3.672   0.587   3.193
 3111TIP3    H1 9339   3.642   0.584   3.103
 3111TIP3    H2 9340   3.629   0.513   3.236
 3112TIP3   OH2 9341   3.131   5.536   5.042
 3112TIP3    H1 9342   3.051   5.561   5.088
 3112TIP3    H2 9343   3.136   5.597   4.968
 3113TIP3   OH2 9344   6.243   2.622   3.193
 3113TIP3    H1 9345   6.195   2.608   3.111
 3113TIP3    H2 9346   6.306   2.551   3.196
 3114TIP3   OH2 9347   5.500   4.939   5.102
 3114TIP3    H1 9348   5.405   4.931   5.103
 3114TIP3    H2 9349   5.517   5.006   5.035
 3115TIP3   OH2 9350  -0.006   2.563   4.675
 3115TIP3    H1 9351  -0.045   2.483   4.640
 3115TIP3    H2 9352  -0.062   2.633   4.643
 3116TIP3   OH2 9353   0.063   0.253   1.224
 3116TIP3    H1 9354   0.087   0.239   1.315
 3116TIP3    H2 9355   0.108   0.183   1.177
 3117TIP3   OH2 9356   5.412   0.588   1.463
 3117TIP3    H1 9357   5.479   0.629   1.519
 3117TIP3    H2 9358   5.340   0.569   1.523
 3118TIP3   OH2 9359   4.871   4.702   2.236
 3118TIP3    H1 9360   4.919   4.674   2.314
 3118TIP3    H2 9361   4.923   4.774   2.201
 3119TIP3   OH2 9362   3.157   3.976   2.713
 3119TIP3    H1 9363   3.112   3.897   2.741
 3119TIP3    H2 9364   3.250   3.957   2.727
 3120TIP3   OH2 9365   2.758   0.800   4.545
 3120TIP3    H1 9366   2.769   0.895   4.546
 3120TIP3    H2 9367   2.665   0.786   4.560
 3121TIP3   OH2 9368   2.880   4.986   0.797
 3121TIP3    H1 9369   2.961   4.952   0.836
 3121TIP3    H2 9370   2.901   5.075   0.770
 3122TIP3   OH2 9371   1.616   2.177   3.385
 3122TIP3    H1 9372   1.642   2.250   3.329
 3122TIP3    H2 9373   1.639   2.206   3.474
 3123TIP3   OH2 9374   0.892   2.875   1.827
 3123TIP3    H1 9375   0.828   2.827   1.880
 3123TIP3    H2 9376   0.945   2.923   1.891
 3124TIP3   OH2 9377   6.256   2.143   2.889
 3124TIP3    H1 9378   6.204   2.213   2.928
 3124TIP3    H2 9379   6.245   2.154   2.795
 3125TIP3   OH2 9380   5.652   4.240   0.787
 3125TIP3    H1 9381   5.582   4.306   0.787
 3125TIP3    H2 9382   5.680   4.236   0.696
 3126TIP3   OH2 9383   0.321   1.635   0.039
 3126TIP3    H1 9384   0.316   1.540   0.030
 3126TIP3    H2 9385   0.231   1.665   0.030
 3127TIP3   OH2 9386   4.595   2.711   1.159
 3127TIP3    H1 9387   4.547   2.761   1.094
 3127TIP3    H2 9388   4.538   2.637   1.179
 3128TIP3   OH2 9389   1.964   0.071   2.206
 3128TIP3    H1 9390   2.037   0.062   2.145
 3128TIP3    H2 9391   1.964   0.164   2.231
 3129TIP3   OH2 9392   2.987   1.097   1.079
 3129TIP3    H1 9393   2.984   1.163   1.149
 3129TIP3    H2 9394   3.061   1.124   1.024
 3130TIP3   OH2 9395   0.108   5.628   1.799
 3130TIP3    H1 9396   0.048   5.694   1.764
 3130TIP3    H2 9397   0.178   5.623   1.734
 3131TIP3   OH2 9398   2.606   1.502   4.477
 3131TIP3    H1 9399   2.563   1.450   4.409
 3131TIP3    H2 9400   2.534   1.548   4.521
 3132TIP3   OH2 9401   4.875   4.986   3.681
 3132TIP3    H1 9402   4.827   4.906   3.662
 3132TIP3    H2 9403   4.856   5.005   3.772
 3133TIP3   OH2 9404   1.289   1.132   4.204
 3133TIP3    H1 9405   1.359   1.067   4.204
 3133TIP3    H2 9406   1.330   1.211   4.169
 3134TIP3   OH2 9407   2.615   5.523   2.478
 3134TIP3    H1 9408   2.697   5.569   2.464
 3134TIP3    H2 9409   2.605   5.466   2.402
 3135TIP3   OH2 9410   0.733   1.733   1.425
 3135TIP3    H1 9411   0.820   1.762   1.401
 3135TIP3    H2 9412   0.678   1.755   1.350
 3136TIP3   OH2 9413   4.480   5.064   1.838
 3136TIP3    H1 9414   4.477   4.988   1.779
 3136TIP3    H2 9415   4.535   5.035   1.911
 3137TIP3   OH2 9416   1.772   2.862   3.247
 3137TIP3    H1 9417   1.853   2.837   3.293
 3137TIP3    H2 9418   1.753   2.950   3.278
 3138TIP3   OH2 9419   3.208   2.306   4.254
 3138TIP3    H1 9420   3.196   2.231   4.195
 3138TIP3    H2 9421   3.166   2.278   4.336
 3139TIP3   OH2 9422   4.918   5.271   0.859
 3139TIP3    H1 9423   4.907   5.223   0.941
 3139TIP3    H2 9424   4.863   5.223   0.797
 3140TIP3   OH2 9425   4.522   4.431   4.363
 3140TIP3    H1 9426   4.600   4.397   4.318
 3140TIP3    H2 9427   4.554   4.461   4.448
 3141TIP3   OH2 9428   2.280   2.261   3.161
 3141TIP3    H1 9429   2.354   2.322   3.151
 3141TIP3    H2 9430   2.289   2.201   3.087
 3142TIP3   OH2 9431   4.590   4.492   2.781
 3142TIP3    H1 9432   4.625   4.457   2.699
 3142TIP3    H2 9433   4.503   4.526   2.758
 3143TIP3   OH2 9434   6.218   1.686   2.093
 3143TIP3    H1 9435   6.123   1.695   2.093
 3143TIP3    H2 9436   6.234   1.594   2.113
 3144TIP3   OH2 9437   5.764   3.948   3.999
 3144TIP3    H1 9438   5.759   3.949   3.904
 3144TIP3    H2 9439   5.835   4.009   4.020
 3145TIP3   OH2 9440   2.690   0.557   4.127
 3145TIP3    H1 9441   2.692   0.478   4.181
 3145TIP3    H2 9442   2.772   0.554   4.078
 3146TIP3   OH2 9443   3.163   3.834   4.725
 3146TIP3    H1 9444   3.171   3.742   4.701
 3146TIP3    H2 9445   3.224   3.845   4.798
 3147TIP3   OH2 9446   0.479   3.037   4.624
 3147TIP3    H1 9447   0.458   3.117   4.575
 3147TIP3    H2 9448   0.419   2.971   4.590
 3148TIP3   OH2 9449   3.590   2.012   1.405
 3148TIP3    H1 9450   3.681   1.981   1.399
 3148TIP3    H2 9451   3.537   1.937   1.379
 3149TIP3   OH2 9452   0.397   3.259   1.947
 3149TIP3    H1 9453   0.442   3.199   2.007
 3149TIP3    H2 9454   0.313   3.277   1.989
 3150TIP3   OH2 9455   1.923   4.654   1.045
 3150TIP3    H1 9456   1.860   4.724   1.061
 3150TIP3    H2 9457   1.901   4.587   1.109
 3151TIP3   OH2 9458   2.318   1.548   3.788
 3151TIP3    H1 9459   2.316   1.609   3.861
 3151TIP3    H2 9460   2.241   1.492   3.802
 3152TIP3   OH2 9461   0.157   4.256   1.934
 3152TIP3    H1 9462   0.209   4.181   1.905
 3152TIP3    H2 9463   0.080   4.256   1.877
 3153TIP3   OH2 9464   5.660   5.249   2.027
 3153TIP3    H1 9465   5.672   5.326   2.083
 3153TIP3    H2 9466   5.567   5.227   2.035
 3154TIP3   OH2 9467   0.753   2.620   2.845
 3154TIP3    H1 9468   0.777   2.663   2.927
 3154TIP3    H2 9469   0.747   2.691   2.781
 3155TIP3   OH2 9470   5.877   3.169   2.445
 3155TIP3    H1 9471   5.934   3.118   2.388
 3155TIP3    H2 9472   5.926   3.249   2.463
 3156TIP3   OH2 9473   5.660   1.973   1.713
 3156TIP3    H1 9474   5.642   1.915   1.639
 3156TIP3    H2 9475   5.592   2.040   1.708
 3157TIP3   OH2 9476   4.784   4.533   0.956
 3157TIP3    H1 9477   4.759   4.441   0.954
 3157TIP3    H2 9478   4.877   4.533   0.932
 3158TIP3   OH2 9479   1.278   1.118   0.967
 3158TIP3    H1 9480   1.318   1.094   1.051
 3158TIP3    H2 9481   1.212   1.051   0.953
 3159TIP3   OH2 9482   6.171   1.737   3.353
 3159TIP3    H1 9483   6.122   1.802   3.302
 3159TIP3    H2 9484   6.254   1.781   3.371
 3160TIP3   OH2 9485   2.488   1.694   4.668
 3160TIP3    H1 9486   2.394   1.703   4.679
 3160TIP3    H2 9487   2.525   1.737   4.745
 3161TIP3   OH2 9488   5.234   4.292   2.987
 3161TIP3    H1 9489   5.214   4.374   3.031
 3161TIP3    H2 9490   5.253   4.230   3.057
 3162TIP3   OH2 9491   4.163   0.169   4.530
 3162TIP3    H1 9492   4.135   0.103   4.467
 3162TIP3    H2 9493   4.254   0.147   4.549
 3163TIP3   OH2 9494   4.069   1.391   2.594
 3163TIP3    H1 9495   4.074   1.464   2.532
 3163TIP3    H2 9496   4.157   1.351   2.591
 3164TIP3   OH2 9497   2.965   0.611   4.067
 3164TIP3    H1 9498   2.972   0.697   4.107
 3164TIP3    H2 9499   3.005   0.551   4.130
 3165TIP3   OH2 9500   5.394   5.807   1.913
 3165TIP3    H1 9501   5.419   5.714   1.918
 3165TIP3    H2 9502   5.426   5.835   1.827
 3166TIP3   OH2 9503   0.667   3.478   1.538
 3166TIP3    H1 9504   0.675   3.466   1.633
 3166TIP3    H2 9505   0.756   3.500   1.509
 3167TIP3   OH2 9506   3.887   2.269   4.569
 3167TIP3    H1 9507   3.794   2.279   4.549
 3167TIP3    H2 9508   3.930   2.272   4.484
 3168TIP3   OH2 9509   5.480   2.165   0.272
 3168TIP3    H1 9510   5.471   2.089   0.330
 3168TIP3    H2 9511   5.440   2.137   0.190
 3169TIP3   OH2 9512   2.359   0.252   3.051
 3169TIP3    H1 9513   2.296   0.323   3.061
 3169TIP3    H2 9514   2.394   0.263   2.963
 3170TIP3   OH2 9515   3.524   5.933   3.822
 3170TIP3    H1 9516   3.440   5.934   3.775
 3170TIP3    H2 9517   3.531   6.020   3.862
 3171TIP3   OH2 9518   2.234   0.477   4.080
 3171TIP3    H1 9519   2.274   0.540   4.020
 3171TIP3    H2 9520   2.278   0.492   4.164
 3172TIP3   OH2 9521   4.853   0.383   2.083
 3172TIP3    H1 9522   4.897   0.382   1.998
 3172TIP3    H2 9523   4.830   0.475   2.097
 3173TIP3   OH2 9524   0.758   4.421   0.424
 3173TIP3    H1 9525   0.773   4.493   0.484
 3173TIP3    H2 9526   0.824   4.432   0.355
 3174TIP3   OH2 9527   1.152   0.673   2.387
 3174TIP3    H1 9528   1.108   0.642   2.308
 3174TIP3    H2 9529   1.233   0.622   2.392
 3175TIP3   OH2 9530   1.593   1.316   4.280
 3175TIP3    H1 9531   1.594   1.330   4.186
 3175TIP3    H2 9532   1.670   1.262   4.297
 3176TIP3   OH2 9533   4.187   3.389   3.281
 3176TIP3    H1 9534   4.179   3.441   3.361
 3176TIP3    H2 9535   4.277   3.402   3.252
 3177TIP3   OH2 9536   1.897   3.806   0.244
 3177TIP3    H1 9537   1.914   3.712   0.234
 3177TIP3    H2 9538   1.810   3.811   0.284
 3178TIP3   OH2 9539   1.987   0.566   4.497
 3178TIP3    H1 9540   1.925   0.559   4.425
 3178TIP3    H2 9541   2.052   0.631   4.468
 3179TIP3   OH2 9542   5.005   0.818   1.497
 3179TIP3    H1 9543   5.018   0.833   1.591
 3179TIP3    H2 9544   5.088   0.843   1.457
 3180TIP3   OH2 9545   3.086   5.113   0.394
 3180TIP3    H1 9546   3.083   5.150   0.482
 3180TIP3    H2 9547   3.167   5.062   0.391
 3181TIP3   OH2 9548   0.809   0.990   0.508
 3181TIP3    H1 9549   0.834   1.001   0.416
 3181TIP3    H2 9550   0.815   1.078   0.546
 3182TIP3   OH2 9551   6.215   3.419   3.095
 3182TIP3    H1 9552   6.168   3.411   3.012
 3182TIP3    H2 9553   6.190   3.505   3.128
 3183TIP3   OH2 9554   0.084   3.275   1.255
 3183TIP3    H1 9555   0.006   3.331   1.260
 3183TIP3    H2 9556   0.084   3.226   1.337
 3184TIP3   OH2 9557   2.224   2.730   0.920
 3184TIP3    H1 9558   2.314   2.753   0.941
 3184TIP3    H2 9559   2.204   2.656   0.977
 3185TIP3   OH2 9560   0.761   0.803   3.511
 3185TIP3    H1 9561   0.744   0.782   3.603
 3185TIP3    H2 9562   0.676   0.829   3.476
 3186TIP3   OH2 9563   4.297   2.719   5.157
 3186TIP3    H1 9564   4.277   2.789   5.096
 3186TIP3    H2 9565   4.222   2.717   5.216
 3187TIP3   OH2 9566   2.775   1.462   0.354
 3187TIP3    H1 9567   2.849   1.426   0.403
 3187TIP3    H2 9568   2.814   1.524   0.294
 3188TIP3   OH2 9569   0.537   3.021   0.272
 3188TIP3    H1 9570   0.452   2.980   0.291
 3188TIP3    H2 9571   0.563   2.985   0.188
 3189TIP3   OH2 9572   0.914   0.442   0.831
 3189TIP3    H1 9573   0.981   0.419   0.766
 3189TIP3    H2 9574   0.839   0.388   0.808
 3190TIP3   OH2 9575   5.284   0.121   4.043
 3190TIP3    H1 9576   5.319   0.165   3.966
 3190TIP3    H2 9577   5.273   0.190   4.108
 3191TIP3   OH2 9578   2.498   5.613   0.607
 3191TIP3    H1 9579   2.525   5.580   0.692
 3191TIP3    H2 9580   2.442   5.687   0.626
 3192TIP3   OH2 9581   5.776   1.917   3.499
 3192TIP3    H1 9582   5.686   1.950   3.501
 3192TIP3    H2 9583   5.830   1.996   3.498
 3193TIP3   OH2 9584   3.865   3.321   4.853
 3193TIP3    H1 9585   3.818   3.402   4.836
 3193TIP3    H2 9586   3.875   3.280   4.767
 3194TIP3   OH2 9587   0.305   5.741   3.045
 3194TIP3    H1 9588   0.386   5.758   2.997
 3194TIP3    H2 9589   0.239   5.796   3.001
 3195TIP3   OH2 9590   1.935   4.451   2.162
 3195TIP3    H1 9591   1.922   4.534   2.208
 3195TIP3    H2 9592   1.996   4.472   2.091
 3196TIP3   OH2 9593   4.723   3.942   4.541
 3196TIP3    H1 9594   4.662   3.976   4.476
 3196TIP3    H2 9595   4.692   3.978   4.624
 3197TIP3   OH2 9596   0.967   2.591   0.691
 3197TIP3    H1 9597   0.895   2.542   0.730
 3197TIP3    H2 9598   0.935   2.616   0.604
 3198TIP3   OH2 9599   0.808   2.985   0.976
 3198TIP3    H1 9600   0.808   2.893   1.003
 3198TIP3    H2 9601   0.764   2.986   0.891
 3199TIP3   OH2 9602   5.884   4.944   3.964
 3199TIP3    H1 9603   5.873   4.868   4.021
 3199TIP3    H2 9604   5.911   5.014   4.023
 3200TIP3   OH2 9605   4.665   2.363   4.681
 3200TIP3    H1 9606   4.682   2.299   4.751
 3200TIP3    H2 9607   4.709   2.327   4.604
 3201TIP3   OH2 9608   5.182   1.483   2.981
 3201TIP3    H1 9609   5.089   1.459   2.982
 3201TIP3    H2 9610   5.182   1.578   2.976
 3202TIP3   OH2 9611   6.261   5.779   2.502
 3202TIP3    H1 9612   6.234   5.695   2.539
 3202TIP3    H2 9613   6.269   5.762   2.408
 3203TIP3   OH2 9614   2.610   5.852   0.835
 3203TIP3    H1 9615   2.684   5.826   0.781
 3203TIP3    H2 9616   2.623   5.804   0.917
 3204TIP3   OH2 9617   5.711   1.512   4.908
 3204TIP3    H1 9618   5.642   1.459   4.868
 3204TIP3    H2 9619   5.711   1.486   5.000
 3205TIP3   OH2 9620   3.031   3.773   0.377
 3205TIP3    H1 9621   2.994   3.799   0.292
 3205TIP3    H2 9622   3.101   3.838   0.392
 3206TIP3   OH2 9623   5.906   3.810   3.244
 3206TIP3    H1 9624   5.967   3.786   3.175
 3206TIP3    H2 9625   5.962   3.830   3.319
 3207TIP3   OH2 9626   4.664   5.622   2.074
 3207TIP3    H1 9627   4.701   5.567   2.005
 3207TIP3    H2 9628   4.653   5.708   2.033
 3208TIP3   OH2 9629   3.995   5.086   1.392
 3208TIP3    H1 9630   3.988   4.993   1.370
 3208TIP3    H2 9631   3.989   5.088   1.488
 3209TIP3   OH2 9632   4.251   3.528   3.761
 3209TIP3    H1 9633   4.329   3.475   3.744
 3209TIP3    H2 9634   4.206   3.533   3.677
 3210TIP3   OH2 9635   4.755   1.212   1.491
 3210TIP3    H1 9636   4.820   1.281   1.502
 3210TIP3    H2 9637   4.754   1.166   1.575
 3211TIP3   OH2 9638   5.873   5.156   0.022
 3211TIP3    H1 9639   5.931   5.227   0.051
 3211TIP3    H2 9640   5.883   5.154  -0.073
 3212TIP3   OH2 9641   1.108   3.371   0.364
 3212TIP3    H1 9642   1.105   3.379   0.459
 3212TIP3    H2 9643   1.064   3.288   0.345
 3213TIP3   OH2 9644   5.992   3.965   2.980
 3213TIP3    H1 9645   5.965   4.015   3.057
 3213TIP3    H2 9646   6.074   3.923   3.006
 3214TIP3   OH2 9647   0.331   1.611   4.257
 3214TIP3    H1 9648   0.285   1.590   4.339
 3214TIP3    H2 9649   0.422   1.623   4.283
 3215TIP3   OH2 9650   3.792   1.816   5.025
 3215TIP3    H1 9651   3.794   1.753   4.953
 3215TIP3    H2 9652   3.770   1.764   5.102
 3216TIP3   OH2 9653   1.922   4.939   0.830
 3216TIP3    H1 9654   1.866   4.897   0.895
 3216TIP3    H2 9655   1.887   4.911   0.745
 3217TIP3   OH2 9656   6.009   1.006   5.036
 3217TIP3    H1 9657   6.086   0.977   4.987
 3217TIP3    H2 9658   5.971   0.926   5.071
 3218TIP3   OH2 9659   0.346   2.495   4.959
 3218TIP3    H1 9660   0.287   2.555   4.912
 3218TIP3    H2 9661   0.433   2.533   4.949
 3219TIP3   OH2 9662   1.041   2.874   4.124
 3219TIP3    H1 9663   0.981   2.886   4.050
 3219TIP3    H2 9664   1.084   2.790   4.105
 3220TIP3   OH2 9665   4.975   0.416   2.490
 3220TIP3    H1 9666   4.901   0.477   2.489
 3220TIP3    H2 9667   4.995   0.402   2.397
 3221TIP3   OH2 9668   2.964   1.908   0.983
 3221TIP3    H1 9669   2.990   1.944   1.068
 3221TIP3    H2 9670   2.868   1.916   0.981
 3222TIP3   OH2 9671   4.335   5.637   2.166
 3222TIP3    H1 9672   4.354   5.632   2.259
 3222TIP3    H2 9673   4.378   5.560   2.129
 3223TIP3   OH2 9674   4.846   5.475   3.299
 3223TIP3    H1 9675   4.881   5.482   3.210
 3223TIP3    H2 9676   4.883   5.551   3.345
 3224TIP3   OH2 9677   1.672   1.948   0.942
 3224TIP3    H1 9678   1.627   2.021   0.984
 3224TIP3    H2 9679   1.604   1.902   0.893
 3225TIP3   OH2 9680   5.212   3.178   2.916
 3225TIP3    H1 9681   5.210   3.159   2.822
 3225TIP3    H2 9682   5.186   3.096   2.958
 3226TIP3   OH2 9683   1.095   0.353   1.417
 3226TIP3    H1 9684   1.135   0.408   1.484
 3226TIP3    H2 9685   1.142   0.375   1.336
 3227TIP3   OH2 9686   3.116   5.222   0.659
 3227TIP3    H1 9687   3.122   5.139   0.705
 3227TIP3    H2 9688   3.033   5.260   0.688
 3228TIP3   OH2 9689   2.626   3.190   1.775
 3228TIP3    H1 9690   2.702   3.192   1.718
 3228TIP3    H2 9691   2.556   3.155   1.721
 3229TIP3   OH2 9692   3.451   4.152   0.552
 3229TIP3    H1 9693   3.495   4.121   0.473
 3229TIP3    H2 9694   3.519   4.152   0.619
 3230TIP3   OH2 9695   1.572   4.205   1.539
 3230TIP3    H1 9696   1.613   4.124   1.571
 3230TIP3    H2 9697   1.644   4.268   1.534
 3231TIP3   OH2 9698   2.363   2.777   2.777
 3231TIP3    H1 9699   2.354   2.684   2.755
 3231TIP3    H2 9700   2.280   2.816   2.749
 3232TIP3   OH2 9701   2.701   1.220   2.440
 3232TIP3    H1 9702   2.699   1.314   2.419
 3232TIP3    H2 9703   2.777   1.210   2.497
 3233TIP3   OH2 9704   1.747   4.851   1.032
 3233TIP3    H1 9705   1.661   4.870   0.994
 3233TIP3    H2 9706   1.740   4.884   1.122
 3234TIP3   OH2 9707   0.754   4.499   0.904
 3234TIP3    H1 9708   0.715   4.443   0.836
 3234TIP3    H2 9709   0.722   4.462   0.986
 3235TIP3   OH2 9710   1.145   4.929   0.458
 3235TIP3    H1 9711   1.209   4.954   0.391
 3235TIP3    H2 9712   1.060   4.946   0.417
 3236TIP3   OH2 9713   2.002   0.788   3.346
 3236TIP3    H1 9714   1.962   0.868   3.313
 3236TIP3    H2 9715   1.984   0.789   3.440
 3237TIP3   OH2 9716   2.216   0.881  -0.023
 3237TIP3    H1 9717   2.195   0.967   0.013
 3237TIP3    H2 9718   2.148   0.865  -0.089
 3238TIP3   OH2 9719   3.414   3.769   0.119
 3238TIP3    H1 9720   3.365   3.738   0.044
 3238TIP3    H2 9721   3.505   3.744   0.101
 3239TIP3   OH2 9722   4.267   5.205   4.577
 3239TIP3    H1 9723   4.267   5.110   4.569
 3239TIP3    H2 9724   4.312   5.235   4.498
 3240TIP3   OH2 9725   1.924   2.417   3.712
 3240TIP3    H1 9726   1.856   2.461   3.662
 3240TIP3    H2 9727   2.005   2.464   3.689
 3241TIP3   OH2 9728   1.986   1.496   1.333
 3241TIP3    H1 9729   1.904   1.503   1.283
 3241TIP3    H2 9730   2.031   1.579   1.315
 3242TIP3   OH2 9731   3.971   5.259   3.554
 3242TIP3    H1 9732   3.972   5.338   3.607
 3242TIP3    H2 9733   3.935   5.192   3.612
 3243TIP3   OH2 9734   0.094   5.139   2.286
 3243TIP3    H1 9735   0.078   5.107   2.375
 3243TIP3    H2 9736   0.179   5.102   2.262
 3244TIP3   OH2 9737   1.257   4.500   1.376
 3244TIP3    H1 9738   1.311   4.423   1.354
 3244TIP3    H2 9739   1.168   4.474   1.351
 3245TIP3   OH2 9740   3.663   2.729   2.099
 3245TIP3    H1 9741   3.622   2.815   2.091
 3245TIP3    H2 9742   3.724   2.724   2.025
 3246TIP3   OH2 9743   2.794   3.398   3.182
 3246TIP3    H1 9744   2.748   3.385   3.100
 3246TIP3    H2 9745   2.732   3.444   3.239
 3247TIP3   OH2 9746   1.994   2.437   0.510
 3247TIP3    H1 9747   1.989   2.374   0.582
 3247TIP3    H2 9748   2.031   2.516   0.549
 3248TIP3   OH2 9749   6.145   4.840   4.170
 3248TIP3    H1 9750   6.120   4.931   4.187
 3248TIP3    H2 9751   6.110   4.792   4.245
 3249TIP3   OH2 9752   3.959   2.896   2.768
 3249TIP3    H1 9753   3.993   2.953   2.699
 3249TIP3    H2 9754   3.902   2.952   2.820
 3250TIP3   OH2 9755   4.597   2.309   3.336
 3250TIP3    H1 9756   4.614   2.320   3.429
 3250TIP3    H2 9757   4.503   2.293   3.329
 3251TIP3   OH2 9758   0.118   3.606   4.539
 3251TIP3    H1 9759   0.179   3.676   4.516
 3251TIP3    H2 9760   0.174   3.533   4.566
 3252TIP3   OH2 9761   3.650   2.835   4.378
 3252TIP3    H1 9762   3.560   2.864   4.359
 3252TIP3    H2 9763   3.641   2.745   4.408
 3253TIP3   OH2 9764   5.555   2.887   0.176
 3253TIP3    H1 9765   5.626   2.884   0.240
 3253TIP3    H2 9766   5.502   2.810   0.196
 3254TIP3   OH2 9767   3.396   5.136   4.274
 3254TIP3    H1 9768   3.391   5.058   4.329
 3254TIP3    H2 9769   3.435   5.105   4.192
 3255TIP3   OH2 9770   3.670   0.409   1.851
 3255TIP3    H1 9771   3.606   0.348   1.815
 3255TIP3    H2 9772   3.635   0.496   1.831
 3256TIP3   OH2 9773   2.633   1.500   0.605
 3256TIP3    H1 9774   2.600   1.414   0.631
 3256TIP3    H2 9775   2.689   1.483   0.529
 3257TIP3   OH2 9776   2.530   1.318   5.216
 3257TIP3    H1 9777   2.518   1.366   5.134
 3257TIP3    H2 9778   2.607   1.263   5.200
 3258TIP3   OH2 9779   3.185   1.197   1.747
 3258TIP3    H1 9780   3.269   1.239   1.768
 3258TIP3    H2 9781   3.200   1.154   1.663
 3259TIP3   OH2 9782   5.977   5.817   5.135
 3259TIP3    H1 9783   5.914   5.878   5.174
 3259TIP3    H2 9784   6.060   5.838   5.178
 3260TIP3   OH2 9785   2.801   2.268   0.773
 3260TIP3    H1 9786   2.813   2.232   0.861
 3260TIP3    H2 9787   2.807   2.363   0.785
 3261TIP3   OH2 9788   0.447   2.889   1.077
 3261TIP3    H1 9789   0.410   2.846   1.000
 3261TIP3    H2 9790   0.451   2.982   1.052
 3262TIP3   OH2 9791   2.453   1.187   3.899
 3262TIP3    H1 9792   2.536   1.142   3.888
 3262TIP3    H2 9793   2.463   1.268   3.849
 3263TIP3   OH2 9794   3.092   3.122   4.286
 3263TIP3    H1 9795   3.127   3.197   4.334
 3263TIP3    H2 9796   3.119   3.046   4.337
 3264TIP3   OH2 9797   1.422   5.672   1.675
 3264TIP3    H1 9798   1.347   5.720   1.712
 3264TIP3    H2 9799   1.437   5.713   1.590
 3265TIP3   OH2 9800   6.382   5.824   1.488
 3265TIP3    H1 9801   6.323   5.760   1.449
 3265TIP3    H2 9802   6.339   5.851   1.569
 3266TIP3   OH2 9803   2.635   3.921   3.219
 3266TIP3    H1 9804   2.720   3.957   3.241
 3266TIP3    H2 9805   2.617   3.857   3.289
 3267TIP3   OH2 9806   3.091   2.454   2.841
 3267TIP3    H1 9807   3.128   2.541   2.851
 3267TIP3    H2 9808   3.158   2.404   2.795
 3268TIP3   OH2 9809   2.890   4.360   1.290
 3268TIP3    H1 9810   2.852   4.397   1.370
 3268TIP3    H2 9811   2.909   4.269   1.313
 3269TIP3   OH2 9812   6.055   1.932   2.877
 3269TIP3    H1 9813   6.142   1.970   2.880
 3269TIP3    H2 9814   5.996   2.007   2.879
 3270TIP3   OH2 9815   4.557   0.949   5.127
 3270TIP3    H1 9816   4.496   1.021   5.144
 3270TIP3    H2 9817   4.531   0.916   5.041
 3271TIP3   OH2 9818   3.456   0.366   0.143
 3271TIP3    H1 9819   3.429   0.322   0.062
 3271TIP3    H2 9820   3.474   0.456   0.116
 3272TIP3   OH2 9821   5.293   5.329   3.212
 3272TIP3    H1 9822   5.226   5.377   3.261
 3272TIP3    H2 9823   5.339   5.278   3.279
 3273TIP3   OH2 9824   1.782   1.074   4.244
 3273TIP3    H1 9825   1.854   1.112   4.194
 3273TIP3    H2 9826   1.825   1.032   4.319
 3274TIP3   OH2 9827   5.365   5.256   0.535
 3274TIP3    H1 9828   5.454   5.262   0.570
 3274TIP3    H2 9829   5.328   5.342   0.552
 3275TIP3   OH2 9830   4.832   0.487   4.972
 3275TIP3    H1 9831   4.796   0.517   4.889
 3275TIP3    H2 9832   4.836   0.565   5.026
 3276TIP3   OH2 9833   2.950   4.205   2.400
 3276TIP3    H1 9834   2.883   4.197   2.468
 3276TIP3    H2 9835   2.962   4.115   2.369
 3277TIP3   OH2 9836   4.816   1.199   0.455
 3277TIP3    H1 9837   4.822   1.103   0.457
 3277TIP3    H2 9838   4.772   1.222   0.536
 3278TIP3   OH2 9839   3.233   4.224   0.790
 3278TIP3    H1 9840   3.280   4.198   0.869
 3278TIP3    H2 9841   3.297   4.277   0.741
 3279TIP3   OH2 9842   4.902   1.505   1.929
 3279TIP3    H1 9843   4.866   1.527   2.015
 3279TIP3    H2 9844   4.995   1.490   1.945
 3280TIP3   OH2 9845   4.562   4.140   2.456
 3280TIP3    H1 9846   4.471   4.167   2.444
 3280TIP3    H2 9847   4.587   4.100   2.373
 3281TIP3   OH2 9848   4.930   0.724   0.307
 3281TIP3    H1 9849   4.930   0.629   0.320
 3281TIP3    H2 9850   5.021   0.745   0.284
 3282TIP3   OH2 9851   2.761   1.767   4.528
 3282TIP3    H1 9852   2.682   1.713   4.525
 3282TIP3    H2 9853   2.830   1.711   4.491
 3283TIP3   OH2 9854   5.723   1.072   1.047
 3283TIP3    H1 9855   5.682   1.109   1.125
 3283TIP3    H2 9856   5.652   1.068   0.982
 3284TIP3   OH2 9857   0.483   0.969   4.350
 3284TIP3    H1 9858   0.458   0.888   4.394
 3284TIP3    H2 9859   0.401   1.002   4.313
 3285TIP3   OH2 9860   2.687   3.616   1.796
 3285TIP3    H1 9861   2.749   3.684   1.769
 3285TIP3    H2 9862   2.601   3.654   1.777
 3286TIP3   OH2 9863   5.327   4.477   0.565
 3286TIP3    H1 9864   5.389   4.434   0.505
 3286TIP3    H2 9865   5.348   4.570   0.559
 3287TIP3   OH2 9866   2.541   3.454   3.868
 3287TIP3    H1 9867   2.483   3.413   3.803
 3287TIP3    H2 9868   2.551   3.386   3.936
 3288TIP3   OH2 9869   1.580   2.897   4.603
 3288TIP3    H1 9870   1.523   2.820   4.605
 3288TIP3    H2 9871   1.542   2.954   4.536
 3289TIP3   OH2 9872   0.671   5.223   2.313
 3289TIP3    H1 9873   0.638   5.212   2.224
 3289TIP3    H2 9874   0.753   5.271   2.303
 3290TIP3   OH2 9875   3.027   5.490   4.058
 3290TIP3    H1 9876   3.033   5.396   4.075
 3290TIP3    H2 9877   3.050   5.531   4.141
 3291TIP3   OH2 9878   2.246   4.373   1.624
 3291TIP3    H1 9879   2.259   4.283   1.653
 3291TIP3    H2 9880   2.151   4.383   1.621
 3292TIP3   OH2 9881   3.530   0.345   3.261
 3292TIP3    H1 9882   3.446   0.374   3.294
 3292TIP3    H2 9883   3.579   0.317   3.339
 3293TIP3   OH2 9884   3.661   2.927   1.477
 3293TIP3    H1 9885   3.673   2.886   1.562
 3293TIP3    H2 9886   3.613   3.007   1.495
 3294TIP3   OH2 9887   5.468   2.879   3.196
 3294TIP3    H1 9888   5.542   2.938   3.180
 3294TIP3    H2 9889   5.391   2.934   3.181
 3295TIP3   OH2 9890   2.050   5.675   1.232
 3295TIP3    H1 9891   2.008   5.589   1.224
 3295TIP3    H2 9892   1.977   5.736   1.239
 3296TIP3   OH2 9893   5.620   2.532   2.313
 3296TIP3    H1 9894   5.699   2.555   2.264
 3296TIP3    H2 9895   5.652   2.484   2.389
 3297TIP3   OH2 9896   1.222   3.333   3.415
 3297TIP3    H1 9897   1.208   3.371   3.328
 3297TIP3    H2 9898   1.293   3.270   3.402
 3298TIP3   OH2 9899   3.065   3.613   0.927
 3298TIP3    H1 9900   3.044   3.671   1.000
 3298TIP3    H2 9901   3.086   3.671   0.854
 3299TIP3   OH2 9902   1.686   4.030   2.167
 3299TIP3    H1 9903   1.640   3.951   2.137
 3299TIP3    H2 9904   1.626   4.069   2.231
 3300TIP3   OH2 9905   1.661   4.397   4.658
 3300TIP3    H1 9906   1.740   4.362   4.697
 3300TIP3    H2 9907   1.666   4.492   4.673
 3301TIP3   OH2 9908   3.219   2.241   4.714
 3301TIP3    H1 9909   3.286   2.297   4.674
 3301TIP3    H2 9910   3.208   2.276   4.802
 3302TIP3   OH2 9911   0.315   4.901   4.876
 3302TIP3    H1 9912   0.227   4.904   4.839
 3302TIP3    H2 9913   0.359   4.831   4.829
 3303TIP3   OH2 9914   1.036   1.851   0.558
 3303TIP3    H1 9915   1.045   1.941   0.588
 3303TIP3    H2 9916   1.117   1.808   0.585
 3304TIP3   OH2 9917   1.240   5.007   3.355
 3304TIP3    H1 9918   1.275   4.981   3.440
 3304TIP3    H2 9919   1.224   4.924   3.310
 3305TIP3   OH2 9920   2.337   0.038   3.488
 3305TIP3    H1 9921   2.297  -0.035   3.440
 3305TIP3    H2 9922   2.264   0.096   3.509
 3306TIP3   OH2 9923   3.889   4.640   4.237
 3306TIP3    H1 9924   3.804   4.659   4.275
 3306TIP3    H2 9925   3.900   4.705   4.167
 3307TIP3   OH2 9926   5.326   3.700   0.708
 3307TIP3    H1 9927   5.302   3.786   0.674
 3307TIP3    H2 9928   5.414   3.711   0.743
 3308TIP3   OH2 9929   4.204   5.897   3.462
 3308TIP3    H1 9930   4.148   5.829   3.499
 3308TIP3    H2 9931   4.290   5.881   3.502
 3309TIP3   OH2 9932   6.166   3.613   0.878
 3309TIP3    H1 9933   6.259   3.626   0.896
 3309TIP3    H2 9934   6.144   3.683   0.816
 3310TIP3   OH2 9935   2.147   1.379   1.656
 3310TIP3    H1 9936   2.225   1.421   1.619
 3310TIP3    H2 9937   2.165   1.373   1.750
 3311TIP3   OH2 9938   0.013   3.981   2.531
 3311TIP3    H1 9939   0.083   4.045   2.513
 3311TIP3    H2 9940   0.052   3.922   2.595
 3312TIP3   OH2 9941   1.135   1.359   0.958
 3312TIP3    H1 9942   1.202   1.290   0.955
 3312TIP3    H2 9943   1.053   1.311   0.971
 3313TIP3   OH2 9944   4.270   0.874   0.986
 3313TIP3    H1 9945   4.230   0.950   0.942
 3313TIP3    H2 9946   4.292   0.906   1.073
 3314TIP3   OH2 9947   1.001   4.227   1.173
 3314TIP3    H1 9948   1.029   4.266   1.090
 3314TIP3    H2 9949   0.947   4.152   1.147
 3315TIP3   OH2 9950   4.780   4.114   5.056
 3315TIP3    H1 9951   4.855   4.106   5.114
 3315TIP3    H2 9952   4.723   4.041   5.081
 3316TIP3   OH2 9953   0.272   5.453   0.644
 3316TIP3    H1 9954   0.352   5.472   0.694
 3316TIP3    H2 9955   0.216   5.407   0.706
 3317TIP3   OH2 9956   5.167   1.805   4.690
 3317TIP3    H1 9957   5.149   1.858   4.612
 3317TIP3    H2 9958   5.183   1.717   4.656
 3318TIP3   OH2 9959   0.209   4.497   4.201
 3318TIP3    H1 9960   0.221   4.510   4.295
 3318TIP3    H2 9961   0.126   4.540   4.181
 3319TIP3   OH2 9962   5.464   5.425   1.423
 3319TIP3    H1 9963   5.421   5.487   1.364
 3319TIP3    H2 9964   5.536   5.389   1.371
 3320TIP3   OH2 9965   2.487   5.254   4.348
 3320TIP3    H1 9966   2.521   5.165   4.355
 3320TIP3    H2 9967   2.566   5.309   4.351
 3321TIP3   OH2 9968   2.154   0.012   1.222
 3321TIP3    H1 9969   2.131  -0.078   1.244
 3321TIP3    H2 9970   2.082   0.044   1.169
 3322TIP3   OH2 9971   0.560   2.234   4.193
 3322TIP3    H1 9972   0.603   2.196   4.117
 3322TIP3    H2 9973   0.496   2.294   4.157
 3323TIP3   OH2 9974   1.564   3.271   0.771
 3323TIP3    H1 9975   1.550   3.248   0.863
 3323TIP3    H2 9976   1.557   3.187   0.724
 3324TIP3   OH2 9977   4.680   3.825   3.036
 3324TIP3    H1 9978   4.601   3.811   2.984
 3324TIP3    H2 9979   4.716   3.908   3.004
 3325TIP3   OH2 9980   4.996   0.291   5.081
 3325TIP3    H1 9981   4.940   0.352   5.033
 3325TIP3    H2 9982   5.079   0.337   5.092
 3326TIP3   OH2 9983   5.878   5.125   4.980
 3326TIP3    H1 9984   5.942   5.060   5.008
 3326TIP3    H2 9985   5.793   5.082   4.991
 3327TIP3   OH2 9986   5.993   1.522   2.376
 3327TIP3    H1 9987   6.047   1.481   2.308
 3327TIP3    H2 9988   5.904   1.491   2.359
 3328TIP3   OH2 9989   5.631   3.023   2.441
 3328TIP3    H1 9990   5.717   3.066   2.445
 3328TIP3    H2 9991   5.632   2.977   2.357
 3329TIP3   OH2 9992   1.913   4.181   2.073
 3329TIP3    H1 9993   1.840   4.143   2.121
 3329TIP3    H2 9994   1.914   4.273   2.099
 3330TIP3   OH2 9995   5.978   1.001   4.310
 3330TIP3    H1 9996   5.957   1.057   4.384
 3330TIP3    H2 9997   5.952   1.053   4.233
 3331TIP3   OH2 9998   1.392   3.408   0.615
 3331TIP3    H1 9999   1.305   3.379   0.641
 3331TIP3    H210000   1.450   3.376   0.685
 3332TIP3   OH210001   1.567   1.526   2.446
 3332TIP3    H110002   1.536   1.462   2.509
 3332TIP3    H210003   1.580   1.606   2.497
 3333TIP3   OH210004   0.156   5.617   0.286
 3333TIP3    H110005   0.119   5.574   0.210
 3333TIP3    H210006   0.225   5.674   0.251
 3334TIP3   OH210007   4.919   5.819   0.737
 3334TIP3    H110008   4.859   5.815   0.663
 3334TIP3    H210009   4.981   5.889   0.715
 3335TIP3   OH210010   6.079   1.690   0.994
 3335TIP3    H110011   6.037   1.667   0.911
 3335TIP3    H210012   6.069   1.785   1.000
 3336TIP3   OH210013   3.757   5.754   1.481
 3336TIP3    H110014   3.719   5.834   1.446
 3336TIP3    H210015   3.788   5.707   1.404
 3337TIP3   OH210016   3.967   3.925   2.705
 3337TIP3    H110017   4.024   3.848   2.719
 3337TIP3    H210018   3.958   3.930   2.610
 3338TIP3   OH210019   0.244   1.852   1.808
 3338TIP3    H110020   0.218   1.944   1.817
 3338TIP3    H210021   0.167   1.802   1.833
 3339TIP3   OH210022   6.295   5.763   3.753
 3339TIP3    H110023   6.259   5.724   3.673
 3339TIP3    H210024   6.247   5.720   3.824
 3340TIP3   OH210025   0.375   1.279   4.560
 3340TIP3    H110026   0.436   1.259   4.489
 3340TIP3    H210027   0.301   1.220   4.545
 3341TIP3   OH210028   1.832   0.728   1.234
 3341TIP3    H110029   1.834   0.699   1.142
 3341TIP3    H210030   1.828   0.824   1.228
 3342TIP3   OH210031   5.906   0.308   0.436
 3342TIP3    H110032   5.891   0.237   0.374
 3342TIP3    H210033   5.967   0.271   0.500
 3343TIP3   OH210034   2.037   0.776   4.225
 3343TIP3    H110035   2.131   0.792   4.223
 3343TIP3    H210036   2.005   0.833   4.294
 3344TIP3   OH210037   4.897   2.394   0.333
 3344TIP3    H110038   4.877   2.442   0.254
 3344TIP3    H210039   4.833   2.323   0.335
 3345TIP3   OH210040   0.072   4.919   4.062
 3345TIP3    H110041   0.009   4.850   4.082
 3345TIP3    H210042   0.040   4.995   4.111
 3346TIP3   OH210043   4.622   1.483   2.330
 3346TIP3    H110044   4.681   1.461   2.403
 3346TIP3    H210045   4.587   1.398   2.302
 3347TIP3   OH210046   5.938   1.799   4.520
 3347TIP3    H110047   6.017   1.757   4.488
 3347TIP3    H210048   5.913   1.747   4.596
 3348TIP3   OH210049   0.528   5.021   3.446
 3348TIP3    H110050   0.570   5.088   3.392
 3348TIP3    H210051   0.559   5.039   3.535
 3349TIP3   OH210052   5.188   4.937   4.552
 3349TIP3    H110053   5.253   4.942   4.482
 3349TIP3    H210054   5.111   4.982   4.516
 3350TIP3   OH210055   3.684   5.257   4.647
 3350TIP3    H110056   3.704   5.278   4.556
 3350TIP3    H210057   3.602   5.208   4.643
 3351TIP3   OH210058   4.368   2.136   1.001
 3351TIP3    H110059   4.382   2.051   1.043
 3351TIP3    H210060   4.296   2.121   0.940
 3352TIP3   OH210061   2.966   1.840   3.124
 3352TIP3    H110062   2.901   1.850   3.054
 3352TIP3    H210063   3.013   1.923   3.124
 3353TIP3   OH210064   1.856   3.366   3.831
 3353TIP3    H110065   1.774   3.374   3.878
 3353TIP3    H210066   1.881   3.274   3.842
 3354TIP3   OH210067   3.927   2.058   4.084
 3354TIP3    H110068   3.956   2.091   4.000
 3354TIP3    H210069   4.001   2.074   4.143
 3355TIP3   OH210070   0.165   0.325   3.671
 3355TIP3    H110071   0.075   0.326   3.639
 3355TIP3    H210072   0.169   0.251   3.731
 3356TIP3   OH210073   3.397   0.684   4.081
 3356TIP3    H110074   3.348   0.750   4.129
 3356TIP3    H210075   3.429   0.729   4.003
 3357TIP3   OH210076   2.512   1.348   4.282
 3357TIP3    H110077   2.496   1.281   4.349
 3357TIP3    H210078   2.439   1.339   4.221
 3358TIP3   OH210079   1.244   5.088   4.593
 3358TIP3    H110080   1.152   5.106   4.611
 3358TIP3    H210081   1.274   5.162   4.541
 3359TIP3   OH210082   2.592   3.115   3.021
 3359TIP3    H110083   2.543   3.034   3.007
 3359TIP3    H210084   2.683   3.086   3.032
 3360TIP3   OH210085   0.589   0.203   4.338
 3360TIP3    H110086   0.662   0.171   4.285
 3360TIP3    H210087   0.547   0.270   4.283
 3361TIP3   OH210088   1.242   5.291   0.600
 3361TIP3    H110089   1.244   5.299   0.695
 3361TIP3    H210090   1.314   5.232   0.578
 3362TIP3   OH210091   5.226   3.362   5.105
 3362TIP3    H110092   5.173   3.395   5.177
 3362TIP3    H210093   5.271   3.286   5.141
 3363TIP3   OH210094   2.595   1.276   3.233
 3363TIP3    H110095   2.543   1.196   3.239
 3363TIP3    H210096   2.592   1.312   3.322
 3364TIP3   OH210097   2.003   0.546   4.763
 3364TIP3    H110098   1.944   0.617   4.788
 3364TIP3    H210099   2.007   0.549   4.668
 3365TIP3   OH210100   5.276   0.695   0.169
 3365TIP3    H110101   5.280   0.789   0.155
 3365TIP3    H210102   5.353   0.660   0.123
 3366TIP3   OH210103   1.428   4.828   4.298
 3366TIP3    H110104   1.445   4.829   4.392
 3366TIP3    H210105   1.497   4.773   4.262
 3367TIP3   OH210106   6.057   2.634   2.945
 3367TIP3    H110107   6.119   2.566   2.917
 3367TIP3    H210108   5.981   2.622   2.888
 3368TIP3   OH210109   1.742   1.370   2.193
 3368TIP3    H110110   1.794   1.293   2.170
 3368TIP3    H210111   1.679   1.338   2.258
 3369TIP3   OH210112   4.794   3.150   1.893
 3369TIP3    H110113   4.836   3.070   1.926
 3369TIP3    H210114   4.701   3.131   1.896
 3370TIP3   OH210115   0.286   0.073   3.141
 3370TIP3    H110116   0.246  -0.002   3.098
 3370TIP3    H210117   0.380   0.054   3.142
 3371TIP3   OH210118   2.524   5.560   0.230
 3371TIP3    H110119   2.577   5.488   0.195
 3371TIP3    H210120   2.587   5.616   0.275
 3372TIP3   OH210121   1.150   2.547   3.186
 3372TIP3    H110122   1.161   2.500   3.104
 3372TIP3    H210123   1.154   2.479   3.253
 3373TIP3   OH210124   5.968   2.482   2.615
 3373TIP3    H110125   6.010   2.548   2.559
 3373TIP3    H210126   5.914   2.533   2.675
 3374TIP3   OH210127   3.383   4.211   3.752
 3374TIP3    H110128   3.324   4.287   3.756
 3374TIP3    H210129   3.330   4.143   3.711
 3375TIP3   OH210130   5.650   3.465   3.243
 3375TIP3    H110131   5.710   3.537   3.222
 3375TIP3    H210132   5.689   3.388   3.201
 3376TIP3   OH210133   6.112   5.025   2.331
 3376TIP3    H110134   6.135   4.982   2.249
 3376TIP3    H210135   6.143   4.964   2.399
 3377TIP3   OH210136   5.401   1.448   1.184
 3377TIP3    H110137   5.341   1.388   1.140
 3377TIP3    H210138   5.458   1.480   1.115
 3378TIP3   OH210139   3.831   0.987   1.650
 3378TIP3    H110140   3.804   0.901   1.684
 3378TIP3    H210141   3.825   1.046   1.725
 3379TIP3   OH210142   1.683   0.869   3.705
 3379TIP3    H110143   1.632   0.841   3.781
 3379TIP3    H210144   1.647   0.819   3.632
 3380TIP3   OH210145   4.320   3.789   0.135
 3380TIP3    H110146   4.318   3.884   0.120
 3380TIP3    H210147   4.326   3.752   0.047
 3381TIP3   OH210148   0.995   5.122   4.700
 3381TIP3    H110149   1.013   5.046   4.754
 3381TIP3    H210150   0.941   5.089   4.628
 3382TIP3   OH210151   4.821   0.561   3.355
 3382TIP3    H110152   4.804   0.632   3.292
 3382TIP3    H210153   4.903   0.586   3.396
 3383TIP3   OH210154   1.275   2.900   3.149
 3383TIP3    H110155   1.243   2.865   3.066
 3383TIP3    H210156   1.196   2.906   3.203
 3384TIP3   OH210157   0.384   3.899   3.992
 3384TIP3    H110158   0.320   3.908   4.063
 3384TIP3    H210159   0.360   3.968   3.930
 3385TIP3   OH210160   3.745   5.903   0.899
 3385TIP3    H110161   3.713   5.825   0.854
 3385TIP3    H210162   3.693   5.909   0.978
 3386TIP3   OH210163   0.999   4.266   0.612
 3386TIP3    H110164   0.952   4.327   0.555
 3386TIP3    H210165   0.932   4.206   0.644
 3387TIP3   OH210166   4.666   6.033   0.753
 3387TIP3    H110167   4.639   6.118   0.721
 3387TIP3    H210168   4.584   5.984   0.764
 3388TIP3   OH210169   0.785   4.048   1.134
 3388TIP3    H110170   0.696   4.074   1.158
 3388TIP3    H210171   0.788   3.954   1.152
 3389TIP3   OH210172   2.920   4.349   4.799
 3389TIP3    H110173   2.906   4.254   4.797
 3389TIP3    H210174   3.002   4.362   4.751
 3390TIP3   OH210175   1.608   3.405   3.997
 3390TIP3    H110176   1.596   3.374   4.087
 3390TIP3    H210177   1.542   3.473   3.986
 3391TIP3   OH210178   4.962   0.283   3.303
 3391TIP3    H110179   4.981   0.374   3.326
 3391TIP3    H210180   5.026   0.261   3.236
 3392TIP3   OH210181   3.536   5.324   4.404
 3392TIP3    H110182   3.488   5.406   4.389
 3392TIP3    H210183   3.478   5.256   4.369
 3393TIP3   OH210184   1.812   0.538   0.276
 3393TIP3    H110185   1.835   0.631   0.276
 3393TIP3    H210186   1.815   0.513   0.184
 3394TIP3   OH210187   6.228   2.437   3.437
 3394TIP3    H110188   6.277   2.505   3.391
 3394TIP3    H210189   6.269   2.434   3.524
 3395TIP3   OH210190   6.074   3.223   0.471
 3395TIP3    H110191   6.099   3.184   0.387
 3395TIP3    H210192   6.013   3.160   0.510
 3396TIP3   OH210193   2.996   5.482   1.728
 3396TIP3    H110194   2.970   5.481   1.820
 3396TIP3    H210195   2.914   5.492   1.680
 3397TIP3   OH210196   2.671   6.029   4.737
 3397TIP3    H110197   2.746   5.987   4.694
 3397TIP3    H210198   2.622   5.957   4.777
 3398TIP3   OH210199   2.178   2.873   5.002
 3398TIP3    H110200   2.103   2.933   5.008
 3398TIP3    H210201   2.253   2.930   4.987
 3399TIP3   OH210202   0.305   2.043   3.215
 3399TIP3    H110203   0.374   1.977   3.216
 3399TIP3    H210204   0.236   2.007   3.271
 3400TIP3   OH210205   2.897   0.173   0.556
 3400TIP3    H110206   2.883   0.209   0.644
 3400TIP3    H210207   2.972   0.114   0.566
 3401TIP3   OH210208   3.033   1.759   4.718
 3401TIP3    H110209   3.038   1.853   4.734
 3401TIP3    H210210   2.952   1.748   4.668
 3402TIP3   OH210211   4.613   1.092   2.473
 3402TIP3    H110212   4.683   1.153   2.494
 3402TIP3    H210213   4.542   1.114   2.533
 3403TIP3   OH210214   2.916   0.242   4.990
 3403TIP3    H110215   2.960   0.308   5.044
 3403TIP3    H210216   2.930   0.272   4.900
 3404TIP3   OH210217   3.769   5.198   4.282
 3404TIP3    H110218   3.691   5.144   4.291
 3404TIP3    H210219   3.743   5.269   4.224
 3405TIP3   OH210220   3.165   2.881   1.928
 3405TIP3    H110221   3.077   2.919   1.919
 3405TIP3    H210222   3.159   2.796   1.885
 3406TIP3   OH210223   5.652   4.729   0.540
 3406TIP3    H110224   5.597   4.807   0.546
 3406TIP3    H210225   5.638   4.683   0.623
 3407TIP3   OH210226   4.817   5.989   2.785
 3407TIP3    H110227   4.731   6.025   2.808
 3407TIP3    H210228   4.799   5.925   2.716
 3408TIP3   OH210229   0.322   2.865   0.081
 3408TIP3    H110230   0.382   2.794   0.101
 3408TIP3    H210231   0.280   2.886   0.164
 3409TIP3   OH210232   0.903   5.280   3.390
 3409TIP3    H110233   0.872   5.307   3.476
 3409TIP3    H210234   0.975   5.340   3.371
 3410TIP3   OH210235   3.383   2.525   4.348
 3410TIP3    H110236   3.415   2.435   4.340
 3410TIP3    H210237   3.371   2.554   4.258
 3411TIP3   OH210238   0.341   5.449   4.630
 3411TIP3    H110239   0.252   5.485   4.624
 3411TIP3    H210240   0.327   5.355   4.645
 3412TIP3   OH210241   0.269   3.174   2.395
 3412TIP3    H110242   0.317   3.138   2.469
 3412TIP3    H210243   0.315   3.255   2.373
 3413TIP3   OH210244   4.467   0.067   4.655
 3413TIP3    H110245   4.548   0.103   4.619
 3413TIP3    H210246   4.452   0.117   4.736
 3414TIP3   OH210247   4.597   5.254   2.555
 3414TIP3    H110248   4.569   5.291   2.638
 3414TIP3    H210249   4.564   5.164   2.556
 3415TIP3   OH210250   5.091   1.624   3.961
 3415TIP3    H110251   5.010   1.587   3.996
 3415TIP3    H210252   5.161   1.574   4.004
 3416TIP3   OH210253   0.358   1.810   2.299
 3416TIP3    H110254   0.384   1.792   2.208
 3416TIP3    H210255   0.336   1.724   2.335
 3417TIP3   OH210256   3.555   2.114   2.360
 3417TIP3    H110257   3.530   2.039   2.413
 3417TIP3    H210258   3.630   2.152   2.405
 3418TIP3   OH210259   2.829   5.914   3.079
 3418TIP3    H110260   2.776   5.992   3.064
 3418TIP3    H210261   2.830   5.869   2.995
 3419TIP3   OH210262   1.802   2.540   2.736
 3419TIP3    H110263   1.720   2.541   2.786
 3419TIP3    H210264   1.809   2.450   2.704
 3420TIP3   OH210265   1.317   0.865   3.213
 3420TIP3    H110266   1.236   0.915   3.214
 3420TIP3    H210267   1.383   0.926   3.182
 3421TIP3   OH210268   1.803   4.239   1.368
 3421TIP3    H110269   1.876   4.211   1.313
 3421TIP3    H210270   1.735   4.173   1.353
 3422TIP3   OH210271   5.656   2.943   1.012
 3422TIP3    H110272   5.575   2.967   0.968
 3422TIP3    H210273   5.726   2.980   0.958
 3423TIP3   OH210274   4.710   5.992   4.613
 3423TIP3    H110275   4.692   5.900   4.594
 3423TIP3    H210276   4.794   5.992   4.658
 3424TIP3   OH210277   5.168   3.600   3.617
 3424TIP3    H110278   5.195   3.625   3.528
 3424TIP3    H210279   5.243   3.624   3.672
 3425TIP3   OH210280   1.866   3.632   3.704
 3425TIP3    H110281   1.836   3.549   3.742
 3425TIP3    H210282   1.922   3.605   3.630
 3426TIP3   OH210283   3.644   2.152   2.118
 3426TIP3    H110284   3.595   2.126   2.196
 3426TIP3    H210285   3.687   2.072   2.089
 3427TIP3   OH210286   4.699   2.861   0.884
 3427TIP3    H110287   4.764   2.816   0.938
 3427TIP3    H210288   4.687   2.805   0.808
 3428TIP3   OH210289   2.853   2.033   1.606
 3428TIP3    H110290   2.919   2.086   1.650
 3428TIP3    H210291   2.835   2.081   1.525
 3429TIP3   OH210292   2.931   2.717   0.290
 3429TIP3    H110293   2.933   2.621   0.292
 3429TIP3    H210294   2.859   2.740   0.349
 3430TIP3   OH210295   4.769   0.649   3.641
 3430TIP3    H110296   4.755   0.642   3.546
 3430TIP3    H210297   4.856   0.687   3.649
 3431TIP3   OH210298   1.650   3.984   4.418
 3431TIP3    H110299   1.671   3.995   4.325
 3431TIP3    H210300   1.612   3.897   4.423
 3432TIP3   OH210301   1.432   5.389   2.639
 3432TIP3    H110302   1.520   5.398   2.677
 3432TIP3    H210303   1.414   5.295   2.643
 3433TIP3   OH210304   0.086   0.310   3.062
 3433TIP3    H110305   0.086   0.376   2.994
 3433TIP3    H210306   0.042   0.234   3.023
 3434TIP3   OH210307   2.055   3.899   3.226
 3434TIP3    H110308   2.023   3.948   3.151
 3434TIP3    H210309   2.081   3.814   3.190
 3435TIP3   OH210310   2.072   5.809   1.518
 3435TIP3    H110311   2.041   5.736   1.572
 3435TIP3    H210312   1.996   5.867   1.510
 3436TIP3   OH210313   5.811   2.671   0.289
 3436TIP3    H110314   5.821   2.761   0.318
 3436TIP3    H210315   5.718   2.662   0.268
 3437TIP3   OH210316   0.783   5.450   3.168
 3437TIP3    H110317   0.860   5.462   3.111
 3437TIP3    H210318   0.813   5.387   3.234
 3438TIP3   OH210319   0.306   0.272   0.486
 3438TIP3    H110320   0.354   0.197   0.451
 3438TIP3    H210321   0.372   0.324   0.532
 3439TIP3   OH210322   6.076   0.306   3.391
 3439TIP3    H110323   6.080   0.257   3.473
 3439TIP3    H210324   6.161   0.290   3.349
 3440TIP3   OH210325   5.266   1.726   1.828
 3440TIP3    H110326   5.251   1.688   1.741
 3440TIP3    H210327   5.192   1.785   1.841
 3441TIP3   OH210328   0.286   4.940   4.260
 3441TIP3    H110329   0.203   4.903   4.290
 3441TIP3    H210330   0.266   4.980   4.175
 3442TIP3   OH210331   4.109   3.383   4.335
 3442TIP3    H110332   4.040   3.346   4.281
 3442TIP3    H210333   4.190   3.360   4.289
 3443TIP3   OH210334   4.416   3.171   3.344
 3443TIP3    H110335   4.351   3.103   3.330
 3443TIP3    H210336   4.469   3.171   3.264
 3444TIP3   OH210337   0.388   3.788   4.289
 3444TIP3    H110338   0.460   3.850   4.292
 3444TIP3    H210339   0.311   3.839   4.316
 3445TIP3   OH210340   3.772   5.823   0.525
 3445TIP3    H110341   3.721   5.827   0.444
 3445TIP3    H210342   3.833   5.750   0.512
 3446TIP3   OH210343   3.170   5.606   4.746
 3446TIP3    H110344   3.144   5.571   4.660
 3446TIP3    H210345   3.259   5.574   4.759
 3447TIP3   OH210346   2.762   3.470   1.085
 3447TIP3    H110347   2.718   3.414   1.149
 3447TIP3    H210348   2.762   3.557   1.127
 3448TIP3   OH210349   1.234   3.549   4.888
 3448TIP3    H110350   1.169   3.616   4.909
 3448TIP3    H210351   1.318   3.592   4.903
 3449TIP3   OH210352   2.251   0.771   2.383
 3449TIP3    H110353   2.287   0.686   2.355
 3449TIP3    H210354   2.196   0.750   2.458
 3450TIP3   OH210355   4.533   1.594   1.910
 3450TIP3    H110356   4.458   1.545   1.876
 3450TIP3    H210357   4.570   1.637   1.833
 3451TIP3   OH210358   4.574   0.324   5.001
 3451TIP3    H110359   4.637   0.385   5.040
 3451TIP3    H210360   4.597   0.239   5.038
 3452TIP3   OH210361   0.089   5.046   3.421
 3452TIP3    H110362   0.153   5.095   3.368
 3452TIP3    H210363   0.106   5.074   3.511
 3453TIP3   OH210364   1.803   2.242   2.691
 3453TIP3    H110365   1.711   2.219   2.706
 3453TIP3    H210366   1.852   2.171   2.733
 3454TIP3   OH210367   5.695   0.196   1.188
 3454TIP3    H110368   5.622   0.221   1.245
 3454TIP3    H210369   5.761   0.265   1.202
 3455TIP3   OH210370   3.015   3.746   1.150
 3455TIP3    H110371   3.039   3.725   1.240
 3455TIP3    H210372   2.950   3.817   1.159
 3456TIP3   OH210373   5.041   4.578   2.879
 3456TIP3    H110374   4.980   4.559   2.951
 3456TIP3    H210375   5.127   4.559   2.914
 3457TIP3   OH210376   5.587   1.584   4.607
 3457TIP3    H110377   5.554   1.639   4.678
 3457TIP3    H210378   5.589   1.496   4.645
 3458TIP3   OH210379   4.156   2.786   1.970
 3458TIP3    H110380   4.103   2.856   1.934
 3458TIP3    H210381   4.092   2.719   1.995
 3459TIP3   OH210382   5.557   2.085   2.190
 3459TIP3    H110383   5.582   2.023   2.121
 3459TIP3    H210384   5.613   2.063   2.264
 3460TIP3   OH210385   0.591   2.397   3.650
 3460TIP3    H110386   0.526   2.365   3.712
 3460TIP3    H210387   0.669   2.344   3.669
 3461TIP3   OH210388   4.413   3.371   2.879
 3461TIP3    H110389   4.408   3.314   2.802
 3461TIP3    H210390   4.487   3.429   2.861
 3462TIP3   OH210391   2.424   3.101   4.956
 3462TIP3    H110392   2.501   3.108   5.012
 3462TIP3    H210393   2.459   3.103   4.867
 3463TIP3   OH210394   3.655   0.533   2.890
 3463TIP3    H110395   3.646   0.476   2.814
 3463TIP3    H210396   3.570   0.577   2.897
 3464TIP3   OH210397   0.630   1.529   3.306
 3464TIP3    H110398   0.559   1.505   3.246
 3464TIP3    H210399   0.663   1.612   3.272
 3465TIP3   OH210400   1.032   1.547   4.664
 3465TIP3    H110401   1.102   1.517   4.606
 3465TIP3    H210402   0.988   1.616   4.614
 3466TIP3   OH210403   2.754   3.388   0.415
 3466TIP3    H110404   2.742   3.309   0.468
 3466TIP3    H210405   2.849   3.404   0.419
 3467TIP3   OH210406   2.125   0.208   4.852
 3467TIP3    H110407   2.174   0.283   4.884
 3467TIP3    H210408   2.047   0.204   4.907
 3468TIP3   OH210409   3.200   5.209   1.116
 3468TIP3    H110410   3.246   5.292   1.125
 3468TIP3    H210411   3.270   5.145   1.100
 3469TIP3   OH210412   1.856   3.726   4.044
 3469TIP3    H110413   1.768   3.691   4.036
 3469TIP3    H210414   1.846   3.803   4.100
 3470TIP3   OH210415   5.264   3.938   0.536
 3470TIP3    H110416   5.236   3.907   0.450
 3470TIP3    H210417   5.357   3.958   0.526
 3471TIP3   OH210418   3.660   2.471   4.778
 3471TIP3    H110419   3.674   2.552   4.826
 3471TIP3    H210420   3.734   2.415   4.802
 3472TIP3   OH210421   0.373   1.084   5.058
 3472TIP3    H110422   0.301   1.024   5.040
 3472TIP3    H210423   0.380   1.138   4.979
 3473TIP3   OH210424   4.929   0.640   0.019
 3473TIP3    H110425   4.977   0.585  -0.044
 3473TIP3    H210426   4.899   0.578   0.086
 3474TIP3   OH210427   5.067   1.543   2.246
 3474TIP3    H110428   5.070   1.449   2.264
 3474TIP3    H210429   5.140   1.559   2.186
 3475TIP3   OH210430   5.870   5.627   0.947
 3475TIP3    H110431   5.957   5.630   0.988
 3475TIP3    H210432   5.811   5.597   1.017
 3476TIP3   OH210433   3.529   1.170   4.710
 3476TIP3    H110434   3.494   1.251   4.747
 3476TIP3    H210435   3.465   1.143   4.644
 3477TIP3   OH210436   3.575   0.584   0.432
 3477TIP3    H110437   3.508   0.582   0.501
 3477TIP3    H210438   3.525   0.599   0.352
 3478TIP3   OH210439   4.885   4.600   3.932
 3478TIP3    H110440   4.924   4.570   4.014
 3478TIP3    H210441   4.876   4.695   3.944
 3479TIP3   OH210442   0.856   1.757   1.913
 3479TIP3    H110443   0.932   1.702   1.930
 3479TIP3    H210444   0.815   1.720   1.835
 3480TIP3   OH210445   2.057   1.107   3.300
 3480TIP3    H110446   1.978   1.133   3.347
 3480TIP3    H210447   2.128   1.119   3.363
 3481TIP3   OH210448   3.932   4.209   5.019
 3481TIP3    H110449   3.928   4.293   4.972
 3481TIP3    H210450   3.976   4.150   4.958
 3482TIP3   OH210451   2.538   0.640   2.620
 3482TIP3    H110452   2.560   0.575   2.687
 3482TIP3    H210453   2.616   0.644   2.564
 3483TIP3   OH210454   2.539   4.990   4.188
 3483TIP3    H110455   2.562   4.969   4.278
 3483TIP3    H210456   2.590   4.929   4.135
 3484TIP3   OH210457   5.071   5.662   2.216
 3484TIP3    H110458   5.150   5.714   2.201
 3484TIP3    H210459   5.001   5.711   2.173
 3485TIP3   OH210460   1.872   5.907   2.870
 3485TIP3    H110461   1.819   5.914   2.791
 3485TIP3    H210462   1.960   5.935   2.843
 3486TIP3   OH210463   5.377   1.387   5.048
 3486TIP3    H110464   5.472   1.379   5.056
 3486TIP3    H210465   5.343   1.345   5.127
 3487TIP3   OH210466   2.392   3.068   1.628
 3487TIP3    H110467   2.378   2.978   1.601
 3487TIP3    H210468   2.319   3.117   1.588
 3488TIP3   OH210469   5.153   1.972   1.637
 3488TIP3    H110470   5.078   1.958   1.695
 3488TIP3    H210471   5.175   1.885   1.605
 3489TIP3   OH210472   1.614   2.980   4.888
 3489TIP3    H110473   1.526   2.954   4.915
 3489TIP3    H210474   1.607   2.993   4.794
 3490TIP3   OH210475   2.927   4.689   4.922
 3490TIP3    H110476   2.932   4.759   4.856
 3490TIP3    H210477   2.941   4.609   4.872
 3491TIP3   OH210478   1.552   2.319   1.913
 3491TIP3    H110479   1.580   2.360   1.995
 3491TIP3    H210480   1.633   2.296   1.869
 3492TIP3   OH210481   0.854   0.762   0.668
 3492TIP3    H110482   0.863   0.856   0.653
 3492TIP3    H210483   0.789   0.734   0.604
 3493TIP3   OH210484   2.017   3.124   2.090
 3493TIP3    H110485   1.931   3.101   2.055
 3493TIP3    H210486   2.006   3.211   2.127
 3494TIP3   OH210487   4.447   1.209   5.187
 3494TIP3    H110488   4.506   1.284   5.187
 3494TIP3    H210489   4.367   1.240   5.229
 3495TIP3   OH210490   1.345   2.547   3.712
 3495TIP3    H110491   1.312   2.632   3.685
 3495TIP3    H210492   1.405   2.566   3.785
 3496TIP3   OH210493   3.133   3.011   2.504
 3496TIP3    H110494   3.221   2.976   2.496
 3496TIP3    H210495   3.076   2.939   2.479
 3497TIP3   OH210496   1.791   1.924   4.112
 3497TIP3    H110497   1.857   1.983   4.076
 3497TIP3    H210498   1.718   1.981   4.136
 3498TIP3   OH210499   1.823   2.079   2.162
 3498TIP3    H110500   1.728   2.069   2.149
 3498TIP3    H210501   1.833   2.169   2.192
 3499TIP3   OH210502   2.021   3.086   4.999
 3499TIP3    H110503   2.044   3.143   5.071
 3499TIP3    H210504   1.934   3.115   4.972
 3500TIP3   OH210505   4.260   4.421   1.951
 3500TIP3    H110506   4.187   4.362   1.972
 3500TIP3    H210507   4.282   4.399   1.860
 3501TIP3   OH210508   4.094   4.910   1.771
 3501TIP3    H110509   4.160   4.925   1.704
 3501TIP3    H210510   4.136   4.851   1.833
 3502TIP3   OH210511   4.720   2.341   3.912
 3502TIP3    H110512   4.761   2.255   3.903
 3502TIP3    H210513   4.655   2.345   3.842
 3503TIP3   OH210514   5.401   0.429   4.830
 3503TIP3    H110515   5.476   0.420   4.771
 3503TIP3    H210516   5.336   0.477   4.778
 3504TIP3   OH210517   4.425   5.526   2.385
 3504TIP3    H110518   4.387   5.475   2.457
 3504TIP3    H210519   4.510   5.555   2.419
 3505TIP3   OH210520   1.992   5.928   3.349
 3505TIP3    H110521   2.084   5.906   3.338
 3505TIP3    H210522   1.948   5.843   3.358
 3506TIP3   OH210523   5.131   5.046   0.813
 3506TIP3    H110524   5.141   5.138   0.835
 3506TIP3    H210525   5.038   5.028   0.827
 3507TIP3   OH210526   1.284   0.932   0.498
 3507TIP3    H110527   1.244   0.890   0.422
 3507TIP3    H210528   1.364   0.883   0.513
 3508TIP3   OH210529   4.294   0.493   2.862
 3508TIP3    H110530   4.308   0.561   2.796
 3508TIP3    H210531   4.229   0.529   2.921
 3509TIP3   OH210532   4.203   5.044   3.491
 3509TIP3    H110533   4.195   4.956   3.455
 3509TIP3    H210534   4.134   5.049   3.557
 3510TIP3   OH210535   5.218   3.093   0.938
 3510TIP3    H110536   5.147   3.095   1.002
 3510TIP3    H210537   5.216   3.180   0.898
 3511TIP3   OH210538   6.273   3.065   3.769
 3511TIP3    H110539   6.251   3.150   3.731
 3511TIP3    H210540   6.276   3.080   3.863
 3512TIP3   OH210541   3.786   5.408   2.424
 3512TIP3    H110542   3.768   5.368   2.509
 3512TIP3    H210543   3.753   5.497   2.432
 3513TIP3   OH210544   3.723   0.266   2.103
 3513TIP3    H110545   3.690   0.238   2.018
 3513TIP3    H210546   3.781   0.195   2.131
 3514TIP3   OH210547   4.490   1.779   3.497
 3514TIP3    H110548   4.472   1.859   3.448
 3514TIP3    H210549   4.560   1.737   3.449
 3515TIP3   OH210550   1.202   4.638   2.807
 3515TIP3    H110551   1.140   4.631   2.879
 3515TIP3    H210552   1.250   4.719   2.824
 3516TIP3   OH210553   2.133   5.051   4.102
 3516TIP3    H110554   2.056   5.034   4.048
 3516TIP3    H210555   2.195   4.982   4.078
 3517TIP3   OH210556   5.551   2.401   0.391
 3517TIP3    H110557   5.548   2.325   0.333
 3517TIP3    H210558   5.579   2.366   0.475
 3518TIP3   OH210559   6.202   0.719   2.787
 3518TIP3    H110560   6.168   0.773   2.715
 3518TIP3    H210561   6.174   0.764   2.866
 3519TIP3   OH210562   1.606   5.032   3.225
 3519TIP3    H110563   1.518   5.016   3.191
 3519TIP3    H210564   1.656   4.954   3.201
 3520TIP3   OH210565   3.265   1.452   2.926
 3520TIP3    H110566   3.212   1.378   2.956
 3520TIP3    H210567   3.223   1.529   2.963
 3521TIP3   OH210568   1.953   3.102   1.167
 3521TIP3    H110569   1.893   3.043   1.213
 3521TIP3    H210570   1.952   3.182   1.219
 3522TIP3   OH210571   5.159   1.858   5.124
 3522TIP3    H110572   5.132   1.783   5.176
 3522TIP3    H210573   5.253   1.866   5.140
 3523TIP3   OH210574   1.122   4.619   4.070
 3523TIP3    H110575   1.032   4.654   4.070
 3523TIP3    H210576   1.176   4.693   4.099
 3524TIP3   OH210577   5.359   4.162   4.476
 3524TIP3    H110578   5.276   4.170   4.522
 3524TIP3    H210579   5.336   4.126   4.390
 3525TIP3   OH210580   3.036   3.057   3.351
 3525TIP3    H110581   2.985   3.134   3.376
 3525TIP3    H210582   3.120   3.092   3.321
 3526TIP3   OH210583   0.914   4.984   0.688
 3526TIP3    H110584   0.850   4.951   0.625
 3526TIP3    H210585   0.997   4.983   0.640
 3527TIP3   OH210586   5.642   2.674   1.017
 3527TIP3    H110587   5.686   2.644   1.097
 3527TIP3    H210588   5.676   2.762   1.002
 3528TIP3   OH210589   0.978   1.129   0.035
 3528TIP3    H110590   0.903   1.130   0.094
 3528TIP3    H210591   1.052   1.157   0.090
 3529TIP3   OH210592   2.446   5.033   4.762
 3529TIP3    H110593   2.372   5.092   4.780
 3529TIP3    H210594   2.486   5.017   4.847
 3530TIP3   OH210595   5.442   3.784   4.678
 3530TIP3    H110596   5.514   3.724   4.663
 3530TIP3    H210597   5.462   3.860   4.623
 3531TIP3   OH210598   0.367   2.173   3.709
 3531TIP3    H110599   0.300   2.170   3.640
 3531TIP3    H210600   0.440   2.123   3.673
 3532TIP3   OH210601   4.688   5.441   0.480
 3532TIP3    H110602   4.676   5.350   0.508
 3532TIP3    H210603   4.671   5.440   0.386
 3533TIP3   OH210604   3.471   0.249   0.580
 3533TIP3    H110605   3.501   0.273   0.492
 3533TIP3    H210606   3.449   0.156   0.573
 3534TIP3   OH210607   0.177   3.699   1.994
 3534TIP3    H110608   0.085   3.713   1.971
 3534TIP3    H210609   0.207   3.633   1.931
 3535TIP3   OH210610   1.869   2.762   4.855
 3535TIP3    H110611   1.804   2.693   4.844
 3535TIP3    H210612   1.867   2.810   4.772
 3536TIP3   OH210613   2.921   2.685   1.234
 3536TIP3    H110614   2.849   2.718   1.180
 3536TIP3    H210615   2.986   2.756   1.233
 3537TIP3   OH210616   0.940   4.106   2.696
 3537TIP3    H110617   1.009   4.065   2.748
 3537TIP3    H210618   0.986   4.162   2.633
 3538TIP3   OH210619   1.913   5.445   1.186
 3538TIP3    H110620   1.883   5.409   1.270
 3538TIP3    H210621   1.974   5.379   1.152
 3539TIP3   OH210622   4.733   5.741   0.241
 3539TIP3    H110623   4.663   5.751   0.175
 3539TIP3    H210624   4.800   5.804   0.215
 3540TIP3   OH210625   2.919   4.002   0.531
 3540TIP3    H110626   2.891   3.911   0.529
 3540TIP3    H210627   3.015   3.998   0.524
 3541TIP3   OH210628   3.109   5.221   1.444
 3541TIP3    H110629   3.014   5.226   1.455
 3541TIP3    H210630   3.129   5.285   1.377
 3542TIP3   OH210631   3.625   1.176   0.130
 3542TIP3    H110632   3.710   1.219   0.118
 3542TIP3    H210633   3.620   1.114   0.057
 3543TIP3   OH210634   5.861   5.363   4.526
 3543TIP3    H110635   5.875   5.456   4.545
 3543TIP3    H210636   5.879   5.319   4.609
 3544TIP3   OH210637   1.359   4.889   5.031
 3544TIP3    H110638   1.443   4.905   4.987
 3544TIP3    H210639   1.377   4.910   5.123
 3545TIP3   OH210640   5.163   4.417   3.308
 3545TIP3    H110641   5.083   4.426   3.360
 3545TIP3    H210642   5.234   4.414   3.373
 3546TIP3   OH210643   4.323   4.907   4.546
 3546TIP3    H110644   4.331   4.832   4.605
 3546TIP3    H210645   4.338   4.870   4.459
 3547TIP3   OH210646   3.441   2.675   1.546
 3547TIP3    H110647   3.453   2.593   1.498
 3547TIP3    H210648   3.404   2.736   1.483
 3548TIP3   OH210649   1.119   2.633   4.063
 3548TIP3    H110650   1.043   2.579   4.042
 3548TIP3    H210651   1.176   2.626   3.987
 3549TIP3   OH210652   4.445   4.814   1.729
 3549TIP3    H110653   4.485   4.747   1.784
 3549TIP3    H210654   4.481   4.798   1.642
 3550TIP3   OH210655   2.648   4.015   1.403
 3550TIP3    H110656   2.554   4.008   1.387
 3550TIP3    H210657   2.654   4.051   1.492
 3551TIP3   OH210658   6.043   5.301   4.337
 3551TIP3    H110659   6.102   5.365   4.377
 3551TIP3    H210660   5.975   5.287   4.403
 3552TIP3   OH210661   1.418   1.290   4.482
 3552TIP3    H110662   1.435   1.355   4.549
 3552TIP3    H210663   1.486   1.306   4.415
 3553TIP3   OH210664   4.340   0.029   1.272
 3553TIP3    H110665   4.327  -0.027   1.196
 3553TIP3    H210666   4.254   0.034   1.314
 3554TIP3   OH210667   4.907   5.467   0.057
 3554TIP3    H110668   4.961   5.404   0.106
 3554TIP3    H210669   4.819   5.455   0.092
 3555TIP3   OH210670   5.748   3.280   0.304
 3555TIP3    H110671   5.672   3.226   0.281
 3555TIP3    H210672   5.796   3.289   0.222
 3556TIP3   OH210673   1.538   1.355   3.053
 3556TIP3    H110674   1.509   1.441   3.081
 3556TIP3    H210675   1.498   1.342   2.967
 3557TIP3   OH210676   1.596   3.108   3.103
 3557TIP3    H110677   1.573   3.054   3.027
 3557TIP3    H210678   1.690   3.124   3.093
 3558TIP3   OH210679   2.741   4.840   1.420
 3558TIP3    H110680   2.747   4.815   1.512
 3558TIP3    H210681   2.650   4.819   1.396
 3559TIP3   OH210682   3.633   2.144   0.962
 3559TIP3    H110683   3.690   2.199   0.907
 3559TIP3    H210684   3.681   2.134   1.044
 3560TIP3   OH210685   3.993   3.963   1.491
 3560TIP3    H110686   3.906   3.944   1.527
 3560TIP3    H210687   4.030   3.877   1.471
 3561TIP3   OH210688   6.083   3.404   4.077
 3561TIP3    H110689   6.051   3.436   4.161
 3561TIP3    H210690   6.033   3.452   4.012
 3562TIP3   OH210691   1.224   1.891   1.114
 3562TIP3    H110692   1.154   1.941   1.157
 3562TIP3    H210693   1.180   1.812   1.081
 3563TIP3   OH210694   2.903   1.102   4.108
 3563TIP3    H110695   2.911   1.187   4.152
 3563TIP3    H210696   2.986   1.092   4.061
 3564TIP3   OH210697   3.442   2.187   1.244
 3564TIP3    H110698   3.398   2.234   1.315
 3564TIP3    H210699   3.513   2.140   1.286
 3565TIP3   OH210700   5.900   2.225   3.239
 3565TIP3    H110701   5.910   2.320   3.236
 3565TIP3    H210702   5.986   2.192   3.263
 3566TIP3   OH210703   1.469   3.005   2.421
 3566TIP3    H110704   1.456   3.089   2.465
 3566TIP3    H210705   1.448   3.022   2.329
 3567TIP3   OH210706   4.470   0.624   0.987
 3567TIP3    H110707   4.539   0.686   1.010
 3567TIP3    H210708   4.515   0.540   0.982
 3568TIP3   OH210709   1.498   5.391   2.032
 3568TIP3    H110710   1.455   5.474   2.053
 3568TIP3    H210711   1.576   5.390   2.088
 3569TIP3   OH210712   1.611   3.571   4.529
 3569TIP3    H110713   1.697   3.611   4.516
 3569TIP3    H210714   1.564   3.588   4.447
 3570TIP3   OH210715   3.171   0.620   3.415
 3570TIP3    H110716   3.157   0.561   3.341
 3570TIP3    H210717   3.265   0.637   3.415
 3571TIP3   OH210718   5.855   2.293   0.960
 3571TIP3    H110719   5.877   2.282   0.868
 3571TIP3    H210720   5.760   2.279   0.964
 3572TIP3   OH210721   5.732   1.071   4.985
 3572TIP3    H110722   5.746   0.987   4.940
 3572TIP3    H210723   5.816   1.116   4.977
 3573TIP3   OH210724   2.547   3.184   3.283
 3573TIP3    H110725   2.510   3.254   3.337
 3573TIP3    H210726   2.546   3.221   3.194
 3574TIP3   OH210727   1.472   5.912   0.885
 3574TIP3    H110728   1.471   5.828   0.931
 3574TIP3    H210729   1.460   5.888   0.793
 3575TIP3   OH210730   4.740   1.581   4.677
 3575TIP3    H110731   4.780   1.668   4.678
 3575TIP3    H210732   4.693   1.575   4.761
 3576TIP3   OH210733   2.783   5.542   1.365
 3576TIP3    H110734   2.739   5.624   1.342
 3576TIP3    H210735   2.778   5.538   1.460
 3577TIP3   OH210736   1.150   1.088   5.059
 3577TIP3    H110737   1.232   1.136   5.047
 3577TIP3    H210738   1.155   1.017   4.995
 3578TIP3   OH210739   5.737   2.372   4.566
 3578TIP3    H110740   5.831   2.377   4.578
 3578TIP3    H210741   5.718   2.439   4.500
 3579TIP3   OH210742   2.563   2.491   3.815
 3579TIP3    H110743   2.513   2.422   3.772
 3579TIP3    H210744   2.640   2.504   3.760
 3580TIP3   OH210745   2.864   0.485   2.915
 3580TIP3    H110746   2.921   0.541   2.967
 3580TIP3    H210747   2.919   0.454   2.843
 3581TIP3   OH210748   6.101   0.155   3.608
 3581TIP3    H110749   6.170   0.127   3.668
 3581TIP3    H210750   6.033   0.088   3.618
 3582TIP3   OH210751   4.004   4.865   4.461
 3582TIP3    H110752   3.938   4.796   4.471
 3582TIP3    H210753   3.979   4.931   4.525
 3583TIP3   OH210754   1.280   2.506   0.347
 3583TIP3    H110755   1.339   2.475   0.279
 3583TIP3    H210756   1.285   2.439   0.416
 3584TIP3   OH210757   6.056   2.311   2.966
 3584TIP3    H110758   5.985   2.374   2.969
 3584TIP3    H210759   6.013   2.225   2.971
 3585TIP3   OH210760   4.572   4.435   0.249
 3585TIP3    H110761   4.477   4.429   0.258
 3585TIP3    H210762   4.589   4.408   0.159
 3586TIP3   OH210763   0.976   5.647   0.898
 3586TIP3    H110764   0.922   5.721   0.873
 3586TIP3    H210765   1.016   5.617   0.816
 3587TIP3   OH210766   0.208   0.948   0.012
 3587TIP3    H110767   0.124   0.977  -0.025
 3587TIP3    H210768   0.211   0.987   0.099
 3588TIP3   OH210769   3.276   3.683   1.901
 3588TIP3    H110770   3.214   3.659   1.971
 3588TIP3    H210771   3.358   3.698   1.947
 3589TIP3   OH210772   4.109   3.015   0.299
 3589TIP3    H110773   4.036   2.995   0.357
 3589TIP3    H210774   4.134   2.931   0.261
 3590TIP3   OH210775   5.829   0.703   4.437
 3590TIP3    H110776   5.914   0.674   4.468
 3590TIP3    H210777   5.836   0.799   4.435
 3591TIP3   OH210778   2.567   4.965   0.068
 3591TIP3    H110779   2.508   4.931   0.001
 3591TIP3    H210780   2.651   4.974   0.022
 3592TIP3   OH210781   3.944   3.613   3.804
 3592TIP3    H110782   4.012   3.591   3.741
 3592TIP3    H210783   3.871   3.555   3.782
 3593TIP3   OH210784   6.053   3.831   2.134
 3593TIP3    H110785   6.026   3.758   2.079
 3593TIP3    H210786   6.142   3.850   2.105
 3594TIP3   OH210787   3.819   4.551   3.270
 3594TIP3    H110788   3.849   4.481   3.327
 3594TIP3    H210789   3.873   4.627   3.294
 3595TIP3   OH210790   1.083   5.308   4.281
 3595TIP3    H110791   1.110   5.375   4.218
 3595TIP3    H210792   1.163   5.289   4.331
 3596TIP3   OH210793   1.053   5.744   4.964
 3596TIP3    H110794   1.058   5.665   4.910
 3596TIP3    H210795   1.116   5.728   5.035
 3597TIP3   OH210796   5.261   4.022   5.020
 3597TIP3    H110797   5.208   3.957   4.975
 3597TIP3    H210798   5.209   4.102   5.016
 3598TIP3   OH210799   5.113   0.835   0.914
 3598TIP3    H110800   5.042   0.808   0.856
 3598TIP3    H210801   5.168   0.757   0.924
 3599TIP3   OH210802   6.325   3.451   2.664
 3599TIP3    H110803   6.338   3.495   2.580
 3599TIP3    H210804   6.264   3.507   2.711
 3600TIP3   OH210805   0.259   2.407   4.593
 3600TIP3    H110806   0.209   2.472   4.642
 3600TIP3    H210807   0.349   2.418   4.624
 3601TIP3   OH210808   0.749   1.259   1.179
 3601TIP3    H110809   0.681   1.206   1.137
 3601TIP3    H210810   0.721   1.266   1.270
 3602TIP3   OH210811   5.781   5.754   3.264
 3602TIP3    H110812   5.795   5.789   3.176
 3602TIP3    H210813   5.723   5.818   3.306
 3603TIP3   OH210814  -0.013   2.683   0.716
 3603TIP3    H110815  -0.004   2.669   0.622
 3603TIP3    H210816  -0.045   2.599   0.750
 3604TIP3   OH210817   0.938   4.285   1.842
 3604TIP3    H110818   1.014   4.341   1.824
 3604TIP3    H210819   0.874   4.311   1.776
 3605TIP3   OH210820   1.495   3.617   1.696
 3605TIP3    H110821   1.470   3.534   1.657
 3605TIP3    H210822   1.458   3.683   1.638
 3606TIP3   OH210823   4.733   0.185   0.908
 3606TIP3    H110824   4.730   0.275   0.875
 3606TIP3    H210825   4.773   0.194   0.995
 3607TIP3   OH210826   5.606   5.237   0.719
 3607TIP3    H110827   5.620   5.208   0.809
 3607TIP3    H210828   5.545   5.310   0.726
 3608TIP3   OH210829   6.257   0.547   3.895
 3608TIP3    H110830   6.277   0.639   3.911
 3608TIP3    H210831   6.319   0.498   3.949
 3609TIP3   OH210832   0.471   5.229   2.136
 3609TIP3    H110833   0.413   5.303   2.156
 3609TIP3    H210834   0.508   5.251   2.050
 3610TIP3   OH210835   2.127   5.262   1.602
 3610TIP3    H110836   2.120   5.347   1.558
 3610TIP3    H210837   2.171   5.206   1.538
 3611TIP3   OH210838   0.556   3.564   0.397
 3611TIP3    H110839   0.554   3.616   0.317
 3611TIP3    H210840   0.586   3.478   0.369
 3612TIP3   OH210841   5.093   5.256   4.964
 3612TIP3    H110842   4.997   5.247   4.962
 3612TIP3    H210843   5.114   5.300   4.882
 3613TIP3   OH210844   6.198   3.357   1.287
 3613TIP3    H110845   6.144   3.300   1.232
 3613TIP3    H210846   6.139   3.386   1.357
 3614TIP3   OH210847   5.444   1.102   4.887
 3614TIP3    H110848   5.455   1.039   4.816
 3614TIP3    H210849   5.514   1.081   4.949
 3615TIP3   OH210850   4.828   2.817   4.853
 3615TIP3    H110851   4.917   2.850   4.847
 3615TIP3    H210852   4.781   2.862   4.782
 3616TIP3   OH210853   2.668   0.315   4.256
 3616TIP3    H110854   2.590   0.266   4.283
 3616TIP3    H210855   2.736   0.248   4.245
 3617TIP3   OH210856   5.209   5.458   3.660
 3617TIP3    H110857   5.179   5.549   3.655
 3617TIP3    H210858   5.236   5.436   3.571
 3618TIP3   OH210859   1.263   0.520   0.892
 3618TIP3    H110860   1.206   0.596   0.886
 3618TIP3    H210861   1.344   0.553   0.930
 3619TIP3   OH210862   6.234   4.049   2.019
 3619TIP3    H110863   6.291   4.041   1.943
 3619TIP3    H210864   6.293   4.044   2.094
 3620TIP3   OH210865   4.189   2.232   2.811
 3620TIP3    H110866   4.252   2.216   2.741
 3620TIP3    H210867   4.108   2.191   2.781
 3621TIP3   OH210868   3.138   4.613   0.984
 3621TIP3    H110869   3.067   4.599   1.047
 3621TIP3    H210870   3.107   4.571   0.904
 3622TIP3   OH210871   2.990   4.452   1.620
 3622TIP3    H110872   3.010   4.457   1.526
 3622TIP3    H210873   3.074   4.433   1.662
 3623TIP3   OH210874   5.122   0.259   4.705
 3623TIP3    H110875   5.118   0.355   4.707
 3623TIP3    H210876   5.041   0.233   4.660
 3624TIP3   OH210877   4.003   0.113   1.855
 3624TIP3    H110878   4.085   0.064   1.851
 3624TIP3    H210879   3.937   0.046   1.876
 3625TIP3   OH210880   6.139   5.598   1.457
 3625TIP3    H110881   6.063   5.656   1.455
 3625TIP3    H210882   6.175   5.603   1.368
 3626TIP3   OH210883   4.030   0.995   0.090
 3626TIP3    H110884   3.977   1.070   0.115
 3626TIP3    H210885   3.967   0.925   0.073
 3627TIP3   OH210886   3.467   1.329   3.236
 3627TIP3    H110887   3.506   1.297   3.317
 3627TIP3    H210888   3.436   1.250   3.192
 3628TIP3   OH210889   3.565   0.702   0.969
 3628TIP3    H110890   3.503   0.643   0.927
 3628TIP3    H210891   3.596   0.758   0.899
 3629TIP3   OH210892   1.095   0.019   0.521
 3629TIP3    H110893   1.088  -0.001   0.428
 3629TIP3    H210894   1.183   0.054   0.532
 3630TIP3   OH210895   6.119   5.351   3.321
 3630TIP3    H110896   6.159   5.361   3.408
 3630TIP3    H210897   6.094   5.440   3.296
 3631TIP3   OH210898   1.336   2.232   2.196
 3631TIP3    H110899   1.294   2.270   2.119
 3631TIP3    H210900   1.386   2.305   2.234
 3632TIP3   OH210901   1.749   2.576   0.935
 3632TIP3    H110902   1.712   2.646   0.882
 3632TIP3    H210903   1.827   2.615   0.974
 3633TIP3   OH210904   3.306   5.804   1.954
 3633TIP3    H110905   3.231   5.781   2.009
 3633TIP3    H210906   3.368   5.846   2.014
 3634TIP3   OH210907   4.917   0.517   0.921
 3634TIP3    H110908   4.874   0.466   0.853
 3634TIP3    H210909   4.992   0.557   0.878
 3635TIP3   OH210910   6.000   1.503   3.010
 3635TIP3    H110911   6.056   1.460   2.945
 3635TIP3    H210912   6.043   1.488   3.094
 3636TIP3   OH210913   2.929   2.200   3.210
 3636TIP3    H110914   3.004   2.190   3.269
 3636TIP3    H210915   2.962   2.256   3.139
 3637TIP3   OH210916   1.627   1.782   3.284
 3637TIP3    H110917   1.601   1.758   3.373
 3637TIP3    H210918   1.722   1.774   3.284
 3638TIP3   OH210919   1.020   5.502   3.003
 3638TIP3    H110920   1.107   5.464   2.987
 3638TIP3    H210921   1.001   5.552   2.924
 3639TIP3   OH210922   3.533   5.240   3.361
 3639TIP3    H110923   3.515   5.295   3.438
 3639TIP3    H210924   3.464   5.173   3.363
 3640TIP3   OH210925  -0.032   0.339   4.299
 3640TIP3    H110926  -0.058   0.410   4.357
 3640TIP3    H210927   0.061   0.355   4.281
 3641TIP3   OH210928   0.587   3.269   2.180
 3641TIP3    H110929   0.558   3.179   2.165
 3641TIP3    H210930   0.682   3.264   2.184
 3642TIP3   OH210931   1.361   4.094   0.032
 3642TIP3    H110932   1.434   4.078  -0.028
 3642TIP3    H210933   1.403   4.115   0.115
 3643TIP3   OH210934   5.440   2.685   1.799
 3643TIP3    H110935   5.492   2.605   1.808
 3643TIP3    H210936   5.493   2.743   1.744
 3644TIP3   OH210937   2.363   2.801   4.700
 3644TIP3    H110938   2.280   2.767   4.736
 3644TIP3    H210939   2.343   2.818   4.608
 3645TIP3   OH210940   0.735   4.042   0.242
 3645TIP3    H110941   0.651   4.003   0.216
 3645TIP3    H210942   0.739   4.029   0.337
 3646TIP3   OH210943   4.501   5.715   4.296
 3646TIP3    H110944   4.450   5.701   4.217
 3646TIP3    H210945   4.436   5.740   4.362
 3647TIP3   OH210946   6.373   1.661   1.581
 3647TIP3    H110947   6.433   1.726   1.545
 3647TIP3    H210948   6.316   1.639   1.508
 3648TIP3   OH210949   2.717   2.870   3.632
 3648TIP3    H110950   2.635   2.833   3.667
 3648TIP3    H210951   2.691   2.911   3.550
 3649TIP3   OH210952   2.766   2.133   4.953
 3649TIP3    H110953   2.775   2.124   4.858
 3649TIP3    H210954   2.677   2.166   4.966
 3650TIP3   OH210955   3.664   4.043   1.002
 3650TIP3    H110956   3.683   3.986   0.928
 3650TIP3    H210957   3.644   3.984   1.074
 3651TIP3   OH210958   1.078   1.456   0.687
 3651TIP3    H110959   1.033   1.533   0.722
 3651TIP3    H210960   1.051   1.385   0.745
 3652TIP3   OH210961   0.331   2.476   3.144
 3652TIP3    H110962   0.391   2.466   3.218
 3652TIP3    H210963   0.342   2.397   3.092
 3653TIP3   OH210964   2.182   0.184  -0.014
 3653TIP3    H110965   2.152   0.222   0.068
 3653TIP3    H210966   2.209   0.095   0.009
 3654TIP3   OH210967   2.254   4.661   3.456
 3654TIP3    H110968   2.179   4.720   3.452
 3654TIP3    H210969   2.273   4.652   3.549
 3655TIP3   OH210970   1.104   3.888   0.553
 3655TIP3    H110971   1.017   3.924   0.572
 3655TIP3    H210972   1.135   3.938   0.478
 3656TIP3   OH210973   2.014   0.499   1.269
 3656TIP3    H110974   1.987   0.565   1.334
 3656TIP3    H210975   1.936   0.446   1.255
 3657TIP3   OH210976   4.476   2.303   4.141
 3657TIP3    H110977   4.411   2.233   4.137
 3657TIP3    H210978   4.431   2.380   4.108
 3658TIP3   OH210979   6.008   0.228   1.492
 3658TIP3    H110980   6.042   0.140   1.507
 3658TIP3    H210981   6.068   0.266   1.427
 3659TIP3   OH210982   3.692   5.281   2.750
 3659TIP3    H110983   3.597   5.283   2.755
 3659TIP3    H210984   3.714   5.188   2.742
 3660TIP3   OH210985   0.181   1.498   0.897
 3660TIP3    H110986   0.202   1.409   0.926
 3660TIP3    H210987   0.111   1.526   0.957
 3661TIP3   OH210988   2.468   1.244   0.537
 3661TIP3    H110989   2.549   1.202   0.567
 3661TIP3    H210990   2.467   1.230   0.443
 3662TIP3   OH210991   5.908   1.593   4.035
 3662TIP3    H110992   5.941   1.648   3.964
 3662TIP3    H210993   5.828   1.636   4.063
 3663TIP3   OH210994   3.336   0.390   4.992
 3663TIP3    H110995   3.287   0.309   4.974
 3663TIP3    H210996   3.270   0.453   5.018
 3664TIP3   OH210997   4.170   3.954   4.257
 3664TIP3    H110998   4.175   4.046   4.283
 3664TIP3    H210999   4.165   3.956   4.162
 3665TIP3   OH211000   4.313   1.380   2.001
 3665TIP3    H111001   4.292   1.300   1.953
 3665TIP3    H211002   4.265   1.371   2.084
 3666TIP3   OH211003   0.904   3.697   4.712
 3666TIP3    H111004   0.879   3.605   4.701
 3666TIP3    H211005   0.970   3.712   4.644
 3667TIP3   OH211006   2.573   3.931   3.974
 3667TIP3    H111007   2.643   3.953   3.912
 3667TIP3    H211008   2.533   3.852   3.937
 3668TIP3   OH211009   0.230   1.155   2.274
 3668TIP3    H111010   0.212   1.111   2.191
 3668TIP3    H211011   0.316   1.196   2.261
 3669TIP3   OH211012   2.104   4.245   0.001
 3669TIP3    H111013   2.141   4.238  -0.087
 3669TIP3    H211014   2.072   4.157   0.020
 3670TIP3   OH211015   4.976   2.315   3.556
 3670TIP3    H111016   4.966   2.329   3.461
 3670TIP3    H211017   5.052   2.369   3.579
 3671TIP3   OH211018   5.414   0.827   2.698
 3671TIP3    H111019   5.488   0.781   2.658
 3671TIP3    H211020   5.446   0.851   2.785
 3672TIP3   OH211021   1.651   3.394   0.053
 3672TIP3    H111022   1.618   3.484   0.058
 3672TIP3    H211023   1.574   3.341   0.032
 3673TIP3   OH211024   3.191   0.066   0.023
 3673TIP3    H111025   3.190  -0.028   0.008
 3673TIP3    H211026   3.120   0.081   0.085
 3674TIP3   OH211027   4.490   0.254   2.533
 3674TIP3    H111028   4.567   0.215   2.492
 3674TIP3    H211029   4.425   0.256   2.464
 3675TIP3   OH211030   3.726   0.187   0.922
 3675TIP3    H111031   3.666   0.235   0.864
 3675TIP3    H211032   3.684   0.102   0.936
 3676TIP3   OH211033   5.274   3.613   2.565
 3676TIP3    H111034   5.285   3.682   2.631
 3676TIP3    H211035   5.316   3.648   2.487
 3677TIP3   OH211036   4.703   3.684   1.192
 3677TIP3    H111037   4.730   3.771   1.221
 3677TIP3    H211038   4.682   3.637   1.273
 3678TIP3   OH211039   5.850   5.098   2.345
 3678TIP3    H111040   5.943   5.077   2.339
 3678TIP3    H211041   5.842   5.151   2.424
 3679TIP3   OH211042   4.574   1.710   1.668
 3679TIP3    H111043   4.578   1.803   1.646
 3679TIP3    H211044   4.565   1.665   1.583
 3680TIP3   OH211045   0.481   0.763   4.590
 3680TIP3    H111046   0.436   0.680   4.575
 3680TIP3    H211047   0.481   0.774   4.685
 3681TIP3   OH211048   1.646   5.976   4.848
 3681TIP3    H111049   1.625   6.056   4.896
 3681TIP3    H211050   1.569   5.959   4.794
 3682TIP3   OH211051   5.823   0.695   2.690
 3682TIP3    H111052   5.770   0.732   2.619
 3682TIP3    H211053   5.876   0.768   2.721
 3683TIP3   OH211054   0.290   5.031   2.130
 3683TIP3    H111055   0.349   5.106   2.137
 3683TIP3    H211056   0.343   4.962   2.091
 3684TIP3   OH211057   1.472   0.451   2.140
 3684TIP3    H111058   1.535   0.521   2.154
 3684TIP3    H211059   1.403   0.467   2.205
 3685TIP3   OH211060   5.397   3.516   1.012
 3685TIP3    H111061   5.325   3.534   1.072
 3685TIP3    H211062   5.418   3.601   0.973
 3686TIP3   OH211063   3.457   5.036   1.301
 3686TIP3    H111064   3.410   5.007   1.379
 3686TIP3    H211065   3.541   5.068   1.334
 3687TIP3   OH211066   0.726   4.437   2.651
 3687TIP3    H111067   0.765   4.516   2.614
 3687TIP3    H211068   0.634   4.441   2.624
 3688TIP3   OH211069   4.608   5.049   4.597
 3688TIP3    H111070   4.551   5.071   4.524
 3688TIP3    H211071   4.638   4.960   4.578
 3689TIP3   OH211072   6.355   3.189   2.566
 3689TIP3    H111073   6.379   3.280   2.576
 3689TIP3    H211074   6.259   3.188   2.577
 3690TIP3   OH211075   3.844   1.313   2.346
 3690TIP3    H111076   3.897   1.388   2.376
 3690TIP3    H211077   3.755   1.336   2.371
 3691TIP3   OH211078   5.384   2.926   2.553
 3691TIP3    H111079   5.453   2.977   2.509
 3691TIP3    H211080   5.426   2.894   2.633
 3692TIP3   OH211081   5.875   1.912   1.952
 3692TIP3    H111082   5.834   1.996   1.974
 3692TIP3    H211083   5.862   1.903   1.858
 3693TIP3   OH211084   4.531   0.566   0.614
 3693TIP3    H111085   4.547   0.582   0.521
 3693TIP3    H211086   4.437   0.549   0.620
 3694TIP3   OH211087   5.100   4.497   4.514
 3694TIP3    H111088   5.086   4.553   4.438
 3694TIP3    H211089   5.068   4.411   4.487
 3695TIP3   OH211090   1.774   1.771   4.345
 3695TIP3    H111091   1.703   1.709   4.325
 3695TIP3    H211092   1.782   1.824   4.266
 3696TIP3   OH211093   2.103   5.014   3.633
 3696TIP3    H111094   2.166   4.984   3.698
 3696TIP3    H211095   2.051   4.936   3.612
 3697TIP3   OH211096   3.344   3.963   2.440
 3697TIP3    H111097   3.361   4.004   2.356
 3697TIP3    H211098   3.341   3.869   2.421
 3698TIP3   OH211099   3.128   5.900   0.740
 3698TIP3    H111100   3.169   5.940   0.663
 3698TIP3    H211101   3.201   5.866   0.792
 3699TIP3   OH211102   3.805   1.909   3.156
 3699TIP3    H111103   3.767   1.875   3.237
 3699TIP3    H211104   3.764   1.995   3.144
 3700TIP3   OH211105   5.425   4.939   4.363
 3700TIP3    H111106   5.447   4.846   4.370
 3700TIP3    H211107   5.455   4.964   4.275
 3701TIP3   OH211108   0.777   4.473   1.620
 3701TIP3    H111109   0.858   4.504   1.581
 3701TIP3    H211110   0.759   4.535   1.691
 3702TIP3   OH211111   6.214   3.178   2.010
 3702TIP3    H111112   6.176   3.148   1.928
 3702TIP3    H211113   6.181   3.117   2.076
 3703TIP3   OH211114   0.496   4.307   3.058
 3703TIP3    H111115   0.533   4.241   3.116
 3703TIP3    H211116   0.487   4.263   2.974
 3704TIP3   OH211117   5.841   2.565   0.586
 3704TIP3    H111118   5.807   2.588   0.500
 3704TIP3    H211119   5.768   2.581   0.646
 3705TIP3   OH211120   3.295   2.659   3.767
 3705TIP3    H111121   3.224   2.648   3.703
 3705TIP3    H211122   3.375   2.651   3.715
 3706TIP3   OH211123   5.636   1.152   2.560
 3706TIP3    H111124   5.693   1.082   2.528
 3706TIP3    H211125   5.694   1.210   2.608
 3707TIP3   OH211126   5.208   4.777   3.857
 3707TIP3    H111127   5.272   4.786   3.928
 3707TIP3    H211128   5.184   4.867   3.835
 3708TIP3   OH211129   4.544   3.020   4.251
 3708TIP3    H111130   4.594   2.938   4.252
 3708TIP3    H211131   4.589   3.074   4.187
 3709TIP3   OH211132   4.052   5.137   4.318
 3709TIP3    H111133   3.963   5.168   4.301
 3709TIP3    H211134   4.050   5.103   4.407
 3710TIP3   OH211135   4.223   5.156   3.242
 3710TIP3    H111136   4.173   5.112   3.173
 3710TIP3    H211137   4.175   5.136   3.322
 3711TIP3   OH211138   2.560   2.242   1.170
 3711TIP3    H111139   2.498   2.307   1.203
 3711TIP3    H211140   2.506   2.170   1.139
 3712TIP3   OH211141   3.144   3.783   3.448
 3712TIP3    H111142   3.144   3.823   3.361
 3712TIP3    H211143   3.115   3.693   3.433
 3713TIP3   OH211144   4.753   5.969   1.068
 3713TIP3    H111145   4.801   5.888   1.052
 3713TIP3    H211146   4.796   6.007   1.145
 3714TIP3   OH211147   1.952   4.687   3.758
 3714TIP3    H111148   1.912   4.773   3.771
 3714TIP3    H211149   2.045   4.701   3.779
 3715TIP3   OH211150   0.840   2.372   2.982
 3715TIP3    H111151   0.934   2.391   2.981
 3715TIP3    H211152   0.814   2.382   3.074
 3716TIP3   OH211153   5.500   4.134   4.930
 3716TIP3    H111154   5.497   4.230   4.931
 3716TIP3    H211155   5.422   4.108   4.979
 3717TIP3   OH211156   2.100   1.394  -0.056
 3717TIP3    H111157   2.143   1.344   0.013
 3717TIP3    H211158   2.008   1.399  -0.028
 3718TIP3   OH211159   2.298   5.049   5.017
 3718TIP3    H111160   2.251   4.969   4.991
 3718TIP3    H211161   2.257   5.118   4.965
 3719TIP3   OH211162   6.180   1.861   1.259
 3719TIP3    H111163   6.224   1.927   1.206
 3719TIP3    H211164   6.196   1.889   1.350
 3720TIP3   OH211165   3.394   3.549   4.006
 3720TIP3    H111166   3.337   3.620   3.975
 3720TIP3    H211167   3.425   3.506   3.927
 3721TIP3   OH211168   1.765   1.195   3.922
 3721TIP3    H111169   1.703   1.268   3.931
 3721TIP3    H211170   1.829   1.210   3.991
 3722TIP3   OH211171   0.499   2.463   3.414
 3722TIP3    H111172   0.407   2.435   3.415
 3722TIP3    H211173   0.535   2.430   3.497
 3723TIP3   OH211174   1.976   2.022   1.906
 3723TIP3    H111175   2.062   2.065   1.913
 3723TIP3    H211176   1.941   2.024   1.994
 3724TIP3   OH211177   3.338   4.733   0.153
 3724TIP3    H111178   3.306   4.670   0.217
 3724TIP3    H211179   3.263   4.749   0.096
 3725TIP3   OH211180   2.509   5.701   4.268
 3725TIP3    H111181   2.432   5.645   4.260
 3725TIP3    H211182   2.567   5.673   4.197
 3726TIP3   OH211183   5.426   4.981   0.867
 3726TIP3    H111184   5.335   5.005   0.852
 3726TIP3    H211185   5.452   5.034   0.943
 3727TIP3   OH211186   3.319   0.324   0.924
 3727TIP3    H111187   3.364   0.253   0.878
 3727TIP3    H211188   3.246   0.281   0.969
 3728TIP3   OH211189   5.021   5.223   0.104
 3728TIP3    H111190   5.065   5.184   0.028
 3728TIP3    H211191   5.093   5.245   0.164
 3729TIP3   OH211192   6.173   4.277   0.957
 3729TIP3    H111193   6.209   4.275   1.046
 3729TIP3    H211194   6.079   4.289   0.970
 3730TIP3   OH211195   2.558   0.215   0.255
 3730TIP3    H111196   2.609   0.141   0.221
 3730TIP3    H211197   2.619   0.288   0.256
 3731TIP3   OH211198   4.342   5.639   4.091
 3731TIP3    H111199   4.333   5.698   4.016
 3731TIP3    H211200   4.252   5.619   4.116
 3732TIP3   OH211201   5.505   2.330   4.916
 3732TIP3    H111202   5.474   2.410   4.873
 3732TIP3    H211203   5.433   2.304   4.974
 3733TIP3   OH211204   1.681   1.653   2.191
 3733TIP3    H111205   1.664   1.647   2.285
 3733TIP3    H211206   1.686   1.562   2.162
 3734TIP3   OH211207   6.085   5.614   2.623
 3734TIP3    H111208   5.999   5.654   2.611
 3734TIP3    H211209   6.087   5.543   2.559
 3735TIP3   OH211210   4.556   0.123   0.077
 3735TIP3    H111211   4.525   0.065   0.007
 3735TIP3    H211212   4.549   0.211   0.041
 3736TIP3   OH211213   3.643   3.574   1.764
 3736TIP3    H111214   3.594   3.498   1.732
 3736TIP3    H211215   3.654   3.629   1.687
 3737TIP3   OH211216   2.996   0.321   4.732
 3737TIP3    H111217   2.974   0.414   4.739
 3737TIP3    H211218   3.036   0.314   4.645
 3738TIP3   OH211219   4.782   1.087   1.757
 3738TIP3    H111220   4.850   1.019   1.752
 3738TIP3    H211221   4.799   1.130   1.840
 3739TIP3   OH211222   2.127   3.214   3.015
 3739TIP3    H111223   2.181   3.161   2.957
 3739TIP3    H211224   2.045   3.166   3.025
 3740TIP3   OH211225   4.333   1.513   2.889
 3740TIP3    H111226   4.244   1.523   2.854
 3740TIP3    H211227   4.387   1.570   2.833
 3741TIP3   OH211228   0.290   0.537   3.873
 3741TIP3    H111229   0.201   0.540   3.908
 3741TIP3    H211230   0.284   0.481   3.796
 3742TIP3   OH211231   6.087   4.110   0.750
 3742TIP3    H111232   6.179   4.087   0.740
 3742TIP3    H211233   6.086   4.176   0.819
 3743TIP3   OH211234   0.384   4.388   4.958
 3743TIP3    H111235   0.374   4.293   4.958
 3743TIP3    H211236   0.325   4.419   5.027
 3744TIP3   OH211237   4.281   3.474   1.335
 3744TIP3    H111238   4.266   3.422   1.256
 3744TIP3    H211239   4.363   3.519   1.318
 3745TIP3   OH211240   2.645   2.938   3.369
 3745TIP3    H111241   2.605   3.023   3.354
 3745TIP3    H211242   2.732   2.945   3.329
 3746TIP3   OH211243   3.024   1.305   0.388
 3746TIP3    H111244   3.075   1.290   0.468
 3746TIP3    H211245   2.996   1.218   0.360
 3747TIP3   OH211246   2.998   0.776   2.234
 3747TIP3    H111247   3.026   0.867   2.230
 3747TIP3    H211248   3.013   0.742   2.146
 3748TIP3   OH211249   0.979   0.667   3.906
 3748TIP3    H111250   1.033   0.746   3.917
 3748TIP3    H211251   0.935   0.657   3.991
 3749TIP3   OH211252   6.302   2.956   0.408
 3749TIP3    H111253   6.280   3.022   0.342
 3749TIP3    H211254   6.280   2.998   0.491
 3750TIP3   OH211255   1.644   0.693   0.816
 3750TIP3    H111256   1.571   0.747   0.846
 3750TIP3    H211257   1.675   0.735   0.736
 3751TIP3   OH211258   6.138   5.192   2.578
 3751TIP3    H111259   6.121   5.243   2.657
 3751TIP3    H211260   6.137   5.256   2.508
 3752TIP3   OH211261   1.952   5.006   2.770
 3752TIP3    H111262   2.024   5.063   2.797
 3752TIP3    H211263   1.996   4.933   2.724
 3753TIP3   OH211264   5.969   5.692   2.242
 3753TIP3    H111265   6.010   5.606   2.234
 3753TIP3    H211266   5.920   5.703   2.160
 3754TIP3   OH211267   4.973   2.450   1.588
 3754TIP3    H111268   4.982   2.356   1.569
 3754TIP3    H211269   5.051   2.472   1.638
 3755TIP3   OH211270   3.228   2.345   3.516
 3755TIP3    H111271   3.276   2.427   3.518
 3755TIP3    H211272   3.265   2.294   3.588
 3756TIP3   OH211273   6.119   5.108   1.991
 3756TIP3    H111274   6.088   5.155   1.913
 3756TIP3    H211275   6.213   5.127   1.995
 3757TIP3   OH211276   3.782   3.232   0.278
 3757TIP3    H111277   3.800   3.326   0.278
 3757TIP3    H211278   3.722   3.219   0.351
 3758TIP3   OH211279   4.978   4.371   1.912
 3758TIP3    H111280   4.977   4.305   1.982
 3758TIP3    H211281   5.021   4.447   1.950
 3759TIP3   OH211282   2.281   1.953   0.392
 3759TIP3    H111283   2.351   2.008   0.428
 3759TIP3    H211284   2.205   2.011   0.388
 3760TIP3   OH211285   5.405   2.200   2.427
 3760TIP3    H111286   5.494   2.195   2.460
 3760TIP3    H211287   5.368   2.113   2.444
 3761TIP3   OH211288   2.399   1.350   1.386
 3761TIP3    H111289   2.418   1.271   1.437
 3761TIP3    H211290   2.305   1.345   1.369
 3762TIP3   OH211291   2.839   5.886   1.521
 3762TIP3    H111292   2.872   5.955   1.463
 3762TIP3    H211293   2.918   5.838   1.548
 3763TIP3   OH211294   1.095   5.098   2.423
 3763TIP3    H111295   1.031   5.116   2.353
 3763TIP3    H211296   1.179   5.120   2.384
 3764TIP3   OH211297   1.801   0.536   3.553
 3764TIP3    H111298   1.809   0.558   3.646
 3764TIP3    H211299   1.852   0.456   3.543
 3765TIP3   OH211300   0.649   0.345   3.627
 3765TIP3    H111301   0.579   0.311   3.682
 3765TIP3    H211302   0.722   0.359   3.687
 3766TIP3   OH211303   4.692   3.811   3.980
 3766TIP3    H111304   4.598   3.808   4.001
 3766TIP3    H211305   4.716   3.720   3.964
 3767TIP3   OH211306   4.639   2.280   1.906
 3767TIP3    H111307   4.631   2.188   1.929
 3767TIP3    H211308   4.732   2.292   1.888
 3768TIP3   OH211309   3.673   1.230   0.549
 3768TIP3    H111310   3.697   1.138   0.556
 3768TIP3    H211311   3.711   1.259   0.467
 3769TIP3   OH211312   5.037   5.701  -0.013
 3769TIP3    H111313   5.098   5.704   0.060
 3769TIP3    H211314   5.001   5.612  -0.012
 3770TIP3   OH211315   5.246   5.967   0.926
 3770TIP3    H111316   5.198   5.942   1.005
 3770TIP3    H211317   5.335   5.985   0.956
 3771TIP3   OH211318   4.153   0.730   0.378
 3771TIP3    H111319   4.184   0.789   0.309
 3771TIP3    H211320   4.077   0.686   0.340
 3772TIP3   OH211321   5.897   5.780   1.489
 3772TIP3    H111322   5.818   5.754   1.537
 3772TIP3    H211323   5.928   5.858   1.534
 3773TIP3   OH211324   3.113   1.402   5.167
 3773TIP3    H111325   3.166   1.429   5.242
 3773TIP3    H211326   3.051   1.475   5.155
 3774TIP3   OH211327   5.080   2.428   3.268
 3774TIP3    H111328   5.104   2.502   3.324
 3774TIP3    H211329   5.161   2.403   3.225
 3775TIP3   OH211330   3.383   2.059   4.965
 3775TIP3    H111331   3.358   2.027   4.878
 3775TIP3    H211332   3.367   2.153   4.962
 3776TIP3   OH211333   0.192   2.950   3.560
 3776TIP3    H111334   0.233   3.024   3.515
 3776TIP3    H211335   0.162   2.892   3.490
 3777TIP3   OH211336   1.465   3.837   3.124
 3777TIP3    H111337   1.474   3.762   3.065
 3777TIP3    H211338   1.468   3.798   3.212
 3778TIP3   OH211339   4.448   1.248   1.218
 3778TIP3    H111340   4.492   1.217   1.138
 3778TIP3    H211341   4.358   1.218   1.209
 3779TIP3   OH211342   2.512   1.806   0.109
 3779TIP3    H111343   2.435   1.863   0.096
 3779TIP3    H211344   2.518   1.797   0.205
 3780TIP3   OH211345   1.384   2.198   4.014
 3780TIP3    H111346   1.334   2.187   3.934
 3780TIP3    H211347   1.337   2.265   4.063
 3781TIP3   OH211348   4.354   3.270   4.296
 3781TIP3    H111349   4.346   3.248   4.389
 3781TIP3    H211350   4.382   3.188   4.254
 3782TIP3   OH211351   5.365   4.184   2.516
 3782TIP3    H111352   5.327   4.267   2.488
 3782TIP3    H211353   5.382   4.195   2.610
 3783TIP3   OH211354   2.246   5.737   0.604
 3783TIP3    H111355   2.259   5.663   0.545
 3783TIP3    H211356   2.239   5.698   0.691
 3784TIP3   OH211357   1.443   0.477   4.081
 3784TIP3    H111358   1.407   0.506   3.996
 3784TIP3    H211359   1.474   0.558   4.122
 3785TIP3   OH211360   4.310   1.794   1.489
 3785TIP3    H111361   4.400   1.781   1.458
 3785TIP3    H211362   4.272   1.706   1.490
 3786TIP3   OH211363   6.118   5.810   0.157
 3786TIP3    H111364   6.158   5.889   0.190
 3786TIP3    H211365   6.082   5.766   0.234
 3787TIP3   OH211366   6.148   3.753   4.013
 3787TIP3    H111367   6.155   3.819   3.945
 3787TIP3    H211368   6.074   3.781   4.067
 3788TIP3   OH211369   5.282   0.327   4.242
 3788TIP3    H111370   5.282   0.267   4.316
 3788TIP3    H211371   5.220   0.396   4.267
 3789TIP3   OH211372   1.785   1.485   3.336
 3789TIP3    H111373   1.723   1.412   3.333
 3789TIP3    H211374   1.782   1.523   3.249
 3790TIP3   OH211375   5.641   4.856   3.707
 3790TIP3    H111376   5.683   4.940   3.689
 3790TIP3    H211377   5.558   4.860   3.659
 3791TIP3   OH211378   3.855   5.386   5.171
 3791TIP3    H111379   3.873   5.354   5.082
 3791TIP3    H211380   3.760   5.385   5.177
 3792TIP3   OH211381   5.052   5.848   4.305
 3792TIP3    H111382   4.999   5.906   4.250
 3792TIP3    H211383   5.096   5.908   4.367
 3793TIP3   OH211384   5.133   2.036   1.003
 3793TIP3    H111385   5.108   2.118   1.047
 3793TIP3    H211386   5.155   2.063   0.914
 3794TIP3   OH211387   3.715   1.208   4.446
 3794TIP3    H111388   3.662   1.205   4.526
 3794TIP3    H211389   3.800   1.243   4.476
 3795TIP3   OH211390   3.946   5.529   0.858
 3795TIP3    H111391   3.934   5.457   0.796
 3795TIP3    H211392   4.037   5.524   0.885
 3796TIP3   OH211393   2.620   3.053   4.178
 3796TIP3    H111394   2.563   3.077   4.105
 3796TIP3    H211395   2.690   3.118   4.177
 3797TIP3   OH211396   5.865   0.115   0.246
 3797TIP3    H111397   5.844   0.022   0.237
 3797TIP3    H211398   5.944   0.127   0.194
 3798TIP3   OH211399   2.180   3.442   1.672
 3798TIP3    H111400   2.114   3.455   1.740
 3798TIP3    H211401   2.167   3.352   1.644
 3799TIP3   OH211402   5.480   0.873   3.461
 3799TIP3    H111403   5.413   0.894   3.396
 3799TIP3    H211404   5.466   0.937   3.531
 3800TIP3   OH211405   1.506   5.430   0.206
 3800TIP3    H111406   1.560   5.460   0.133
 3800TIP3    H211407   1.567   5.425   0.280
 3801TIP3   OH211408   5.583   3.768   0.460
 3801TIP3    H111409   5.605   3.855   0.494
 3801TIP3    H211410   5.667   3.731   0.433
 3802TIP3   OH211411   1.294   3.128   0.530
 3802TIP3    H111412   1.264   3.056   0.473
 3802TIP3    H211413   1.326   3.195   0.470
 3803TIP3   OH211414   4.475   0.915   3.641
 3803TIP3    H111415   4.560   0.891   3.678
 3803TIP3    H211416   4.414   0.910   3.715
 3804TIP3   OH211417   4.000   1.615   2.127
 3804TIP3    H111418   4.054   1.661   2.192
 3804TIP3    H211419   4.008   1.668   2.048
 3805TIP3   OH211420   3.461   0.399   4.157
 3805TIP3    H111421   3.427   0.488   4.163
 3805TIP3    H211422   3.547   0.409   4.116
 3806TIP3   OH211423   2.290   1.765   2.151
 3806TIP3    H111424   2.267   1.792   2.062
 3806TIP3    H211425   2.300   1.670   2.145
 3807TIP3   OH211426   3.845   5.097   3.894
 3807TIP3    H111427   3.890   5.060   3.818
 3807TIP3    H211428   3.806   5.021   3.938
 3808TIP3   OH211429   5.665   4.361   2.513
 3808TIP3    H111430   5.623   4.375   2.599
 3808TIP3    H211431   5.691   4.448   2.485
 3809TIP3   OH211432   3.206   4.086   4.973
 3809TIP3    H111433   3.213   4.167   4.922
 3809TIP3    H211434   3.152   4.110   5.049
 3810TIP3   OH211435   3.205   4.728   2.366
 3810TIP3    H111436   3.161   4.812   2.350
 3810TIP3    H211437   3.298   4.750   2.364
 3811TIP3   OH211438   3.355   4.966   1.040
 3811TIP3    H111439   3.265   4.949   1.068
 3811TIP3    H211440   3.401   4.988   1.121
 3812TIP3   OH211441   3.407   0.308   2.219
 3812TIP3    H111442   3.319   0.325   2.185
 3812TIP3    H211443   3.462   0.374   2.178
 3813TIP3   OH211444   1.252   4.125   0.967
 3813TIP3    H111445   1.208   4.041   0.980
 3813TIP3    H211446   1.344   4.106   0.984
 3814TIP3   OH211447   1.533   2.728   0.042
 3814TIP3    H111448   1.565   2.781   0.115
 3814TIP3    H211449   1.518   2.642   0.080
 3815TIP3   OH211450   0.514   0.908   0.968
 3815TIP3    H111451   0.577   0.836   0.956
 3815TIP3    H211452   0.490   0.903   1.060
 3816TIP3   OH211453   2.746   1.647   3.489
 3816TIP3    H111454   2.817   1.634   3.426
 3816TIP3    H211455   2.679   1.695   3.440
 3817TIP3   OH211456   5.538   3.152   0.191
 3817TIP3    H111457   5.526   3.057   0.194
 3817TIP3    H211458   5.465   3.184   0.138
 3818TIP3   OH211459   0.766   3.071   4.406
 3818TIP3    H111460   0.776   2.983   4.370
 3818TIP3    H211461   0.675   3.074   4.436
 3819TIP3   OH211462   0.607   5.732   4.421
 3819TIP3    H111463   0.599   5.786   4.343
 3819TIP3    H211464   0.588   5.643   4.391
 3820TIP3   OH211465   4.117   1.379   4.406
 3820TIP3    H111466   4.176   1.447   4.373
 3820TIP3    H211467   4.110   1.397   4.500
 3821TIP3   OH211468   3.679   3.783   1.328
 3821TIP3    H111469   3.606   3.785   1.267
 3821TIP3    H211470   3.757   3.790   1.273
 3822TIP3   OH211471   5.617   3.131   0.702
 3822TIP3    H111472   5.681   3.189   0.662
 3822TIP3    H211473   5.542   3.134   0.643
 3823TIP3   OH211474   0.498   2.252   3.148
 3823TIP3    H111475   0.562   2.239   3.219
 3823TIP3    H211476   0.432   2.186   3.164
 3824TIP3   OH211477   1.407   4.560   1.603
 3824TIP3    H111478   1.498   4.548   1.577
 3824TIP3    H211479   1.358   4.556   1.521
 3825TIP3   OH211480   3.570   3.895   2.248
 3825TIP3    H111481   3.657   3.867   2.220
 3825TIP3    H211482   3.582   3.986   2.276
 3826TIP3   OH211483   4.569   1.864   4.897
 3826TIP3    H111484   4.599   1.884   4.808
 3826TIP3    H211485   4.622   1.919   4.954
 3827TIP3   OH211486   1.906   2.538   1.370
 3827TIP3    H111487   1.868   2.615   1.412
 3827TIP3    H211488   1.842   2.513   1.303
 3828TIP3   OH211489   5.848   3.589   3.441
 3828TIP3    H111490   5.886   3.666   3.483
 3828TIP3    H211491   5.892   3.584   3.356
 3829TIP3   OH211492   3.222   4.955   2.584
 3829TIP3    H111493   3.171   4.919   2.657
 3829TIP3    H211494   3.306   4.910   2.590
 3830TIP3   OH211495   5.863   4.675   0.093
 3830TIP3    H111496   5.844   4.761   0.130
 3830TIP3    H211497   5.910   4.628   0.163
 3831TIP3   OH211498   2.734   4.776   3.427
 3831TIP3    H111499   2.659   4.752   3.374
 3831TIP3    H211500   2.727   4.871   3.438
 3832TIP3   OH211501   1.654   4.597   1.224
 3832TIP3    H111502   1.665   4.688   1.251
 3832TIP3    H211503   1.565   4.593   1.189
 3833TIP3   OH211504   5.529   0.605   0.064
 3833TIP3    H111505   5.615   0.596   0.103
 3833TIP3    H211506   5.541   0.667  -0.008
 3834TIP3   OH211507   4.771   3.049   3.998
 3834TIP3    H111508   4.709   2.995   3.949
 3834TIP3    H211509   4.734   3.137   3.995
 3835TIP3   OH211510   5.471   3.916   3.782
 3835TIP3    H111511   5.413   3.991   3.768
 3835TIP3    H211512   5.559   3.953   3.774
 3836TIP3   OH211513   5.356   0.610   3.907
 3836TIP3    H111514   5.372   0.660   3.827
 3836TIP3    H211515   5.437   0.621   3.958
 3837TIP3   OH211516   0.574   3.037   3.644
 3837TIP3    H111517   0.541   3.086   3.568
 3837TIP3    H211518   0.514   2.963   3.653
 3838TIP3   OH211519   4.119   3.384   0.048
 3838TIP3    H111520   4.073   3.423  -0.026
 3838TIP3    H211521   4.077   3.299   0.060
 3839TIP3   OH211522   1.664   3.606   5.133
 3839TIP3    H111523   1.731   3.628   5.068
 3839TIP3    H211524   1.676   3.671   5.202
 3840TIP3   OH211525   2.315   3.430   4.167
 3840TIP3    H111526   2.224   3.421   4.197
 3840TIP3    H211527   2.357   3.482   4.235
 3841TIP3   OH211528   0.394   4.998   0.455
 3841TIP3    H111529   0.342   4.937   0.507
 3841TIP3    H211530   0.345   5.080   0.458
 3842TIP3   OH211531   2.952   2.571   0.814
 3842TIP3    H111532   2.879   2.559   0.875
 3842TIP3    H211533   2.913   2.566   0.727
 3843TIP3   OH211534   4.486   2.070   0.631
 3843TIP3    H111535   4.390   2.075   0.628
 3843TIP3    H211536   4.516   2.150   0.588
 3844TIP3   OH211537   1.049   3.153   2.381
 3844TIP3    H111538   0.976   3.157   2.319
 3844TIP3    H211539   1.119   3.202   2.338
 3845TIP3   OH211540   4.705   1.705   0.265
 3845TIP3    H111541   4.685   1.795   0.241
 3845TIP3    H211542   4.625   1.673   0.307
 3846TIP3   OH211543   5.784   5.420   4.084
 3846TIP3    H111544   5.841   5.419   4.160
 3846TIP3    H211545   5.830   5.474   4.020
 3847TIP3   OH211546   0.200   2.515   4.277
 3847TIP3    H111547   0.110   2.533   4.249
 3847TIP3    H211548   0.191   2.446   4.343
 3848TIP3   OH211549   1.041   2.578   4.383
 3848TIP3    H111550   1.124   2.532   4.399
 3848TIP3    H211551   1.004   2.535   4.306
 3849TIP3   OH211552   3.413   1.896   0.665
 3849TIP3    H111553   3.328   1.908   0.707
 3849TIP3    H211554   3.477   1.919   0.732
 3850TIP3   OH211555   3.829   3.526   3.348
 3850TIP3    H111556   3.806   3.478   3.268
 3850TIP3    H211557   3.839   3.617   3.320
 3851TIP3   OH211558   1.948   5.340   4.692
 3851TIP3    H111559   1.932   5.390   4.612
 3851TIP3    H211560   1.905   5.391   4.761
 3852TIP3   OH211561   5.400   2.830   1.149
 3852TIP3    H111562   5.491   2.846   1.122
 3852TIP3    H211563   5.407   2.789   1.235
 3853TIP3   OH211564   5.568   3.547   4.574
 3853TIP3    H111565   5.582   3.454   4.560
 3853TIP3    H211566   5.627   3.590   4.513
 3854TIP3   OH211567   5.991   0.449   4.823
 3854TIP3    H111568   5.933   0.521   4.797
 3854TIP3    H211569   6.067   0.492   4.862
 3855TIP3   OH211570   5.501   5.315   4.777
 3855TIP3    H111571   5.540   5.397   4.808
 3855TIP3    H211572   5.436   5.343   4.713
 3856TIP3   OH211573   0.729   1.706   5.092
 3856TIP3    H111574   0.752   1.613   5.092
 3856TIP3    H211575   0.664   1.715   5.162
 3857TIP3   OH211576   3.086   1.439   0.155
 3857TIP3    H111577   3.042   1.415   0.237
 3857TIP3    H211578   3.143   1.364   0.136
 3858TIP3   OH211579   2.682   5.363   0.139
 3858TIP3    H111580   2.705   5.343   0.049
 3858TIP3    H211581   2.679   5.278   0.183
 3859TIP3   OH211582   1.247   4.779   1.632
 3859TIP3    H111583   1.303   4.703   1.652
 3859TIP3    H211584   1.158   4.745   1.637
 3860TIP3   OH211585   4.192   2.182   1.700
 3860TIP3    H111586   4.223   2.272   1.705
 3860TIP3    H211587   4.216   2.143   1.784
 3861TIP3   OH211588   2.485   4.397   3.682
 3861TIP3    H111589   2.558   4.338   3.701
 3861TIP3    H211590   2.511   4.442   3.601
 3862TIP3   OH211591   1.231   5.566   0.051
 3862TIP3    H111592   1.261   5.476   0.067
 3862TIP3    H211593   1.303   5.621   0.081
 3863TIP3   OH211594   1.465   4.809   0.052
 3863TIP3    H111595   1.375   4.806   0.021
 3863TIP3    H211596   1.514   4.850  -0.019
 3864TIP3   OH211597   1.302   3.456   3.936
 3864TIP3    H111598   1.303   3.419   3.848
 3864TIP3    H211599   1.284   3.549   3.922
 3865TIP3   OH211600   1.887   1.814   0.245
 3865TIP3    H111601   1.836   1.739   0.275
 3865TIP3    H211602   1.962   1.775   0.199
 3866TIP3   OH211603   4.680   1.652   3.790
 3866TIP3    H111604   4.742   1.710   3.835
 3866TIP3    H211605   4.597   1.699   3.792
 3867TIP3   OH211606   4.766   2.845   5.140
 3867TIP3    H111607   4.785   2.857   5.047
 3867TIP3    H211608   4.719   2.925   5.165
 3868TIP3   OH211609   1.537   1.035   0.380
 3868TIP3    H111610   1.455   1.061   0.422
 3868TIP3    H211611   1.602   1.097   0.414
 3869TIP3   OH211612   1.857   3.749   3.060
 3869TIP3    H111613   1.933   3.697   3.035
 3869TIP3    H211614   1.825   3.786   2.978
 3870TIP3   OH211615   6.176   3.669   4.461
 3870TIP3    H111616   6.214   3.757   4.456
 3870TIP3    H211617   6.248   3.611   4.435
 3871TIP3   OH211618   2.317   3.848   3.383
 3871TIP3    H111619   2.235   3.828   3.339
 3871TIP3    H211620   2.313   3.942   3.400
 3872TIP3   OH211621   3.114   2.121   3.426
 3872TIP3    H111622   3.163   2.183   3.480
 3872TIP3    H211623   3.178   2.090   3.361
 3873TIP3   OH211624   4.069   2.150   3.602
 3873TIP3    H111625   4.122   2.160   3.681
 3873TIP3    H211626   3.995   2.096   3.628
 3874TIP3   OH211627   4.683   2.533   4.381
 3874TIP3    H111628   4.596   2.503   4.408
 3874TIP3    H211629   4.729   2.452   4.357
 3875TIP3   OH211630   2.218   3.698   0.467
 3875TIP3    H111631   2.222   3.785   0.506
 3875TIP3    H211632   2.125   3.681   0.455
 3876TIP3   OH211633   0.922   4.424   2.138
 3876TIP3    H111634   0.939   4.353   2.077
 3876TIP3    H211635   0.908   4.501   2.083
 3877TIP3   OH211636   3.879   5.399   4.437
 3877TIP3    H111637   3.826   5.339   4.384
 3877TIP3    H211638   3.865   5.485   4.397
 3878TIP3   OH211639   4.983   2.581   1.971
 3878TIP3    H111640   5.048   2.556   2.037
 3878TIP3    H211641   4.903   2.596   2.021
 3879TIP3   OH211642   0.122   0.058   0.877
 3879TIP3    H111643   0.145   0.151   0.872
 3879TIP3    H211644   0.170   0.025   0.953
 3880TIP3   OH211645   4.640   3.406   4.347
 3880TIP3    H111646   4.605   3.372   4.430
 3880TIP3    H211647   4.596   3.490   4.335
 3881TIP3   OH211648   1.827   2.917   1.955
 3881TIP3    H111649   1.861   2.828   1.946
 3881TIP3    H211650   1.787   2.919   2.042
 3882TIP3   OH211651   1.108   0.051   3.149
 3882TIP3    H111652   1.132   0.103   3.073
 3882TIP3    H211653   1.048  -0.015   3.115
 3883TIP3   OH211654   0.092   3.140   1.770
 3883TIP3    H111655   0.147   3.136   1.692
 3883TIP3    H211656   0.088   3.233   1.792
 3884TIP3   OH211657   0.954   2.680   1.652
 3884TIP3    H111658   0.861   2.668   1.632
 3884TIP3    H211659   0.962   2.772   1.674
 3885TIP3   OH211660   0.709   3.848   0.488
 3885TIP3    H111661   0.696   3.760   0.524
 3885TIP3    H211662   0.624   3.871   0.449
 3886TIP3   OH211663   2.450   4.437   2.372
 3886TIP3    H111664   2.417   4.518   2.412
 3886TIP3    H211665   2.431   4.447   2.279
 3887TIP3   OH211666   3.782   4.489   1.063
 3887TIP3    H111667   3.736   4.573   1.065
 3887TIP3    H211668   3.810   4.474   1.153
 3888TIP3   OH211669   3.880   3.990   0.263
 3888TIP3    H111670   3.839   3.963   0.181
 3888TIP3    H211671   3.816   4.047   0.305
 3889TIP3   OH211672   2.186   5.634   4.656
 3889TIP3    H111673   2.246   5.643   4.582
 3889TIP3    H211674   2.238   5.590   4.723
 3890TIP3   OH211675   5.434   5.089   3.016
 3890TIP3    H111676   5.521   5.068   2.982
 3890TIP3    H211677   5.451   5.138   3.096
 3891TIP3   OH211678   4.865   2.224   5.050
 3891TIP3    H111679   4.794   2.284   5.029
 3891TIP3    H211680   4.928   2.235   4.979
 3892TIP3   OH211681   0.052   5.148   5.178
 3892TIP3    H111682  -0.042   5.132   5.186
 3892TIP3    H211683   0.065   5.167   5.085
 3893TIP3   OH211684   0.638   4.129   4.780
 3893TIP3    H111685   0.616   4.169   4.865
 3893TIP3    H211686   0.728   4.157   4.763
 3894TIP3   OH211687   0.396   3.410   2.335
 3894TIP3    H111688   0.476   3.394   2.384
 3894TIP3    H211689   0.426   3.444   2.250
 3895TIP3   OH211690   1.001   1.093   4.212
 3895TIP3    H111691   0.956   1.146   4.146
 3895TIP3    H211692   1.094   1.115   4.202
 3896TIP3   OH211693   2.106   1.611   0.168
 3896TIP3    H111694   2.084   1.620   0.260
 3896TIP3    H211695   2.171   1.540   0.166
 3897TIP3   OH211696   3.489   3.906   3.157
 3897TIP3    H111697   3.459   3.866   3.238
 3897TIP3    H211698   3.462   3.844   3.089
 3898TIP3   OH211699   3.591   0.882   4.800
 3898TIP3    H111700   3.583   0.966   4.755
 3898TIP3    H211701   3.666   0.839   4.759
 3899TIP3   OH211702   2.403   1.190   0.238
 3899TIP3    H111703   2.435   1.100   0.249
 3899TIP3    H211704   2.479   1.238   0.207
 3900TIP3   OH211705   1.720   0.327   1.558
 3900TIP3    H111706   1.781   0.342   1.630
 3900TIP3    H211707   1.651   0.272   1.596
 3901TIP3   OH211708   4.708   2.077   0.767
 3901TIP3    H111709   4.688   2.130   0.844
 3901TIP3    H211710   4.625   2.074   0.718
 3902TIP3   OH211711   3.391   2.212   0.877
 3902TIP3    H111712   3.477   2.187   0.908
 3902TIP3    H211713   3.334   2.139   0.900
 3903TIP3   OH211714   1.024   5.928   3.456
 3903TIP3    H111715   0.968   5.889   3.389
 3903TIP3    H211716   1.082   5.987   3.409
 3904TIP3   OH211717   4.477   0.229   1.104
 3904TIP3    H111718   4.440   0.172   1.172
 3904TIP3    H211719   4.428   0.206   1.025
 3905TIP3   OH211720   4.175   0.765   3.710
 3905TIP3    H111721   4.092   0.793   3.749
 3905TIP3    H211722   4.160   0.769   3.615
 3906TIP3   OH211723   5.276   0.964   2.436
 3906TIP3    H111724   5.206   1.024   2.461
 3906TIP3    H211725   5.310   0.930   2.519
 3907TIP3   OH211726   1.511   4.813   2.778
 3907TIP3    H111727   1.484   4.749   2.845
 3907TIP3    H211728   1.587   4.857   2.816
 3908TIP3   OH211729   1.815   5.297   1.411
 3908TIP3    H111730   1.812   5.354   1.488
 3908TIP3    H211731   1.769   5.218   1.439
 3909TIP3   OH211732   2.308   5.340   0.141
 3909TIP3    H111733   2.330   5.427   0.174
 3909TIP3    H211734   2.288   5.354   0.048
 3910TIP3   OH211735   4.941   1.602   5.104
 3910TIP3    H111736   4.910   1.650   5.027
 3910TIP3    H211737   4.863   1.592   5.159
 3911TIP3   OH211738   2.100   3.793   4.549
 3911TIP3    H111739   2.078   3.840   4.468
 3911TIP3    H211740   2.066   3.705   4.534
 3912TIP3   OH211741   3.761   1.467   5.097
 3912TIP3    H111742   3.771   1.556   5.131
 3912TIP3    H211743   3.847   1.427   5.110
 3913TIP3   OH211744   5.511   2.417   1.511
 3913TIP3    H111745   5.537   2.441   1.600
 3913TIP3    H211746   5.481   2.500   1.472
 3914TIP3   OH211747   6.221   0.855   4.781
 3914TIP3    H111748   6.191   0.946   4.775
 3914TIP3    H211749   6.314   0.859   4.759
 3915TIP3   OH211750   3.351   0.792   2.326
 3915TIP3    H111751   3.370   0.884   2.309
 3915TIP3    H211752   3.263   0.791   2.362
 3916TIP3   OH211753   4.135   2.038   1.469
 3916TIP3    H111754   4.160   2.080   1.551
 3916TIP3    H211755   4.198   1.966   1.458
 3917TIP3   OH211756   0.128   5.285   1.621
 3917TIP3    H111757   0.086   5.331   1.548
 3917TIP3    H211758   0.106   5.193   1.608
 3918TIP3   OH211759   5.099   3.155   4.692
 3918TIP3    H111760   5.184   3.187   4.661
 3918TIP3    H211761   5.110   3.145   4.786
 3919TIP3   OH211762   3.169   5.890   4.458
 3919TIP3    H111763   3.236   5.831   4.492
 3919TIP3    H211764   3.219   5.956   4.409
 3920TIP3   OH211765   2.342   5.298   1.788
 3920TIP3    H111766   2.263   5.274   1.740
 3920TIP3    H211767   2.313   5.313   1.878
 3921TIP3   OH211768   1.092   2.071   3.302
 3921TIP3    H111769   1.019   2.025   3.343
 3921TIP3    H211770   1.155   2.002   3.281
 3922TIP3   OH211771   4.713   3.597   4.766
 3922TIP3    H111772   4.720   3.527   4.700
 3922TIP3    H211773   4.636   3.647   4.739
 3923TIP3   OH211774   1.038   3.129   1.679
 3923TIP3    H111775   1.106   3.193   1.699
 3923TIP3    H211776   1.080   3.044   1.691
 3924TIP3   OH211777   3.900   4.757   2.821
 3924TIP3    H111778   3.858   4.721   2.899
 3924TIP3    H211779   3.991   4.773   2.848
 3925TIP3   OH211780   3.147   2.598   4.700
 3925TIP3    H111781   3.228   2.548   4.688
 3925TIP3    H211782   3.096   2.578   4.621
 3926TIP3   OH211783   0.680   6.026   0.333
 3926TIP3    H111784   0.708   6.071   0.413
 3926TIP3    H211785   0.702   5.934   0.349
 3927TIP3   OH211786   5.674   4.155   2.328
 3927TIP3    H111787   5.769   4.142   2.334
 3927TIP3    H211788   5.657   4.227   2.389
 3928TIP3   OH211789   5.158   3.355   1.127
 3928TIP3    H111790   5.136   3.416   1.057
 3928TIP3    H211791   5.136   3.269   1.091
 3929TIP3   OH211792   2.721   3.573   4.729
 3929TIP3    H111793   2.707   3.513   4.656
 3929TIP3    H211794   2.771   3.521   4.793
 3930TIP3   OH211795   2.038   3.050   3.537
 3930TIP3    H111796   1.945   3.072   3.543
 3930TIP3    H211797   2.069   3.051   3.627
 3931TIP3   OH211798   3.824   1.463   1.277
 3931TIP3    H111799   3.915   1.449   1.251
 3931TIP3    H211800   3.790   1.375   1.294
 3932TIP3   OH211801   0.342   5.117   4.044
 3932TIP3    H111802   0.421   5.160   4.078
 3932TIP3    H211803   0.368   5.085   3.958
 3933TIP3   OH211804   6.297   0.530   3.390
 3933TIP3    H111805   6.275   0.474   3.464
 3933TIP3    H211806   6.219   0.527   3.334
 3934TIP3   OH211807   4.843   2.614   3.450
 3934TIP3    H111808   4.810   2.589   3.536
 3934TIP3    H211809   4.938   2.607   3.458
 3935TIP3   OH211810   3.111   5.637   4.289
 3935TIP3    H111811   3.131   5.719   4.332
 3935TIP3    H211812   3.082   5.579   4.360
 3936TIP3   OH211813   1.327   2.225   0.496
 3936TIP3    H111814   1.355   2.185   0.414
 3936TIP3    H211815   1.393   2.293   0.513
 3937TIP3   OH211816   1.577   5.674   4.890
 3937TIP3    H111817   1.531   5.683   4.973
 3937TIP3    H211818   1.529   5.731   4.830
 3938TIP3   OH211819   3.595   1.682   3.608
 3938TIP3    H111820   3.645   1.649   3.683
 3938TIP3    H211821   3.505   1.654   3.625
 3939TIP3   OH211822   0.790   2.805   4.258
 3939TIP3    H111823   0.776   2.710   4.248
 3939TIP3    H211824   0.861   2.826   4.197
 3940TIP3   OH211825   6.214   1.411   3.881
 3940TIP3    H111826   6.276   1.359   3.933
 3940TIP3    H211827   6.232   1.501   3.905
 3941TIP3   OH211828   2.009   2.033   3.967
 3941TIP3    H111829   2.071   1.963   3.946
 3941TIP3    H211830   2.024   2.099   3.900
 3942TIP3   OH211831   3.878   5.399   2.169
 3942TIP3    H111832   3.932   5.474   2.194
 3942TIP3    H211833   3.811   5.394   2.237
 3943TIP3   OH211834   5.845   5.313   0.314
 3943TIP3    H111835   5.930   5.343   0.282
 3943TIP3    H211836   5.854   5.313   0.409
 3944TIP3   OH211837   4.025   0.307   3.570
 3944TIP3    H111838   4.116   0.302   3.541
 3944TIP3    H211839   4.001   0.399   3.557
 3945TIP3   OH211840   0.719   2.460   0.572
 3945TIP3    H111841   0.729   2.401   0.498
 3945TIP3    H211842   0.738   2.406   0.649
 3946TIP3   OH211843   3.587   5.894   1.982
 3946TIP3    H111844   3.572   5.799   1.987
 3946TIP3    H211845   3.678   5.902   1.953
 3947TIP3   OH211846   2.332   1.477   3.209
 3947TIP3    H111847   2.269   1.514   3.147
 3947TIP3    H211848   2.285   1.472   3.292
 3948TIP3   OH211849   3.822   4.149   3.837
 3948TIP3    H111850   3.866   4.066   3.859
 3948TIP3    H211851   3.735   4.141   3.877
 3949TIP3   OH211852   0.511   0.337   1.363
 3949TIP3    H111853   0.454   0.266   1.392
 3949TIP3    H211854   0.464   0.377   1.290
 3950TIP3   OH211855   0.251   4.033   3.800
 3950TIP3    H111856   0.173   3.978   3.806
 3950TIP3    H211857   0.280   4.023   3.709
 3951TIP3   OH211858   2.327   2.534   3.008
 3951TIP3    H111859   2.295   2.621   3.032
 3951TIP3    H211860   2.311   2.527   2.914
 3952TIP3   OH211861   5.407   2.805   2.033
 3952TIP3    H111862   5.355   2.884   2.018
 3952TIP3    H211863   5.441   2.781   1.946
 3953TIP3   OH211864   4.043   3.990   4.602
 3953TIP3    H111865   3.968   4.042   4.631
 3953TIP3    H211866   4.088   4.045   4.538
 3954TIP3   OH211867   5.922   3.317   3.372
 3954TIP3    H111868   5.857   3.349   3.435
 3954TIP3    H211869   5.923   3.222   3.386
 3955TIP3   OH211870   3.314   3.989   4.520
 3955TIP3    H111871   3.256   3.961   4.590
 3955TIP3    H211872   3.340   3.908   4.476
 3956TIP3   OH211873   5.245   3.346   0.840
 3956TIP3    H111874   5.239   3.373   0.749
 3956TIP3    H211875   5.303   3.410   0.881
 3957TIP3   OH211876   4.104   0.186   3.198
 3957TIP3    H111877   4.130   0.138   3.119
 3957TIP3    H211878   4.113   0.122   3.269
 3958TIP3   OH211879   5.132   2.731   4.061
 3958TIP3    H111880   5.225   2.751   4.050
 3958TIP3    H211881   5.127   2.636   4.048
 3959TIP3   OH211882   2.001   5.192   0.484
 3959TIP3    H111883   1.981   5.250   0.411
 3959TIP3    H211884   2.003   5.105   0.446
 3960TIP3   OH211885   2.397   2.067   1.776
 3960TIP3    H111886   2.457   2.019   1.718
 3960TIP3    H211887   2.360   2.135   1.720
 3961TIP3   OH211888   2.604   5.774   1.376
 3961TIP3    H111889   2.668   5.801   1.441
 3961TIP3    H211890   2.522   5.764   1.425
 3962TIP3   OH211891   2.365   4.991   3.792
 3962TIP3    H111892   2.354   5.027   3.704
 3962TIP3    H211893   2.360   5.067   3.850
 3963TIP3   OH211894   2.683   5.709   0.411
 3963TIP3    H111895   2.773   5.708   0.443
 3963TIP3    H211896   2.634   5.662   0.478
 3964TIP3   OH211897   0.695   3.545   3.091
 3964TIP3    H111898   0.599   3.543   3.090
 3964TIP3    H211899   0.716   3.627   3.135
 3965TIP3   OH211900   0.809   4.781   5.179
 3965TIP3    H111901   0.790   4.690   5.203
 3965TIP3    H211902   0.755   4.797   5.102
 3966TIP3   OH211903   4.904   1.883   0.776
 3966TIP3    H111904   4.846   1.955   0.799
 3966TIP3    H211905   4.952   1.914   0.700
 3967TIP3   OH211906   1.165   4.053   0.327
 3967TIP3    H111907   1.121   4.009   0.254
 3967TIP3    H211908   1.159   4.146   0.307
 3968TIP3   OH211909   4.210   4.290   4.895
 3968TIP3    H111910   4.224   4.329   4.981
 3968TIP3    H211911   4.120   4.315   4.872
 3969TIP3   OH211912   5.491   4.996   2.511
 3969TIP3    H111913   5.584   4.972   2.508
 3969TIP3    H211914   5.461   4.964   2.596
 3970TIP3   OH211915   4.960   5.346   3.857
 3970TIP3    H111916   4.915   5.275   3.903
 3970TIP3    H211917   4.982   5.409   3.925
 3971TIP3   OH211918   0.942   1.303   4.747
 3971TIP3    H111919   0.954   1.212   4.720
 3971TIP3    H211920   0.989   1.353   4.680
 3972TIP3   OH211921   5.329   3.128   3.356
 3972TIP3    H111922   5.327   3.204   3.413
 3972TIP3    H211923   5.238   3.117   3.327
 3973TIP3   OH211924   2.047   1.473   0.501
 3973TIP3    H111925   2.086   1.559   0.484
 3973TIP3    H211926   1.968   1.471   0.446
 3974TIP3   OH211927   4.868   4.100   4.315
 3974TIP3    H111928   4.779   4.067   4.305
 3974TIP3    H211929   4.923   4.022   4.321
 3975TIP3   OH211930   2.221   3.706   4.107
 3975TIP3    H111931   2.302   3.758   4.113
 3975TIP3    H211932   2.233   3.651   4.030
 3976TIP3   OH211933   3.918   0.600   2.153
 3976TIP3    H111934   3.938   0.690   2.127
 3976TIP3    H211935   3.912   0.551   2.071
 3977TIP3   OH211936   5.429   4.092   1.226
 3977TIP3    H111937   5.405   4.117   1.137
 3977TIP3    H211938   5.468   4.170   1.264
 3978TIP3   OH211939   3.956   0.426   5.002
 3978TIP3    H111940   3.994   0.346   4.965
 3978TIP3    H211941   4.030   0.485   5.014
 3979TIP3   OH211942   2.221   1.084   3.981
 3979TIP3    H111943   2.208   0.990   3.968
 3979TIP3    H211944   2.309   1.101   3.949
 3980TIP3   OH211945   1.134   5.089   1.050
 3980TIP3    H111946   1.157   4.996   1.040
 3980TIP3    H211947   1.120   5.099   1.144
 3981TIP3   OH211948   2.080   1.963   4.788
 3981TIP3    H111949   2.057   2.054   4.811
 3981TIP3    H211950   2.038   1.910   4.855
 3982TIP3   OH211951   2.927   0.543   1.229
 3982TIP3    H111952   2.893   0.628   1.202
 3982TIP3    H211953   2.869   0.480   1.188
 3983TIP3   OH211954   0.940   4.677   3.463
 3983TIP3    H111955   0.847   4.695   3.447
 3983TIP3    H211956   0.941   4.626   3.544
 3984TIP3   OH211957   2.176   1.060   2.813
 3984TIP3    H111958   2.100   1.102   2.773
 3984TIP3    H211959   2.203   1.120   2.883
 3985TIP3   OH211960   0.874   5.133   0.921
 3985TIP3    H111961   0.959   5.132   0.964
 3985TIP3    H211962   0.881   5.068   0.851
 3986TIP3   OH211963   4.544   2.217   1.662
 3986TIP3    H111964   4.461   2.265   1.669
 3986TIP3    H211965   4.584   2.225   1.748
 3987TIP3   OH211966   5.750   2.834   3.846
 3987TIP3    H111967   5.825   2.889   3.824
 3987TIP3    H211968   5.773   2.794   3.930
 3988TIP3   OH211969   3.428   1.879   1.120
 3988TIP3    H111970   3.482   1.844   1.191
 3988TIP3    H211971   3.470   1.848   1.040
 3989TIP3   OH211972   4.087   0.152   1.203
 3989TIP3    H111973   4.005   0.107   1.220
 3989TIP3    H211974   4.126   0.104   1.129
 3990TIP3   OH211975   4.939   3.422   4.159
 3990TIP3    H111976   5.010   3.379   4.207
 3990TIP3    H211977   4.859   3.385   4.197
 3991TIP3   OH211978   3.283   4.913   0.359
 3991TIP3    H111979   3.320   4.849   0.298
 3991TIP3    H211980   3.307   4.880   0.446
 3992TIP3   OH211981   4.485   3.132   1.304
 3992TIP3    H111982   4.552   3.065   1.310
 3992TIP3    H211983   4.444   3.118   1.219
 3993TIP3   OH211984   2.158   5.589   4.052
 3993TIP3    H111985   2.149   5.646   4.129
 3993TIP3    H211986   2.194   5.508   4.087
 3994TIP3   OH211987   3.174   2.109   3.928
 3994TIP3    H111988   3.129   2.092   4.010
 3994TIP3    H211989   3.174   2.025   3.882
 3995TIP3   OH211990   2.959   0.212   4.270
 3995TIP3    H111991   3.001   0.168   4.196
 3995TIP3    H211992   3.018   0.284   4.293
 3996TIP3   OH211993   2.582   3.956   5.083
 3996TIP3    H111994   2.620   3.911   5.159
 3996TIP3    H211995   2.491   3.973   5.109
 3997TIP3   OH211996   5.786   4.991   1.162
 3997TIP3    H111997   5.801   4.997   1.068
 3997TIP3    H211998   5.871   5.009   1.201
 3998TIP3   OH211999   2.159   2.509   3.642
 3998TIP3    H112000   2.211   2.576   3.597
 3998TIP3    H212001   2.188   2.427   3.603
 3999TIP3   OH212002   1.784   4.900   1.917
 3999TIP3    H112003   1.747   4.902   1.829
 3999TIP3    H212004   1.854   4.964   1.916
 4000TIP3   OH212005   4.862   4.113   3.613
 4000TIP3    H112006   4.804   4.182   3.646
 4000TIP3    H212007   4.831   4.033   3.656
 4001TIP3   OH212008   4.661   1.294   0.677
 4001TIP3    H112009   4.596   1.360   0.656
 4001TIP3    H212010   4.611   1.215   0.696
 4002TIP3   OH212011   5.405   3.749   2.387
 4002TIP3    H112012   5.461   3.707   2.322
 4002TIP3    H212013   5.354   3.813   2.337
 4003TIP3   OH212014   1.674   4.698   4.766
 4003TIP3    H112015   1.717   4.738   4.841
 4003TIP3    H212016   1.722   4.731   4.690
 4004TIP3   OH212017   2.683   3.805   0.313
 4004TIP3    H112018   2.587   3.797   0.314
 4004TIP3    H212019   2.711   3.747   0.242
 4005TIP3   OH212020   4.706   3.627   0.916
 4005TIP3    H112021   4.730   3.653   1.005
 4005TIP3    H212022   4.629   3.572   0.927
 4006TIP3   OH212023   5.096   5.250   3.020
 4006TIP3    H112024   5.083   5.344   3.009
 4006TIP3    H212025   5.128   5.241   3.110
 4007TIP3   OH212026   4.877   1.988   2.978
 4007TIP3    H112027   4.942   1.971   3.047
 4007TIP3    H212028   4.797   2.010   3.025
 4008TIP3   OH212029   2.351   5.357   2.480
 4008TIP3    H112030   2.419   5.363   2.547
 4008TIP3    H212031   2.311   5.272   2.495
 4009TIP3   OH212032   2.737   1.523   2.739
 4009TIP3    H112033   2.669   1.520   2.671
 4009TIP3    H212034   2.691   1.500   2.819
 4010TIP3   OH212035   5.410   1.299   0.819
 4010TIP3    H112036   5.465   1.284   0.742
 4010TIP3    H212037   5.321   1.294   0.786
 4011TIP3   OH212038   4.453   3.777   2.885
 4011TIP3    H112039   4.385   3.840   2.906
 4011TIP3    H212040   4.451   3.771   2.789
 4012TIP3   OH212041   3.080   5.120   4.600
 4012TIP3    H112042   3.034   5.110   4.683
 4012TIP3    H212043   3.165   5.155   4.624
 4013TIP3   OH212044   3.242   4.725   5.157
 4013TIP3    H112045   3.211   4.675   5.233
 4013TIP3    H212046   3.200   4.810   5.166
 4014TIP3   OH212047   5.480   0.035   4.254
 4014TIP3    H112048   5.489   0.122   4.292
 4014TIP3    H212049   5.453   0.052   4.163
 4015TIP3   OH212050   0.450   4.842   2.022
 4015TIP3    H112051   0.464   4.755   2.060
 4015TIP3    H212052   0.538   4.876   2.008
 4016TIP3   OH212053   1.874   3.628   0.584
 4016TIP3    H112054   1.847   3.541   0.613
 4016TIP3    H212055   1.822   3.646   0.506
 4017TIP3   OH212056   4.259   4.328   2.858
 4017TIP3    H112057   4.349   4.297   2.862
 4017TIP3    H212058   4.218   4.276   2.789
 4018TIP3   OH212059   3.747   0.949   4.055
 4018TIP3    H112060   3.780   1.037   4.037
 4018TIP3    H212061   3.658   0.949   4.019
 4019TIP3   OH212062   5.365   2.578   1.356
 4019TIP3    H112063   5.425   2.645   1.390
 4019TIP3    H212064   5.280   2.600   1.394
 4020TIP3   OH212065   0.186   3.049   4.025
 4020TIP3    H112066   0.183   3.100   3.944
 4020TIP3    H212067   0.225   3.108   4.090
 4021TIP3   OH212068   0.202   2.115   0.102
 4021TIP3    H112069   0.211   2.082   0.012
 4021TIP3    H212070   0.128   2.065   0.138
 4022TIP3   OH212071   0.606   3.294   2.491
 4022TIP3    H112072   0.659   3.225   2.450
 4022TIP3    H212073   0.670   3.349   2.538
 4023TIP3   OH212074   4.450   5.817   3.645
 4023TIP3    H112075   4.473   5.739   3.594
 4023TIP3    H212076   4.506   5.886   3.608
 4024TIP3   OH212077   0.228   0.871   3.582
 4024TIP3    H112078   0.289   0.848   3.652
 4024TIP3    H212079   0.199   0.787   3.548
 4025TIP3   OH212080   4.617   4.595   1.820
 4025TIP3    H112081   4.661   4.581   1.904
 4025TIP3    H212082   4.683   4.638   1.766
 4026TIP3   OH212083   2.351   0.547   1.837
 4026TIP3    H112084   2.439   0.511   1.825
 4026TIP3    H212085   2.304   0.478   1.884
 4027TIP3   OH212086   2.160   4.098   1.992
 4027TIP3    H112087   2.082   4.121   2.041
 4027TIP3    H212088   2.135   4.105   1.900
 4028TIP3   OH212089   0.324   2.614   2.147
 4028TIP3    H112090   0.250   2.675   2.148
 4028TIP3    H212091   0.290   2.534   2.189
 4029TIP3   OH212092   2.085   2.734   3.797
 4029TIP3    H112093   2.082   2.654   3.744
 4029TIP3    H212094   2.114   2.705   3.883
 4030TIP3   OH212095   3.615   4.870   0.452
 4030TIP3    H112096   3.593   4.796   0.395
 4030TIP3    H212097   3.594   4.840   0.540
 4031TIP3   OH212098   1.098   5.321   2.680
 4031TIP3    H112099   1.052   5.279   2.607
 4031TIP3    H212100   1.116   5.249   2.741
 4032TIP3   OH212101   5.905   4.321   2.159
 4032TIP3    H112102   5.952   4.286   2.083
 4032TIP3    H212103   5.972   4.333   2.226
 4033TIP3   OH212104   4.880   1.807   4.750
 4033TIP3    H112105   4.965   1.763   4.744
 4033TIP3    H212106   4.878   1.844   4.838
 4034TIP3   OH212107   4.640   5.735   4.596
 4034TIP3    H112108   4.614   5.750   4.687
 4034TIP3    H212109   4.558   5.735   4.546
 4035TIP3   OH212110   4.030   5.760   1.230
 4035TIP3    H112111   4.088   5.826   1.266
 4035TIP3    H212112   4.036   5.772   1.135
 4036TIP3   OH212113   1.415   3.446   2.501
 4036TIP3    H112114   1.415   3.542   2.509
 4036TIP3    H212115   1.338   3.427   2.447
 4037TIP3   OH212116   2.854   4.073   3.348
 4037TIP3    H112117   2.878   4.034   3.431
 4037TIP3    H212118   2.920   4.042   3.286
 4038TIP3   OH212119   5.156   1.461   0.353
 4038TIP3    H112120   5.228   1.448   0.415
 4038TIP3    H212121   5.126   1.551   0.370
 4039TIP3   OH212122   5.922   4.006   0.551
 4039TIP3    H112123   5.997   4.014   0.492
 4039TIP3    H212124   5.946   4.058   0.628
 4040TIP3   OH212125   2.963   0.130   3.150
 4040TIP3    H112126   2.973   0.044   3.190
 4040TIP3    H212127   3.009   0.190   3.209
 4041TIP3   OH212128   0.919   4.126   1.445
 4041TIP3    H112129   0.921   4.142   1.350
 4041TIP3    H212130   0.871   4.200   1.481
 4042TIP3   OH212131   1.057   1.318   1.277
 4042TIP3    H112132   1.037   1.396   1.225
 4042TIP3    H212133   1.003   1.327   1.356
 4043TIP3   OH212134   0.087   2.192   3.580
 4043TIP3    H112135   0.039   2.266   3.616
 4043TIP3    H212136   0.046   2.115   3.620
 4044TIP3   OH212137   2.567   2.174   2.929
 4044TIP3    H112138   2.489   2.122   2.907
 4044TIP3    H212139   2.539   2.265   2.915
 4045TIP3   OH212140   3.856   4.661   1.729
 4045TIP3    H112141   3.935   4.627   1.688
 4045TIP3    H212142   3.873   4.754   1.744
 4046TIP3   OH212143   4.085   4.554   1.689
 4046TIP3    H112144   4.151   4.605   1.736
 4046TIP3    H212145   4.121   4.466   1.682
 4047TIP3   OH212146   5.532   1.066   1.566
 4047TIP3    H112147   5.580   1.104   1.640
 4047TIP3    H212148   5.440   1.075   1.590
 4048TIP3   OH212149   5.505   1.559   2.931
 4048TIP3    H112150   5.442   1.510   2.878
 4048TIP3    H212151   5.490   1.650   2.909
 4049TIP3   OH212152   4.567   0.879   0.349
 4049TIP3    H112153   4.539   0.895   0.259
 4049TIP3    H212154   4.540   0.788   0.366
 4050TIP3   OH212155   1.873   4.881   3.147
 4050TIP3    H112156   1.877   4.802   3.202
 4050TIP3    H212157   1.942   4.868   3.082
 4051TIP3   OH212158   1.955   2.911   1.445
 4051TIP3    H112159   1.913   2.959   1.516
 4051TIP3    H212160   1.883   2.884   1.388
 4052TIP3   OH212161   0.080   2.192   4.104
 4052TIP3    H112162   0.144   2.122   4.097
 4052TIP3    H212163   0.002   2.150   4.140
 4053TIP3   OH212164   0.561   5.779   5.084
 4053TIP3    H112165   0.518   5.803   5.002
 4053TIP3    H212166   0.654   5.776   5.062
 4054TIP3   OH212167   2.420   5.752   2.100
 4054TIP3    H112168   2.409   5.790   2.013
 4054TIP3    H212169   2.345   5.785   2.150
 4055TIP3   OH212170   4.889   2.602   1.360
 4055TIP3    H112171   4.912   2.537   1.428
 4055TIP3    H212172   4.796   2.620   1.375
 4056TIP3   OH212173   3.893   1.233   0.145
 4056TIP3    H112174   3.868   1.291   0.217
 4056TIP3    H212175   3.967   1.277   0.103
 4057TIP3   OH212176   1.210   3.164   4.256
 4057TIP3    H112177   1.129   3.187   4.302
 4057TIP3    H212178   1.209   3.069   4.252
 4058TIP3   OH212179   1.620   2.626   1.334
 4058TIP3    H112180   1.656   2.713   1.319
 4058TIP3    H212181   1.527   2.640   1.348
 4059TIP3   OH212182   6.134   2.193   3.370
 4059TIP3    H112183   6.084   2.144   3.436
 4059TIP3    H212184   6.154   2.276   3.412
 4060TIP3   OH212185   4.684   1.898   2.600
 4060TIP3    H112186   4.743   1.962   2.640
 4060TIP3    H212187   4.743   1.837   2.555
 4061TIP3   OH212188   6.191   2.878   3.582
 4061TIP3    H112189   6.192   2.906   3.490
 4061TIP3    H212190   6.257   2.934   3.624
 4062TIP3   OH212191   4.084   1.963   3.102
 4062TIP3    H112192   4.043   2.049   3.110
 4062TIP3    H212193   4.013   1.901   3.116
 4063TIP3   OH212194   2.630   0.584   2.162
 4063TIP3    H112195   2.655   0.521   2.094
 4063TIP3    H212196   2.591   0.657   2.114
 4064TIP3   OH212197   2.302   4.870   2.677
 4064TIP3    H112198   2.213   4.835   2.670
 4064TIP3    H212199   2.346   4.813   2.741
 4065TIP3   OH212200   2.283   4.301   4.928
 4065TIP3    H112201   2.189   4.284   4.933
 4065TIP3    H212202   2.291   4.396   4.930
 4066TIP3   OH212203   3.415   3.917   2.702
 4066TIP3    H112204   3.382   3.923   2.612
 4066TIP3    H212205   3.460   3.833   2.706
 4067TIP3   OH212206   3.531   4.582   3.707
 4067TIP3    H112207   3.492   4.667   3.684
 4067TIP3    H212208   3.508   4.570   3.799
 4068TIP3   OH212209   0.195   2.346   2.272
 4068TIP3    H112210   0.215   2.259   2.239
 4068TIP3    H212211   0.134   2.331   2.345
 4069TIP3   OH212212   3.522   3.264   3.238
 4069TIP3    H112213   3.535   3.234   3.327
 4069TIP3    H212214   3.575   3.204   3.184
 4070TIP3   OH212215   0.526   1.846   1.262
 4070TIP3    H112216   0.588   1.816   1.195
 4070TIP3    H212217   0.485   1.923   1.223
 4071TIP3   OH212218   5.644   3.541   4.866
 4071TIP3    H112219   5.652   3.532   4.771
 4071TIP3    H212220   5.555   3.513   4.886
 4072TIP3   OH212221   2.558   3.532   3.242
 4072TIP3    H112222   2.498   3.473   3.287
 4072TIP3    H212223   2.522   3.540   3.154
 4073TIP3   OH212224   3.930   5.468   1.739
 4073TIP3    H112225   3.941   5.536   1.673
 4073TIP3    H212226   3.951   5.512   1.822
 4074TIP3   OH212227   4.519   1.531   0.654
 4074TIP3    H112228   4.486   1.621   0.650
 4074TIP3    H212229   4.492   1.499   0.740
 4075TIP3   OH212230   1.606   3.496   2.300
 4075TIP3    H112231   1.639   3.411   2.271
 4075TIP3    H212232   1.542   3.474   2.369
 4076TIP3   OH212233   1.914   5.812   2.038
 4076TIP3    H112234   1.848   5.835   1.973
 4076TIP3    H212235   1.881   5.849   2.120
 4077TIP3   OH212236   4.090   4.232   2.023
 4077TIP3    H112237   4.043   4.201   2.100
 4077TIP3    H212238   4.120   4.152   1.980
 4078TIP3   OH212239   4.002   2.633   4.678
 4078TIP3    H112240   4.007   2.673   4.591
 4078TIP3    H212241   3.915   2.657   4.710
 4079TIP3   OH212242   6.206   4.879   1.779
 4079TIP3    H112243   6.124   4.841   1.810
 4079TIP3    H212244   6.252   4.906   1.859
 4080TIP3   OH212245   2.893   3.707   2.472
 4080TIP3    H112246   2.912   3.767   2.400
 4080TIP3    H212247   2.978   3.669   2.495
 4081TIP3   OH212248   0.895   5.416   3.900
 4081TIP3    H112249   0.902   5.477   3.973
 4081TIP3    H212250   0.966   5.440   3.841
 4082TIP3   OH212251   3.670   1.785   3.905
 4082TIP3    H112252   3.622   1.849   3.853
 4082TIP3    H212253   3.609   1.759   3.973
 4083TIP3   OH212254   0.915   2.308   1.821
 4083TIP3    H112255   1.006   2.282   1.808
 4083TIP3    H212256   0.917   2.366   1.897
 4084TIP3   OH212257   3.923   1.719   2.676
 4084TIP3    H112258   4.017   1.717   2.691
 4084TIP3    H212259   3.890   1.784   2.738
 4085TIP3   OH212260   0.234   2.959   0.321
 4085TIP3    H112261   0.139   2.956   0.321
 4085TIP3    H212262   0.257   2.992   0.408
 4086TIP3   OH212263   4.260   2.759   0.223
 4086TIP3    H112264   4.353   2.745   0.205
 4086TIP3    H212265   4.248   2.730   0.313
 4087TIP3   OH212266   1.209   1.904   4.732
 4087TIP3    H112267   1.120   1.894   4.765
 4087TIP3    H212268   1.247   1.974   4.787
 4088TIP3   OH212269   3.194   4.689   3.730
 4088TIP3    H112270   3.119   4.706   3.787
 4088TIP3    H212271   3.155   4.670   3.644
 4089TIP3   OH212272   4.118   3.015   4.215
 4089TIP3    H112273   4.062   3.042   4.143
 4089TIP3    H212274   4.077   3.053   4.293
 4090TIP3   OH212275   2.006   0.328   0.836
 4090TIP3    H112276   1.953   0.252   0.812
 4090TIP3    H212277   2.087   0.292   0.870
 4091TIP3   OH212278   3.726   0.327   4.374
 4091TIP3    H112279   3.743   0.416   4.407
 4091TIP3    H212280   3.688   0.341   4.287
 4092TIP3   OH212281   6.024   2.374   4.660
 4092TIP3    H112282   6.093   2.330   4.609
 4092TIP3    H212283   6.067   2.449   4.700
 4093TIP3   OH212284   3.285   0.498   1.493
 4093TIP3    H112285   3.269   0.404   1.491
 4093TIP3    H212286   3.213   0.536   1.443
 4094TIP3   OH212287   2.669   0.050   2.738
 4094TIP3    H112288   2.634   0.021   2.822
 4094TIP3    H212289   2.759   0.075   2.756
 4095TIP3   OH212290   0.237   0.109   0.055
 4095TIP3    H112291   0.212   0.196   0.086
 4095TIP3    H212292   0.223   0.112  -0.040
 4096TIP3   OH212293   4.918   2.999   1.541
 4096TIP3    H112294   4.918   2.936   1.469
 4096TIP3    H212295   4.932   2.945   1.620
 4097TIP3   OH212296   1.188   3.145   1.459
 4097TIP3    H112297   1.209   3.235   1.486
 4097TIP3    H212298   1.105   3.126   1.503
 4098TIP3   OH212299   2.376   3.974   4.171
 4098TIP3    H112300   2.466   3.952   4.146
 4098TIP3    H212301   2.366   4.065   4.144
 4099TIP3   OH212302   1.820   5.808   3.111
 4099TIP3    H112303   1.877   5.742   3.150
 4099TIP3    H212304   1.843   5.808   3.018
 4100TIP3   OH212305   2.859   2.985   3.146
 4100TIP3    H112306   2.936   2.995   3.202
 4100TIP3    H212307   2.878   2.908   3.093
 4101TIP3   OH212308   0.665   2.651   1.596
 4101TIP3    H112309   0.642   2.656   1.503
 4101TIP3    H212310   0.618   2.723   1.637
 4102TIP3   OH212311   1.459   3.710   4.994
 4102TIP3    H112312   1.503   3.693   4.910
 4102TIP3    H212313   1.516   3.668   5.059
 4103TIP3   OH212314   6.071   2.473   0.452
 4103TIP3    H112315   6.081   2.380   0.470
 4103TIP3    H212316   6.002   2.503   0.512
 4104TIP3   OH212317   5.380   5.559   3.929
 4104TIP3    H112318   5.425   5.610   3.997
 4104TIP3    H212319   5.424   5.582   3.848
 4105TIP3   OH212320   5.984   2.479   4.952
 4105TIP3    H112321   6.035   2.551   4.917
 4105TIP3    H212322   6.048   2.411   4.973
 4106TIP3   OH212323   1.536   4.237   4.436
 4106TIP3    H112324   1.569   4.284   4.513
 4106TIP3    H212325   1.585   4.155   4.435
 4107TIP3   OH212326   5.717   5.723   1.696
 4107TIP3    H112327   5.672   5.792   1.744
 4107TIP3    H212328   5.655   5.650   1.693
 4108TIP3   OH212329   6.176   1.933   1.967
 4108TIP3    H112330   6.086   1.907   1.985
 4108TIP3    H212331   6.220   1.853   1.937
 4109TIP3   OH212332   1.626   0.108   3.992
 4109TIP3    H112333   1.711   0.064   3.989
 4109TIP3    H212334   1.642   0.188   4.041
 4110TIP3   OH212335   0.492   0.788   2.922
 4110TIP3    H112336   0.511   0.718   2.985
 4110TIP3    H212337   0.516   0.869   2.968
 4111TIP3   OH212338   5.429   5.656   3.255
 4111TIP3    H112339   5.440   5.593   3.327
 4111TIP3    H212340   5.481   5.732   3.282
 4112TIP3   OH212341   1.505   0.207   2.006
 4112TIP3    H112342   1.416   0.174   2.023
 4112TIP3    H212343   1.506   0.294   2.046
 4113TIP3   OH212344   3.644   0.633   3.566
 4113TIP3    H112345   3.730   0.590   3.566
 4113TIP3    H212346   3.664   0.726   3.570
 4114TIP3   OH212347   5.641   4.753   2.020
 4114TIP3    H112348   5.690   4.825   2.060
 4114TIP3    H212349   5.677   4.674   2.059
 4115TIP3   OH212350   5.216   1.865   4.407
 4115TIP3    H112351   5.280   1.797   4.428
 4115TIP3    H212352   5.267   1.932   4.361
 4116TIP3   OH212353   4.688   4.884   2.365
 4116TIP3    H112354   4.744   4.961   2.376
 4116TIP3    H212355   4.744   4.820   2.322
 4117TIP3   OH212356   5.244   1.527   4.658
 4117TIP3    H112357   5.255   1.441   4.618
 4117TIP3    H212358   5.212   1.509   4.746
 4118TIP3   OH212359   5.532   5.258   2.449
 4118TIP3    H112360   5.519   5.165   2.467
 4118TIP3    H212361   5.487   5.272   2.365
 4119TIP3   OH212362   0.862   4.771   3.944
 4119TIP3    H112363   0.816   4.838   3.995
 4119TIP3    H212364   0.914   4.821   3.881
 4120TIP3   OH212365   2.721   4.428   1.491
 4120TIP3    H112366   2.733   4.493   1.560
 4120TIP3    H212367   2.685   4.352   1.536
 4121TIP3   OH212368   3.712   4.852   3.832
 4121TIP3    H112369   3.642   4.836   3.896
 4121TIP3    H212370   3.666   4.856   3.748
 4122TIP3   OH212371   3.436   2.181   2.888
 4122TIP3    H112372   3.393   2.249   2.837
 4122TIP3    H212373   3.399   2.189   2.976
 4123TIP3   OH212374   5.340   5.297   0.071
 4123TIP3    H112375   5.310   5.234   0.137
 4123TIP3    H212376   5.433   5.307   0.088
 4124TIP3   OH212377   0.627   3.922   4.355
 4124TIP3    H112378   0.707   3.963   4.322
 4124TIP3    H212379   0.644   3.908   4.448
 4125TIP3   OH212380   4.335   3.333   4.918
 4125TIP3    H112381   4.319   3.274   4.991
 4125TIP3    H212382   4.307   3.284   4.841
 4126TIP3   OH212383   1.490   2.453   0.515
 4126TIP3    H112384   1.494   2.508   0.593
 4126TIP3    H212385   1.580   2.420   0.504
 4127TIP3   OH212386   2.241   2.781   4.415
 4127TIP3    H112387   2.328   2.780   4.374
 4127TIP3    H212388   2.222   2.874   4.427
 4128TIP3   OH212389   3.663   2.352   2.879
 4128TIP3    H112390   3.734   2.346   2.815
 4128TIP3    H212391   3.591   2.303   2.839
 4129TIP3   OH212392   3.270   5.803   3.924
 4129TIP3    H112393   3.193   5.840   3.881
 4129TIP3    H212394   3.343   5.827   3.867
 4130TIP3   OH212395   3.531   4.533   3.299
 4130TIP3    H112396   3.618   4.570   3.310
 4130TIP3    H212397   3.547   4.439   3.285
 4131TIP3   OH212398   1.723   4.944   2.923
 4131TIP3    H112399   1.759   4.903   3.002
 4131TIP3    H212400   1.796   4.947   2.861
 4132TIP3   OH212401   5.045   0.511   0.632
 4132TIP3    H112402   5.042   0.602   0.601
 4132TIP3    H212403   4.998   0.462   0.564
 4133TIP3   OH212404   2.585   2.467   2.872
 4133TIP3    H112405   2.534   2.472   2.953
 4133TIP3    H212406   2.674   2.492   2.899
 4134TIP3   OH212407   2.880   0.352   1.951
 4134TIP3    H112408   2.915   0.324   2.035
 4134TIP3    H212409   2.947   0.328   1.888
 4135TIP3   OH212410   1.955   3.586   1.073
 4135TIP3    H112411   1.971   3.645   0.999
 4135TIP3    H212412   2.035   3.589   1.125
 4136TIP3   OH212413   2.144   2.694   4.787
 4136TIP3    H112414   2.058   2.709   4.748
 4136TIP3    H212415   2.144   2.746   4.867
 4137TIP3   OH212416   3.393   2.307   3.143
 4137TIP3    H112417   3.331   2.380   3.145
 4137TIP3    H212418   3.457   2.328   3.211
 4138TIP3   OH212419   3.790   1.447   3.409
 4138TIP3    H112420   3.827   1.418   3.326
 4138TIP3    H212421   3.846   1.520   3.436
 4139TIP3   OH212422   4.222   2.384   3.396
 4139TIP3    H112423   4.259   2.461   3.353
 4139TIP3    H212424   4.206   2.322   3.324
 4140TIP3   OH212425   3.269   5.235   3.203
 4140TIP3    H112426   3.266   5.324   3.167
 4140TIP3    H212427   3.255   5.246   3.297
 4141TIP3   OH212428   4.614   3.886   0.782
 4141TIP3    H112429   4.690   3.837   0.812
 4141TIP3    H212430   4.541   3.825   0.790
 4142TIP3   OH212431   2.995   2.789   2.563
 4142TIP3    H112432   3.053   2.782   2.639
 4142TIP3    H212433   2.921   2.840   2.595
 4143TIP3   OH212434   6.226   5.977   3.584
 4143TIP3    H112435   6.133   5.978   3.609
 4143TIP3    H212436   6.270   5.935   3.658
 4144TIP3   OH212437   1.866   3.568   2.107
 4144TIP3    H112438   1.781   3.561   2.064
 4144TIP3    H212439   1.875   3.662   2.127
 4145TIP3   OH212440   2.945   0.172   3.460
 4145TIP3    H112441   2.859   0.130   3.450
 4145TIP3    H212442   3.007   0.099   3.461
 4146TIP3   OH212443   0.848   4.851   1.114
 4146TIP3    H112444   0.847   4.934   1.160
 4146TIP3    H212445   0.940   4.838   1.091
 4147TIP3   OH212446   1.620   2.545   5.004
 4147TIP3    H112447   1.678   2.486   5.053
 4147TIP3    H212448   1.560   2.579   5.070
 4148TIP3   OH212449   5.686   0.545   3.306
 4148TIP3    H112450   5.737   0.579   3.233
 4148TIP3    H212451   5.607   0.600   3.308
 4149TIP3   OH212452   0.026   2.459   1.242
 4149TIP3    H112453   0.001   2.410   1.164
 4149TIP3    H212454  -0.055   2.501   1.271
 4150TIP3   OH212455   2.742   2.322   1.763
 4150TIP3    H112456   2.775   2.243   1.805
 4150TIP3    H212457   2.812   2.348   1.703
 4151TIP3   OH212458   0.431   2.431   1.293
 4151TIP3    H112459   0.478   2.498   1.242
 4151TIP3    H212460   0.499   2.391   1.347
 4152TIP3   OH212461   4.466   5.036   3.134
 4152TIP3    H112462   4.427   5.119   3.162
 4152TIP3    H212463   4.412   5.007   3.060
 4153TIP3   OH212464   2.203   2.402   4.902
 4153TIP3    H112465   2.173   2.330   4.959
 4153TIP3    H212466   2.143   2.474   4.922
 4154TIP3   OH212467   3.182   4.719   3.167
 4154TIP3    H112468   3.145   4.807   3.176
 4154TIP3    H212469   3.120   4.672   3.111
 4155TIP3   OH212470   2.746   2.890   1.160
 4155TIP3    H112471   2.681   2.892   1.090
 4155TIP3    H212472   2.767   2.982   1.176
 4156TIP3   OH212473   1.929   1.698   1.654
 4156TIP3    H112474   1.995   1.678   1.588
 4156TIP3    H212475   1.871   1.621   1.655
 4157TIP3   OH212476   3.585   4.780   0.008
 4157TIP3    H112477   3.622   4.860   0.045
 4157TIP3    H212478   3.522   4.750   0.074
 4158TIP3   OH212479   3.910   0.541   0.997
 4158TIP3    H112480   3.871   0.624   1.022
 4158TIP3    H212481   3.930   0.498   1.080
 4159TIP3   OH212482   3.364   0.730   2.038
 4159TIP3    H112483   3.340   0.821   2.020
 4159TIP3    H212484   3.372   0.726   2.134
 4160TIP3   OH212485   0.151   5.557   2.724
 4160TIP3    H112486   0.218   5.521   2.782
 4160TIP3    H212487   0.081   5.585   2.782
 4161TIP3   OH212488   5.477   4.412   4.893
 4161TIP3    H112489   5.437   4.404   4.807
 4161TIP3    H212490   5.465   4.503   4.917
 4162TIP3   OH212491   1.985   0.319   3.209
 4162TIP3    H112492   2.015   0.366   3.287
 4162TIP3    H212493   1.969   0.387   3.144
 4163TIP3   OH212494   0.369   5.521   2.439
 4163TIP3    H112495   0.320   5.566   2.371
 4163TIP3    H212496   0.460   5.524   2.409
 4164TIP3   OH212497   0.649   0.090   1.264
 4164TIP3    H112498   0.615   0.178   1.280
 4164TIP3    H212499   0.701   0.070   1.342
 4165TIP3   OH212500   0.172   4.098   2.293
 4165TIP3    H112501   0.264   4.081   2.274
 4165TIP3    H212502   0.126   4.020   2.262
 4166TIP3   OH212503   6.173   4.499   3.861
 4166TIP3    H112504   6.226   4.565   3.816
 4166TIP3    H212505   6.157   4.432   3.795
 4167TIP3   OH212506   5.642   5.784   2.367
 4167TIP3    H112507   5.639   5.757   2.275
 4167TIP3    H212508   5.655   5.879   2.364
 4168TIP3   OH212509   2.835   5.008   0.010
 4168TIP3    H112510   2.912   5.021   0.066
 4168TIP3    H212511   2.869   5.019  -0.079
 4169TIP3   OH212512   5.231   1.264   0.607
 4169TIP3    H112513   5.294   1.299   0.543
 4169TIP3    H212514   5.227   1.171   0.588
 4170TIP3   OH212515   6.292   1.693   4.902
 4170TIP3    H112516   6.370   1.724   4.949
 4170TIP3    H212517   6.255   1.772   4.864
 4171TIP3   OH212518   0.456   1.595   3.579
 4171TIP3    H112519   0.547   1.604   3.549
 4171TIP3    H212520   0.422   1.520   3.530
 4172TIP3   OH212521   2.109   4.846   3.024
 4172TIP3    H112522   2.164   4.768   3.018
 4172TIP3    H212523   2.139   4.890   3.103
 4173TIP3   OH212524   5.210   1.767   0.347
 4173TIP3    H112525   5.122   1.802   0.336
 4173TIP3    H212526   5.251   1.773   0.261
 4174TIP3   OH212527   3.056   1.739   1.435
 4174TIP3    H112528   3.033   1.698   1.518
 4174TIP3    H212529   3.099   1.821   1.459
 4175TIP3   OH212530   4.611   4.516   3.058
 4175TIP3    H112531   4.594   4.517   2.963
 4175TIP3    H212532   4.554   4.447   3.091
 4176TIP3   OH212533   3.264   2.211   0.410
 4176TIP3    H112534   3.224   2.136   0.455
 4176TIP3    H212535   3.296   2.176   0.327
 4177TIP3   OH212536   2.544   4.858   2.172
 4177TIP3    H112537   2.506   4.881   2.257
 4177TIP3    H212538   2.470   4.863   2.111
 4178TIP3   OH212539   5.812   0.564   1.919
 4178TIP3    H112540   5.805   0.639   1.978
 4178TIP3    H212541   5.811   0.488   1.976
 4179TIP3   OH212542   5.844   0.348   1.689
 4179TIP3    H112543   5.865   0.317   1.777
 4179TIP3    H212544   5.901   0.297   1.632
 4180TIP3   OH212545   4.843   3.749   4.418
 4180TIP3    H112546   4.816   3.824   4.472
 4180TIP3    H212547   4.917   3.782   4.367
 4181TIP3   OH212548   3.014   2.165   2.023
 4181TIP3    H112549   3.019   2.255   1.990
 4181TIP3    H212550   3.053   2.170   2.110
 4182TIP3   OH212551   4.926   1.691   2.508
 4182TIP3    H112552   4.903   1.622   2.570
 4182TIP3    H212553   5.009   1.663   2.470
 4183TIP3   OH212554   0.417   0.484   4.614
 4183TIP3    H112555   0.382   0.448   4.696
 4183TIP3    H212556   0.493   0.429   4.594
 4184TIP3   OH212557   0.869   1.094   2.946
 4184TIP3    H112558   0.898   1.173   2.992
 4184TIP3    H212559   0.861   1.120   2.855
 4185TIP3   OH212560   5.442   4.576   1.477
 4185TIP3    H112561   5.421   4.654   1.527
 4185TIP3    H212562   5.358   4.532   1.464
 4186TIP3   OH212563   3.558   3.655   2.002
 4186TIP3    H112564   3.612   3.613   1.935
 4186TIP3    H212565   3.542   3.586   2.067
 4187TIP3   OH212566   3.086   3.596   4.585
 4187TIP3    H112567   3.169   3.569   4.544
 4187TIP3    H212568   3.025   3.605   4.512
 4188TIP3   OH212569   1.789   3.987   4.174
 4188TIP3    H112570   1.728   4.007   4.103
 4188TIP3    H212571   1.864   4.044   4.158
 4189TIP3   OH212572   3.204   1.184   3.249
 4189TIP3    H112573   3.174   1.272   3.225
 4189TIP3    H212574   3.162   1.167   3.334
 4190TIP3   OH212575   5.558   1.114   3.880
 4190TIP3    H112576   5.502   1.191   3.872
 4190TIP3    H212577   5.602   1.125   3.964
 4191TIP3   OH212578   0.667   2.384   1.701
 4191TIP3    H112579   0.755   2.367   1.735
 4191TIP3    H212580   0.661   2.479   1.697
 4192TIP3   OH212581   1.609   3.664   4.776
 4192TIP3    H112582   1.592   3.607   4.701
 4192TIP3    H212583   1.702   3.685   4.769
 4193TIP3   OH212584   4.308   2.416   0.646
 4193TIP3    H112585   4.319   2.486   0.710
 4193TIP3    H212586   4.380   2.430   0.584
 4194TIP3   OH212587   3.531   2.540   2.639
 4194TIP3    H112588   3.550   2.607   2.704
 4194TIP3    H212589   3.617   2.504   2.617
 4195TIP3   OH212590   3.868   2.295   1.951
 4195TIP3    H112591   3.877   2.240   1.874
 4195TIP3    H212592   3.843   2.236   2.022
 4196TIP3   OH212593   2.502   3.344   2.283
 4196TIP3    H112594   2.567   3.407   2.252
 4196TIP3    H212595   2.505   3.273   2.218
 4197TIP3   OH212596   0.484   5.718   1.329
 4197TIP3    H112597   0.517   5.806   1.309
 4197TIP3    H212598   0.390   5.729   1.337
 4198TIP3   OH212599   2.975   1.250   2.893
 4198TIP3    H112600   2.956   1.300   2.972
 4198TIP3    H212601   2.890   1.216   2.865
 4199TIP3   OH212602   0.423   2.099   1.149
 4199TIP3    H112603   0.422   2.119   1.056
 4199TIP3    H212604   0.464   2.175   1.190
 4200TIP3   OH212605   5.322   1.247   3.107
 4200TIP3    H112606   5.388   1.274   3.170
 4200TIP3    H212607   5.298   1.327   3.061
 4201TIP3   OH212608   0.666   5.720   3.552
 4201TIP3    H112609   0.695   5.695   3.464
 4201TIP3    H212610   0.676   5.815   3.555
 4202TIP3   OH212611   0.579   4.167   1.275
 4202TIP3    H112612   0.604   4.084   1.316
 4202TIP3    H212613   0.483   4.168   1.280
 4203TIP3   OH212614   5.480   3.872   1.736
 4203TIP3    H112615   5.493   3.958   1.696
 4203TIP3    H212616   5.552   3.863   1.799
 4204TIP3   OH212617   4.757   5.986   1.691
 4204TIP3    H112618   4.776   5.936   1.611
 4204TIP3    H212619   4.820   6.058   1.689
 4205TIP3   OH212620   2.054   1.423   4.754
 4205TIP3    H112621   2.103   1.504   4.743
 4205TIP3    H212622   1.963   1.450   4.756
 4206TIP3   OH212623   3.496   0.257   1.685
 4206TIP3    H112624   3.404   0.271   1.662
 4206TIP3    H212625   3.507   0.162   1.687
 4207TIP3   OH212626   2.881   5.459   0.292
 4207TIP3    H112627   2.815   5.500   0.237
 4207TIP3    H212628   2.859   5.366   0.291
 4208TIP3   OH212629   0.673   2.557   4.143
 4208TIP3    H112630   0.597   2.501   4.125
 4208TIP3    H212631   0.649   2.643   4.109
 4209TIP3   OH212632   2.385   0.716   4.270
 4209TIP3    H112633   2.408   0.799   4.228
 4209TIP3    H212634   2.313   0.739   4.330
 4210TIP3   OH212635   0.794   0.439   4.759
 4210TIP3    H112636   0.751   0.429   4.844
 4210TIP3    H212637   0.727   0.414   4.695
 4211TIP3   OH212638   2.046   2.591   1.102
 4211TIP3    H112639   2.038   2.544   1.185
 4211TIP3    H212640   1.990   2.668   1.113
 4212TIP3   OH212641   0.805   0.531   4.124
 4212TIP3    H112642   0.800   0.598   4.192
 4212TIP3    H212643   0.884   0.481   4.146
 4213TIP3   OH212644   3.035   1.264   3.760
 4213TIP3    H112645   3.029   1.202   3.688
 4213TIP3    H212646   2.975   1.335   3.736
 4214TIP3   OH212647   2.764   5.059   3.594
 4214TIP3    H112648   2.736   5.003   3.667
 4214TIP3    H212649   2.704   5.134   3.598
 4215TIP3   OH212650   4.417   2.496   4.569
 4215TIP3    H112651   4.364   2.531   4.640
 4215TIP3    H212652   4.495   2.461   4.612
 4216TIP3   OH212653   6.087   5.695   0.708
 4216TIP3    H112654   6.140   5.708   0.629
 4216TIP3    H212655   6.116   5.610   0.742
 4217TIP3   OH212656   5.347   3.575   4.381
 4217TIP3    H112657   5.417   3.563   4.446
 4217TIP3    H212658   5.269   3.594   4.433
 4218TIP3   OH212659   1.585   1.655   1.706
 4218TIP3    H112660   1.644   1.581   1.689
 4218TIP3    H212661   1.508   1.615   1.745
 4219TIP3   OH212662   1.775   1.107   4.641
 4219TIP3    H112663   1.863   1.075   4.619
 4219TIP3    H212664   1.781   1.202   4.628
 4220TIP3   OH212665   5.094   3.988   1.175
 4220TIP3    H112666   5.150   4.050   1.128
 4220TIP3    H212667   5.012   3.989   1.127
 4221TIP3   OH212668   4.222   0.180   1.627
 4221TIP3    H112669   4.186   0.260   1.665
 4221TIP3    H212670   4.204   0.113   1.692
 4222TIP3   OH212671   1.752   4.049   3.338
 4222TIP3    H112672   1.764   3.981   3.272
 4222TIP3    H212673   1.820   4.031   3.404
 4223TIP3   OH212674   0.237   1.195   1.830
 4223TIP3    H112675   0.311   1.196   1.770
 4223TIP3    H212676   0.248   1.275   1.882
 4224TIP3   OH212677   6.108   0.912   1.288
 4224TIP3    H112678   6.071   0.914   1.376
 4224TIP3    H212679   6.075   0.992   1.247
 4225TIP3   OH212680   5.370   5.248   2.806
 4225TIP3    H112681   5.381   5.206   2.892
 4225TIP3    H212682   5.284   5.217   2.776
 4226TIP3   OH212683   0.969   3.480   2.283
 4226TIP3    H112684   0.900   3.518   2.337
 4226TIP3    H212685   0.980   3.542   2.211
 4227TIP3   OH212686   2.705   0.861   0.183
 4227TIP3    H112687   2.754   0.929   0.138
 4227TIP3    H212688   2.765   0.829   0.250
 4228TIP3   OH212689   4.339   2.468   5.039
 4228TIP3    H112690   4.325   2.561   5.022
 4228TIP3    H212691   4.308   2.424   4.960
 4229TIP3   OH212692   3.387   0.677   0.633
 4229TIP3    H112693   3.383   0.645   0.723
 4229TIP3    H212694   3.425   0.764   0.640
 4230TIP3   OH212695   0.032   5.172   2.016
 4230TIP3    H112696   0.085   5.175   2.096
 4230TIP3    H212697   0.062   5.247   1.965
 4231TIP3   OH212698   1.039   0.860   2.962
 4231TIP3    H112699   0.963   0.904   2.924
 4231TIP3    H212700   1.007   0.822   3.044
 4232TIP3   OH212701   0.460   2.886   2.673
 4232TIP3    H112702   0.408   2.966   2.670
 4232TIP3    H212703   0.395   2.816   2.686
 4233TIP3   OH212704   4.197   4.613   0.607
 4233TIP3    H112705   4.293   4.616   0.607
 4233TIP3    H212706   4.175   4.525   0.638
 4234TIP3   OH212707   2.895   1.003   1.961
 4234TIP3    H112708   2.913   0.983   2.052
 4234TIP3    H212709   2.851   1.088   1.963
 4235TIP3   OH212710   1.901   5.171   3.130
 4235TIP3    H112711   1.869   5.182   3.041
 4235TIP3    H212712   1.891   5.078   3.148
 4236TIP3   OH212713   4.040   0.426   2.336
 4236TIP3    H112714   3.959   0.469   2.363
 4236TIP3    H212715   4.055   0.459   2.247
 4237TIP3   OH212716   3.441   5.292   3.904
 4237TIP3    H112717   3.412   5.215   3.952
 4237TIP3    H212718   3.376   5.359   3.924
 4238TIP3   OH212719   3.164   1.699   2.980
 4238TIP3    H112720   3.228   1.768   2.999
 4238TIP3    H212721   3.079   1.740   3.000
 4239TIP3   OH212722   5.498   1.400   3.267
 4239TIP3    H112723   5.544   1.371   3.346
 4239TIP3    H212724   5.563   1.451   3.218
 4240TIP3   OH212725   2.271   0.713   3.281
 4240TIP3    H112726   2.189   0.755   3.307
 4240TIP3    H212727   2.294   0.756   3.198
 4241TIP3   OH212728   0.170   5.367   1.873
 4241TIP3    H112729   0.205   5.343   1.787
 4241TIP3    H212730   0.141   5.457   1.864
 4242TIP3   OH212731   4.642   0.838   1.016
 4242TIP3    H112732   4.585   0.915   1.021
 4242TIP3    H212733   4.640   0.813   0.924
 4243TIP3   OH212734   3.430   0.842   5.014
 4243TIP3    H112735   3.459   0.862   4.925
 4243TIP3    H212736   3.473   0.759   5.035
 4244TIP3   OH212737   3.030   5.871   4.131
 4244TIP3    H112738   3.093   5.935   4.098
 4244TIP3    H212739   3.082   5.791   4.143
 4245TIP3   OH212740   3.753   3.016   1.888
 4245TIP3    H112741   3.680   3.070   1.918
 4245TIP3    H212742   3.729   2.990   1.799
 4246TIP3   OH212743   5.267   3.648   3.354
 4246TIP3    H112744   5.293   3.739   3.338
 4246TIP3    H212745   5.293   3.602   3.275
 4247TIP3   OH212746   0.822   3.553   3.964
 4247TIP3    H112747   0.874   3.629   3.937
 4247TIP3    H212748   0.769   3.584   4.037
 4248TIP3   OH212749   5.849   5.537   0.668
 4248TIP3    H112750   5.889   5.458   0.631
 4248TIP3    H212751   5.883   5.541   0.757
 4249TIP3   OH212752   2.495   5.731   3.136
 4249TIP3    H112753   2.453   5.655   3.097
 4249TIP3    H212754   2.571   5.749   3.081
 4250TIP3   OH212755   0.504   3.922   0.679
 4250TIP3    H112756   0.443   3.850   0.696
 4250TIP3    H212757   0.568   3.916   0.750
 4251TIP3   OH212758   4.941   4.804   0.550
 4251TIP3    H112759   4.990   4.886   0.539
 4251TIP3    H212760   4.898   4.792   0.465
 4252TIP3   OH212761   0.597   0.505   2.581
 4252TIP3    H112762   0.517   0.453   2.569
 4252TIP3    H212763   0.668   0.442   2.571
 4253TIP3   OH212764   4.855   2.904   3.303
 4253TIP3    H112765   4.858   2.871   3.392
 4253TIP3    H212766   4.914   2.847   3.254
 4254TIP3   OH212767   0.578   2.631   1.200
 4254TIP3    H112768   0.534   2.716   1.200
 4254TIP3    H212769   0.648   2.639   1.136
 4255TIP3   OH212770   0.562   4.227   0.499
 4255TIP3    H112771   0.574   4.264   0.586
 4255TIP3    H212772   0.626   4.272   0.444
 4256TIP3   OH212773   4.309   4.956   0.336
 4256TIP3    H112774   4.345   4.877   0.295
 4256TIP3    H212775   4.380   5.020   0.330
 4257TIP3   OH212776   4.982   4.817   1.383
 4257TIP3    H112777   4.927   4.742   1.408
 4257TIP3    H212778   5.016   4.849   1.467
 4258TIP3   OH212779   1.133   2.369   3.798
 4258TIP3    H112780   1.157   2.300   3.736
 4258TIP3    H212781   1.194   2.440   3.779
 4259TIP3   OH212782   1.432   5.746   0.167
 4259TIP3    H112783   1.522   5.779   0.158
 4259TIP3    H212784   1.380   5.823   0.188
 4260TIP3   OH212785   5.241   0.972   0.638
 4260TIP3    H112786   5.298   0.901   0.666
 4260TIP3    H212787   5.222   1.022   0.718
 4261TIP3   OH212788   4.912   5.766   4.526
 4261TIP3    H112789   4.908   5.789   4.434
 4261TIP3    H212790   4.822   5.743   4.550
 4262TIP3   OH212791   1.253   3.589   3.466
 4262TIP3    H112792   1.206   3.517   3.508
 4262TIP3    H212793   1.326   3.546   3.420
 4263TIP3   OH212794   6.272   5.526   0.452
 4263TIP3    H112795   6.197   5.540   0.394
 4263TIP3    H212796   6.346   5.561   0.403
 4264TIP3   OH212797   3.438   1.787   1.396
 4264TIP3    H112798   3.353   1.798   1.439
 4264TIP3    H212799   3.458   1.694   1.405
 4265TIP3   OH212800   0.042   5.099   1.315
 4265TIP3    H112801   0.030   5.049   1.234
 4265TIP3    H212802   0.108   5.051   1.364
 4266TIP3   OH212803   4.201   2.955   5.027
 4266TIP3    H112804   4.192   3.050   5.035
 4266TIP3    H212805   4.112   2.923   5.015
 4267TIP3   OH212806   1.047   2.751   3.019
 4267TIP3    H112807   0.957   2.773   3.043
 4267TIP3    H212808   1.082   2.703   3.095
 4268TIP3   OH212809   2.679   3.512   0.189
 4268TIP3    H112810   2.651   3.427   0.156
 4268TIP3    H212811   2.711   3.495   0.277
 4269TIP3   OH212812   4.569   5.036   0.237
 4269TIP3    H112813   4.647   5.041   0.181
 4269TIP3    H212814   4.603   5.054   0.325
 4270TIP3   OH212815   5.701   1.572   3.119
 4270TIP3    H112816   5.782   1.546   3.075
 4270TIP3    H212817   5.635   1.573   3.049
 4271TIP3   OH212818   2.138   3.510   4.502
 4271TIP3    H112819   2.137   3.449   4.575
 4271TIP3    H212820   2.052   3.499   4.460
 4272TIP3   OH212821   2.326   2.056   3.900
 4272TIP3    H112822   2.420   2.062   3.889
 4272TIP3    H212823   2.298   2.145   3.920
 4273TIP3   OH212824   0.500   4.889   2.321
 4273TIP3    H112825   0.456   4.927   2.244
 4273TIP3    H212826   0.519   4.964   2.377
 4274TIP3   OH212827   4.115   5.840   2.567
 4274TIP3    H112828   4.200   5.823   2.607
 4274TIP3    H212829   4.137   5.873   2.479
 4275TIP3   OH212830   2.706   4.101   2.880
 4275TIP3    H112831   2.612   4.113   2.893
 4275TIP3    H212832   2.741   4.190   2.874
 4276TIP3   OH212833   0.713   5.495   2.140
 4276TIP3    H112834   0.637   5.501   2.081
 4276TIP3    H212835   0.755   5.413   2.117
 4277TIP3   OH212836   5.214   2.401   2.458
 4277TIP3    H112837   5.232   2.479   2.405
 4277TIP3    H212838   5.298   2.355   2.463
 4278TIP3   OH212839   3.146   0.656   1.094
 4278TIP3    H112840   3.195   0.718   1.149
 4278TIP3    H212841   3.101   0.599   1.156
 4279TIP3   OH212842   1.737   0.682   0.543
 4279TIP3    H112843   1.783   0.603   0.516
 4279TIP3    H212844   1.791   0.754   0.512
 4280TIP3   OH212845   0.363   0.112   1.447
 4280TIP3    H112846   0.312   0.067   1.514
 4280TIP3    H212847   0.379   0.046   1.380
 4281TIP3   OH212848   5.171   0.480   1.562
 4281TIP3    H112849   5.083   0.479   1.525
 4281TIP3    H212850   5.190   0.387   1.579
 4282TIP3   OH212851   1.534   3.250   4.226
 4282TIP3    H112852   1.579   3.261   4.309
 4282TIP3    H212853   1.446   3.284   4.241
 4283TIP3   OH212854   4.198   0.759   2.267
 4283TIP3    H112855   4.117   0.811   2.266
 4283TIP3    H212856   4.268   0.823   2.264
 4284TIP3   OH212857   2.578   0.877   2.062
 4284TIP3    H112858   2.635   0.890   1.986
 4284TIP3    H212859   2.622   0.924   2.133
 4285TIP3   OH212860   3.357   5.819   0.892
 4285TIP3    H112861   3.408   5.855   0.965
 4285TIP3    H212862   3.377   5.726   0.893
 4286TIP3   OH212863   5.244   5.788   4.102
 4286TIP3    H112864   5.176   5.828   4.156
 4286TIP3    H212865   5.215   5.698   4.088
 4287TIP3   OH212866   1.859   1.663   4.593
 4287TIP3    H112867   1.819   1.716   4.661
 4287TIP3    H212868   1.857   1.718   4.515
 4288TIP3   OH212869   1.468   1.229   2.256
 4288TIP3    H112870   1.492   1.137   2.242
 4288TIP3    H212871   1.456   1.236   2.351
 4289TIP3   OH212872   0.684   4.083   2.273
 4289TIP3    H112873   0.730   4.005   2.244
 4289TIP3    H212874   0.752   4.141   2.307
 4290TIP3   OH212875   2.079   4.281   3.967
 4290TIP3    H112876   2.083   4.192   4.003
 4290TIP3    H212877   2.131   4.276   3.887
 4291TIP3   OH212878   4.994   1.736   3.735
 4291TIP3    H112879   5.035   1.822   3.722
 4291TIP3    H212880   5.029   1.706   3.819
 4292TIP3   OH212881   0.068   0.715   1.410
 4292TIP3    H112882   0.111   0.654   1.350
 4292TIP3    H212883   0.006   0.660   1.458
 4293TIP3   OH212884   5.151   2.900   3.425
 4293TIP3    H112885   5.082   2.918   3.490
 4293TIP3    H212886   5.165   2.806   3.431
 4294TIP3   OH212887   6.262   3.706   1.986
 4294TIP3    H112888   6.267   3.719   1.891
 4294TIP3    H212889   6.218   3.622   1.996
 4295TIP3   OH212890   6.238   0.417   2.082
 4295TIP3    H112891   6.331   0.436   2.067
 4295TIP3    H212892   6.200   0.501   2.106
 4296TIP3   OH212893   1.798   5.059   1.214
 4296TIP3    H112894   1.881   5.051   1.261
 4296TIP3    H212895   1.818   5.116   1.140
 4297TIP3   OH212896   4.929   3.849   2.747
 4297TIP3    H112897   4.953   3.759   2.767
 4297TIP3    H212898   4.992   3.877   2.681
 4298TIP3   OH212899   5.482   0.585   2.940
 4298TIP3    H112900   5.513   0.675   2.942
 4298TIP3    H212901   5.450   0.569   3.029
 4299TIP3   OH212902   4.269   5.179   4.129
 4299TIP3    H112903   4.217   5.159   4.207
 4299TIP3    H212904   4.310   5.263   4.149
 4300TIP3   OH212905   4.379   3.531   4.187
 4300TIP3    H112906   4.395   3.440   4.213
 4300TIP3    H212907   4.441   3.582   4.239
 4301TIP3   OH212908   0.362   4.767   3.991
 4301TIP3    H112909   0.445   4.744   4.034
 4301TIP3    H212910   0.327   4.839   4.044
 4302TIP3   OH212911   2.379   4.086   4.747
 4302TIP3    H112912   2.363   4.116   4.658
 4302TIP3    H212913   2.341   4.154   4.803
 4303TIP3   OH212914   3.068   0.663   1.993
 4303TIP3    H112915   3.159   0.650   1.967
 4303TIP3    H212916   3.017   0.630   1.919
 4304TIP3   OH212917   1.214   3.425   4.227
 4304TIP3    H112918   1.232   3.415   4.133
 4304TIP3    H212919   1.215   3.336   4.261
 4305TIP3   OH212920   5.526   0.247   0.067
 4305TIP3    H112921   5.475   0.283   0.138
 4305TIP3    H212922   5.615   0.279   0.081
 4306TIP3   OH212923   1.520   3.937   3.480
 4306TIP3    H112924   1.551   3.989   3.406
 4306TIP3    H212925   1.582   3.865   3.486
 4307TIP3   OH212926   0.944   4.380   2.881
 4307TIP3    H112927   0.853   4.407   2.867
 4307TIP3    H212928   0.977   4.361   2.793
 4308TIP3   OH212929   5.044   4.753   2.689
 4308TIP3    H112930   5.054   4.814   2.762
 4308TIP3    H212931   5.043   4.667   2.731
 4309TIP3   OH212932   3.971   3.882   2.402
 4309TIP3    H112933   4.028   3.833   2.343
 4309TIP3    H212934   3.904   3.819   2.428
 4310TIP3   OH212935   1.922   4.794   0.166
 4310TIP3    H112936   1.834   4.774   0.198
 4310TIP3    H212937   1.921   4.765   0.075
 4311TIP3   OH212938   4.265   1.964   4.697
 4311TIP3    H112939   4.174   1.980   4.670
 4311TIP3    H212940   4.317   2.021   4.640
 4312TIP3   OH212941   4.046   2.333   4.354
 4312TIP3    H112942   4.095   2.415   4.348
 4312TIP3    H212943   4.070   2.284   4.276
 4313TIP3   OH212944   4.249   2.617   3.255
 4313TIP3    H112945   4.314   2.627   3.185
 4313TIP3    H212946   4.173   2.580   3.211
 4314TIP3   OH212947   2.850   5.662   2.511
 4314TIP3    H112948   2.927   5.641   2.563
 4314TIP3    H212949   2.865   5.751   2.479
 4315TIP3   OH212950   2.743   4.473   0.793
 4315TIP3    H112951   2.764   4.443   0.705
 4315TIP3    H212952   2.766   4.566   0.793
 4316TIP3   OH212953   4.867   0.850   1.211
 4316TIP3    H112954   4.783   0.809   1.190
 4316TIP3    H212955   4.861   0.870   1.304
 4317TIP3   OH212956   3.976   0.707   1.650
 4317TIP3    H112957   3.882   0.696   1.634
 4317TIP3    H212958   3.993   0.659   1.731
 4318TIP3   OH212959   3.374   3.214   2.497
 4318TIP3    H112960   3.345   3.251   2.580
 4318TIP3    H212961   3.437   3.147   2.521
 4319TIP3   OH212962   0.870   5.125   0.044
 4319TIP3    H112963   0.801   5.064   0.071
 4319TIP3    H212964   0.855   5.137  -0.050
 4320TIP3   OH212965   3.294   1.494   4.107
 4320TIP3    H112966   3.264   1.447   4.029
 4320TIP3    H212967   3.278   1.434   4.180
 4321TIP3   OH212968   5.368   4.635   2.631
 4321TIP3    H112969   5.375   4.725   2.665
 4321TIP3    H212970   5.435   4.586   2.678
 4322TIP3   OH212971   5.311   5.042   1.279
 4322TIP3    H112972   5.378   5.074   1.218
 4322TIP3    H212973   5.237   5.020   1.222
 4323TIP3   OH212974   2.091   2.505   1.721
 4323TIP3    H112975   2.076   2.594   1.688
 4323TIP3    H212976   2.063   2.448   1.650
 4324TIP3   OH212977   2.004   4.282   4.275
 4324TIP3    H112978   2.089   4.321   4.293
 4324TIP3    H212979   1.952   4.352   4.236
 4325TIP3   OH212980   2.571   5.690   1.803
 4325TIP3    H112981   2.554   5.766   1.746
 4325TIP3    H212982   2.506   5.698   1.873
 4326TIP3   OH212983   1.224   4.318   0.413
 4326TIP3    H112984   1.317   4.325   0.396
 4326TIP3    H212985   1.217   4.299   0.506
 4327TIP3   OH212986   1.844   1.220   1.949
 4327TIP3    H112987   1.928   1.260   1.968
 4327TIP3    H212988   1.863   1.158   1.877
 4328TIP3   OH212989   0.033   0.338   0.519
 4328TIP3    H112990   0.003   0.251   0.496
 4328TIP3    H212991   0.128   0.331   0.526
 4329TIP3   OH212992   3.391   3.323   1.542
 4329TIP3    H112993   3.348   3.322   1.457
 4329TIP3    H212994   3.341   3.386   1.594
 4330TIP3   OH212995   3.699   1.577   2.016
 4330TIP3    H112996   3.714   1.583   2.110
 4330TIP3    H212997   3.781   1.543   1.980
 4331TIP3   OH212998   5.767   1.053   0.736
 4331TIP3    H112999   5.739   0.980   0.681
 4331TIP3    H213000   5.799   1.012   0.816
 4332TIP3   OH213001   0.903   0.551   4.458
 4332TIP3    H113002   0.976   0.603   4.492
 4332TIP3    H213003   0.828   0.579   4.510
 4333TIP3   OH213004   3.400   0.964   0.937
 4333TIP3    H113005   3.485   0.999   0.910
 4333TIP3    H213006   3.340   0.988   0.865
 4334TIP3   OH213007   4.205   5.511   0.889
 4334TIP3    H113008   4.227   5.424   0.922
 4334TIP3    H213009   4.284   5.539   0.842
 4335TIP3   OH213010   5.529   2.654   4.607
 4335TIP3    H113011   5.472   2.720   4.568
 4335TIP3    H213012   5.571   2.611   4.533
 4336TIP3   OH213013   3.840   4.070   3.387
 4336TIP3    H113014   3.826   4.072   3.293
 4336TIP3    H213015   3.762   4.026   3.422
 4337TIP3   OH213016   5.962   4.617   2.645
 4337TIP3    H113017   5.977   4.643   2.554
 4337TIP3    H213018   6.021   4.672   2.695
 4338TIP3   OH213019   4.332   3.587   4.997
 4338TIP3    H113020   4.332   3.493   4.977
 4338TIP3    H213021   4.262   3.597   5.062
 4339TIP3   OH213022   4.642   1.601   4.923
 4339TIP3    H113023   4.612   1.520   4.965
 4339TIP3    H213024   4.620   1.669   4.987
 4340TIP3   OH213025   2.981   1.794   0.408
 4340TIP3    H113026   3.065   1.765   0.374
 4340TIP3    H213027   2.918   1.770   0.340
 4341TIP3   OH213028   5.453   2.818   4.204
 4341TIP3    H113029   5.481   2.900   4.245
 4341TIP3    H213030   5.380   2.788   4.259
 4342TIP3   OH213031   1.578   1.839   3.580
 4342TIP3    H113032   1.527   1.911   3.543
 4342TIP3    H213033   1.664   1.877   3.598
 4343TIP3   OH213034   5.401   3.234   3.103
 4343TIP3    H113035   5.390   3.183   3.184
 4343TIP3    H213036   5.351   3.186   3.037
 4344TIP3   OH213037   1.688   5.655   0.812
 4344TIP3    H113038   1.644   5.601   0.747
 4344TIP3    H213039   1.769   5.683   0.770
 4345TIP3   OH213040   5.431   4.685   0.798
 4345TIP3    H113041   5.379   4.693   0.718
 4345TIP3    H213042   5.444   4.774   0.828
 4346TIP3   OH213043   3.194   4.592   4.490
 4346TIP3    H113044   3.125   4.627   4.547
 4346TIP3    H213045   3.169   4.501   4.475
 4347TIP3   OH213046   4.909   2.306   1.929
 4347TIP3    H113047   4.951   2.241   1.986
 4347TIP3    H213048   4.964   2.384   1.940
 4348TIP3   OH213049   5.541   1.431   4.194
 4348TIP3    H113050   5.595   1.509   4.184
 4348TIP3    H213051   5.451   1.462   4.183
 4349TIP3   OH213052   0.044   4.109   4.039
 4349TIP3    H113053   0.139   4.123   4.038
 4349TIP3    H213054   0.011   4.167   3.970
 4350TIP3   OH213055   0.894   1.004   0.821
 4350TIP3    H113056   0.984   0.989   0.790
 4350TIP3    H213057   0.901   1.002   0.917
 4351TIP3   OH213058   4.666   2.983   0.096
 4351TIP3    H113059   4.691   2.909   0.041
 4351TIP3    H213060   4.641   3.051   0.034
 4352TIP3   OH213061   2.034   2.368   0.244
 4352TIP3    H113062   1.976   2.431   0.199
 4352TIP3    H213063   2.012   2.377   0.336
 4353TIP3   OH213064   6.337   1.100   3.246
 4353TIP3    H113065   6.347   1.015   3.289
 4353TIP3    H213066   6.252   1.095   3.204
 4354TIP3   OH213067   2.728   0.801   0.520
 4354TIP3    H113068   2.763   0.713   0.531
 4354TIP3    H213069   2.657   0.807   0.584
 4355TIP3   OH213070   0.457   1.821   3.195
 4355TIP3    H113071   0.552   1.818   3.198
 4355TIP3    H213072   0.432   1.753   3.132
 4356TIP3   OH213073   0.479   1.503   2.242
 4356TIP3    H113074   0.401   1.534   2.286
 4356TIP3    H213075   0.499   1.419   2.284
 4357TIP3   OH213076   1.316   3.256   1.072
 4357TIP3    H113077   1.298   3.350   1.068
 4357TIP3    H213078   1.230   3.214   1.061
 4358TIP3   OH213079   1.484   5.851   0.607
 4358TIP3    H113080   1.476   5.770   0.557
 4358TIP3    H213081   1.538   5.908   0.553
 4359TIP3   OH213082   4.563   2.623   5.183
 4359TIP3    H113083   4.599   2.639   5.096
 4359TIP3    H213084   4.473   2.657   5.179
 4360TIP3   OH213085   0.480   3.838   2.654
 4360TIP3    H113086   0.545   3.869   2.591
 4360TIP3    H213087   0.481   3.904   2.724
 4361TIP3   OH213088   0.431   4.259   1.677
 4361TIP3    H113089   0.346   4.215   1.671
 4361TIP3    H213090   0.495   4.190   1.662
 4362TIP3   OH213091   1.713   0.972   2.855
 4362TIP3    H113092   1.651   0.940   2.790
 4362TIP3    H213093   1.795   0.926   2.834
 4363TIP3   OH213094   5.757   2.883   2.881
 4363TIP3    H113095   5.785   2.937   2.807
 4363TIP3    H213096   5.820   2.902   2.950
 4364TIP3   OH213097   5.271   0.613   1.225
 4364TIP3    H113098   5.313   0.690   1.186
 4364TIP3    H213099   5.291   0.619   1.318
 4365TIP3   OH213100   0.400   2.895   3.297
 4365TIP3    H113101   0.331   2.833   3.276
 4365TIP3    H213102   0.375   2.975   3.252
 4366TIP3   OH213103   2.188   3.065   4.434
 4366TIP3    H113104   2.156   3.079   4.523
 4366TIP3    H213105   2.120   3.103   4.378
 4367TIP3   OH213106   0.793   2.267   4.355
 4367TIP3    H113107   0.842   2.339   4.315
 4367TIP3    H213108   0.710   2.263   4.306
 4368TIP3   OH213109   0.110   5.243   4.127
 4368TIP3    H113110   0.179   5.178   4.119
 4368TIP3    H213111   0.119   5.298   4.049
 4369TIP3   OH213112   5.189   5.313   4.194
 4369TIP3    H113113   5.206   5.386   4.252
 4369TIP3    H213114   5.116   5.267   4.233
 4370TIP3   OH213115   0.668   5.453   2.839
 4370TIP3    H113116   0.743   5.490   2.793
 4370TIP3    H213117   0.706   5.391   2.901
 4371TIP3   OH213118   1.651   2.099   0.672
 4371TIP3    H113119   1.576   2.042   0.656
 4371TIP3    H213120   1.726   2.050   0.639
 4372TIP3   OH213121   6.065   4.037   2.499
 4372TIP3    H113122   6.061   4.132   2.513
 4372TIP3    H213123   6.151   4.012   2.531
 4373TIP3   OH213124   3.422   2.901   2.746
 4373TIP3    H113125   3.401   2.993   2.764
 4373TIP3    H213126   3.345   2.852   2.775
 4374TIP3   OH213127   5.504   1.759   2.756
 4374TIP3    H113128   5.546   1.709   2.686
 4374TIP3    H213129   5.564   1.833   2.772
 4375TIP3   OH213130   4.468   5.568   3.540
 4375TIP3    H113131   4.390   5.514   3.550
 4375TIP3    H213132   4.542   5.509   3.556
 4376TIP3   OH213133   5.699   4.238   4.141
 4376TIP3    H113134   5.769   4.196   4.192
 4376TIP3    H213135   5.740   4.258   4.057
 4377TIP3   OH213136   6.182   2.462   1.687
 4377TIP3    H113137   6.121   2.479   1.615
 4377TIP3    H213138   6.151   2.380   1.725
 4378TIP3   OH213139   4.509   2.816   3.335
 4378TIP3    H113140   4.569   2.881   3.296
 4378TIP3    H213141   4.540   2.732   3.301
 4379TIP3   OH213142   1.856   2.873   4.593
 4379TIP3    H113143   1.764   2.856   4.613
 4379TIP3    H213144   1.859   2.966   4.571
 4380TIP3   OH213145   3.069   0.517   0.299
 4380TIP3    H113146   3.105   0.434   0.329
 4380TIP3    H213147   2.997   0.493   0.240
 4381TIP3   OH213148   5.974   0.933   3.732
 4381TIP3    H113149   6.023   0.854   3.712
 4381TIP3    H213150   6.012   0.965   3.814
 4382TIP3   OH213151   5.239   5.409   1.116
 4382TIP3    H113152   5.214   5.441   1.029
 4382TIP3    H213153   5.263   5.488   1.164
 4383TIP3   OH213154   5.397   3.448   4.892
 4383TIP3    H113155   5.355   3.417   4.972
 4383TIP3    H213156   5.428   3.368   4.849
 4384TIP3   OH213157   5.020   0.737   2.416
 4384TIP3    H113158   4.955   0.696   2.472
 4384TIP3    H213159   5.062   0.664   2.371
 4385TIP3   OH213160   3.825   1.579   2.447
 4385TIP3    H113161   3.777   1.539   2.519
 4385TIP3    H213162   3.890   1.636   2.489
 4386TIP3   OH213163   1.146   4.906   4.245
 4386TIP3    H113164   1.130   4.959   4.166
 4386TIP3    H213165   1.241   4.909   4.258
 4387TIP3   OH213166   1.708   5.592   1.922
 4387TIP3    H113167   1.730   5.542   2.000
 4387TIP3    H213168   1.759   5.551   1.852
 4388TIP3   OH213169   5.048   2.524   1.165
 4388TIP3    H113170   4.988   2.559   1.231
 4388TIP3    H213171   5.118   2.588   1.159
 4389TIP3   OH213172   3.068   4.427   0.798
 4389TIP3    H113173   2.984   4.382   0.810
 4389TIP3    H213174   3.134   4.360   0.819
 4390TIP3   OH213175   3.814   4.005   2.093
 4390TIP3    H113176   3.868   3.953   2.033
 4390TIP3    H213177   3.725   3.997   2.058
 4391TIP3   OH213178   2.213   1.695   1.108
 4391TIP3    H113179   2.207   1.636   1.033
 4391TIP3    H213180   2.273   1.651   1.168
 4392TIP3   OH213181   0.158   5.905   2.606
 4392TIP3    H113182   0.101   5.831   2.587
 4392TIP3    H213183   0.112   5.981   2.568
 4393TIP3   OH213184   0.113   4.964   0.061
 4393TIP3    H113185   0.096   4.957  -0.033
 4393TIP3    H213186   0.069   4.887   0.098
 4394TIP3   OH213187   0.907   5.341   0.303
 4394TIP3    H113188   0.932   5.423   0.261
 4394TIP3    H213189   0.816   5.328   0.276
 4395TIP3   OH213190   0.377   3.729   0.824
 4395TIP3    H113191   0.423   3.660   0.776
 4395TIP3    H213192   0.424   3.736   0.907
 4396TIP3   OH213193   1.453   4.642   3.324
 4396TIP3    H113194   1.358   4.652   3.330
 4396TIP3    H213195   1.475   4.578   3.391
 4397TIP3   OH213196   4.677   2.014   5.087
 4397TIP3    H113197   4.661   2.053   5.173
 4397TIP3    H213198   4.749   2.065   5.050
 4398TIP3   OH213199   4.579   0.734   2.838
 4398TIP3    H113200   4.484   0.726   2.851
 4398TIP3    H213201   4.603   0.654   2.791
 4399TIP3   OH213202   3.344   4.067   2.128
 4399TIP3    H113203   3.264   4.016   2.116
 4399TIP3    H213204   3.415   4.009   2.100
 4400TIP3   OH213205   6.199   3.122   0.696
 4400TIP3    H113206   6.196   3.197   0.755
 4400TIP3    H213207   6.161   3.155   0.614
 4401TIP3   OH213208   3.098   2.509   2.431
 4401TIP3    H113209   3.136   2.588   2.392
 4401TIP3    H213210   3.151   2.438   2.395
 4402TIP3   OH213211   3.086   0.920   1.307
 4402TIP3    H113212   3.040   0.947   1.228
 4402TIP3    H213213   3.179   0.920   1.282
 4403TIP3   OH213214   1.494   2.769   2.560
 4403TIP3    H113215   1.473   2.853   2.520
 4403TIP3    H213216   1.562   2.789   2.624
 4404TIP3   OH213217   1.110   3.057   0.753
 4404TIP3    H113218   1.096   3.144   0.790
 4404TIP3    H213219   1.160   3.073   0.673
 4405TIP3   OH213220   1.468   1.392   0.205
 4405TIP3    H113221   1.521   1.462   0.166
 4405TIP3    H213222   1.522   1.360   0.277
 4406TIP3   OH213223   1.979   1.468   5.152
 4406TIP3    H113224   2.063   1.497   5.188
 4406TIP3    H213225   1.985   1.373   5.151
 4407TIP3   OH213226   5.058   5.840   2.594
 4407TIP3    H113227   5.114   5.776   2.639
 4407TIP3    H213228   5.113   5.874   2.524
 4408TIP3   OH213229   4.739   0.384   0.419
 4408TIP3    H113230   4.738   0.421   0.331
 4408TIP3    H213231   4.710   0.293   0.406
 4409TIP3   OH213232   4.318   2.282   4.855
 4409TIP3    H113233   4.237   2.300   4.807
 4409TIP3    H213234   4.382   2.261   4.788
 4410TIP3   OH213235   2.253   5.815   3.226
 4410TIP3    H113236   2.247   5.910   3.220
 4410TIP3    H213237   2.327   5.792   3.170
 4411TIP3   OH213238   1.668   5.512   1.091
 4411TIP3    H113239   1.761   5.492   1.096
 4411TIP3    H213240   1.638   5.510   1.182
 4412TIP3   OH213241   4.914   0.238   2.701
 4412TIP3    H113242   4.936   0.267   2.613
 4412TIP3    H213243   4.880   0.149   2.690
 4413TIP3   OH213244   2.254   2.719   3.489
 4413TIP3    H113245   2.251   2.812   3.465
 4413TIP3    H213246   2.323   2.682   3.434
 4414TIP3   OH213247   2.991   4.669   3.516
 4414TIP3    H113248   2.923   4.704   3.458
 4414TIP3    H213249   3.026   4.593   3.468
 4415TIP3   OH213250   6.297   4.314   3.529
 4415TIP3    H113251   6.383   4.332   3.566
 4415TIP3    H213252   6.274   4.393   3.481
 4416TIP3   OH213253   3.981   4.714   3.967
 4416TIP3    H113254   3.944   4.758   3.891
 4416TIP3    H213255   4.025   4.783   4.016
 4417TIP3   OH213256   4.703   4.365   2.553
 4417TIP3    H113257   4.669   4.279   2.577
 4417TIP3    H213258   4.798   4.355   2.556
 4418TIP3   OH213259   2.272   0.226   1.700
 4418TIP3    H113260   2.276   0.280   1.621
 4418TIP3    H213261   2.243   0.286   1.769
 4419TIP3   OH213262   3.576   1.449   4.223
 4419TIP3    H113263   3.637   1.466   4.151
 4419TIP3    H213264   3.536   1.365   4.201
 4420TIP3   OH213265   5.390   5.360   2.234
 4420TIP3    H113266   5.367   5.374   2.143
 4420TIP3    H213267   5.307   5.343   2.278
 4421TIP3   OH213268   1.001   0.531   1.800
 4421TIP3    H113269   1.071   0.573   1.850
 4421TIP3    H213270   0.941   0.603   1.779
 4422TIP3   OH213271   4.478   1.391   4.415
 4422TIP3    H113272   4.568   1.422   4.411
 4422TIP3    H213273   4.485   1.296   4.408
 4423TIP3   OH213274   2.596   1.373   3.543
 4423TIP3    H113275   2.608   1.379   3.637
 4423TIP3    H213276   2.536   1.444   3.522
 4424TIP3   OH213277   5.002   1.265   2.303
 4424TIP3    H113278   5.096   1.279   2.314
 4424TIP3    H213279   4.993   1.170   2.296
 4425TIP3   OH213280   0.838   5.899   5.056
 4425TIP3    H113281   0.823   5.950   4.977
 4425TIP3    H213282   0.928   5.868   5.049
 4426TIP3   OH213283   5.891   0.178   3.140
 4426TIP3    H113284   5.984   0.188   3.158
 4426TIP3    H213285   5.856   0.267   3.143
 4427TIP3   OH213286   2.856   0.522   3.511
 4427TIP3    H113287   2.809   0.574   3.576
 4427TIP3    H213288   2.915   0.467   3.563
 4428TIP3   OH213289   5.429   2.128   0.577
 4428TIP3    H113290   5.520   2.158   0.575
 4428TIP3    H213291   5.384   2.184   0.514
 4429TIP3   OH213292   4.027   5.958   0.696
 4429TIP3    H113293   3.937   5.977   0.669
 4429TIP3    H213294   4.023   5.957   0.792
 4430TIP3   OH213295   3.039   3.700   5.159
 4430TIP3    H113296   2.990   3.651   5.093
 4430TIP3    H213297   3.130   3.679   5.143
 4431TIP3   OH213298   3.590   1.875   0.884
 4431TIP3    H113299   3.595   1.948   0.946
 4431TIP3    H213300   3.679   1.867   0.849
 4432TIP3   OH213301   6.354   5.495   5.212
 4432TIP3    H113302   6.335   5.588   5.225
 4432TIP3    H213303   6.441   5.493   5.173
 4433TIP3   OH213304   6.084   1.004   0.000
 4433TIP3    H113305   6.039   1.043  -0.075
 4433TIP3    H213306   6.175   0.997  -0.027
 4434TIP3   OH213307   2.112   2.230   0.901
 4434TIP3    H113308   2.076   2.260   0.817
 4434TIP3    H213309   2.079   2.141   0.911
 4435TIP3   OH213310   3.860   2.676   2.583
 4435TIP3    H113311   3.851   2.750   2.523
 4435TIP3    H213312   3.889   2.715   2.665
 4436TIP3   OH213313   6.230   3.040   1.562
 4436TIP3    H113314   6.306   3.042   1.620
 4436TIP3    H213315   6.239   2.959   1.512
 4437TIP3   OH213316   1.098   3.974   4.601
 4437TIP3    H113317   1.007   3.989   4.575
 4437TIP3    H213318   1.149   4.034   4.547
 4438TIP3   OH213319   0.880   4.334   3.171
 4438TIP3    H113320   0.817   4.403   3.153
 4438TIP3    H213321   0.923   4.318   3.087
 4439TIP3   OH213322   0.716   2.150   0.600
 4439TIP3    H113323   0.741   2.081   0.540
 4439TIP3    H213324   0.657   2.206   0.549
 4440TIP3   OH213325   0.870   5.734   2.115
 4440TIP3    H113326   0.790   5.788   2.112
 4440TIP3    H213327   0.838   5.644   2.114
 4441TIP3   OH213328   4.959   1.745   4.426
 4441TIP3    H113329   5.042   1.790   4.409
 4441TIP3    H213330   4.895   1.815   4.438
 4442TIP3   OH213331   3.378   5.744   3.352
 4442TIP3    H113332   3.305   5.708   3.403
 4442TIP3    H213333   3.441   5.672   3.348
 4443TIP3   OH213334   0.859   5.491   4.266
 4443TIP3    H113335   0.944   5.450   4.250
 4443TIP3    H213336   0.864   5.576   4.221
 4444TIP3   OH213337   2.637   4.797   4.012
 4444TIP3    H113338   2.625   4.840   3.927
 4444TIP3    H213339   2.659   4.707   3.990
 4445TIP3   OH213340   5.929   2.776   1.565
 4445TIP3    H113341   6.025   2.774   1.573
 4445TIP3    H213342   5.898   2.762   1.655
 4446TIP3   OH213343   2.835   0.207   1.297
 4446TIP3    H113344   2.831   0.113   1.280
 4446TIP3    H213345   2.748   0.239   1.277
 4447TIP3   OH213346   1.068   2.650   3.706
 4447TIP3    H113347   1.003   2.608   3.762
 4447TIP3    H213348   1.107   2.718   3.762
 4448TIP3   OH213349   2.042   2.979   4.138
 4448TIP3    H113350   2.023   2.885   4.145
 4448TIP3    H213351   1.956   3.021   4.141
 4449TIP3   OH213352   0.580   2.351   2.896
 4449TIP3    H113353   0.562   2.297   2.972
 4449TIP3    H213354   0.518   2.321   2.830
 4450TIP3   OH213355   3.701   0.087   2.317
 4450TIP3    H113356   3.790   0.120   2.329
 4450TIP3    H213357   3.663   0.143   2.250
 4451TIP3   OH213358   0.675   2.017   3.062
 4451TIP3    H113359   0.764   2.037   3.034
 4451TIP3    H213360   0.673   2.042   3.155
 4452TIP3   OH213361   1.503   5.406   4.853
 4452TIP3    H113362   1.521   5.413   4.759
 4452TIP3    H213363   1.521   5.494   4.887
 4453TIP3   OH213364   3.749   3.695   0.633
 4453TIP3    H113365   3.659   3.719   0.611
 4453TIP3    H213366   3.743   3.605   0.666
 4454TIP3   OH213367   2.844   1.452   1.476
 4454TIP3    H113368   2.936   1.458   1.502
 4454TIP3    H213369   2.822   1.359   1.486
 4455TIP3   OH213370   3.201   5.721   0.484
 4455TIP3    H113371   3.220   5.640   0.532
 4455TIP3    H213372   3.287   5.762   0.471
 4456TIP3   OH213373   5.912   5.396   2.325
 4456TIP3    H113374   5.855   5.453   2.377
 4456TIP3    H213375   5.861   5.316   2.313
 4457TIP3   OH213376   3.341   3.678   5.149
 4457TIP3    H113377   3.391   3.597   5.151
 4457TIP3    H213378   3.381   3.732   5.217
 4458TIP3   OH213379   1.874   5.181   0.982
 4458TIP3    H113380   1.902   5.099   0.941
 4458TIP3    H213381   1.862   5.242   0.909
 4459TIP3   OH213382   1.996   0.683   1.624
 4459TIP3    H113383   2.011   0.704   1.716
 4459TIP3    H213384   2.077   0.640   1.597
 4460TIP3   OH213385   2.252   3.155   1.133
 4460TIP3    H113386   2.348   3.149   1.136
 4460TIP3    H213387   2.223   3.064   1.135
 4461TIP3   OH213388   2.648   2.808   4.584
 4461TIP3    H113389   2.687   2.834   4.668
 4461TIP3    H213390   2.554   2.817   4.598
 4462TIP3   OH213391   4.561   3.088   1.988
 4462TIP3    H113392   4.515   3.170   1.971
 4462TIP3    H213393   4.510   3.022   1.941
 4463TIP3   OH213394   2.712   5.909   3.361
 4463TIP3    H113395   2.654   5.985   3.362
 4463TIP3    H213396   2.762   5.917   3.279
 4464TIP3   OH213397   1.615   5.816   4.112
 4464TIP3    H113398   1.650   5.836   4.199
 4464TIP3    H213399   1.603   5.721   4.112
 4465TIP3   OH213400   5.681   1.638   0.004
 4465TIP3    H113401   5.613   1.602   0.061
 4465TIP3    H213402   5.671   1.733   0.012
 4466TIP3   OH213403   5.140   2.134   2.619
 4466TIP3    H113404   5.147   2.190   2.542
 4466TIP3    H213405   5.141   2.195   2.693
 4467TIP3   OH213406   0.329   0.804   3.835
 4467TIP3    H113407   0.307   0.723   3.882
 4467TIP3    H213408   0.419   0.791   3.806
 4468TIP3   OH213409   5.552   5.914   3.290
 4468TIP3    H113410   5.476   5.952   3.246
 4468TIP3    H213411   5.609   5.989   3.308
 4469TIP3   OH213412   5.596   3.482   2.344
 4469TIP3    H113413   5.678   3.530   2.354
 4469TIP3    H213414   5.567   3.466   2.434
 4470TIP3   OH213415   0.775   3.850   5.086
 4470TIP3    H113416   0.863   3.836   5.119
 4470TIP3    H213417   0.725   3.774   5.118
 4471TIP3   OH213418   3.900   4.258   2.674
 4471TIP3    H113419   3.950   4.214   2.743
 4471TIP3    H213420   3.840   4.190   2.642
 4472TIP3   OH213421   1.036   4.849   4.500
 4472TIP3    H113422   1.105   4.818   4.558
 4472TIP3    H213423   1.081   4.874   4.419
 4473TIP3   OH213424   0.075   3.680   0.825
 4473TIP3    H113425   0.149   3.740   0.815
 4473TIP3    H213426   0.115   3.594   0.838
 4474TIP3   OH213427   1.449   5.066   2.596
 4474TIP3    H113428   1.402   4.985   2.577
 4474TIP3    H213429   1.496   5.086   2.515
 4475TIP3   OH213430   3.381   5.050   0.040
 4475TIP3    H113431   3.448   5.088   0.097
 4475TIP3    H213432   3.302   5.048   0.094
 4476TIP3   OH213433   5.729   4.265   4.467
 4476TIP3    H113434   5.735   4.323   4.392
 4476TIP3    H213435   5.635   4.261   4.487
 4477TIP3   OH213436   5.257   1.306   4.487
 4477TIP3    H113437   5.184   1.334   4.431
 4477TIP3    H213438   5.221   1.233   4.538
 4478TIP3   OH213439   2.368   1.448   2.871
 4478TIP3    H113440   2.275   1.445   2.892
 4478TIP3    H213441   2.386   1.363   2.829
 4479TIP3   OH213442   3.557   0.416   0.787
 4479TIP3    H113443   3.560   0.352   0.715
 4479TIP3    H213444   3.486   0.386   0.843
 4480TIP3   OH213445   2.198   0.392   4.488
 4480TIP3    H113446   2.142   0.468   4.501
 4480TIP3    H213447   2.153   0.321   4.533
 4481TIP3   OH213448   5.765   5.614   0.261
 4481TIP3    H113449   5.675   5.582   0.274
 4481TIP3    H213450   5.757   5.681   0.193
 4482TIP3   OH213451   1.474   0.592   4.411
 4482TIP3    H113452   1.469   0.599   4.506
 4482TIP3    H213453   1.396   0.639   4.380
 4483TIP3   OH213454   6.197   4.537   4.679
 4483TIP3    H113455   6.191   4.585   4.762
 4483TIP3    H213456   6.111   4.494   4.671
 4484TIP3   OH213457   5.221   5.184   5.184
 4484TIP3    H113458   5.283   5.256   5.191
 4484TIP3    H213459   5.167   5.206   5.108
 4485TIP3   OH213460   5.391   5.009   2.258
 4485TIP3    H113461   5.426   4.997   2.347
 4485TIP3    H213462   5.356   4.923   2.234
 4486TIP3   OH213463   5.425   3.255   3.783
 4486TIP3    H113464   5.499   3.197   3.763
 4486TIP3    H213465   5.359   3.197   3.822
 4487TIP3   OH213466   3.441   2.449   1.143
 4487TIP3    H113467   3.412   2.359   1.129
 4487TIP3    H213468   3.359   2.500   1.145
 4488TIP3   OH213469   5.494   2.991   4.986
 4488TIP3    H113470   5.515   2.898   4.974
 4488TIP3    H213471   5.418   2.991   5.044
 4489TIP3   OH213472   4.186   2.310   3.888
 4489TIP3    H113473   4.231   2.250   3.947
 4489TIP3    H213474   4.105   2.333   3.933
 4490TIP3   OH213475   4.630   3.104   1.622
 4490TIP3    H113476   4.598   3.014   1.620
 4490TIP3    H213477   4.725   3.095   1.628
 4491TIP3   OH213478   0.346   2.567   1.790
 4491TIP3    H113479   0.361   2.658   1.766
 4491TIP3    H213480   0.262   2.545   1.750
 4492TIP3   OH213481   3.363   3.606   0.964
 4492TIP3    H113482   3.267   3.607   0.957
 4492TIP3    H213483   3.390   3.536   0.904
 4493TIP3   OH213484   5.036   1.429   4.375
 4493TIP3    H113485   4.966   1.445   4.312
 4493TIP3    H213486   5.029   1.501   4.437
 4494TIP3   OH213487   0.924   1.673   0.758
 4494TIP3    H113488   0.903   1.747   0.702
 4494TIP3    H213489   0.840   1.629   0.773
 4495TIP3   OH213490   1.416   0.572   1.723
 4495TIP3    H113491   1.496   0.581   1.670
 4495TIP3    H213492   1.434   0.622   1.802
 4496TIP3   OH213493   2.957   5.518   0.614
 4496TIP3    H113494   3.041   5.519   0.660
 4496TIP3    H213495   2.944   5.609   0.586
 4497TIP3   OH213496   4.312   0.304   3.542
 4497TIP3    H113497   4.301   0.378   3.602
 4497TIP3    H213498   4.372   0.336   3.475
 4498TIP3   OH213499   5.745   3.559   1.778
 4498TIP3    H113500   5.687   3.558   1.854
 4498TIP3    H213501   5.748   3.468   1.749
 4499TIP3   OH213502   3.224   5.452   3.405
 4499TIP3    H113503   3.141   5.494   3.430
 4499TIP3    H213504   3.272   5.444   3.488
 4500TIP3   OH213505   3.786   5.799   3.289
 4500TIP3    H113506   3.839   5.873   3.260
 4500TIP3    H213507   3.708   5.803   3.233
 4501TIP3   OH213508   0.917   3.714   0.839
 4501TIP3    H113509   0.912   3.650   0.767
 4501TIP3    H213510   0.828   3.748   0.846
 4502TIP3   OH213511   3.260   4.341   4.907
 4502TIP3    H113512   3.277   4.342   4.813
 4502TIP3    H213513   3.322   4.404   4.944
 4503TIP3   OH213514   0.128   2.056   0.533
 4503TIP3    H113515   0.164   1.997   0.600
 4503TIP3    H213516   0.203   2.106   0.502
 4504TIP3   OH213517   5.684   0.826   1.267
 4504TIP3    H113518   5.691   0.835   1.172
 4504TIP3    H213519   5.737   0.749   1.288
 4505TIP3   OH213520   0.723   3.419   3.507
 4505TIP3    H113521   0.730   3.473   3.428
 4505TIP3    H213522   0.814   3.396   3.527
 4506TIP3   OH213523   3.592   0.171   4.988
 4506TIP3    H113524   3.567   0.182   4.896
 4506TIP3    H213525   3.536   0.100   5.019
 4507TIP3   OH213526   5.993   2.951   3.767
 4507TIP3    H113527   6.069   2.898   3.744
 4507TIP3    H213528   6.022   3.005   3.840
 4508TIP3   OH213529   5.242   4.777   2.428
 4508TIP3    H113530   5.242   4.720   2.351
 4508TIP3    H213531   5.275   4.722   2.499
 4509TIP3   OH213532   1.428   0.060   2.284
 4509TIP3    H113533   1.510   0.108   2.274
 4509TIP3    H213534   1.365   0.109   2.230
 4510TIP3   OH213535   3.607   1.076   1.279
 4510TIP3    H113536   3.548   1.117   1.217
 4510TIP3    H213537   3.598   0.982   1.263
 4511TIP3   OH213538   3.775   1.349   1.619
 4511TIP3    H113539   3.784   1.262   1.660
 4511TIP3    H213540   3.797   1.334   1.527
 4512TIP3   OH213541   0.503   3.141   1.282
 4512TIP3    H113542   0.596   3.162   1.282
 4512TIP3    H213543   0.462   3.212   1.332
 4513TIP3   OH213544   6.231   1.607   0.602
 4513TIP3    H113545   6.144   1.609   0.641
 4513TIP3    H213546   6.246   1.514   0.583
 4514TIP3   OH213547   5.206   0.768   4.051
 4514TIP3    H113548   5.247   0.841   4.005
 4514TIP3    H213549   5.225   0.692   3.997
 4515TIP3   OH213550   3.553   3.520   3.352
 4515TIP3    H113551   3.544   3.439   3.303
 4515TIP3    H213552   3.648   3.533   3.361
 4516TIP3   OH213553   3.276   3.185   0.515
 4516TIP3    H113554   3.270   3.249   0.444
 4516TIP3    H213555   3.249   3.102   0.475
 4517TIP3   OH213556   4.567   1.949   3.135
 4517TIP3    H113557   4.608   1.863   3.139
 4517TIP3    H213558   4.476   1.934   3.161
 4518TIP3   OH213559   3.139   3.911   2.105
 4518TIP3    H113560   3.128   3.816   2.094
 4518TIP3    H213561   3.070   3.949   2.051
 4519TIP3   OH213562   0.182   2.690   3.055
 4519TIP3    H113563   0.259   2.719   3.006
 4519TIP3    H213564   0.209   2.608   3.096
 4520TIP3   OH213565   2.858   3.469   0.717
 4520TIP3    H113566   2.861   3.542   0.656
 4520TIP3    H213567   2.914   3.496   0.790
 4521TIP3   OH213568   2.008   2.699   4.205
 4521TIP3    H113569   2.093   2.656   4.204
 4521TIP3    H213570   1.946   2.630   4.228
 4522TIP3   OH213571   4.145   0.859   0.636
 4522TIP3    H113572   4.138   0.808   0.555
 4522TIP3    H213573   4.219   0.918   0.621
 4523TIP3   OH213574   0.394   1.743   1.620
 4523TIP3    H113575   0.355   1.780   1.700
 4523TIP3    H213576   0.333   1.768   1.550
 4524TIP3   OH213577   3.582   3.586   1.489
 4524TIP3    H113578   3.549   3.550   1.407
 4524TIP3    H213579   3.627   3.667   1.464
 4525TIP3   OH213580   6.317   5.114   0.289
 4525TIP3    H113581   6.236   5.100   0.240
 4525TIP3    H213582   6.383   5.066   0.240
 4526TIP3   OH213583   5.607   4.591   3.602
 4526TIP3    H113584   5.592   4.680   3.635
 4526TIP3    H213585   5.659   4.549   3.671
 4527TIP3   OH213586   6.143   4.467   0.061
 4527TIP3    H113587   6.118   4.511   0.143
 4527TIP3    H213588   6.173   4.537   0.004
 4528TIP3   OH213589   5.710   3.103   5.094
 4528TIP3    H113590   5.698   3.195   5.070
 4528TIP3    H213591   5.626   3.062   5.074
 4529TIP3   OH213592   0.742   0.828   1.161
 4529TIP3    H113593   0.705   0.871   1.238
 4529TIP3    H213594   0.762   0.739   1.190
 4530TIP3   OH213595   4.817   5.197   5.030
 4530TIP3    H113596   4.749   5.165   4.971
 4530TIP3    H213597   4.853   5.118   5.070
 4531TIP3   OH213598   1.919   0.890   2.538
 4531TIP3    H113599   1.896   0.899   2.630
 4531TIP3    H213600   2.001   0.839   2.539
 4532TIP3   OH213601   3.483   3.932   1.699
 4532TIP3    H113602   3.432   4.007   1.667
 4532TIP3    H213603   3.443   3.856   1.657
 4533TIP3   OH213604   2.644   2.922   0.148
 4533TIP3    H113605   2.655   2.987   0.218
 4533TIP3    H213606   2.673   2.967   0.069
 4534TIP3   OH213607   1.448   5.662   0.975
 4534TIP3    H113608   1.391   5.625   0.906
 4534TIP3    H213609   1.534   5.623   0.957
 4535TIP3   OH213610   3.135   5.179   4.159
 4535TIP3    H113611   3.165   5.127   4.084
 4535TIP3    H213612   3.213   5.188   4.214
 4536TIP3   OH213613   3.745   4.250   4.459
 4536TIP3    H113614   3.687   4.176   4.478
 4536TIP3    H213615   3.807   4.216   4.395
 4537TIP3   OH213616   5.725   3.219   4.047
 4537TIP3    H113617   5.685   3.134   4.034
 4537TIP3    H213618   5.718   3.262   3.962
 4538TIP3   OH213619   1.544   4.424  -0.021
 4538TIP3    H113620   1.522   4.405   0.070
 4538TIP3    H213621   1.639   4.431  -0.022
 4539TIP3   OH213622   4.873   2.786   1.088
 4539TIP3    H113623   4.965   2.774   1.112
 4539TIP3    H213624   4.837   2.839   1.159
 4540TIP3   OH213625   3.400   2.649   0.624
 4540TIP3    H113626   3.310   2.651   0.591
 4540TIP3    H213627   3.398   2.585   0.695
 4541TIP3   OH213628   4.253   4.148   1.374
 4541TIP3    H113629   4.319   4.127   1.307
 4541TIP3    H213630   4.261   4.077   1.438
 4542TIP3   OH213631   0.108   4.338   3.225
 4542TIP3    H113632   0.069   4.425   3.236
 4542TIP3    H213633   0.188   4.340   3.277
 4543TIP3   OH213634   5.275   5.726   1.555
 4543TIP3    H113635   5.275   5.682   1.470
 4543TIP3    H213636   5.279   5.820   1.533
 4544TIP3   OH213637   1.746   5.773   4.362
 4544TIP3    H113638   1.767   5.681   4.348
 4544TIP3    H213639   1.704   5.775   4.449
 4545TIP3   OH213640   0.513   3.919   1.065
 4545TIP3    H113641   0.422   3.946   1.057
 4545TIP3    H213642   0.526   3.909   1.160
 4546TIP3   OH213643   4.957   2.639   4.436
 4546TIP3    H113644   4.873   2.596   4.417
 4546TIP3    H213645   5.023   2.579   4.401
 4547TIP3   OH213646   1.644   1.920   2.944
 4547TIP3    H113647   1.613   1.878   3.025
 4547TIP3    H213648   1.686   1.850   2.895
 4548TIP3   OH213649   1.338   2.433   1.825
 4548TIP3    H113650   1.418   2.380   1.830
 4548TIP3    H213651   1.290   2.411   1.905
 4549TIP3   OH213652   4.442   5.890   2.934
 4549TIP3    H113653   4.517   5.830   2.930
 4549TIP3    H213654   4.475   5.971   2.895
 4550TIP3   OH213655   0.381   4.755   0.875
 4550TIP3    H113656   0.337   4.695   0.935
 4550TIP3    H213657   0.471   4.757   0.906
 4551TIP3   OH213658   0.550   0.504   2.261
 4551TIP3    H113659   0.455   0.514   2.258
 4551TIP3    H213660   0.564   0.410   2.277
 4552TIP3   OH213661   3.497   4.677   1.344
 4552TIP3    H113662   3.409   4.713   1.357
 4552TIP3    H213663   3.548   4.711   1.418
 4553TIP3   OH213664   4.665   1.444   1.295
 4553TIP3    H113665   4.592   1.394   1.258
 4553TIP3    H213666   4.711   1.381   1.351
 4554TIP3   OH213667   4.176   2.409   0.279
 4554TIP3    H113668   4.105   2.346   0.271
 4554TIP3    H213669   4.173   2.460   0.198
 4555TIP3   OH213670   5.289   2.105   2.108
 4555TIP3    H113671   5.276   2.143   2.021
 4555TIP3    H213672   5.380   2.126   2.130
 4556TIP3   OH213673   5.775   2.310   4.995
 4556TIP3    H113674   5.832   2.384   4.973
 4556TIP3    H213675   5.689   2.336   4.963
 4557TIP3   OH213676   4.533   5.100   3.921
 4557TIP3    H113677   4.494   5.185   3.945
 4557TIP3    H213678   4.459   5.046   3.895
 4558TIP3   OH213679   1.448   3.199   4.728
 4558TIP3    H113680   1.414   3.180   4.815
 4558TIP3    H213681   1.541   3.218   4.741
 4559TIP3   OH213682   6.291   5.399   4.802
 4559TIP3    H113683   6.341   5.318   4.807
 4559TIP3    H213684   6.338   5.452   4.738
 4560TIP3   OH213685   0.096   4.850   3.247
 4560TIP3    H113686   0.188   4.828   3.264
 4560TIP3    H213687   0.063   4.882   3.330
 4561TIP3   OH213688   2.628   5.897   2.195
 4561TIP3    H113689   2.550   5.849   2.167
 4561TIP3    H213690   2.698   5.864   2.139
 4562TIP3   OH213691   3.781   2.412   2.609
 4562TIP3    H113692   3.822   2.343   2.556
 4562TIP3    H213693   3.808   2.493   2.567
 4563TIP3   OH213694   1.698   3.414   2.575
 4563TIP3    H113695   1.710   3.327   2.537
 4563TIP3    H213696   1.613   3.443   2.541
 4564TIP3   OH213697   1.401   4.143   3.625
 4564TIP3    H113698   1.402   4.053   3.592
 4564TIP3    H213699   1.487   4.179   3.601
 4565TIP3   OH213700   0.000   0.735   3.176
 4565TIP3    H113701   0.095   0.737   3.167
 4565TIP3    H213702  -0.015   0.688   3.258
 4566TIP3   OH213703   4.500   4.801   1.480
 4566TIP3    H113704   4.590   4.789   1.450
 4566TIP3    H213705   4.454   4.721   1.454
 4567TIP3   OH213706   0.933   0.137   3.952
 4567TIP3    H113707   0.898   0.064   3.901
 4567TIP3    H213708   1.028   0.129   3.943
 4568TIP3   OH213709   2.546   2.328   1.961
 4568TIP3    H113710   2.615   2.324   1.894
 4568TIP3    H213711   2.464   2.329   1.911
 4569TIP3   OH213712   3.583   3.243   0.488
 4569TIP3    H113713   3.518   3.176   0.510
 4569TIP3    H213714   3.543   3.293   0.417
 4570TIP3   OH213715   4.387   5.554   0.169
 4570TIP3    H113716   4.377   5.592   0.257
 4570TIP3    H213717   4.343   5.616   0.111
 4571TIP3   OH213718   4.298   0.829   2.884
 4571TIP3    H113719   4.285   0.920   2.857
 4571TIP3    H213720   4.329   0.835   2.974
 4572TIP3   OH213721   5.150   5.114   3.898
 4572TIP3    H113722   5.227   5.168   3.879
 4572TIP3    H213723   5.081   5.176   3.917
 4573TIP3   OH213724   2.283   3.075   4.110
 4573TIP3    H113725   2.316   3.004   4.164
 4573TIP3    H213726   2.188   3.060   4.105
 4574TIP3   OH213727   4.861   1.636   1.643
 4574TIP3    H113728   4.766   1.651   1.637
 4574TIP3    H213729   4.874   1.603   1.732
 4575TIP3   OH213730   0.266   4.549   3.462
 4575TIP3    H113731   0.283   4.455   3.466
 4575TIP3    H213732   0.260   4.569   3.369
 4576TIP3   OH213733   0.667   0.441   1.603
 4576TIP3    H113734   0.654   0.439   1.508
 4576TIP3    H213735   0.708   0.526   1.620
 4577TIP3   OH213736   5.595   1.134   1.299
 4577TIP3    H113737   5.613   1.069   1.367
 4577TIP3    H213738   5.504   1.161   1.315
 4578TIP3   OH213739   0.953   3.769   1.107
 4578TIP3    H113740   1.034   3.796   1.151
 4578TIP3    H213741   0.982   3.742   1.020
 4579TIP3   OH213742   3.271   4.840   4.348
 4579TIP3    H113743   3.253   4.758   4.394
 4579TIP3    H213744   3.185   4.879   4.332
 4580TIP3   OH213745   2.075   2.944   3.193
 4580TIP3    H113746   2.070   2.926   3.287
 4580TIP3    H213747   2.169   2.954   3.175
 4581TIP3   OH213748   0.629   2.054   4.946
 4581TIP3    H113749   0.538   2.078   4.933
 4581TIP3    H213750   0.638   1.968   4.905
 4582TIP3   OH213751   4.132   3.516   1.832
 4582TIP3    H113752   4.211   3.570   1.827
 4582TIP3    H213753   4.125   3.475   1.746
 4583TIP3   OH213754   3.373   5.509   4.319
 4583TIP3    H113755   3.361   5.594   4.276
 4583TIP3    H213756   3.318   5.449   4.269
 4584TIP3   OH213757   1.380   1.977   3.487
 4584TIP3    H113758   1.357   2.070   3.477
 4584TIP3    H213759   1.335   1.934   3.414
 4585TIP3   OH213760   4.278   4.970   1.507
 4585TIP3    H113761   4.261   4.926   1.424
 4585TIP3    H213762   4.360   4.931   1.538
 4586TIP3   OH213763   4.842   2.471   0.775
 4586TIP3    H113764   4.898   2.396   0.756
 4586TIP3    H213765   4.842   2.477   0.871
 4587TIP3   OH213766   5.190   0.593   0.870
 4587TIP3    H113767   5.233   0.513   0.902
 4587TIP3    H213768   5.156   0.569   0.784
 4588TIP3   OH213769   0.068   5.118   2.553
 4588TIP3    H113770   0.122   5.197   2.560
 4588TIP3    H213771  -0.021   5.149   2.564
 4589TIP3   OH213772   1.955   1.150   3.729
 4589TIP3    H113773   2.000   1.067   3.746
 4589TIP3    H213774   1.878   1.148   3.785
 4590TIP3   OH213775   4.566   2.584   2.218
 4590TIP3    H113776   4.597   2.497   2.190
 4590TIP3    H213777   4.511   2.566   2.294
 4591TIP3   OH213778   1.176   1.434   4.408
 4591TIP3    H113779   1.241   1.370   4.438
 4591TIP3    H213780   1.093   1.388   4.416
 4592TIP3   OH213781   2.590   4.264   1.981
 4592TIP3    H113782   2.686   4.255   1.976
 4592TIP3    H213783   2.562   4.184   2.027
 4593TIP3   OH213784   0.561   0.542   3.462
 4593TIP3    H113785   0.603   0.500   3.537
 4593TIP3    H213786   0.517   0.471   3.416
 4594TIP3   OH213787   1.185   3.225   2.126
 4594TIP3    H113788   1.166   3.268   2.042
 4594TIP3    H213789   1.272   3.186   2.114
 4595TIP3   OH213790   3.144   0.174   2.569
 4595TIP3    H113791   3.096   0.134   2.496
 4595TIP3    H213792   3.236   0.164   2.545
 4596TIP3   OH213793   0.572   4.401   4.711
 4596TIP3    H113794   0.660   4.365   4.719
 4596TIP3    H213795   0.523   4.333   4.663
 4597TIP3   OH213796   1.552   2.310   2.452
 4597TIP3    H113797   1.574   2.391   2.407
 4597TIP3    H213798   1.541   2.336   2.543
 4598TIP3   OH213799   0.747   4.792   2.212
 4598TIP3    H113800   0.715   4.710   2.175
 4598TIP3    H213801   0.672   4.829   2.258
 4599TIP3   OH213802   1.455   4.770   1.038
 4599TIP3    H113803   1.431   4.796   1.127
 4599TIP3    H213804   1.396   4.698   1.017
 4600TIP3   OH213805   4.276   1.572   1.795
 4600TIP3    H113806   4.269   1.531   1.881
 4600TIP3    H213807   4.205   1.534   1.744
 4601TIP3   OH213808   0.727   4.682   2.944
 4601TIP3    H113809   0.673   4.626   2.888
 4601TIP3    H213810   0.791   4.722   2.885
 4602TIP3   OH213811   4.824   4.821   1.764
 4602TIP3    H113812   4.897   4.880   1.779
 4602TIP3    H213813   4.785   4.850   1.681
 4603TIP3   OH213814   3.955   1.436   3.167
 4603TIP3    H113815   3.993   1.524   3.157
 4603TIP3    H213816   3.936   1.408   3.077
 4604TIP3   OH213817   2.948   0.263   2.213
 4604TIP3    H113818   2.972   0.183   2.259
 4604TIP3    H213819   2.914   0.322   2.281
 4605TIP3   OH213820   0.340   1.380   3.471
 4605TIP3    H113821   0.320   1.298   3.516
 4605TIP3    H213822   0.376   1.352   3.386
 4606TIP3   OH213823   1.758   0.052   2.020
 4606TIP3    H113824   1.681   0.083   2.068
 4606TIP3    H213825   1.829   0.055   2.085
 4607TIP3   OH213826   0.566   1.258   0.512
 4607TIP3    H113827   0.510   1.194   0.556
 4607TIP3    H213828   0.652   1.247   0.552
 4608TIP3   OH213829   2.406   3.326   4.607
 4608TIP3    H113830   2.400   3.297   4.516
 4608TIP3    H213831   2.398   3.246   4.659
 4609TIP3   OH213832   1.050   5.528   3.693
 4609TIP3    H113833   1.051   5.622   3.709
 4609TIP3    H213834   1.142   5.502   3.690
 4610TIP3   OH213835   4.155   2.094   2.502
 4610TIP3    H113836   4.090   2.024   2.501
 4610TIP3    H213837   4.235   2.053   2.534
 4611TIP3   OH213838   1.037   2.546   2.823
 4611TIP3    H113839   1.031   2.608   2.895
 4611TIP3    H213840   1.102   2.584   2.764
 4612TIP3   OH213841   0.905   0.152   2.437
 4612TIP3    H113842   0.945   0.071   2.470
 4612TIP3    H213843   0.817   0.126   2.411
 4613TIP3   OH213844   0.633   3.367   1.786
 4613TIP3    H113845   0.558   3.348   1.841
 4613TIP3    H213846   0.692   3.293   1.799
 4614TIP3   OH213847   0.840   1.800   0.214
 4614TIP3    H113848   0.830   1.724   0.157
 4614TIP3    H213849   0.865   1.764   0.299
 4615TIP3   OH213850   2.699   3.238   3.810
 4615TIP3    H113851   2.783   3.192   3.803
 4615TIP3    H213852   2.635   3.168   3.824
 4616TIP3   OH213853   0.667   1.870   0.766
 4616TIP3    H113854   0.643   1.945   0.711
 4616TIP3    H213855   0.589   1.814   0.765
 4617TIP3   OH213856   5.860   5.075   0.569
 4617TIP3    H113857   5.867   4.984   0.600
 4617TIP3    H213858   5.837   5.067   0.477
 4618TIP3   OH213859   2.284   3.970   3.762
 4618TIP3    H113860   2.194   3.944   3.780
 4618TIP3    H213861   2.332   3.942   3.840
 4619TIP3   OH213862   2.879   3.410   3.971
 4619TIP3    H113863   2.864   3.504   3.984
 4619TIP3    H213864   2.795   3.377   3.939
 4620TIP3   OH213865   4.951   2.113   2.093
 4620TIP3    H113866   4.857   2.120   2.109
 4620TIP3    H213867   4.991   2.142   2.175
 4621TIP3   OH213868   3.923   5.570   0.454
 4621TIP3    H113869   3.859   5.500   0.466
 4621TIP3    H213870   4.007   5.526   0.455
 4622TIP3   OH213871   4.426   5.938   0.392
 4622TIP3    H113872   4.435   5.850   0.357
 4622TIP3    H213873   4.515   5.971   0.397
 4623TIP3   OH213874   4.213   3.624   2.593
 4623TIP3    H113875   4.287   3.659   2.643
 4623TIP3    H213876   4.136   3.646   2.646
 4624TIP3   OH213877   4.215   2.923   1.702
 4624TIP3    H113878   4.242   2.990   1.639
 4624TIP3    H213879   4.159   2.970   1.763
 4625TIP3   OH213880   0.534   4.452   1.489
 4625TIP3    H113881   0.497   4.387   1.548
 4625TIP3    H213882   0.628   4.435   1.491
 4626TIP3   OH213883   2.381   3.656   2.320
 4626TIP3    H113884   2.420   3.732   2.365
 4626TIP3    H213885   2.320   3.619   2.384
 4627TIP3   OH213886   5.609   1.243   2.900
 4627TIP3    H113887   5.645   1.305   2.837
 4627TIP3    H213888   5.685   1.213   2.951
 4628TIP3   OH213889   2.640   5.131   0.880
 4628TIP3    H113890   2.606   5.101   0.965
 4628TIP3    H213891   2.734   5.111   0.884
 4629TIP3   OH213892   2.241   5.035   0.613
 4629TIP3    H113893   2.233   5.092   0.537
 4629TIP3    H213894   2.229   4.947   0.578
 4630TIP3   OH213895   2.427   4.070   2.736
 4630TIP3    H113896   2.351   4.063   2.795
 4630TIP3    H213897   2.402   4.137   2.673
 4631TIP3   OH213898   1.317   0.475   1.258
 4631TIP3    H113899   1.294   0.552   1.311
 4631TIP3    H213900   1.400   0.498   1.218
 4632TIP3   OH213901   4.313   2.873   2.722
 4632TIP3    H113902   4.268   2.933   2.781
 4632TIP3    H213903   4.297   2.909   2.634
 4633TIP3   OH213904   0.611   0.245   2.259
 4633TIP3    H113905   0.615   0.222   2.166
 4633TIP3    H213906   0.619   0.161   2.305
 4634TIP3   OH213907   1.574   3.807   2.048
 4634TIP3    H113908   1.511   3.852   1.992
 4634TIP3    H213909   1.580   3.719   2.011
 4635TIP3   OH213910   1.817   3.025   0.944
 4635TIP3    H113911   1.863   3.097   0.986
 4635TIP3    H213912   1.885   2.979   0.894
 4636TIP3   OH213913   1.230   0.732   4.373
 4636TIP3    H113914   1.263   0.822   4.372
 4636TIP3    H213915   1.141   0.739   4.337
 4637TIP3   OH213916   2.253   4.762   0.482
 4637TIP3    H113917   2.248   4.784   0.389
 4637TIP3    H213918   2.342   4.728   0.495
 4638TIP3   OH213919   1.376   5.353   4.000
 4638TIP3    H113920   1.413   5.282   4.053
 4638TIP3    H213921   1.451   5.405   3.973
 4639TIP3   OH213922   2.914   3.537   0.029
 4639TIP3    H113923   2.931   3.630   0.015
 4639TIP3    H213924   2.855   3.535   0.105
 4640TIP3   OH213925   4.811   0.849   4.498
 4640TIP3    H113926   4.883   0.903   4.529
 4640TIP3    H213927   4.780   0.892   4.418
 4641TIP3   OH213928   0.555   0.085   3.228
 4641TIP3    H113929   0.632   0.140   3.242
 4641TIP3    H213930   0.590   0.006   3.185
 4642TIP3   OH213931   1.356   4.074   1.605
 4642TIP3    H113932   1.433   4.128   1.588
 4642TIP3    H213933   1.282   4.133   1.586
 4643TIP3   OH213934   5.782   0.941   2.428
 4643TIP3    H113935   5.754   0.985   2.347
 4643TIP3    H213936   5.869   0.907   2.408
 4644TIP3   OH213937   4.250   0.865   5.124
 4644TIP3    H113938   4.253   0.892   5.216
 4644TIP3    H213939   4.159   0.883   5.097
 4645TIP3   OH213940   1.266   0.890   0.120
 4645TIP3    H113941   1.223   0.968   0.086
 4645TIP3    H213942   1.357   0.916   0.133
 4646TIP3   OH213943   1.728   2.642   0.330
 4646TIP3    H113944   1.702   2.553   0.355
 4646TIP3    H213945   1.761   2.681   0.411
 4647TIP3   OH213946   4.333   3.230   0.820
 4647TIP3    H113947   4.342   3.161   0.755
 4647TIP3    H213948   4.238   3.240   0.831
 4648TIP3   OH213949   6.120   2.945   4.776
 4648TIP3    H113950   6.102   3.038   4.789
 4648TIP3    H213951   6.064   2.900   4.839
 4649TIP3   OH213952   4.892   5.845   2.113
 4649TIP3    H113953   4.926   5.893   2.037
 4649TIP3    H213954   4.799   5.832   2.094
 4650TIP3   OH213955   3.840   2.334   4.961
 4650TIP3    H113956   3.909   2.399   4.975
 4650TIP3    H213957   3.886   2.257   4.927
 4651TIP3   OH213958   1.847   4.617   2.403
 4651TIP3    H113959   1.796   4.673   2.345
 4651TIP3    H213960   1.784   4.585   2.468
 4652TIP3   OH213961   2.200   5.780   1.039
 4652TIP3    H113962   2.183   5.724   1.114
 4652TIP3    H213963   2.132   5.847   1.042
 4653TIP3   OH213964   5.722   4.875   2.577
 4653TIP3    H113965   5.719   4.811   2.649
 4653TIP3    H213966   5.801   4.927   2.595
 4654TIP3   OH213967   4.283   2.629   4.769
 4654TIP3    H113968   4.324   2.688   4.832
 4654TIP3    H213969   4.196   2.666   4.754
 4655TIP3   OH213970   4.682   0.739   0.757
 4655TIP3    H113971   4.642   0.679   0.694
 4655TIP3    H213972   4.769   0.702   0.772
 4656TIP3   OH213973   3.974   0.947   1.407
 4656TIP3    H113974   4.037   0.875   1.413
 4656TIP3    H213975   3.932   0.949   1.493
 4657TIP3   OH213976   0.858   5.775   4.525
 4657TIP3    H113977   0.766   5.753   4.510
 4657TIP3    H213978   0.870   5.766   4.619
 4658TIP3   OH213979   6.140   1.400   2.187
 4658TIP3    H113980   6.090   1.354   2.120
 4658TIP3    H213981   6.232   1.384   2.165
 4659TIP3   OH213982   0.777   2.202   3.566
 4659TIP3    H113983   0.816   2.284   3.536
 4659TIP3    H213984   0.846   2.161   3.619
 4660TIP3   OH213985   3.825   3.777   3.249
 4660TIP3    H113986   3.817   3.788   3.154
 4660TIP3    H213987   3.895   3.838   3.274
 4661TIP3   OH213988   4.598   5.353   3.066
 4661TIP3    H113989   4.693   5.349   3.072
 4661TIP3    H213990   4.570   5.395   3.148
 4662TIP3   OH213991   6.183   3.560   2.272
 4662TIP3    H113992   6.133   3.595   2.198
 4662TIP3    H213993   6.192   3.635   2.331
 4663TIP3   OH213994   5.388   1.451   3.644
 4663TIP3    H113995   5.345   1.437   3.728
 4663TIP3    H213996   5.436   1.369   3.628
 4664TIP3   OH213997   0.616   4.868   5.005
 4664TIP3    H113998   0.641   4.813   4.931
 4664TIP3    H213999   0.594   4.952   4.966
 4665TIP3   OH214000   5.309   3.236   0.092
 4665TIP3    H114001   5.306   3.315   0.146
 4665TIP3    H214002   5.234   3.184   0.121
 4666TIP3   OH214003   4.628   2.913   0.397
 4666TIP3    H114004   4.639   3.008   0.401
 4666TIP3    H214005   4.545   2.897   0.443
 4667TIP3   OH214006   2.519   5.009   4.482
 4667TIP3    H114007   2.517   5.034   4.575
 4667TIP3    H214008   2.486   4.919   4.482
 4668TIP3   OH214009   2.461   3.462   1.541
 4668TIP3    H114010   2.411   3.421   1.612
 4668TIP3    H214011   2.409   3.445   1.463
 4669TIP3   OH214012   5.528   1.335   2.401
 4669TIP3    H114013   5.486   1.375   2.477
 4669TIP3    H214014   5.562   1.251   2.434
 4670TIP3   OH214015   4.609   4.801   4.450
 4670TIP3    H114016   4.669   4.781   4.378
 4670TIP3    H214017   4.591   4.716   4.490
 4671TIP3   OH214018   5.098   3.456   1.929
 4671TIP3    H114019   5.122   3.382   1.873
 4671TIP3    H214020   5.105   3.533   1.872
 4672TIP3   OH214021   5.981   2.857   1.304
 4672TIP3    H114022   6.009   2.814   1.385
 4672TIP3    H214023   6.059   2.858   1.249
 4673TIP3   OH214024   1.415   4.641   1.919
 4673TIP3    H114025   1.500   4.656   1.961
 4673TIP3    H214026   1.437   4.629   1.826
 4674TIP3   OH214027   6.234   4.053   3.416
 4674TIP3    H114028   6.162   4.005   3.457
 4674TIP3    H214029   6.228   4.142   3.452
 4675TIP3   OH214030   1.912   3.437   3.220
 4675TIP3    H114031   1.959   3.354   3.220
 4675TIP3    H214032   1.855   3.432   3.143
 4676TIP3   OH214033   3.423   3.721   2.393
 4676TIP3    H114034   3.394   3.643   2.345
 4676TIP3    H214035   3.495   3.755   2.340
 4677TIP3   OH214036   0.310   1.573   4.761
 4677TIP3    H114037   0.243   1.533   4.816
 4677TIP3    H214038   0.393   1.545   4.801
 4678TIP3   OH214039   2.401   2.075   4.658
 4678TIP3    H114040   2.333   2.118   4.607
 4678TIP3    H214041   2.438   2.145   4.712
 4679TIP3   OH214042   5.442   3.463   0.456
 4679TIP3    H114043   5.523   3.483   0.410
 4679TIP3    H214044   5.426   3.540   0.511
 4680TIP3   OH214045   0.682   4.767   3.409
 4680TIP3    H114046   0.641   4.835   3.462
 4680TIP3    H214047   0.683   4.803   3.320
 4681TIP3   OH214048   0.569   2.007   0.082
 4681TIP3    H114049   0.512   2.064   0.134
 4681TIP3    H214050   0.551   1.919   0.116
 4682TIP3   OH214051   4.323   3.516   0.550
 4682TIP3    H114052   4.335   3.589   0.489
 4682TIP3    H214053   4.278   3.449   0.498
 4683TIP3   OH214054   2.137   2.887   1.136
 4683TIP3    H114055   2.050   2.927   1.131
 4683TIP3    H214056   2.131   2.809   1.081
 4684TIP3   OH214057   5.144   1.114   0.849
 4684TIP3    H114058   5.106   1.027   0.865
 4684TIP3    H214059   5.069   1.173   0.854
 4685TIP3   OH214060   2.467   5.888   0.396
 4685TIP3    H114061   2.547   5.838   0.385
 4685TIP3    H214062   2.398   5.823   0.406
 4686TIP3   OH214063   1.853   5.505   4.884
 4686TIP3    H114064   1.802   5.583   4.863
 4686TIP3    H214065   1.941   5.538   4.905
 4687TIP3   OH214066   0.893   3.425   3.282
 4687TIP3    H114067   0.843   3.478   3.221
 4687TIP3    H214068   0.934   3.357   3.228
 4688TIP3   OH214069   0.120   0.265   1.811
 4688TIP3    H114070   0.146   0.356   1.795
 4688TIP3    H214071   0.203   0.218   1.823
 4689TIP3   OH214072   0.245   2.179   2.564
 4689TIP3    H114073   0.320   2.184   2.504
 4689TIP3    H214074   0.204   2.095   2.545
 4690TIP3   OH214075   0.489   2.745   2.953
 4690TIP3    H114076   0.514   2.835   2.974
 4690TIP3    H214077   0.548   2.691   3.006
 4691TIP3   OH214078   5.982   2.121   1.263
 4691TIP3    H114079   5.931   2.199   1.241
 4691TIP3    H214080   6.022   2.142   1.348
 4692TIP3   OH214081   1.108   4.531   2.578
 4692TIP3    H114082   1.045   4.603   2.566
 4692TIP3    H214083   1.157   4.554   2.657
 4693TIP3   OH214084   5.356   2.119   0.037
 4693TIP3    H114085   5.263   2.112   0.059
 4693TIP3    H214086   5.367   2.063  -0.040
 4694TIP3   OH214087   4.337   2.220   4.541
 4694TIP3    H114088   4.307   2.305   4.573
 4694TIP3    H214089   4.273   2.196   4.474
 4695TIP3   OH214090   2.908   1.342   2.642
 4695TIP3    H114091   2.977   1.342   2.709
 4695TIP3    H214092   2.841   1.400   2.676
 4696TIP3   OH214093   6.325   5.732   1.229
 4696TIP3    H114094   6.256   5.704   1.169
 4696TIP3    H214095   6.405   5.694   1.192
 4697TIP3   OH214096   1.197   0.277   4.500
 4697TIP3    H114097   1.250   0.333   4.557
 4697TIP3    H214098   1.127   0.244   4.557
 4698TIP3   OH214099   2.099   1.984   2.294
 4698TIP3    H114100   2.116   2.074   2.266
 4698TIP3    H214101   2.128   1.930   2.221
 4699TIP3   OH214102   3.644   0.403   2.643
 4699TIP3    H114103   3.612   0.469   2.582
 4699TIP3    H214104   3.573   0.339   2.648
 4700TIP3   OH214105   5.312   3.261   4.559
 4700TIP3    H114106   5.302   3.356   4.563
 4700TIP3    H214107   5.382   3.242   4.622
 4701TIP3   OH214108   1.100   1.520   0.172
 4701TIP3    H114109   1.040   1.455   0.135
 4701TIP3    H214110   1.155   1.470   0.233
 4702TIP3   OH214111   1.006   1.071   2.622
 4702TIP3    H114112   0.947   1.004   2.658
 4702TIP3    H214113   1.041   1.032   2.542
 4703TIP3   OH214114   0.613   0.619   0.513
 4703TIP3    H114115   0.643   0.556   0.446
 4703TIP3    H214116   0.581   0.564   0.584
 4704TIP3   OH214117   6.113   3.477   4.802
 4704TIP3    H114118   6.039   3.489   4.742
 4704TIP3    H214119   6.171   3.550   4.784
 4705TIP3   OH214120   4.862   1.854   2.288
 4705TIP3    H114121   4.906   1.819   2.365
 4705TIP3    H214122   4.820   1.779   2.247
 4706TIP3   OH214123   3.992   2.405   4.072
 4706TIP3    H114124   3.989   2.501   4.077
 4706TIP3    H214125   3.909   2.381   4.031
 4707TIP3   OH214126   0.520   3.593   2.536
 4707TIP3    H114127   0.460   3.583   2.461
 4707TIP3    H214128   0.487   3.669   2.583
 4708TIP3   OH214129   3.371   4.390   0.200
 4708TIP3    H114130   3.308   4.419   0.266
 4708TIP3    H214131   3.338   4.305   0.171
 4709TIP3   OH214132   1.241   0.051   2.049
 4709TIP3    H114133   1.227  -0.039   2.020
 4709TIP3    H214134   1.159   0.095   2.028
 4710TIP3   OH214135   5.716   0.903   3.280
 4710TIP3    H114136   5.628   0.873   3.307
 4710TIP3    H214137   5.732   0.980   3.335
 4711TIP3   OH214138   0.231   5.330   4.367
 4711TIP3    H114139   0.159   5.334   4.430
 4711TIP3    H214140   0.188   5.319   4.282
 4712TIP3   OH214141   1.895   4.713   2.851
 4712TIP3    H114142   1.844   4.650   2.901
 4712TIP3    H214143   1.969   4.734   2.908
 4713TIP3   OH214144   2.053   1.737   4.304
 4713TIP3    H114145   1.961   1.723   4.323
 4713TIP3    H214146   2.058   1.735   4.208
 4714TIP3   OH214147   0.551   1.623   4.007
 4714TIP3    H114148   0.636   1.633   3.965
 4714TIP3    H214149   0.544   1.529   4.026
 4715TIP3   OH214150   5.882   4.279   3.392
 4715TIP3    H114151   5.886   4.374   3.387
 4715TIP3    H214152   5.971   4.250   3.373
 4716TIP3   OH214153   1.354   4.809   0.661
 4716TIP3    H114154   1.283   4.872   0.648
 4716TIP3    H214155   1.313   4.723   0.647
 4717TIP3   OH214156   5.976   2.849   3.091
 4717TIP3    H114157   6.000   2.768   3.045
 4717TIP3    H214158   6.052   2.871   3.144
 4718TIP3   OH214159   0.454   2.113   2.373
 4718TIP3    H114160   0.426   2.052   2.305
 4718TIP3    H214161   0.479   2.056   2.446
 4719TIP3   OH214162   6.011   4.706   3.674
 4719TIP3    H114163   6.059   4.741   3.599
 4719TIP3    H214164   6.016   4.775   3.740
 4720TIP3   OH214165   2.840   0.127   4.491
 4720TIP3    H114166   2.881   0.151   4.407
 4720TIP3    H214167   2.749   0.109   4.469
 4721TIP3   OH214168   5.049   3.183   3.340
 4721TIP3    H114169   5.004   3.104   3.310
 4721TIP3    H214170   4.995   3.216   3.411
 4722TIP3   OH214171   2.648   5.343   4.758
 4722TIP3    H114172   2.702   5.301   4.691
 4722TIP3    H214173   2.702   5.342   4.837
 4723TIP3   OH214174   1.325   1.255   2.874
 4723TIP3    H114175   1.261   1.226   2.940
 4723TIP3    H214176   1.275   1.262   2.793
 4724TIP3   OH214177   3.574   5.199   5.009
 4724TIP3    H114178   3.573   5.219   5.102
 4724TIP3    H214179   3.491   5.234   4.975
 4725TIP3   OH214180   5.897   3.615   2.584
 4725TIP3    H114181   5.956   3.684   2.615
 4725TIP3    H214182   5.815   3.632   2.631
 4726TIP3   OH214183   0.063   1.233   3.965
 4726TIP3    H114184   0.146   1.271   3.994
 4726TIP3    H214185   0.076   1.138   3.975
 4727TIP3   OH214186   0.173   3.110   4.598
 4727TIP3    H114187   0.137   3.059   4.525
 4727TIP3    H214188   0.147   3.061   4.676
 4728TIP3   OH214189   0.102   2.581   2.693
 4728TIP3    H114190   0.184   2.586   2.740
 4728TIP3    H214191   0.046   2.526   2.747
 4729TIP3   OH214192   3.651   4.709   4.791
 4729TIP3    H114193   3.561   4.741   4.798
 4729TIP3    H214194   3.703   4.772   4.842
 4730TIP3   OH214195   5.548   2.098   1.244
 4730TIP3    H114196   5.564   2.024   1.303
 4730TIP3    H214197   5.626   2.153   1.254
 4731TIP3   OH214198   1.107   4.978   4.991
 4731TIP3    H114199   1.184   4.922   4.990
 4731TIP3    H214200   1.044   4.932   4.935
 4732TIP3   OH214201   5.946   2.348   1.511
 4732TIP3    H114202   6.018   2.292   1.481
 4732TIP3    H214203   5.931   2.320   1.601
 4733TIP3   OH214204   4.319   1.937   4.980
 4733TIP3    H114205   4.409   1.909   4.965
 4733TIP3    H214206   4.288   1.965   4.893
 4734TIP3   OH214207   1.148   2.345   4.739
 4734TIP3    H114208   1.071   2.305   4.700
 4734TIP3    H214209   1.141   2.326   4.833
 4735TIP3   OH214210   1.507   4.789   3.110
 4735TIP3    H114211   1.580   4.738   3.074
 4735TIP3    H214212   1.470   4.734   3.179
 4736TIP3   OH214213   5.012   5.206   2.112
 4736TIP3    H114214   4.995   5.297   2.137
 4736TIP3    H214215   5.078   5.175   2.174
 4737TIP3   OH214216   3.203   2.615   4.998
 4737TIP3    H114217   3.247   2.683   5.049
 4737TIP3    H214218   3.273   2.552   4.978
 4738TIP3   OH214219   0.272   4.267   4.072
 4738TIP3    H114220   0.283   4.264   3.977
 4738TIP3    H214221   0.254   4.359   4.091
 4739TIP3   OH214222   0.357   2.577   2.804
 4739TIP3    H114223   0.423   2.539   2.746
 4739TIP3    H214224   0.407   2.635   2.862
 4740TIP3   OH214225   0.630   3.014   2.963
 4740TIP3    H114226   0.647   3.072   3.037
 4740TIP3    H214227   0.594   3.071   2.895
 4741TIP3   OH214228   1.363   5.627   2.129
 4741TIP3    H114229   1.377   5.598   2.220
 4741TIP3    H214230   1.279   5.674   2.132
 4742TIP3   OH214231   4.173   0.613   5.071
 4742TIP3    H114232   4.268   0.604   5.064
 4742TIP3    H214233   4.160   0.703   5.102
 4743TIP3   OH214234   5.143   2.307   2.835
 4743TIP3    H114235   5.119   2.395   2.806
 4743TIP3    H214236   5.085   2.290   2.909
 4744TIP3   OH214237   1.399   3.907   1.285
 4744TIP3    H114238   1.411   3.863   1.201
 4744TIP3    H214239   1.312   3.947   1.278
 4745TIP3   OH214240   1.490   5.211   0.522
 4745TIP3    H114241   1.556   5.170   0.578
 4745TIP3    H214242   1.515   5.303   0.519
 4746TIP3   OH214243   0.886   2.386   2.098
 4746TIP3    H114244   0.896   2.398   2.192
 4746TIP3    H214245   0.791   2.389   2.084
 4747TIP3   OH214246   1.232   5.471   0.398
 4747TIP3    H114247   1.173   5.442   0.329
 4747TIP3    H214248   1.233   5.398   0.460
 4748TIP3   OH214249   4.115   4.668   3.041
 4748TIP3    H114250   4.199   4.648   3.001
 4748TIP3    H214251   4.135   4.680   3.134
 4749TIP3   OH214252   3.512   5.785   2.927
 4749TIP3    H114253   3.543   5.838   2.853
 4749TIP3    H214254   3.542   5.832   3.004
 4750TIP3   OH214255   4.843   5.083   2.459
 4750TIP3    H114256   4.807   5.077   2.547
 4750TIP3    H214257   4.935   5.058   2.469
 4751TIP3   OH214258   4.503   2.755   4.899
 4751TIP3    H114259   4.514   2.849   4.916
 4751TIP3    H214260   4.547   2.741   4.815
 4752TIP3   OH214261   4.081   3.581   3.546
 4752TIP3    H114262   3.989   3.596   3.524
 4752TIP3    H214263   4.130   3.619   3.473
 4753TIP3   OH214264   0.830   5.258   2.059
 4753TIP3    H114265   0.843   5.283   1.968
 4753TIP3    H214266   0.866   5.169   2.066
 4754TIP3   OH214267   0.785   0.520   3.284
 4754TIP3    H114268   0.781   0.425   3.290
 4754TIP3    H214269   0.724   0.551   3.351
 4755TIP3   OH214270   3.377   0.132   3.499
 4755TIP3    H114271   3.469   0.125   3.476
 4755TIP3    H214272   3.348   0.213   3.458
 4756TIP3   OH214273   1.087   2.513   5.088
 4756TIP3    H114274   1.041   2.503   5.172
 4756TIP3    H214275   1.022   2.491   5.022
 4757TIP3   OH214276   2.379   2.497   1.766
 4757TIP3    H114277   2.284   2.501   1.754
 4757TIP3    H214278   2.404   2.415   1.724
 4758TIP3   OH214279   1.254   4.887   3.011
 4758TIP3    H114280   1.301   4.864   3.091
 4758TIP3    H214281   1.303   4.960   2.974
 4759TIP3   OH214282   0.204   4.327   4.735
 4759TIP3    H114283   0.254   4.246   4.728
 4759TIP3    H214284   0.256   4.382   4.794
 4760TIP3   OH214285   5.983   0.790   3.294
 4760TIP3    H114286   5.909   0.849   3.309
 4760TIP3    H214287   5.967   0.717   3.354
 4761TIP3   OH214288   4.802   4.080   0.744
 4761TIP3    H114289   4.739   4.011   0.721
 4761TIP3    H214290   4.867   4.078   0.673
 4762TIP3   OH214291   2.353   1.022   1.883
 4762TIP3    H114292   2.306   1.041   1.802
 4762TIP3    H214293   2.435   0.983   1.855
 4763TIP3   OH214294   4.025   3.980   0.517
 4763TIP3    H114295   4.094   3.914   0.525
 4763TIP3    H214296   4.001   3.978   0.425
 4764TIP3   OH214297   1.926   3.631   2.586
 4764TIP3    H114298   1.890   3.564   2.644
 4764TIP3    H214299   1.855   3.651   2.526
 4765TIP3   OH214300   3.757   4.440   2.408
 4765TIP3    H114301   3.806   4.441   2.491
 4765TIP3    H214302   3.820   4.409   2.343
 4766TIP3   OH214303   1.883   0.266   4.252
 4766TIP3    H114304   1.893   0.307   4.338
 4766TIP3    H214305   1.794   0.286   4.226
 4767TIP3   OH214306   2.870   4.079   1.661
 4767TIP3    H114307   2.791   4.107   1.707
 4767TIP3    H214308   2.929   4.154   1.667
 4768TIP3   OH214309   4.125   4.042   4.860
 4768TIP3    H114310   4.095   4.041   4.769
 4768TIP3    H214311   4.180   4.121   4.866
 4769TIP3   OH214312   2.476   4.937   0.758
 4769TIP3    H114313   2.515   5.022   0.777
 4769TIP3    H214314   2.410   4.955   0.690
 4770TIP3   OH214315   5.762   0.057   0.608
 4770TIP3    H114316   5.805  -0.025   0.584
 4770TIP3    H214317   5.725   0.090   0.526
 4771TIP3   OH214318   4.023   3.004   1.891
 4771TIP3    H114319   3.928   2.996   1.902
 4771TIP3    H214320   4.043   3.093   1.919
 4772TIP3   OH214321   1.915   4.444   5.177
 4772TIP3    H114322   1.993   4.455   5.231
 4772TIP3    H214323   1.856   4.392   5.231
 4773TIP3   OH214324   4.447   1.041   2.757
 4773TIP3    H114325   4.380   1.109   2.757
 4773TIP3    H214326   4.430   0.990   2.678
 4774TIP3   OH214327   2.973   3.917   4.980
 4774TIP3    H114328   3.059   3.932   4.941
 4774TIP3    H214329   2.991   3.875   5.064
 4775TIP3   OH214330   2.161   4.537   4.077
 4775TIP3    H114331   2.256   4.546   4.070
 4775TIP3    H214332   2.140   4.462   4.021
 4776TIP3   OH214333   0.371   3.336   5.106
 4776TIP3    H114334   0.450   3.314   5.056
 4776TIP3    H214335   0.312   3.375   5.042
 4777TIP3   OH214336   4.378   4.076   0.148
 4777TIP3    H114337   4.369   4.061   0.243
 4777TIP3    H214338   4.471   4.097   0.136
 4778TIP3   OH214339   2.495   4.632   3.097
 4778TIP3    H114340   2.526   4.696   3.034
 4778TIP3    H214341   2.472   4.683   3.174
 4779TIP3   OH214342   4.460   4.929   1.114
 4779TIP3    H114343   4.418   4.892   1.037
 4779TIP3    H214344   4.541   4.879   1.123
 4780TIP3   OH214345   3.157   3.647   2.183
 4780TIP3    H114346   3.232   3.594   2.208
 4780TIP3    H214347   3.082   3.601   2.220
 4781TIP3   OH214348   4.466   1.234   0.457
 4781TIP3    H114349   4.490   1.215   0.366
 4781TIP3    H214350   4.504   1.320   0.475
 4782TIP3   OH214351   4.412   5.260   0.069
 4782TIP3    H114352   4.409   5.351   0.099
 4782TIP3    H214353   4.446   5.212   0.144
 4783TIP3   OH214354   1.963   3.362   2.251
 4783TIP3    H114355   2.058   3.359   2.267
 4783TIP3    H214356   1.946   3.453   2.230
 4784TIP3   OH214357   5.381   5.437   2.584
 4784TIP3    H114358   5.444   5.380   2.540
 4784TIP3    H214359   5.386   5.411   2.676
 4785TIP3   OH214360   5.391   5.626   4.933
 4785TIP3    H114361   5.334   5.572   4.987
 4785TIP3    H214362   5.471   5.636   4.985
 4786TIP3   OH214363   1.016   2.941   3.249
 4786TIP3    H114364   1.000   2.887   3.326
 4786TIP3    H214365   1.005   3.031   3.279
 4787TIP3   OH214366   1.345   5.538   1.215
 4787TIP3    H114367   1.423   5.521   1.268
 4787TIP3    H214368   1.376   5.592   1.142
 4788TIP3   OH214369   0.233   1.785   0.934
 4788TIP3    H114370   0.323   1.751   0.936
 4788TIP3    H214371   0.180   1.711   0.904
 4789TIP3   OH214372   2.063   0.529   3.413
 4789TIP3    H114373   2.148   0.561   3.382
 4789TIP3    H214374   2.006   0.606   3.410
 4790TIP3   OH214375   4.298   0.198   2.344
 4790TIP3    H114376   4.330   0.216   2.256
 4790TIP3    H214377   4.207   0.229   2.343
 4791TIP3   OH214378   0.356   0.366   4.877
 4791TIP3    H114379   0.365   0.272   4.894
 4791TIP3    H214380   0.263   0.380   4.864
 4792TIP3   OH214381   2.017   4.975   1.388
 4792TIP3    H114382   2.076   5.051   1.391
 4792TIP3    H214383   2.003   4.952   1.480
 4793TIP3   OH214384   2.907   0.588   4.738
 4793TIP3    H114385   2.824   0.597   4.786
 4793TIP3    H214386   2.897   0.646   4.663
 4794TIP3   OH214387   0.165   5.367   2.538
 4794TIP3    H114388   0.251   5.383   2.498
 4794TIP3    H214389   0.148   5.445   2.590
 4795TIP3   OH214390   3.487   1.743   2.272
 4795TIP3    H114391   3.433   1.666   2.254
 4795TIP3    H214392   3.426   1.817   2.268
 4796TIP3   OH214393   0.774   4.297   4.303
 4796TIP3    H114394   0.749   4.243   4.228
 4796TIP3    H214395   0.694   4.306   4.354
 4797TIP3   OH214396   0.552   5.278   4.169
 4797TIP3    H114397   0.540   5.364   4.209
 4797TIP3    H214398   0.618   5.236   4.224
 4798TIP3   OH214399  -0.052   2.225   0.664
 4798TIP3    H114400   0.026   2.193   0.619
 4798TIP3    H214401  -0.073   2.157   0.727
 4799TIP3   OH214402   4.564   3.021   5.023
 4799TIP3    H114403   4.473   3.035   4.997
 4799TIP3    H214404   4.609   3.101   4.999
 4800TIP3   OH214405   4.685   0.771   0.115
 4800TIP3    H114406   4.733   0.730   0.044
 4800TIP3    H214407   4.751   0.788   0.183
 4801TIP3   OH214408   3.261   1.170   4.601
 4801TIP3    H114409   3.199   1.114   4.647
 4801TIP3    H214410   3.220   1.257   4.602
 4802TIP3   OH214411   1.183   0.371   2.886
 4802TIP3    H114412   1.259   0.414   2.846
 4802TIP3    H214413   1.208   0.360   2.978
 4803TIP3   OH214414   3.408   5.528   0.917
 4803TIP3    H114415   3.408   5.490   1.005
 4803TIP3    H214416   3.485   5.490   0.875
 4804TIP3   OH214417   1.230   2.869   4.326
 4804TIP3    H114418   1.174   2.921   4.383
 4804TIP3    H214419   1.171   2.827   4.264
 4805TIP3   OH214420   2.770   2.543   3.658
 4805TIP3    H114421   2.697   2.552   3.596
 4805TIP3    H214422   2.846   2.525   3.602
 4806TIP3   OH214423   6.277   1.314   4.534
 4806TIP3    H114424   6.346   1.328   4.470
 4806TIP3    H214425   6.297   1.374   4.605
 4807TIP3   OH214426   4.505   4.372   1.678
 4807TIP3    H114427   4.571   4.426   1.721
 4807TIP3    H214428   4.544   4.284   1.677
 4808TIP3   OH214429   1.996   2.858   0.812
 4808TIP3    H114430   2.061   2.811   0.864
 4808TIP3    H214431   2.042   2.882   0.732
 4809TIP3   OH214432   2.516   5.821   3.759
 4809TIP3    H114433   2.495   5.910   3.785
 4809TIP3    H214434   2.437   5.790   3.715
 4810TIP3   OH214435   4.596   2.319   5.005
 4810TIP3    H114436   4.505   2.304   5.030
 4810TIP3    H214437   4.600   2.412   4.986
 4811TIP3   OH214438   5.345   2.393   0.819
 4811TIP3    H114439   5.356   2.480   0.857
 4811TIP3    H214440   5.370   2.403   0.728
 4812TIP3   OH214441   0.291   5.263   3.379
 4812TIP3    H114442   0.298   5.249   3.285
 4812TIP3    H214443   0.364   5.214   3.416
 4813TIP3   OH214444   6.006   5.350   1.439
 4813TIP3    H114445   6.040   5.294   1.509
 4813TIP3    H214446   6.070   5.421   1.433
 4814TIP3   OH214447   5.142   2.977   0.577
 4814TIP3    H114448   5.082   3.052   0.581
 4814TIP3    H214449   5.115   2.921   0.650
 4815TIP3   OH214450   0.493   2.442   0.927
 4815TIP3    H114451   0.520   2.461   1.016
 4815TIP3    H214452   0.521   2.352   0.912
 4816TIP3   OH214453   0.653   5.415   4.463
 4816TIP3    H114454   0.577   5.450   4.417
 4816TIP3    H214455   0.727   5.437   4.408
 4817TIP3   OH214456   4.422   3.695   0.376
 4817TIP3    H114457   4.370   3.703   0.297
 4817TIP3    H214458   4.503   3.743   0.357
 4818TIP3   OH214459   6.205   1.311   1.142
 4818TIP3    H114460   6.239   1.233   1.099
 4818TIP3    H214461   6.218   1.296   1.236
 4819TIP3   OH214462   2.460   1.915   3.142
 4819TIP3    H114463   2.528   1.982   3.146
 4819TIP3    H214464   2.505   1.834   3.164
 4820TIP3   OH214465   0.830   0.727   4.941
 4820TIP3    H114466   0.783   0.768   5.013
 4820TIP3    H214467   0.854   0.640   4.975
 4821TIP3   OH214468   2.209   3.101   2.539
 4821TIP3    H114469   2.214   3.178   2.482
 4821TIP3    H214470   2.186   3.029   2.481
 4822TIP3   OH214471   3.748   4.910   2.188
 4822TIP3    H114472   3.805   4.976   2.149
 4822TIP3    H214473   3.791   4.827   2.169
 4823TIP3   OH214474   1.674   0.442   4.698
 4823TIP3    H114475   1.679   0.382   4.772
 4823TIP3    H214476   1.647   0.525   4.737
 4824TIP3   OH214477   2.923   0.731   0.880
 4824TIP3    H114478   2.938   0.774   0.796
 4824TIP3    H214479   3.011   0.722   0.918
 4825TIP3   OH214480   4.675   4.409   0.486
 4825TIP3    H114481   4.628   4.423   0.403
 4825TIP3    H214482   4.767   4.405   0.460
 4826TIP3   OH214483   2.743   3.509   2.298
 4826TIP3    H114484   2.772   3.446   2.365
 4826TIP3    H214485   2.733   3.591   2.346
 4827TIP3   OH214486   1.099   0.915   3.930
 4827TIP3    H114487   1.162   0.983   3.906
 4827TIP3    H214488   1.014   0.952   3.906
 4828TIP3   OH214489   1.693   0.915   3.985
 4828TIP3    H114490   1.657   0.964   4.059
 4828TIP3    H214491   1.707   0.982   3.917
 4829TIP3   OH214492   0.997   1.884   1.440
 4829TIP3    H114493   1.040   1.940   1.375
 4829TIP3    H214494   1.060   1.815   1.458
 4830TIP3   OH214495   4.256   3.392   2.323
 4830TIP3    H114496   4.299   3.322   2.372
 4830TIP3    H214497   4.319   3.416   2.255
 4831TIP3   OH214498   2.622   5.409   4.005
 4831TIP3    H114499   2.628   5.375   3.916
 4831TIP3    H214500   2.618   5.505   3.994
 4832TIP3   OH214501   4.306   4.475   0.332
 4832TIP3    H114502   4.270   4.388   0.347
 4832TIP3    H214503   4.230   4.534   0.337
 4833TIP3   OH214504   2.592   1.354   0.192
 4833TIP3    H114505   2.639   1.396   0.264
 4833TIP3    H214506   2.644   1.375   0.114
 4834TIP3   OH214507   1.337   1.340   1.216
 4834TIP3    H114508   1.243   1.343   1.235
 4834TIP3    H214509   1.355   1.247   1.206
 4835TIP3   OH214510   4.611   0.292   3.083
 4835TIP3    H114511   4.633   0.307   2.991
 4835TIP3    H214512   4.571   0.374   3.112
 4836TIP3   OH214513   4.664   2.367   2.859
 4836TIP3    H114514   4.678   2.317   2.779
 4836TIP3    H214515   4.664   2.301   2.929
 4837TIP3   OH214516   3.687   2.560   4.423
 4837TIP3    H114517   3.626   2.497   4.384
 4837TIP3    H214518   3.689   2.537   4.516
 4838TIP3   OH214519   2.677   4.076   0.383
 4838TIP3    H114520   2.668   3.984   0.360
 4838TIP3    H214521   2.754   4.080   0.440
 4839TIP3   OH214522   2.166   0.857   1.069
 4839TIP3    H114523   2.140   0.949   1.069
 4839TIP3    H214524   2.196   0.840   1.158
 4840TIP3   OH214525   0.165   5.655   4.839
 4840TIP3    H114526   0.172   5.646   4.934
 4840TIP3    H214527   0.254   5.673   4.810
 4841TIP3   OH214528   0.686   4.198   2.807
 4841TIP3    H114529   0.758   4.142   2.778
 4841TIP3    H214530   0.716   4.287   2.788
 4842TIP3   OH214531   3.489   1.281   1.099
 4842TIP3    H114532   3.436   1.356   1.128
 4842TIP3    H214533   3.460   1.264   1.010
 4843TIP3   OH214534   4.981   4.319   2.663
 4843TIP3    H114535   4.946   4.247   2.715
 4843TIP3    H214536   5.043   4.363   2.720
 4844TIP3   OH214537   4.598   1.792   0.958
 4844TIP3    H114538   4.600   1.701   0.988
 4844TIP3    H214539   4.690   1.817   0.952
 4845TIP3   OH214540   1.315   4.331   2.018
 4845TIP3    H114541   1.364   4.291   1.945
 4845TIP3    H214542   1.363   4.411   2.038
 4846TIP3   OH214543   5.861   5.628   3.528
 4846TIP3    H114544   5.855   5.697   3.595
 4846TIP3    H214545   5.871   5.675   3.446
 4847TIP3   OH214546   1.449   3.130   0.295
 4847TIP3    H114547   1.483   3.044   0.320
 4847TIP3    H214548   1.394   3.113   0.219
 4848TIP3   OH214549   1.969   4.787   3.493
 4848TIP3    H114550   1.905   4.792   3.563
 4848TIP3    H214551   1.920   4.757   3.417
 4849TIP3   OH214552   1.150   3.697   3.249
 4849TIP3    H114553   1.059   3.678   3.270
 4849TIP3    H214554   1.199   3.665   3.325
 4850TIP3   OH214555   0.730   4.022   3.880
 4850TIP3    H114556   0.656   4.046   3.824
 4850TIP3    H214557   0.808   4.045   3.828
 4851TIP3   OH214558   2.097   2.264   2.701
 4851TIP3    H114559   2.025   2.301   2.751
 4851TIP3    H214560   2.076   2.171   2.694
 4852TIP3   OH214561   4.384   4.200   4.326
 4852TIP3    H114562   4.328   4.226   4.252
 4852TIP3    H214563   4.419   4.283   4.359
 4853TIP3   OH214564   2.448   4.760   1.469
 4853TIP3    H114565   2.385   4.702   1.513
 4853TIP3    H214566   2.423   4.756   1.376
 4854TIP3   OH214567   6.134   0.222   1.233
 4854TIP3    H114568   6.227   0.204   1.243
 4854TIP3    H214569   6.104   0.157   1.170
 4855TIP3   OH214570   2.667   2.066   0.463
 4855TIP3    H114571   2.633   2.090   0.549
 4855TIP3    H214572   2.754   2.104   0.459
 4856TIP3   OH214573   1.713   4.163   3.838
 4856TIP3    H114574   1.798   4.147   3.798
 4856TIP3    H214575   1.706   4.258   3.842
 4857TIP3   OH214576   1.584   5.124   2.339
 4857TIP3    H114577   1.634   5.192   2.383
 4857TIP3    H214578   1.650   5.068   2.298
 4858TIP3   OH214579   5.567   4.351   3.041
 4858TIP3    H114580   5.528   4.294   3.108
 4858TIP3    H214581   5.624   4.410   3.091
 4859TIP3   OH214582   3.388   2.467   4.662
 4859TIP3    H114583   3.460   2.479   4.725
 4859TIP3    H214584   3.419   2.508   4.582
 4860TIP3   OH214585   6.090   3.047   2.313
 4860TIP3    H114586   6.094   2.964   2.361
 4860TIP3    H214587   6.049   3.025   2.230
 4861TIP3   OH214588   5.406   4.405   4.317
 4861TIP3    H114589   5.400   4.323   4.366
 4861TIP3    H214590   5.385   4.381   4.227
 4862TIP3   OH214591   2.631   3.865   4.781
 4862TIP3    H114592   2.576   3.872   4.860
 4862TIP3    H214593   2.660   3.774   4.780
 4863TIP3   OH214594   6.088   4.332   1.565
 4863TIP3    H114595   6.099   4.276   1.488
 4863TIP3    H214596   6.020   4.288   1.616
 4864TIP3   OH214597   6.203   2.176   1.788
 4864TIP3    H114598   6.282   2.159   1.736
 4864TIP3    H214599   6.194   2.098   1.842
 4865TIP3   OH214600   3.158   1.036   2.637
 4865TIP3    H114601   3.228   1.030   2.702
 4865TIP3    H214602   3.083   0.995   2.679
 4866TIP3   OH214603   0.153   4.229   2.691
 4866TIP3    H114604   0.229   4.242   2.747
 4866TIP3    H214605   0.105   4.157   2.732
 4867TIP3   OH214606   2.409   3.468   1.121
 4867TIP3    H114607   2.340   3.435   1.179
 4867TIP3    H214608   2.362   3.503   1.045
 4868TIP3   OH214609   3.292   1.368   3.839
 4868TIP3    H114610   3.206   1.329   3.819
 4868TIP3    H214611   3.309   1.427   3.766
 4869TIP3   OH214612   2.602   2.750   0.692
 4869TIP3    H114613   2.578   2.665   0.654
 4869TIP3    H214614   2.555   2.814   0.638
 4870TIP3   OH214615   2.770   0.743   1.827
 4870TIP3    H114616   2.833   0.814   1.836
 4870TIP3    H214617   2.816   0.675   1.778
 4871TIP3   OH214618   0.920   5.046   3.850
 4871TIP3    H114619   0.994   4.997   3.816
 4871TIP3    H214620   0.951   5.083   3.933
 4872TIP3   OH214621   0.268   2.915   1.293
 4872TIP3    H114622   0.253   2.821   1.282
 4872TIP3    H214623   0.323   2.940   1.219
 4873TIP3   OH214624   3.197   0.490   3.878
 4873TIP3    H114625   3.281   0.474   3.834
 4873TIP3    H214626   3.219   0.492   3.971
 4874TIP3   OH214627   4.433   4.100   0.730
 4874TIP3    H114628   4.407   4.088   0.639
 4874TIP3    H214629   4.502   4.035   0.745
 4875TIP3   OH214630   6.197   1.186   0.731
 4875TIP3    H114631   6.245   1.235   0.798
 4875TIP3    H214632   6.188   1.098   0.768
 4876TIP3   OH214633   1.303   0.355   0.234
 4876TIP3    H114634   1.286   0.395   0.148
 4876TIP3    H214635   1.394   0.379   0.253
 4877TIP3   OH214636   3.061   4.294   0.055
 4877TIP3    H114637   3.139   4.239   0.061
 4877TIP3    H214638   3.002   4.259   0.122
 4878TIP3   OH214639   6.310   4.598   4.118
 4878TIP3    H114640   6.289   4.513   4.157
 4878TIP3    H214641   6.239   4.656   4.146
 4879TIP3   OH214642   2.420   4.936   1.916
 4879TIP3    H114643   2.418   4.967   1.825
 4879TIP3    H214644   2.442   5.014   1.968
 4880TIP3   OH214645   3.393   3.229   3.864
 4880TIP3    H114646   3.417   3.278   3.785
 4880TIP3    H214647   3.298   3.239   3.870
 4881TIP3   OH214648   4.923   1.147   4.185
 4881TIP3    H114649   4.899   1.155   4.277
 4881TIP3    H214650   4.929   1.053   4.169
 4882TIP3   OH214651   1.667   2.473   2.117
 4882TIP3    H114652   1.757   2.450   2.142
 4882TIP3    H214653   1.633   2.520   2.193
 4883TIP3   OH214654   3.573   4.126   3.912
 4883TIP3    H114655   3.530   4.065   3.972
 4883TIP3    H214656   3.506   4.147   3.847
 4884TIP3   OH214657   6.298   1.066   1.104
 4884TIP3    H114658   6.377   1.044   1.154
 4884TIP3    H214659   6.241   0.990   1.115
 4885TIP3   OH214660   3.295   2.474   0.820
 4885TIP3    H114661   3.328   2.395   0.862
 4885TIP3    H214662   3.247   2.443   0.744
 4886TIP3   OH214663   2.297   1.572   4.404
 4886TIP3    H114664   2.334   1.527   4.328
 4886TIP3    H214665   2.212   1.603   4.374
 4887TIP3   OH214666   2.926   1.884   2.001
 4887TIP3    H114667   2.970   1.966   1.981
 4887TIP3    H214668   2.847   1.910   2.049
 4888TIP3   OH214669   3.915   2.646   3.176
 4888TIP3    H114670   3.826   2.621   3.154
 4888TIP3    H214671   3.948   2.691   3.099
 4889TIP3   OH214672   0.418   0.310   3.332
 4889TIP3    H114673   0.446   0.228   3.293
 4889TIP3    H214674   0.350   0.343   3.274
 4890TIP3   OH214675   1.897   5.391   0.707
 4890TIP3    H114676   1.933   5.476   0.683
 4890TIP3    H214677   1.804   5.397   0.686
 4891TIP3   OH214678   1.324   2.779   2.087
 4891TIP3    H114679   1.412   2.767   2.052
 4891TIP3    H214680   1.269   2.718   2.038
 4892TIP3   OH214681   5.822   2.189   1.976
 4892TIP3    H114682   5.769   2.259   2.014
 4892TIP3    H214683   5.912   2.221   1.984
 4893TIP3   OH214684   4.379   2.842   0.978
 4893TIP3    H114685   4.423   2.926   0.964
 4893TIP3    H214686   4.340   2.850   1.065
 4894TIP3   OH214687   3.892   2.710   4.341
 4894TIP3    H114688   3.849   2.630   4.369
 4894TIP3    H214689   3.826   2.779   4.354
 4895TIP3   OH214690   2.846   3.759   2.080
 4895TIP3    H114691   2.758   3.747   2.117
 4895TIP3    H214692   2.830   3.803   1.996
 4896TIP3   OH214693   1.970   2.789   3.462
 4896TIP3    H114694   2.031   2.723   3.493
 4896TIP3    H214695   1.989   2.867   3.514
 4897TIP3   OH214696   4.431   4.523   1.472
 4897TIP3    H114697   4.491   4.497   1.402
 4897TIP3    H214698   4.464   4.477   1.550
 4898TIP3   OH214699   2.521   1.438   4.945
 4898TIP3    H114700   2.609   1.434   4.906
 4898TIP3    H214701   2.512   1.528   4.975
 4899TIP3   OH214702   2.565   5.687   4.751
 4899TIP3    H114703   2.553   5.733   4.834
 4899TIP3    H214704   2.657   5.662   4.750
 4900TIP3   OH214705   4.491   5.418   4.026
 4900TIP3    H114706   4.526   5.443   3.940
 4900TIP3    H214707   4.428   5.487   4.046
 4901TIP3   OH214708   5.092   3.566   3.959
 4901TIP3    H114709   5.040   3.533   4.032
 4901TIP3    H214710   5.033   3.563   3.884
 4902TIP3   OH214711   5.300   1.709   3.556
 4902TIP3    H114712   5.343   1.624   3.566
 4902TIP3    H214713   5.255   1.704   3.472
 4903TIP3   OH214714   3.808   3.803   2.970
 4903TIP3    H114715   3.826   3.867   2.901
 4903TIP3    H214716   3.723   3.766   2.947
 4904TIP3   OH214717   0.250   2.601   1.413
 4904TIP3    H114718   0.309   2.533   1.379
 4904TIP3    H214719   0.188   2.553   1.469
 4905TIP3   OH214720   3.707   5.321   1.125
 4905TIP3    H114721   3.718   5.282   1.212
 4905TIP3    H214722   3.749   5.259   1.065
 4906TIP3   OH214723   4.020   2.386   0.601
 4906TIP3    H114724   4.116   2.392   0.601
 4906TIP3    H214725   4.001   2.310   0.547
 4907TIP3   OH214726   0.351   4.104   4.967
 4907TIP3    H114727   0.421   4.041   4.948
 4907TIP3    H214728   0.270   4.059   4.939
 4908TIP3   OH214729   4.460   5.608   1.697
 4908TIP3    H114730   4.528   5.638   1.757
 4908TIP3    H214731   4.453   5.514   1.714
 4909TIP3   OH214732   3.587   4.613   0.284
 4909TIP3    H114733   3.504   4.652   0.255
 4909TIP3    H214734   3.590   4.528   0.238
 4910TIP3   OH214735   4.183   4.342   0.733
 4910TIP3    H114736   4.139   4.355   0.818
 4910TIP3    H214737   4.276   4.338   0.755
 4911TIP3   OH214738   3.842   3.273   3.445
 4911TIP3    H114739   3.887   3.264   3.362
 4911TIP3    H214740   3.812   3.364   3.447
 4912TIP3   OH214741   2.208   4.657   2.376
 4912TIP3    H114742   2.160   4.726   2.423
 4912TIP3    H214743   2.168   4.575   2.407
 4913TIP3   OH214744   4.637   3.563   5.039
 4913TIP3    H114745   4.543   3.574   5.025
 4913TIP3    H214746   4.676   3.569   4.952
 4914TIP3   OH214747   2.454   2.804   1.646
 4914TIP3    H114748   2.546   2.820   1.668
 4914TIP3    H214749   2.431   2.724   1.694
 4915TIP3   OH214750   3.771   3.404   1.981
 4915TIP3    H114751   3.759   3.399   1.886
 4915TIP3    H214752   3.823   3.483   1.995
 4916TIP3   OH214753   1.560   4.021   3.999
 4916TIP3    H114754   1.616   4.037   3.924
 4916TIP3    H214755   1.535   4.108   4.030
 4917TIP3   OH214756   4.962   0.593   4.547
 4917TIP3    H114757   4.933   0.678   4.580
 4917TIP3    H214758   4.990   0.545   4.625
 4918TIP3   OH214759   0.152   3.383   3.124
 4918TIP3    H114760   0.066   3.351   3.150
 4918TIP3    H214761   0.151   3.382   3.028
 4919TIP3   OH214762   4.281   5.817   0.643
 4919TIP3    H114763   4.196   5.860   0.658
 4919TIP3    H214764   4.343   5.889   0.633
 4920TIP3   OH214765   2.636   5.739   5.076
 4920TIP3    H114766   2.553   5.754   5.122
 4920TIP3    H214767   2.703   5.776   5.134
 4921TIP3   OH214768   1.416   3.084   1.791
 4921TIP3    H114769   1.338   3.031   1.806
 4921TIP3    H214770   1.384   3.174   1.784
 4922TIP3   OH214771   3.932   4.469   0.412
 4922TIP3    H114772   4.005   4.408   0.406
 4922TIP3    H214773   3.936   4.519   0.330
 4923TIP3   OH214774   0.415   3.629   1.577
 4923TIP3    H114775   0.511   3.629   1.573
 4923TIP3    H214776   0.395   3.621   1.671
 4924TIP3   OH214777   1.865   1.007   1.754
 4924TIP3    H114778   1.829   0.942   1.694
 4924TIP3    H214779   1.879   1.085   1.701
 4925TIP3   OH214780   3.518   5.699   1.235
 4925TIP3    H114781   3.550   5.788   1.252
 4925TIP3    H214782   3.562   5.673   1.154
 4926TIP3   OH214783   1.841   3.933   2.557
 4926TIP3    H114784   1.927   3.975   2.556
 4926TIP3    H214785   1.841   3.877   2.480
 4927TIP3   OH214786   0.280   3.579   3.833
 4927TIP3    H114787   0.257   3.528   3.911
 4927TIP3    H214788   0.207   3.640   3.822
 4928TIP3   OH214789   2.219   5.168   1.350
 4928TIP3    H114790   2.309   5.187   1.377
 4928TIP3    H214791   2.222   5.163   1.255
 4929TIP3   OH214792   6.077   2.199   0.476
 4929TIP3    H114793   6.056   2.108   0.455
 4929TIP3    H214794   6.139   2.194   0.548
 4930TIP3   OH214795   1.675   5.576   3.742
 4930TIP3    H114796   1.668   5.565   3.647
 4930TIP3    H214797   1.761   5.614   3.756
 4931TIP3   OH214798   5.401   0.834   2.212
 4931TIP3    H114799   5.348   0.870   2.283
 4931TIP3    H214800   5.391   0.739   2.220
 4932TIP3   OH214801   4.251   0.014   2.877
 4932TIP3    H114802   4.294  -0.033   2.948
 4932TIP3    H214803   4.311   0.087   2.858
 4933TIP3   OH214804   4.465   1.618   3.197
 4933TIP3    H114805   4.433   1.535   3.232
 4933TIP3    H214806   4.388   1.676   3.198
 4934TIP3   OH214807   3.778   4.148   1.220
 4934TIP3    H114808   3.862   4.101   1.224
 4934TIP3    H214809   3.747   4.132   1.131
 4935TIP3   OH214810   1.440   1.944   0.562
 4935TIP3    H114811   1.366   1.898   0.602
 4935TIP3    H214812   1.399   2.005   0.500
 4936TIP3   OH214813   2.328   2.049   2.934
 4936TIP3    H114814   2.368   1.986   2.994
 4936TIP3    H214815   2.295   1.996   2.861
 4937TIP3   OH214816   6.222   1.952   4.756
 4937TIP3    H114817   6.244   1.959   4.664
 4937TIP3    H214818   6.276   2.019   4.798
 4938TIP3   OH214819   2.729   2.013   4.410
 4938TIP3    H114820   2.748   1.936   4.464
 4938TIP3    H214821   2.757   1.989   4.322
 4939TIP3   OH214822   4.266   2.996   2.481
 4939TIP3    H114823   4.176   2.999   2.514
 4939TIP3    H214824   4.297   3.086   2.486
 4940TIP3   OH214825   1.294   5.130   1.979
 4940TIP3    H114826   1.276   5.101   1.889
 4940TIP3    H214827   1.383   5.100   1.996
 4941TIP3   OH214828   6.101   4.170   0.350
 4941TIP3    H114829   6.022   4.191   0.301
 4941TIP3    H214830   6.140   4.096   0.303
 4942TIP3   OH214831   6.293   4.317   1.206
 4942TIP3    H114832   6.388   4.326   1.220
 4942TIP3    H214833   6.258   4.405   1.223
 4943TIP3   OH214834   5.114   3.977   1.687
 4943TIP3    H114835   5.089   4.062   1.723
 4943TIP3    H214836   5.160   3.998   1.606
 4944TIP3   OH214837   3.360   1.238   2.545
 4944TIP3    H114838   3.426   1.246   2.613
 4944TIP3    H214839   3.289   1.296   2.573
 4945TIP3   OH214840   1.039   4.612   3.086
 4945TIP3    H114841   1.067   4.541   3.143
 4945TIP3    H214842   0.948   4.590   3.063
 4946TIP3   OH214843   5.125   2.200   4.260
 4946TIP3    H114844   5.193   2.133   4.255
 4946TIP3    H214845   5.051   2.162   4.211
 4947TIP3   OH214846   0.814   1.596   3.914
 4947TIP3    H114847   0.863   1.611   3.833
 4947TIP3    H214848   0.841   1.509   3.944
 4948TIP3   OH214849   3.156   3.974   4.127
 4948TIP3    H114850   3.099   3.992   4.202
 4948TIP3    H214851   3.160   3.879   4.121
 4949TIP3   OH214852   4.740   5.763   1.843
 4949TIP3    H114853   4.786   5.689   1.803
 4949TIP3    H214854   4.753   5.835   1.782
 4950TIP3   OH214855   1.083   5.930   3.072
 4950TIP3    H114856   1.106   6.022   3.087
 4950TIP3    H214857   1.131   5.906   2.993
 4951TIP3   OH214858   6.133   5.966   2.650
 4951TIP3    H114859   6.108   6.026   2.579
 4951TIP3    H214860   6.174   5.892   2.606
 4952TIP3   OH214861   2.716   4.886   0.441
 4952TIP3    H114862   2.635   4.835   0.437
 4952TIP3    H214863   2.763   4.848   0.515
 4953TIP3   OH214864   2.860   5.316   4.989
 4953TIP3    H114865   2.933   5.357   5.035
 4953TIP3    H214866   2.787   5.321   5.051
 4954TIP3   OH214867   5.394   5.122   4.140
 4954TIP3    H114868   5.474   5.156   4.100
 4954TIP3    H214869   5.335   5.197   4.142
 4955TIP3   OH214870   5.161   1.715   0.911
 4955TIP3    H114871   5.124   1.804   0.913
 4955TIP3    H214872   5.135   1.682   0.825
 4956TIP3   OH214873   3.993   2.977   3.148
 4956TIP3    H114874   3.999   2.917   3.074
 4956TIP3    H214875   3.921   2.944   3.201
 4957TIP3   OH214876   4.015   0.415   1.216
 4957TIP3    H114877   4.062   0.332   1.213
 4957TIP3    H214878   3.971   0.415   1.301
 4958TIP3   OH214879   5.712   5.394   3.358
 4958TIP3    H114880   5.634   5.426   3.403
 4958TIP3    H214881   5.764   5.352   3.428
 4959TIP3   OH214882   1.164   4.773   0.067
 4959TIP3    H114883   1.205   4.748   0.149
 4959TIP3    H214884   1.096   4.707   0.053
 4960TIP3   OH214885   1.177   3.265   3.734
 4960TIP3    H114886   1.186   3.182   3.688
 4960TIP3    H214887   1.136   3.242   3.818
 4961TIP3   OH214888   5.230   3.041   3.758
 4961TIP3    H114889   5.240   3.052   3.852
 4961TIP3    H214890   5.158   3.099   3.734
 4962TIP3   OH214891   0.328   3.092   3.117
 4962TIP3    H114892   0.265   3.064   3.050
 4962TIP3    H214893   0.392   3.145   3.070
 4963TIP3   OH214894   5.660   5.454   2.201
 4963TIP3    H114895   5.575   5.439   2.243
 4963TIP3    H214896   5.660   5.548   2.181
 4964TIP3   OH214897   6.049   1.910   3.193
 4964TIP3    H114898   5.954   1.895   3.192
 4964TIP3    H214899   6.072   1.922   3.101
 4965TIP3   OH214900   4.203   0.663   0.790
 4965TIP3    H114901   4.227   0.598   0.724
 4965TIP3    H214902   4.179   0.740   0.739
 4966TIP3   OH214903   2.692   1.182   2.937
 4966TIP3    H114904   2.627   1.199   3.005
 4966TIP3    H214905   2.658   1.228   2.860
 4967TIP3   OH214906   6.266   1.948   4.485
 4967TIP3    H114907   6.193   1.934   4.425
 4967TIP3    H214908   6.326   2.006   4.438
 4968TIP3   OH214909   3.794   2.547   0.289
 4968TIP3    H114910   3.796   2.459   0.327
 4968TIP3    H214911   3.811   2.533   0.196
 4969TIP3   OH214912   5.366   1.702   0.544
 4969TIP3    H114913   5.313   1.697   0.464
 4969TIP3    H214914   5.303   1.720   0.614
 4970TIP3   OH214915   3.146   3.360   3.698
 4970TIP3    H114916   3.180   3.354   3.609
 4970TIP3    H214917   3.051   3.359   3.688
 4971TIP3   OH214918   5.874   3.877   0.316
 4971TIP3    H114919   5.963   3.862   0.285
 4971TIP3    H214920   5.884   3.894   0.410
 4972TIP3   OH214921   6.385   2.146   3.214
 4972TIP3    H114922   6.302   2.175   3.251
 4972TIP3    H214923   6.416   2.078   3.275
 4973TIP3   OH214924   1.250   2.091   3.783
 4973TIP3    H114925   1.292   2.111   3.700
 4973TIP3    H214926   1.300   2.017   3.818
 4974TIP3   OH214927   2.331   2.463   4.657
 4974TIP3    H114928   2.285   2.479   4.739
 4974TIP3    H214929   2.325   2.546   4.609
 4975TIP3   OH214930   2.715   4.444   4.988
 4975TIP3    H114931   2.808   4.434   4.968
 4975TIP3    H214932   2.671   4.384   4.927
 4976TIP3   OH214933   3.646   5.569   1.640
 4976TIP3    H114934   3.690   5.620   1.573
 4976TIP3    H214935   3.621   5.633   1.707
 4977TIP3   OH214936   4.927   0.037   1.767
 4977TIP3    H114937   4.915  -0.016   1.689
 4977TIP3    H214938   5.012   0.009   1.802
 4978TIP3   OH214939   6.011   5.070   4.632
 4978TIP3    H114940   6.014   4.986   4.678
 4978TIP3    H214941   6.012   5.135   4.702
 4979TIP3   OH214942   0.393   1.669   2.969
 4979TIP3    H114943   0.425   1.747   2.923
 4979TIP3    H214944   0.418   1.596   2.913
 4980TIP3   OH214945   1.926   4.030   0.648
 4980TIP3    H114946   1.998   3.970   0.627
 4980TIP3    H214947   1.860   3.975   0.690
 4981TIP3   OH214948   0.877   3.602   0.567
 4981TIP3    H114949   0.960   3.578   0.525
 4981TIP3    H214950   0.819   3.528   0.549
 4982TIP3   OH214951   5.991   3.648   1.634
 4982TIP3    H114952   5.958   3.634   1.546
 4982TIP3    H214953   5.912   3.658   1.688
 4983TIP3   OH214954   0.783   3.273   2.965
 4983TIP3    H114955   0.789   3.368   2.969
 4983TIP3    H214956   0.874   3.243   2.958
 4984TIP3   OH214957   0.344   2.181   2.809
 4984TIP3    H114958   0.277   2.221   2.863
 4984TIP3    H214959   0.333   2.221   2.723
 4985TIP3   OH214960   3.280   3.132   3.241
 4985TIP3    H114961   3.368   3.167   3.255
 4985TIP3    H214962   3.274   3.120   3.146
 4986TIP3   OH214963   4.089   4.451   1.265
 4986TIP3    H114964   4.144   4.395   1.320
 4986TIP3    H214965   4.001   4.441   1.301
 4987TIP3   OH214966   1.271   2.063   1.516
 4987TIP3    H114967   1.366   2.055   1.520
 4987TIP3    H214968   1.250   2.062   1.422
 4988TIP3   OH214969   5.865   1.945   4.239
 4988TIP3    H114970   5.863   1.970   4.331
 4988TIP3    H214971   5.891   2.026   4.193
 4989TIP3   OH214972   4.421   5.857   2.421
 4989TIP3    H114973   4.398   5.873   2.513
 4989TIP3    H214974   4.479   5.780   2.425
 4990TIP3   OH214975   3.282   2.046   2.588
 4990TIP3    H114976   3.206   2.099   2.613
 4990TIP3    H214977   3.352   2.074   2.647
 4991TIP3   OH214978   5.393   5.828   0.240
 4991TIP3    H114979   5.423   5.919   0.253
 4991TIP3    H214980   5.380   5.821   0.146
 4992TIP3   OH214981   2.092   4.001   5.090
 4992TIP3    H114982   2.071   3.945   5.015
 4992TIP3    H214983   2.106   4.088   5.051
 4993TIP3   OH214984   4.100   0.044   0.746
 4993TIP3    H114985   4.062   0.131   0.758
 4993TIP3    H214986   4.161   0.054   0.672
 4994TIP3   OH214987   4.132   1.094   4.914
 4994TIP3    H114988   4.127   1.091   5.009
 4994TIP3    H214989   4.163   1.182   4.894
 4995TIP3   OH214990   1.413   3.819   1.543
 4995TIP3    H114991   1.375   3.894   1.589
 4995TIP3    H214992   1.428   3.851   1.454
 4996TIP3   OH214993   3.603   5.945   4.376
 4996TIP3    H114994   3.652   5.870   4.342
 4996TIP3    H214995   3.523   5.947   4.322
 4997TIP3   OH214996   0.657   3.854   4.641
 4997TIP3    H114997   0.742   3.842   4.684
 4997TIP3    H214998   0.634   3.946   4.657
 4998TIP3   OH214999   1.754   5.600   2.402
 4998TIP3    H115000   1.749   5.671   2.338
 4998TIP3    H215001   1.795   5.640   2.479
 4999TIP3   OH215002   2.333   5.808   2.669
 4999TIP3    H115003   2.349   5.856   2.588
 4999TIP3    H215004   2.363   5.866   2.738
 5000TIP3   OH215005   0.437   5.695   4.734
 5000TIP3    H115006   0.504   5.740   4.681
 5000TIP3    H215007   0.425   5.611   4.689
 5001TIP3   OH215008   5.199   0.084   0.217
 5001TIP3    H115009   5.259   0.015   0.244
 5001TIP3    H215010   5.169   0.124   0.299
 5002TIP3   OH215011   1.883   3.984   0.951
 5002TIP3    H115012   1.817   3.953   0.890
 5002TIP3    H215013   1.965   3.945   0.921
 5003TIP3   OH215014   5.901   4.877   3.421
 5003TIP3    H115015   5.990   4.908   3.434
 5003TIP3    H215016   5.851   4.921   3.490
 5004TIP3   OH215017   6.296   2.512   2.902
 5004TIP3    H115018   6.302   2.440   2.965
 5004TIP3    H215019   6.370   2.569   2.922
 5005TIP3   OH215020   0.747   2.679   2.359
 5005TIP3    H115021   0.771   2.745   2.423
 5005TIP3    H215022   0.652   2.688   2.350
 5006TIP3   OH215023   1.558   5.071   4.799
 5006TIP3    H115024   1.552   5.166   4.791
 5006TIP3    H215025   1.569   5.055   4.892
 5007TIP3   OH215026   1.961   5.118   5.064
 5007TIP3    H115027   1.998   5.045   5.114
 5007TIP3    H215028   1.968   5.090   4.973
 5008TIP3   OH215029   5.615   1.543   3.841
 5008TIP3    H115030   5.617   1.470   3.904
 5008TIP3    H215031   5.532   1.587   3.858
 5009TIP3   OH215032   3.371   2.132   2.000
 5009TIP3    H115033   3.313   2.205   1.976
 5009TIP3    H215034   3.447   2.175   2.041
 5010TIP3   OH215035   0.156   4.390   1.511
 5010TIP3    H115036   0.199   4.323   1.564
 5010TIP3    H215037   0.064   4.387   1.537
 5011TIP3   OH215038   4.322   2.407   3.665
 5011TIP3    H115039   4.262   2.375   3.732
 5011TIP3    H215040   4.270   2.408   3.585
 5012TIP3   OH215041   2.367   3.076   1.914
 5012TIP3    H115042   2.402   3.046   1.830
 5012TIP3    H215043   2.279   3.038   1.917
 5013TIP3   OH215044   3.170   2.842   3.211
 5013TIP3    H115045   3.165   2.918   3.153
 5013TIP3    H215046   3.105   2.860   3.279
 5014TIP3   OH215047   5.629   0.844   2.903
 5014TIP3    H115048   5.708   0.887   2.869
 5014TIP3    H215049   5.578   0.915   2.943
 5015TIP3   OH215050   0.138   0.994   1.569
 5015TIP3    H115051   0.118   0.939   1.645
 5015TIP3    H215052   0.233   0.999   1.567
 5016TIP3   OH215053   1.511   1.450   4.674
 5016TIP3    H115054   1.497   1.405   4.758
 5016TIP3    H215055   1.606   1.464   4.671
 5017TIP3   OH215056   0.509   4.456   1.887
 5017TIP3    H115057   0.526   4.404   1.808
 5017TIP3    H215058   0.423   4.425   1.918
 5018TIP3   OH215059   6.238   5.143   3.765
 5018TIP3    H115060   6.322   5.150   3.722
 5018TIP3    H215061   6.245   5.065   3.820
 5019TIP3   OH215062   3.070   4.747   0.038
 5019TIP3    H115063   3.025   4.719   0.117
 5019TIP3    H215064   3.002   4.747  -0.030
 5020TIP3   OH215065   1.828   3.369   0.708
 5020TIP3    H115066   1.735   3.392   0.711
 5020TIP3    H215067   1.851   3.350   0.799
 5021TIP3   OH215068   1.344   5.065   0.313
 5021TIP3    H115069   1.257   5.102   0.295
 5021TIP3    H215070   1.391   5.135   0.359
 5022TIP3   OH215071   3.498   5.078   2.267
 5022TIP3    H115072   3.437   5.112   2.201
 5022TIP3    H215073   3.565   5.032   2.217
 5023TIP3   OH215074   4.344   4.930   3.837
 5023TIP3    H115075   4.377   4.860   3.780
 5023TIP3    H215076   4.328   4.887   3.921
 5024TIP3   OH215077   4.552   0.497   2.654
 5024TIP3    H115078   4.592   0.462   2.734
 5024TIP3    H215079   4.520   0.419   2.608
 5025TIP3   OH215080   2.359   3.590   0.831
 5025TIP3    H115081   2.291   3.532   0.795
 5025TIP3    H215082   2.441   3.545   0.811
 5026TIP3   OH215083   5.078   4.549   0.610
 5026TIP3    H115084   5.046   4.634   0.579
 5026TIP3    H215085   5.173   4.562   0.622
 5027TIP3   OH215086   2.093   1.382   3.800
 5027TIP3    H115087   2.037   1.344   3.733
 5027TIP3    H215088   2.118   1.308   3.855
 5028TIP3   OH215089   0.967   0.912   4.497
 5028TIP3    H115090   0.905   0.943   4.432
 5028TIP3    H215091   0.930   0.829   4.528
 5029TIP3   OH215092   4.103   0.689   1.378
 5029TIP3    H115093   4.052   0.687   1.459
 5029TIP3    H215094   4.194   0.689   1.407
 5030TIP3   OH215095   4.827   5.425   5.237
 5030TIP3    H115096   4.922   5.415   5.243
 5030TIP3    H215097   4.801   5.364   5.168
 5031TIP3   OH215098   3.874   3.326   1.654
 5031TIP3    H115099   3.784   3.313   1.624
 5031TIP3    H215100   3.903   3.238   1.681
 5032TIP3   OH215101   0.668   3.782   1.646
 5032TIP3    H115102   0.747   3.819   1.608
 5032TIP3    H215103   0.698   3.711   1.702
 5033TIP3   OH215104   3.459   4.217   0.987
 5033TIP3    H115105   3.492   4.301   1.017
 5033TIP3    H215106   3.533   4.157   0.997
 5034TIP3   OH215107   6.224   5.495   3.881
 5034TIP3    H115108   6.139   5.512   3.841
 5034TIP3    H215109   6.203   5.446   3.961
 5035TIP3   OH215110   4.689   0.346   2.323
 5035TIP3    H115111   4.727   0.326   2.238
 5035TIP3    H215112   4.659   0.437   2.315
 5036TIP3   OH215113   6.165   0.641   4.953
 5036TIP3    H115114   6.229   0.616   5.020
 5036TIP3    H215115   6.211   0.704   4.898
 5037TIP3   OH215116   4.300   5.767   3.852
 5037TIP3    H115117   4.373   5.788   3.794
 5037TIP3    H215118   4.243   5.710   3.800
 5038TIP3   OH215119   3.344   3.727   1.558
 5038TIP3    H115120   3.417   3.670   1.538
 5038TIP3    H215121   3.269   3.668   1.569
 5039TIP3   OH215122   1.149   0.417   0.666
 5039TIP3    H115123   1.232   0.410   0.618
 5039TIP3    H215124   1.172   0.463   0.746
 5040TIP3   OH215125   2.144   4.577   0.107
 5040TIP3    H115126   2.071   4.597   0.167
 5040TIP3    H215127   2.151   4.482   0.109
 5041TIP3   OH215128   1.995   5.773   0.395
 5041TIP3    H115129   2.053   5.757   0.321
 5041TIP3    H215130   1.970   5.865   0.388
 5042TIP3   OH215131   5.511   0.071   5.050
 5042TIP3    H115132   5.434   0.055   4.996
 5042TIP3    H215133   5.494   0.024   5.131
 5043TIP3   OH215134   2.244   0.989   0.729
 5043TIP3    H115135   2.324   0.987   0.782
 5043TIP3    H215136   2.275   0.977   0.639
 5044TIP3   OH215137   3.805   0.537   0.760
 5044TIP3    H115138   3.864   0.527   0.834
 5044TIP3    H215139   3.722   0.498   0.790
 5045TIP3   OH215140   4.962   2.958   2.951
 5045TIP3    H115141   4.867   2.955   2.964
 5045TIP3    H215142   4.974   2.990   2.862
 5046TIP3   OH215143   6.251   4.954   4.524
 5046TIP3    H115144   6.285   4.976   4.437
 5046TIP3    H215145   6.165   4.995   4.527
 5047TIP3   OH215146   2.366   5.514   3.482
 5047TIP3    H115147   2.377   5.608   3.497
 5047TIP3    H215148   2.308   5.485   3.552
 5048TIP3   OH215149   4.944   5.318   3.587
 5048TIP3    H115150   4.974   5.333   3.677
 5048TIP3    H215151   4.927   5.224   3.583
 5049TIP3   OH215152   5.700   1.996   0.997
 5049TIP3    H115153   5.672   2.085   0.977
 5049TIP3    H215154   5.666   1.979   1.085
 5050TIP3   OH215155   0.796   0.254   0.668
 5050TIP3    H115156   0.834   0.265   0.580
 5050TIP3    H215157   0.817   0.164   0.692
 5051TIP3   OH215158   2.017   0.793   0.813
 5051TIP3    H115159   2.085   0.802   0.881
 5051TIP3    H215160   1.949   0.740   0.854
 5052TIP3   OH215161   3.587   0.645   4.330
 5052TIP3    H115162   3.545   0.725   4.298
 5052TIP3    H215163   3.675   0.673   4.355
 5053TIP3   OH215164   3.402   5.167   2.780
 5053TIP3    H115165   3.353   5.086   2.795
 5053TIP3    H215166   3.381   5.192   2.690
 5054TIP3   OH215167   6.280   0.297   0.020
 5054TIP3    H115168   6.361   0.332   0.058
 5054TIP3    H215169   6.218   0.295   0.093
 5055TIP3   OH215170   4.855   4.983   0.944
 5055TIP3    H115171   4.810   5.040   1.006
 5055TIP3    H215172   4.929   4.946   0.993
 5056TIP3   OH215173   2.230   0.245   4.262
 5056TIP3    H115174   2.206   0.286   4.345
 5056TIP3    H215175   2.198   0.155   4.269
 5057TIP3   OH215176   0.565   2.164   0.887
 5057TIP3    H115177   0.612   2.092   0.929
 5057TIP3    H215178   0.612   2.178   0.805
 5058TIP3   OH215179   5.645   0.189   2.873
 5058TIP3    H115180   5.598   0.129   2.815
 5058TIP3    H215181   5.634   0.151   2.960
 5059TIP3   OH215182   4.456   4.627   0.720
 5059TIP3    H115183   4.542   4.660   0.695
 5059TIP3    H215184   4.465   4.532   0.717
 5060TIP3   OH215185   6.019   4.529   0.840
 5060TIP3    H115186   5.972   4.477   0.904
 5060TIP3    H215187   6.096   4.475   0.818
 5061TIP3   OH215188   2.743   3.353   2.554
 5061TIP3    H115189   2.790   3.395   2.626
 5061TIP3    H215190   2.650   3.364   2.577
 5062TIP3   OH215191   1.862   5.069   4.668
 5062TIP3    H115192   1.773   5.074   4.703
 5062TIP3    H215193   1.880   5.158   4.636
 5063TIP3   OH215194   3.737   3.490   3.020
 5063TIP3    H115195   3.642   3.478   3.015
 5063TIP3    H215196   3.757   3.548   2.947
 5064TIP3   OH215197   5.264   5.843   2.157
 5064TIP3    H115198   5.230   5.930   2.137
 5064TIP3    H215199   5.313   5.817   2.079
 5065TIP3   OH215200   4.188   2.836   3.955
 5065TIP3    H115201   4.172   2.870   4.043
 5065TIP3    H215202   4.117   2.774   3.940
 5066TIP3   OH215203   3.680   1.715   1.211
 5066TIP3    H115204   3.761   1.666   1.196
 5066TIP3    H215205   3.630   1.661   1.272
 5067TIP3   OH215206   1.192   2.982   1.204
 5067TIP3    H115207   1.228   3.051   1.259
 5067TIP3    H215208   1.155   2.919   1.266
 5068TIP3   OH215209   4.155   1.765   1.035
 5068TIP3    H115210   4.084   1.803   1.087
 5068TIP3    H215211   4.231   1.820   1.054
 5069TIP3   OH215212   5.781   2.732   3.293
 5069TIP3    H115213   5.720   2.771   3.355
 5069TIP3    H215214   5.787   2.796   3.221
 5070TIP3   OH215215   3.755   5.218   1.365
 5070TIP3    H115216   3.752   5.247   1.456
 5070TIP3    H215217   3.835   5.165   1.359
 5071TIP3   OH215218   2.889   4.575   1.072
 5071TIP3    H115219   2.807   4.574   1.022
 5071TIP3    H215220   2.883   4.498   1.128
 5072TIP3   OH215221   2.484   3.212   3.993
 5072TIP3    H115222   2.403   3.192   4.040
 5072TIP3    H215223   2.473   3.172   3.907
 5073TIP3   OH215224   3.586   5.154   0.742
 5073TIP3    H115225   3.591   5.249   0.738
 5073TIP3    H215226   3.671   5.124   0.710
 5074TIP3   OH215227   1.318  -0.054   1.730
 5074TIP3    H115228   1.338  -0.025   1.641
 5074TIP3    H215229   1.284   0.024   1.774
 5075TIP3   OH215230   2.405   3.837   0.236
 5075TIP3    H115231   2.358   3.763   0.276
 5075TIP3    H215232   2.346   3.912   0.249
 5076TIP3   OH215233   2.004   4.470   0.824
 5076TIP3    H115234   2.086   4.496   0.782
 5076TIP3    H215235   1.988   4.538   0.890
 5077TIP3   OH215236   3.298   1.516   0.857
 5077TIP3    H115237   3.393   1.527   0.861
 5077TIP3    H215238   3.274   1.480   0.943
 5078TIP3   OH215239   6.134   0.850   2.561
 5078TIP3    H115240   6.222   0.855   2.524
 5078TIP3    H215241   6.086   0.922   2.520
 5079TIP3   OH215242   3.815   5.481   3.322
 5079TIP3    H115243   3.804   5.451   3.412
 5079TIP3    H215244   3.804   5.576   3.326
 5080TIP3   OH215245   3.828   4.413   1.327
 5080TIP3    H115246   3.835   4.320   1.303
 5080TIP3    H215247   3.811   4.413   1.421
 5081TIP3   OH215248   5.481   0.053   3.302
 5081TIP3    H115249   5.530  -0.007   3.359
 5081TIP3    H215250   5.396   0.062   3.345
 5082TIP3   OH215251   4.710   4.728   0.690
 5082TIP3    H115252   4.761   4.681   0.756
 5082TIP3    H215253   4.775   4.772   0.636
 5083TIP3   OH215254   2.252   1.438   2.444
 5083TIP3    H115255   2.292   1.433   2.357
 5083TIP3    H215256   2.159   1.421   2.428
 5084TIP3   OH215257   4.216   4.724   4.823
 5084TIP3    H115258   4.268   4.800   4.848
 5084TIP3    H215259   4.173   4.697   4.904
 5085TIP3   OH215260   0.744   1.730   1.145
 5085TIP3    H115261   0.733   1.675   1.068
 5085TIP3    H215262   0.830   1.704   1.180
 5086TIP3   OH215263   4.935   1.919   4.987
 5086TIP3    H115264   4.910   1.935   5.078
 5086TIP3    H215265   5.024   1.885   4.992
 5087TIP3   OH215266   3.775   0.812   5.127
 5087TIP3    H115267   3.721   0.803   5.049
 5087TIP3    H215268   3.775   0.725   5.167
 5088TIP3   OH215269   5.309   1.277   2.017
 5088TIP3    H115270   5.311   1.372   2.030
 5088TIP3    H215271   5.401   1.251   2.012
 5089TIP3   OH215272   5.987   1.245   4.479
 5089TIP3    H115273   5.948   1.303   4.414
 5089TIP3    H215274   6.080   1.265   4.476
 5090TIP3   OH215275   4.481   2.829   1.880
 5090TIP3    H115276   4.389   2.857   1.887
 5090TIP3    H215277   4.479   2.736   1.902
 5091TIP3   OH215278   2.896   4.016   0.225
 5091TIP3    H115279   2.867   4.106   0.238
 5091TIP3    H215280   2.819   3.963   0.244
 5092TIP3   OH215281   2.344   2.966   3.211
 5092TIP3    H115282   2.386   3.050   3.228
 5092TIP3    H215283   2.415   2.902   3.212
 5093TIP3   OH215284   2.737   5.233   1.900
 5093TIP3    H115285   2.809   5.184   1.859
 5093TIP3    H215286   2.682   5.259   1.826
 5094TIP3   OH215287   3.953   3.383   0.676
 5094TIP3    H115288   3.871   3.406   0.719
 5094TIP3    H215289   3.927   3.348   0.591
 5095TIP3   OH215290   2.662   4.085   2.429
 5095TIP3    H115291   2.720   4.042   2.492
 5095TIP3    H215292   2.586   4.027   2.423
 5096TIP3   OH215293   1.706   3.328   4.758
 5096TIP3    H115294   1.747   3.328   4.845
 5096TIP3    H215295   1.688   3.420   4.740
 5097TIP3   OH215296   5.472   5.918   2.744
 5097TIP3    H115297   5.466   5.853   2.674
 5097TIP3    H215298   5.527   5.877   2.811
 5098TIP3   OH215299   0.081   1.376   1.458
 5098TIP3    H115300   0.043   1.301   1.412
 5098TIP3    H215301   0.025   1.388   1.535
 5099TIP3   OH215302   4.967   5.065   1.876
 5099TIP3    H115303   4.872   5.061   1.889
 5099TIP3    H215304   4.998   5.128   1.941
 5100TIP3   OH215305   2.953   5.438   1.014
 5100TIP3    H115306   3.005   5.358   1.013
 5100TIP3    H215307   3.016   5.508   1.030
 5101TIP3   OH215308   2.360   5.463   1.397
 5101TIP3    H115309   2.389   5.544   1.354
 5101TIP3    H215310   2.265   5.468   1.396
 5102TIP3   OH215311   2.462   5.282   0.728
 5102TIP3    H115312   2.513   5.229   0.790
 5102TIP3    H215313   2.522   5.298   0.655
 5103TIP3   OH215314   0.564   4.164   3.630
 5103TIP3    H115315   0.628   4.121   3.573
 5103TIP3    H215316   0.484   4.113   3.620
 5104TIP3   OH215317   2.478   1.485   2.593
 5104TIP3    H115318   2.427   1.521   2.665
 5104TIP3    H215319   2.412   1.463   2.527
 5105TIP3   OH215320   2.821   2.426   1.239
 5105TIP3    H115321   2.880   2.499   1.254
 5105TIP3    H215322   2.770   2.420   1.320
 5106TIP3   OH215323   0.525   5.925   3.244
 5106TIP3    H115324   0.494   5.949   3.157
 5106TIP3    H215325   0.572   5.843   3.232
 5107TIP3   OH215326   2.255   2.302   3.478
 5107TIP3    H115327   2.233   2.238   3.411
 5107TIP3    H215328   2.335   2.267   3.519
 5108TIP3   OH215329   2.658   1.482   2.388
 5108TIP3    H115330   2.585   1.480   2.449
 5108TIP3    H215331   2.713   1.554   2.419
 5109TIP3   OH215332   3.812   5.111   1.005
 5109TIP3    H115333   3.878   5.042   1.017
 5109TIP3    H215334   3.738   5.066   0.965
 5110TIP3   OH215335   3.782   4.274   0.100
 5110TIP3    H115336   3.728   4.347   0.067
 5110TIP3    H215337   3.820   4.308   0.181
 5111TIP3   OH215338   0.017   5.981   4.306
 5111TIP3    H115339   0.016   5.908   4.243
 5111TIP3    H215340  -0.024   5.945   4.385
 5112TIP3   OH215341   5.147   1.289   1.158
 5112TIP3    H115342   5.086   1.357   1.130
 5112TIP3    H215343   5.112   1.209   1.120
 5113TIP3   OH215344   5.774   4.328   3.643
 5113TIP3    H115345   5.820   4.300   3.564
 5113TIP3    H215346   5.823   4.405   3.673
 5114TIP3   OH215347   1.977   4.121   1.189
 5114TIP3    H115348   1.932   4.085   1.112
 5114TIP3    H215349   2.062   4.150   1.155
 5115TIP3   OH215350   4.027   3.667   0.540
 5115TIP3    H115351   3.936   3.695   0.543
 5115TIP3    H215352   4.046   3.656   0.446
 5116TIP3   OH215353   2.720   4.198   4.099
 5116TIP3    H115354   2.701   4.194   4.193
 5116TIP3    H215355   2.683   4.118   4.063
 5117TIP3   OH215356   3.158   3.365   2.073
 5117TIP3    H115357   3.153   3.293   2.136
 5117TIP3    H215358   3.066   3.387   2.054
 5118TIP3   OH215359   3.332   3.062   4.110
 5118TIP3    H115360   3.244   3.096   4.131
 5118TIP3    H215361   3.342   3.078   4.017
 5119TIP3   OH215362   2.314   5.143   0.356
 5119TIP3    H115363   2.300   5.210   0.289
 5119TIP3    H215364   2.405   5.154   0.383
 5120TIP3   OH215365   1.921   2.588   0.111
 5120TIP3    H115366   1.895   2.633   0.192
 5120TIP3    H215367   1.852   2.524   0.095
 5121TIP3   OH215368   0.720   0.258   3.367
 5121TIP3    H115369   0.678   0.276   3.451
 5121TIP3    H215370   0.788   0.194   3.387
 5122TIP3   OH215371   5.861   3.907   2.313
 5122TIP3    H115372   5.893   3.942   2.396
 5122TIP3    H215373   5.940   3.896   2.260
 5123TIP3   OH215374   0.853   4.299   4.646
 5123TIP3    H115375   0.878   4.206   4.641
 5123TIP3    H215376   0.900   4.341   4.574
 5124TIP3   OH215377   2.917   1.064   1.708
 5124TIP3    H115378   2.996   1.115   1.690
 5124TIP3    H215379   2.914   1.057   1.803
 5125TIP3   OH215380   3.383   5.939   0.067
 5125TIP3    H115381   3.429   5.907   0.145
 5125TIP3    H215382   3.378   6.033   0.078
 5126TIP3   OH215383   1.256   3.633   1.851
 5126TIP3    H115384   1.321   3.636   1.921
 5126TIP3    H215385   1.280   3.555   1.800
 5127TIP3   OH215386   4.225   3.360   4.597
 5127TIP3    H115387   4.194   3.378   4.508
 5127TIP3    H215388   4.207   3.441   4.645
 5128TIP3   OH215389   3.986   0.293   0.884
 5128TIP3    H115390   3.965   0.369   0.939
 5128TIP3    H215391   3.903   0.246   0.876
 5129TIP3   OH215392   0.781   3.578   1.901
 5129TIP3    H115393   0.853   3.543   1.954
 5129TIP3    H215394   0.739   3.501   1.862
 5130TIP3   OH215395   0.632   1.083   0.796
 5130TIP3    H115396   0.595   1.023   0.862
 5130TIP3    H215397   0.715   1.042   0.771
 5131TIP3   OH215398   1.798   1.580   0.369
 5131TIP3    H115399   1.736   1.633   0.419
 5131TIP3    H215400   1.754   1.564   0.286
 5132TIP3   OH215401   3.150   5.711   0.200
 5132TIP3    H115402   3.233   5.665   0.187
 5132TIP3    H215403   3.142   5.720   0.295
 5133TIP3   OH215404   4.225   1.745   4.297
 5133TIP3    H115405   4.312   1.706   4.286
 5133TIP3    H215406   4.167   1.687   4.247
 5134TIP3   OH215407   3.229   3.287   4.452
 5134TIP3    H115408   3.245   3.365   4.400
 5134TIP3    H215409   3.155   3.310   4.509
 5135TIP3   OH215410   1.322   5.932   5.098
 5135TIP3    H115411   1.314   5.923   5.193
 5135TIP3    H215412   1.399   5.879   5.076
 5136TIP3   OH215413   3.105   1.360   1.472
 5136TIP3    H115414   3.116   1.280   1.523
 5136TIP3    H215415   3.185   1.410   1.488
 5137TIP3   OH215416   1.409   0.164   2.763
 5137TIP3    H115417   1.348   0.092   2.749
 5137TIP3    H215418   1.440   0.187   2.675
 5138TIP3   OH215419   2.628   4.724   4.877
 5138TIP3    H115420   2.697   4.672   4.919
 5138TIP3    H215421   2.608   4.792   4.940
 5139TIP3   OH215422   6.184   1.155   4.769
 5139TIP3    H115423   6.115   1.200   4.818
 5139TIP3    H215424   6.182   1.197   4.682
 5140TIP3   OH215425   3.202   2.435   0.294
 5140TIP3    H115426   3.193   2.500   0.364
 5140TIP3    H215427   3.233   2.356   0.338
 5141TIP3   OH215428   0.281   1.421   5.018
 5141TIP3    H115429   0.338   1.360   4.970
 5141TIP3    H215430   0.279   1.386   5.108
 5142TIP3   OH215431   1.702   1.730   0.728
 5142TIP3    H115432   1.656   1.661   0.776
 5142TIP3    H215433   1.648   1.743   0.650
 5143TIP3   OH215434   0.973   0.120   2.087
 5143TIP3    H115435   0.993   0.184   2.154
 5143TIP3    H215436   0.940   0.171   2.014
 5144TIP3   OH215437   5.155   0.114   1.049
 5144TIP3    H115438   5.204   0.182   1.096
 5144TIP3    H215439   5.177   0.033   1.094
 5145TIP3   OH215440   4.276   3.989   2.932
 5145TIP3    H115441   4.266   4.047   2.856
 5145TIP3    H215442   4.337   4.036   2.990
 5146TIP3   OH215443   5.350   4.840   1.485
 5146TIP3    H115444   5.423   4.888   1.522
 5146TIP3    H215445   5.316   4.897   1.416
 5147TIP3   OH215446   3.237   0.217   3.128
 5147TIP3    H115447   3.263   0.280   3.061
 5147TIP3    H215448   3.189   0.270   3.192
 5148TIP3   OH215449   4.889   4.457   5.214
 5148TIP3    H115450   4.901   4.461   5.119
 5148TIP3    H215451   4.978   4.457   5.250
 5149TIP3   OH215452   4.859   3.193   1.357
 5149TIP3    H115453   4.860   3.135   1.433
 5149TIP3    H215454   4.767   3.217   1.347
 5150TIP3   OH215455   0.492   0.231   0.972
 5150TIP3    H115456   0.503   0.145   1.012
 5150TIP3    H215457   0.554   0.231   0.899
 5151TIP3   OH215458   2.852   3.142   1.176
 5151TIP3    H115459   2.917   3.206   1.147
 5151TIP3    H215460   2.808   3.184   1.250
 5152TIP3   OH215461   6.180   2.896   3.306
 5152TIP3    H115462   6.247   2.939   3.253
 5152TIP3    H215463   6.194   2.802   3.292
 5153TIP3   OH215464   5.317   1.951   2.448
 5153TIP3    H115465   5.249   1.928   2.385
 5153TIP3    H215466   5.396   1.906   2.417
 5154TIP3   OH215467   1.550   5.290   0.957
 5154TIP3    H115468   1.616   5.239   0.911
 5154TIP3    H215469   1.596   5.369   0.985
 5155TIP3   OH215470   4.483   4.552   2.455
 5155TIP3    H115471   4.510   4.483   2.394
 5155TIP3    H215472   4.564   4.596   2.479
 5156TIP3   OH215473   5.802   5.831   0.093
 5156TIP3    H115474   5.744   5.904   0.113
 5156TIP3    H215475   5.880   5.871   0.054
 5157TIP3   OH215476   6.228   1.765   4.155
 5157TIP3    H115477   6.217   1.734   4.065
 5157TIP3    H215478   6.321   1.787   4.161
 5158TIP3   OH215479   5.491   1.755   0.919
 5158TIP3    H115480   5.513   1.807   0.841
 5158TIP3    H215481   5.442   1.815   0.975
 5159TIP3   OH215482   5.978   4.836   4.808
 5159TIP3    H115483   5.918   4.784   4.861
 5159TIP3    H215484   6.063   4.825   4.850
 5160TIP3   OH215485   0.507   1.905   2.884
 5160TIP3    H115486   0.454   1.970   2.838
 5160TIP3    H215487   0.549   1.955   2.955
 5161TIP3   OH215488   0.294   4.225   0.482
 5161TIP3    H115489   0.285   4.269   0.398
 5161TIP3    H215490   0.385   4.239   0.508
 5162TIP3   OH215491   1.061   0.991   3.272
 5162TIP3    H115492   1.016   0.911   3.245
 5162TIP3    H215493   1.033   1.006   3.362
 5163TIP3   OH215494   2.499   3.130   1.384
 5163TIP3    H115495   2.564   3.106   1.451
 5163TIP3    H215496   2.429   3.066   1.395
 5164TIP3   OH215497   5.701   2.742   2.518
 5164TIP3    H115498   5.684   2.836   2.518
 5164TIP3    H215499   5.772   2.730   2.455
 5165TIP3   OH215500   3.650   3.406   2.238
 5165TIP3    H115501   3.713   3.365   2.297
 5165TIP3    H215502   3.684   3.390   2.151
 5166TIP3   OH215503   3.427   1.694   1.952
 5166TIP3    H115504   3.384   1.611   1.975
 5166TIP3    H215505   3.499   1.701   2.014
 5167TIP3   OH215506   5.647   0.313   5.101
 5167TIP3    H115507   5.592   0.240   5.074
 5167TIP3    H215508   5.606   0.345   5.182
 5168TIP3   OH215509   1.610   3.332   5.070
 5168TIP3    H115510   1.703   3.325   5.050
 5168TIP3    H215511   1.605   3.398   5.139
 5169TIP3   OH215512   5.719   4.758   4.637
 5169TIP3    H115513   5.778   4.832   4.650
 5169TIP3    H215514   5.747   4.693   4.701
 5170TIP3   OH215515   1.613   3.221   1.038
 5170TIP3    H115516   1.661   3.139   1.024
 5170TIP3    H215517   1.535   3.195   1.087
 5171TIP3   OH215518   5.110   1.097   3.188
 5171TIP3    H115519   5.040   1.125   3.129
 5171TIP3    H215520   5.184   1.154   3.167
 5172TIP3   OH215521   3.970   3.899   3.552
 5172TIP3    H115522   3.953   3.980   3.503
 5172TIP3    H215523   3.899   3.840   3.527
 5173TIP3   OH215524   1.804   4.922   3.735
 5173TIP3    H115525   1.780   4.979   3.662
 5173TIP3    H215526   1.722   4.906   3.782
 5174TIP3   OH215527   1.762   2.652   1.640
 5174TIP3    H115528   1.690   2.715   1.644
 5174TIP3    H215529   1.780   2.631   1.732
 5175TIP3   OH215530   1.151   2.325   3.358
 5175TIP3    H115531   1.119   2.242   3.322
 5175TIP3    H215532   1.229   2.301   3.408
 5176TIP3   OH215533   4.423   5.233   4.366
 5176TIP3    H115534   4.452   5.161   4.310
 5176TIP3    H215535   4.484   5.304   4.348
 5177TIP3   OH215536   3.879   0.153   0.126
 5177TIP3    H115537   3.833   0.235   0.105
 5177TIP3    H215538   3.810   0.087   0.125
 5178TIP3   OH215539   2.659   2.511   4.515
 5178TIP3    H115540   2.648   2.597   4.555
 5178TIP3    H215541   2.668   2.451   4.589
 5179TIP3   OH215542   4.597   3.895   5.108
 5179TIP3    H115543   4.596   3.804   5.081
 5179TIP3    H215544   4.505   3.921   5.112
 5180TIP3   OH215545   4.144   3.356   3.927
 5180TIP3    H115546   4.224   3.316   3.961
 5180TIP3    H215547   4.175   3.430   3.874
 5181TIP3   OH215548   2.250   3.441   0.147
 5181TIP3    H115549   2.254   3.431   0.242
 5181TIP3    H215550   2.337   3.416   0.117
 5182TIP3   OH215551   0.124   3.563   1.256
 5182TIP3    H115552   0.219   3.564   1.242
 5182TIP3    H215553   0.095   3.480   1.219
 5183TIP3   OH215554   2.847   3.665   4.428
 5183TIP3    H115555   2.816   3.576   4.414
 5183TIP3    H215556   2.770   3.713   4.459
 5184TIP3   OH215557   0.876   0.341   1.944
 5184TIP3    H115558   0.921   0.396   1.881
 5184TIP3    H215559   0.865   0.396   2.022
 5185TIP3   OH215560   2.288   0.115   0.506
 5185TIP3    H115561   2.368   0.161   0.529
 5185TIP3    H215562   2.318   0.035   0.463
 5186TIP3   OH215563   6.339   3.885   4.443
 5186TIP3    H115564   6.423   3.866   4.486
 5186TIP3    H215565   6.345   3.977   4.418
 5187TIP3   OH215566   5.798   1.060   3.058
 5187TIP3    H115567   5.815   1.134   3.116
 5187TIP3    H215568   5.750   0.997   3.113
 5188TIP3   OH215569   1.074   0.464   5.168
 5188TIP3    H115570   0.987   0.496   5.193
 5188TIP3    H215571   1.123   0.544   5.146
 5189TIP3   OH215572   0.651   2.073   3.349
 5189TIP3    H115573   0.572   2.041   3.392
 5189TIP3    H215574   0.693   2.130   3.413
 5190TIP3   OH215575   4.293   4.851   4.102
 5190TIP3    H115576   4.285   4.808   4.187
 5190TIP3    H215577   4.223   4.916   4.102
 5191TIP3   OH215578   5.231   4.411   4.736
 5191TIP3    H115579   5.240   4.316   4.733
 5191TIP3    H215580   5.177   4.433   4.660
 5192TIP3   OH215581   3.667   1.985   0.564
 5192TIP3    H115582   3.591   1.933   0.590
 5192TIP3    H215583   3.639   2.032   0.486
 5193TIP3   OH215584   3.943   4.806   1.409
 5193TIP3    H115585   4.029   4.779   1.441
 5193TIP3    H215586   3.939   4.773   1.320
 5194TIP3   OH215587   4.810   5.168   4.284
 5194TIP3    H115588   4.730   5.119   4.265
 5194TIP3    H215589   4.798   5.199   4.374
 5195TIP3   OH215590   5.556   1.017   1.879
 5195TIP3    H115591   5.569   1.111   1.869
 5195TIP3    H215592   5.636   0.977   1.845
 5196TIP3   OH215593   5.704   4.637   2.418
 5196TIP3    H115594   5.696   4.729   2.443
 5196TIP3    H215595   5.787   4.632   2.371
 5197TIP3   OH215596   2.151   5.181   2.869
 5197TIP3    H115597   2.204   5.161   2.946
 5197TIP3    H215598   2.131   5.274   2.877
 5198TIP3   OH215599   5.555   4.032   4.616
 5198TIP3    H115600   5.553   4.051   4.710
 5198TIP3    H215601   5.489   4.090   4.578
 5199TIP3   OH215602   1.771   2.791   4.069
 5199TIP3    H115603   1.786   2.866   4.127
 5199TIP3    H215604   1.783   2.715   4.126
 5200TIP3   OH215605   3.063   1.407   2.267
 5200TIP3    H115606   3.018   1.359   2.198
 5200TIP3    H215607   3.063   1.348   2.342
 5201TIP3   OH215608   5.653   0.691   3.944
 5201TIP3    H115609   5.647   0.709   3.850
 5201TIP3    H215610   5.742   0.658   3.956
 5202TIP3   OH215611   6.265   1.980   3.603
 5202TIP3    H115612   6.222   1.899   3.631
 5202TIP3    H215613   6.195   2.045   3.604
 5203TIP3   OH215614   2.362   5.440   4.172
 5203TIP3    H115615   2.406   5.394   4.243
 5203TIP3    H215616   2.410   5.415   4.093
 5204TIP3   OH215617   5.795   3.445   0.874
 5204TIP3    H115618   5.787   3.541   0.878
 5204TIP3    H215619   5.748   3.421   0.794
 5205TIP3   OH215620   2.902   2.445   0.313
 5205TIP3    H115621   2.985   2.425   0.270
 5205TIP3    H215622   2.838   2.388   0.270
 5206TIP3   OH215623   2.776   1.152   3.577
 5206TIP3    H115624   2.715   1.093   3.621
 5206TIP3    H215625   2.727   1.232   3.561
 5207TIP3   OH215626   5.005   4.201   3.840
 5207TIP3    H115627   5.004   4.274   3.902
 5207TIP3    H215628   4.950   4.230   3.768
 5208TIP3   OH215629   4.335   2.448   2.297
 5208TIP3    H115630   4.297   2.525   2.253
 5208TIP3    H215631   4.300   2.453   2.387
 5209TIP3   OH215632   5.516   0.317   2.549
 5209TIP3    H115633   5.439   0.285   2.503
 5209TIP3    H215634   5.482   0.354   2.631
 5210TIP3   OH215635   5.691   4.648   2.715
 5210TIP3    H115636   5.652   4.563   2.735
 5210TIP3    H215637   5.769   4.626   2.664
 5211TIP3   OH215638   4.045   2.479   1.037
 5211TIP3    H115639   4.135   2.450   1.052
 5211TIP3    H215640   4.040   2.564   1.081
 5212TIP3   OH215641   2.873   3.181   4.153
 5212TIP3    H115642   2.898   3.258   4.102
 5212TIP3    H215643   2.953   3.155   4.200
 5213TIP3   OH215644   1.905   3.105   3.836
 5213TIP3    H115645   1.869   3.021   3.809
 5213TIP3    H215646   1.904   3.102   3.932
 5214TIP3   OH215647   2.657   4.525   1.745
 5214TIP3    H115648   2.714   4.601   1.738
 5214TIP3    H215649   2.574   4.559   1.779
 5215TIP3   OH215650   1.711   5.840   1.013
 5215TIP3    H115651   1.636   5.872   0.962
 5215TIP3    H215652   1.722   5.750   0.983
 5216TIP3   OH215653   0.195   5.705   4.340
 5216TIP3    H115654   0.266   5.706   4.275
 5216TIP3    H215655   0.117   5.725   4.289
 5217TIP3   OH215656   1.199   1.171   3.902
 5217TIP3    H115657   1.176   1.207   3.988
 5217TIP3    H215658   1.174   1.240   3.840
 5218TIP3   OH215659   0.260   3.706   2.454
 5218TIP3    H115660   0.195   3.636   2.456
 5218TIP3    H215661   0.253   3.749   2.539
 5219TIP3   OH215662   6.017   5.943   2.387
 5219TIP3    H115663   6.007   5.848   2.387
 5219TIP3    H215664   6.095   5.959   2.333
 5220TIP3   OH215665   0.488   1.721   2.020
 5220TIP3    H115666   0.484   1.661   1.946
 5220TIP3    H215667   0.453   1.803   1.986
 5221TIP3   OH215668   5.917   3.706   1.954
 5221TIP3    H115669   5.895   3.638   2.018
 5221TIP3    H215670   5.841   3.709   1.896
 5222TIP3   OH215671   0.310   5.682   4.096
 5222TIP3    H115672   0.282   5.610   4.039
 5222TIP3    H215673   0.332   5.753   4.035
 5223TIP3   OH215674   0.108   1.949   2.870
 5223TIP3    H115675   0.192   1.987   2.897
 5223TIP3    H215676   0.043   2.005   2.912
 5224TIP3   OH215677   5.431   2.961   3.553
 5224TIP3    H115678   5.363   2.966   3.619
 5224TIP3    H215679   5.387   2.981   3.471
 5225TIP3   OH215680   1.763   5.770   5.110
 5225TIP3    H115681   1.792   5.824   5.036
 5225TIP3    H215682   1.682   5.729   5.080
 5226TIP3   OH215683   3.453   2.972   3.815
 5226TIP3    H115684   3.453   3.066   3.833
 5226TIP3    H215685   3.381   2.958   3.754
 5227TIP3   OH215686   3.233   5.500   3.127
 5227TIP3    H115687   3.263   5.518   3.216
 5227TIP3    H215688   3.204   5.585   3.094
 5228TIP3   OH215689   3.629   3.244   5.060
 5228TIP3    H115690   3.631   3.177   5.127
 5228TIP3    H215691   3.707   3.228   5.007
 5229TIP3   OH215692   4.631   3.202   2.226
 5229TIP3    H115693   4.611   3.146   2.151
 5229TIP3    H215694   4.706   3.254   2.199
 5230TIP3   OH215695   1.657   4.432   5.111
 5230TIP3    H115696   1.595   4.504   5.098
 5230TIP3    H215697   1.740   4.475   5.128
 5231TIP3   OH215698   5.006   5.961   1.864
 5231TIP3    H115699   5.089   5.991   1.827
 5231TIP3    H215700   4.987   5.879   1.819
 5232TIP3   OH215701   3.876   3.616   2.297
 5232TIP3    H115702   3.961   3.572   2.296
 5232TIP3    H215703   3.862   3.644   2.207
 5233TIP3   OH215704   5.805   3.629   2.309
 5233TIP3    H115705   5.853   3.617   2.391
 5233TIP3    H215706   5.788   3.723   2.305
 5234TIP3   OH215707   3.888   4.099   1.752
 5234TIP3    H115708   3.852   4.135   1.832
 5234TIP3    H215709   3.930   4.173   1.708
 5235TIP3   OH215710  -0.019   0.546   2.429
 5235TIP3    H115711  -0.065   0.483   2.484
 5235TIP3    H215712   0.045   0.586   2.487
 5236TIP3   OH215713   4.504   3.349   0.658
 5236TIP3    H115714   4.441   3.414   0.628
 5236TIP3    H215715   4.455   3.293   0.719
 5237TIP3   OH215716   3.199   4.446   2.372
 5237TIP3    H115717   3.198   4.541   2.380
 5237TIP3    H215718   3.291   4.423   2.367
 5238TIP3   OH215719   6.360   5.801   2.224
 5238TIP3    H115720   6.353   5.896   2.222
 5238TIP3    H215721   6.312   5.772   2.147
 5239TIP3   OH215722   2.469   5.565   2.728
 5239TIP3    H115723   2.496   5.547   2.638
 5239TIP3    H215724   2.402   5.633   2.720
 5240TIP3   OH215725   5.326   2.783   5.098
 5240TIP3    H115726   5.372   2.741   5.025
 5240TIP3    H215727   5.340   2.725   5.173
 5241TIP3   OH215728   5.974   0.661   1.307
 5241TIP3    H115729   6.017   0.605   1.242
 5241TIP3    H215730   6.008   0.749   1.289
 5242TIP3   OH215731   2.935   0.825   3.769
 5242TIP3    H115732   2.958   0.836   3.677
 5242TIP3    H215733   2.918   0.731   3.778
 5243TIP3   OH215734   5.895   4.675   1.671
 5243TIP3    H115735   5.966   4.654   1.731
 5243TIP3    H215736   5.872   4.766   1.691
 5244TIP3   OH215737   1.164   5.501   4.088
 5244TIP3    H115738   1.224   5.448   4.035
 5244TIP3    H215739   1.145   5.578   4.035
 5245TIP3   OH215740   0.722   3.604   0.174
 5245TIP3    H115741   0.788   3.537   0.189
 5245TIP3    H215742   0.760   3.684   0.210
 5246TIP3   OH215743   1.234   1.198   0.184
 5246TIP3    H115744   1.320   1.228   0.155
 5246TIP3    H215745   1.238   1.200   0.279
 5247TIP3   OH215746   1.979   0.346   2.220
 5247TIP3    H115747   1.958   0.411   2.286
 5247TIP3    H215748   1.936   0.378   2.140
 5248TIP3   OH215749   5.389   0.072   2.211
 5248TIP3    H115750   5.385   0.129   2.288
 5248TIP3    H215751   5.354  -0.011   2.241
 5249TIP3   OH215752   2.619   3.741   3.437
 5249TIP3    H115753   2.537   3.767   3.479
 5249TIP3    H215754   2.592   3.686   3.363
 5250TIP3   OH215755   5.792   4.146   1.917
 5250TIP3    H115756   5.799   4.205   1.841
 5250TIP3    H215757   5.879   4.147   1.956
 5251TIP3   OH215758   6.108   5.806   4.058
 5251TIP3    H115759   6.079   5.825   4.148
 5251TIP3    H215760   6.160   5.882   4.033
 5252TIP3   OH215761   6.145   4.551   5.077
 5252TIP3    H115762   6.066   4.517   5.035
 5252TIP3    H215763   6.168   4.629   5.026
 5253TIP3   OH215764   4.149   4.225   4.135
 5253TIP3    H115765   4.145   4.319   4.152
 5253TIP3    H215766   4.112   4.216   4.047
 5254TIP3   OH215767   0.345   0.547   0.252
 5254TIP3    H115768   0.301   0.587   0.177
 5254TIP3    H215769   0.283   0.557   0.324
 5255TIP3   OH215770   2.063   4.589   0.370
 5255TIP3    H115771   2.102   4.663   0.416
 5255TIP3    H215772   1.975   4.582   0.407
 5256TIP3   OH215773   0.900   3.418   0.184
 5256TIP3    H115774   0.967   3.422   0.252
 5256TIP3    H215775   0.946   3.442   0.103
 5257TIP3   OH215776   5.869   4.168   3.141
 5257TIP3    H115777   5.808   4.182   3.068
 5257TIP3    H215778   5.881   4.255   3.179
 5258TIP3   OH215779   2.130   3.154   1.568
 5258TIP3    H115780   2.076   3.199   1.504
 5258TIP3    H215781   2.068   3.105   1.622
 5259TIP3   OH215782   5.992   2.980   0.578
 5259TIP3    H115783   5.968   3.024   0.659
 5259TIP3    H215784   6.048   2.907   0.606
 5260TIP3   OH215785   3.666   3.470   0.737
 5260TIP3    H115786   3.570   3.467   0.739
 5260TIP3    H215787   3.692   3.463   0.829
 5261TIP3   OH215788   5.367   3.327   3.531
 5261TIP3    H115789   5.404   3.311   3.618
 5261TIP3    H215790   5.311   3.404   3.543
 5262TIP3   OH215791   1.126   4.468   1.783
 5262TIP3    H115792   1.183   4.473   1.859
 5262TIP3    H215793   1.090   4.556   1.773
 5263TIP3   OH215794   2.185   0.165   3.813
 5263TIP3    H115795   2.130   0.191   3.887
 5263TIP3    H215796   2.153   0.217   3.740
 5264TIP3   OH215797   5.870   2.888   4.985
 5264TIP3    H115798   5.831   2.967   5.024
 5264TIP3    H215799   5.936   2.860   5.048
 5265TIP3   OH215800   0.527   1.744   4.651
 5265TIP3    H115801   0.589   1.765   4.721
 5265TIP3    H215802   0.466   1.682   4.692
 5266TIP3   OH215803   5.959   3.582   1.370
 5266TIP3    H115804   5.888   3.530   1.332
 5266TIP3    H215805   6.028   3.580   1.303
 5267TIP3   OH215806   0.938   2.508   3.903
 5267TIP3    H115807   1.006   2.447   3.876
 5267TIP3    H215808   0.856   2.461   3.886
 5268TIP3   OH215809   1.807   0.205   4.565
 5268TIP3    H115810   1.734   0.215   4.504
 5268TIP3    H215811   1.808   0.287   4.615
 5269TIP3   OH215812   5.665   5.983   0.360
 5269TIP3    H115813   5.669   6.023   0.447
 5269TIP3    H215814   5.704   5.896   0.372
 5270TIP3   OH215815   6.127   6.005   0.779
 5270TIP3    H115816   6.204   5.959   0.744
 5270TIP3    H215817   6.061   5.937   0.789
 5271TIP3   OH215818   0.032   2.957   0.802
 5271TIP3    H115819  -0.026   3.020   0.760
 5271TIP3    H215820  -0.021   2.878   0.811
 5272TIP3   OH215821   1.403   1.886   4.184
 5272TIP3    H115822   1.378   1.956   4.244
 5272TIP3    H215823   1.365   1.807   4.222
 5273TIP3   OH215824   0.320   0.679   1.600
 5273TIP3    H115825   0.246   0.672   1.539
 5273TIP3    H215826   0.341   0.772   1.602
 5274TIP3   OH215827   6.068   0.684   4.598
 5274TIP3    H115828   6.117   0.742   4.540
 5274TIP3    H215829   6.082   0.721   4.686
 5275TIP3   OH215830   1.369   3.617   4.391
 5275TIP3    H115831   1.309   3.640   4.462
 5275TIP3    H215832   1.320   3.554   4.338
 5276TIP3   OH215833   1.026   2.145   2.631
 5276TIP3    H115834   0.966   2.076   2.602
 5276TIP3    H215835   1.100   2.139   2.571
 5277TIP3   OH215836   4.132   4.197   3.212
 5277TIP3    H115837   4.151   4.263   3.278
 5277TIP3    H215838   4.044   4.217   3.182
 5278TIP3   OH215839   1.428   4.297   4.814
 5278TIP3    H115840   1.504   4.318   4.760
 5278TIP3    H215841   1.435   4.355   4.890
 5279TIP3   OH215842   1.321   1.601   0.372
 5279TIP3    H115843   1.243   1.615   0.319
 5279TIP3    H215844   1.371   1.535   0.324
 5280TIP3   OH215845   5.582   2.243   4.273
 5280TIP3    H115846   5.579   2.312   4.207
 5280TIP3    H215847   5.663   2.195   4.254
 5281TIP3   OH215848   5.115   5.729   0.337
 5281TIP3    H115849   5.209   5.744   0.327
 5281TIP3    H215850   5.105   5.634   0.327
 5282TIP3   OH215851   1.369   1.570   4.022
 5282TIP3    H115852   1.345   1.627   4.095
 5282TIP3    H215853   1.299   1.505   4.019
 5283TIP3   OH215854   3.272   4.494   1.752
 5283TIP3    H115855   3.365   4.478   1.736
 5283TIP3    H215856   3.270   4.564   1.816
 5284TIP3   OH215857   0.160   4.793   2.971
 5284TIP3    H115858   0.102   4.824   3.041
 5284TIP3    H215859   0.227   4.861   2.963
 5285TIP3   OH215860   3.318   0.519   2.636
 5285TIP3    H115861   3.388   0.517   2.571
 5285TIP3    H215862   3.320   0.608   2.671
 5286TIP3   OH215863   4.697   4.776   1.050
 5286TIP3    H115864   4.764   4.826   1.002
 5286TIP3    H215865   4.703   4.688   1.013
 5287TIP3   OH215866   1.208   2.211   0.988
 5287TIP3    H115867   1.253   2.265   1.053
 5287TIP3    H215868   1.274   2.192   0.922
 5288TIP3   OH215869   2.092   3.844   0.827
 5288TIP3    H115870   2.163   3.908   0.828
 5288TIP3    H215871   2.135   3.760   0.813
 5289TIP3   OH215872   6.245   5.187   0.551
 5289TIP3    H115873   6.327   5.154   0.589
 5289TIP3    H215874   6.257   5.177   0.456
 5290TIP3   OH215875   5.203   3.650   4.586
 5290TIP3    H115876   5.122   3.665   4.634
 5290TIP3    H215877   5.268   3.703   4.632
 5291TIP3   OH215878   0.425   5.108   4.430
 5291TIP3    H115879   0.382   5.193   4.419
 5291TIP3    H215880   0.389   5.054   4.360
 5292TIP3   OH215881   6.149   0.201   0.247
 5292TIP3    H115882   6.170   0.227   0.337
 5292TIP3    H215883   6.152   0.105   0.249
 5293TIP3   OH215884   4.203   4.191  -0.029
 5293TIP3    H115885   4.181   4.139  -0.106
 5293TIP3    H215886   4.279   4.146   0.009
 5294TIP3   OH215887   3.742   2.301   0.398
 5294TIP3    H115888   3.832   2.274   0.415
 5294TIP3    H215889   3.700   2.224   0.359
 5295TIP3   OH215890   5.097   5.427   1.536
 5295TIP3    H115891   5.107   5.336   1.510
 5295TIP3    H215892   5.085   5.475   1.454
 5296TIP3   OH215893   0.253   3.354   0.171
 5296TIP3    H115894   0.344   3.346   0.142
 5296TIP3    H215895   0.206   3.285   0.124
 5297TIP3   OH215896   2.023   4.114   1.667
 5297TIP3    H115897   2.116   4.101   1.690
 5297TIP3    H215898   2.018   4.089   1.574
 5298TIP3   OH215899   1.110   3.172   3.988
 5298TIP3    H115900   1.015   3.164   3.984
 5298TIP3    H215901   1.130   3.178   4.082
 5299TIP3   OH215902   3.936   3.145   2.938
 5299TIP3    H115903   3.945   3.099   3.022
 5299TIP3    H215904   3.859   3.201   2.950
 5300TIP3   OH215905   6.207   4.218   4.951
 5300TIP3    H115906   6.172   4.131   4.934
 5300TIP3    H215907   6.222   4.255   4.864
 5301TIP3   OH215908   1.884   0.991   3.115
 5301TIP3    H115909   1.865   1.051   3.043
 5301TIP3    H215910   1.972   1.016   3.144
 5302TIP3   OH215911   0.444   0.846   0.204
 5302TIP3    H115912   0.441   0.839   0.299
 5302TIP3    H215913   0.360   0.813   0.174
 5303TIP3   OH215914   1.761   0.592   2.230
 5303TIP3    H115915   1.712   0.652   2.174
 5303TIP3    H215916   1.850   0.594   2.196
 5304TIP3   OH215917   6.235   4.615   1.265
 5304TIP3    H115918   6.233   4.686   1.328
 5304TIP3    H215919   6.202   4.653   1.184
 5305TIP3   OH215920   4.471   4.703   0.356
 5305TIP3    H115921   4.566   4.693   0.364
 5305TIP3    H215922   4.437   4.614   0.362
 5306TIP3   OH215923   1.273   3.093   2.773
 5306TIP3    H115924   1.346   3.154   2.777
 5306TIP3    H215925   1.302   3.018   2.825
 5307TIP3   OH215926   3.565   5.560   3.256
 5307TIP3    H115927   3.658   5.556   3.279
 5307TIP3    H215928   3.550   5.482   3.203
 5308TIP3   OH215929   1.237   0.326   3.175
 5308TIP3    H115930   1.280   0.243   3.193
 5308TIP3    H215931   1.164   0.329   3.236
 5309TIP3   OH215932   5.238   2.831   0.338
 5309TIP3    H115933   5.168   2.847   0.275
 5309TIP3    H215934   5.201   2.857   0.422
 5310TIP3   OH215935   0.560   3.595   4.895
 5310TIP3    H115936   0.644   3.564   4.929
 5310TIP3    H215937   0.565   3.579   4.801
 5311TIP3   OH215938   0.371   4.839   3.281
 5311TIP3    H115939   0.384   4.926   3.318
 5311TIP3    H215940   0.454   4.818   3.238
 5312TIP3   OH215941   0.856   5.892   1.813
 5312TIP3    H115942   0.775   5.891   1.864
 5312TIP3    H215943   0.868   5.802   1.785
 5313TIP3   OH215944   5.490   1.939   1.939
 5313TIP3    H115945   5.437   2.004   1.894
 5313TIP3    H215946   5.556   1.912   1.875
 5314TIP3   OH215947   4.127   5.320   1.280
 5314TIP3    H115948   4.084   5.404   1.294
 5314TIP3    H215949   4.079   5.258   1.336
 5315TIP3   OH215950   1.420   5.093   2.925
 5315TIP3    H115951   1.475   5.169   2.942
 5315TIP3    H215952   1.477   5.031   2.881
 5316TIP3   OH215953   0.430   4.049   2.188
 5316TIP3    H115954   0.414   3.956   2.205
 5316TIP3    H215955   0.522   4.063   2.211
 5317TIP3   OH215956   6.225   4.778   1.508
 5317TIP3    H115957   6.146   4.830   1.496
 5317TIP3    H215958   6.251   4.794   1.598
 5318TIP3   OH215959   0.669   0.765   3.763
 5318TIP3    H115960   0.691   0.824   3.835
 5318TIP3    H215961   0.649   0.682   3.805
 5319TIP3   OH215962   1.219   0.728   1.341
 5319TIP3    H115963   1.181   0.791   1.402
 5319TIP3    H215964   1.312   0.751   1.337
 5320TIP3   OH215965   4.841   5.181   3.056
 5320TIP3    H115966   4.936   5.194   3.055
 5320TIP3    H215967   4.814   5.195   2.965
 5321TIP3   OH215968   1.296   1.467   1.575
 5321TIP3    H115969   1.251   1.383   1.569
 5321TIP3    H215970   1.276   1.499   1.663
 5322TIP3   OH215971   1.825   1.134   5.123
 5322TIP3    H115972   1.756   1.155   5.187
 5322TIP3    H215973   1.906   1.146   5.172
 5323TIP3   OH215974   1.625   4.726   4.156
 5323TIP3    H115975   1.661   4.651   4.202
 5323TIP3    H215976   1.684   4.739   4.082
 5324TIP3   OH215977   2.226   4.749   4.310
 5324TIP3    H115978   2.188   4.661   4.309
 5324TIP3    H215979   2.161   4.802   4.356
 5325TIP3   OH215980   3.510   3.146   2.220
 5325TIP3    H115981   3.422   3.110   2.213
 5325TIP3    H215982   3.510   3.192   2.304
 5326TIP3   OH215983   0.415   3.560   1.299
 5326TIP3    H115984   0.496   3.553   1.248
 5326TIP3    H215985   0.442   3.597   1.383
 5327TIP3   OH215986   4.415   4.390   4.747
 5327TIP3    H115987   4.417   4.428   4.835
 5327TIP3    H215988   4.326   4.355   4.738
 5328TIP3   OH215989   2.706   1.792   2.585
 5328TIP3    H115990   2.757   1.853   2.531
 5328TIP3    H215991   2.767   1.722   2.607
 5329TIP3   OH215992   3.263   1.316   0.624
 5329TIP3    H115993   3.279   1.362   0.707
 5329TIP3    H215994   3.250   1.225   0.649
 5330TIP3   OH215995   4.425   3.812   2.625
 5330TIP3    H115996   4.496   3.792   2.564
 5330TIP3    H215997   4.387   3.893   2.591
 5331TIP3   OH215998   3.533   1.395   2.960
 5331TIP3    H115999   3.520   1.347   3.042
 5331TIP3    H216000   3.446   1.423   2.935
 5332TIP3   OH216001   5.180   5.602   2.709
 5332TIP3    H116002   5.207   5.575   2.797
 5332TIP3    H216003   5.250   5.571   2.652
 5333TIP3   OH216004   2.196   3.561   2.520
 5333TIP3    H116005   2.102   3.573   2.509
 5333TIP3    H216006   2.209   3.551   2.614
 5334TIP3   OH216007   3.013   3.434   0.443
 5334TIP3    H116008   2.998   3.431   0.538
 5334TIP3    H216009   3.072   3.508   0.430
 5335TIP3   OH216010   0.149   0.853   0.588
 5335TIP3    H116011   0.178   0.852   0.496
 5335TIP3    H216012   0.192   0.930   0.625
 5336TIP3   OH216013   5.260   0.102   3.454
 5336TIP3    H116014   5.222   0.138   3.535
 5336TIP3    H216015   5.195   0.122   3.387
 5337TIP3   OH216016   3.846   1.409   0.379
 5337TIP3    H116017   3.922   1.439   0.429
 5337TIP3    H216018   3.774   1.462   0.411
 5338TIP3   OH216019   3.542   2.682   2.968
 5338TIP3    H116020   3.467   2.682   2.908
 5338TIP3    H216021   3.517   2.741   3.039
 5339TIP3   OH216022   5.404   4.800   1.897
 5339TIP3    H116023   5.493   4.797   1.932
 5339TIP3    H216024   5.392   4.717   1.852
 5340TIP3   OH216025   4.869   5.412   4.139
 5340TIP3    H116026   4.849   5.495   4.181
 5340TIP3    H216027   4.815   5.348   4.185
 5341TIP3   OH216028   5.168   0.124   3.181
 5341TIP3    H116029   5.224   0.141   3.105
 5341TIP3    H216030   5.092   0.078   3.145
 5342TIP3   OH216031   5.585   5.572   3.727
 5342TIP3    H116032   5.657   5.515   3.702
 5342TIP3    H216033   5.556   5.612   3.645
 5343TIP3   OH216034   5.388   1.669   4.433
 5343TIP3    H116035   5.328   1.605   4.469
 5343TIP3    H216036   5.471   1.653   4.478
 5344TIP3   OH216037   2.636   1.669   4.248
 5344TIP3    H116038   2.670   1.614   4.319
 5344TIP3    H216039   2.702   1.664   4.179
 5345TIP3   OH216040   2.023   4.122   3.406
 5345TIP3    H116041   2.113   4.145   3.431
 5345TIP3    H216042   2.033   4.068   3.328
 5346TIP3   OH216043   3.040   3.706   1.478
 5346TIP3    H116044   2.948   3.731   1.484
 5346TIP3    H216045   3.082   3.748   1.553
 5347TIP3   OH216046   4.664   4.937   3.383
 5347TIP3    H116047   4.649   4.923   3.476
 5347TIP3    H216048   4.723   5.012   3.379
 5348TIP3   OH216049   5.008   5.295   1.264
 5348TIP3    H116050   5.082   5.349   1.238
 5348TIP3    H216051   5.044   5.235   1.330
 5349TIP3   OH216052   4.248   1.994   0.419
 5349TIP3    H116053   4.239   1.920   0.478
 5349TIP3    H216054   4.193   2.063   0.458
 5350TIP3   OH216055   6.174   3.420   3.397
 5350TIP3    H116056   6.243   3.365   3.362
 5350TIP3    H216057   6.096   3.364   3.397
 5351TIP3   OH216058   4.317   3.024   3.812
 5351TIP3    H116059   4.262   3.064   3.744
 5351TIP3    H216060   4.262   2.957   3.852
 5352TIP3   OH216061   1.926   5.657   3.714
 5352TIP3    H116062   1.973   5.733   3.749
 5352TIP3    H216063   1.907   5.680   3.623
 5353TIP3   OH216064   5.989   5.321   0.547
 5353TIP3    H116065   5.964   5.230   0.561
 5353TIP3    H216066   6.085   5.317   0.536
 5354TIP3   OH216067   4.300   4.780   3.245
 5354TIP3    H116068   4.330   4.863   3.281
 5354TIP3    H216069   4.251   4.739   3.317
 5355TIP3   OH216070   4.393   0.934   4.892
 5355TIP3    H116071   4.394   1.026   4.916
 5355TIP3    H216072   4.327   0.895   4.949
 5356TIP3   OH216073   1.868   0.624   0.975
 5356TIP3    H116074   1.784   0.621   0.929
 5356TIP3    H216075   1.897   0.533   0.979
 5357TIP3   OH216076   4.074   4.145   1.183
 5357TIP3    H116077   4.049   4.054   1.166
 5357TIP3    H216078   4.124   4.142   1.264
 5358TIP3   OH216079   1.693   0.804   4.416
 5358TIP3    H116080   1.618   0.840   4.464
 5358TIP3    H216081   1.664   0.717   4.388
 5359TIP3   OH216082   3.707   4.735   1.110
 5359TIP3    H116083   3.663   4.789   1.044
 5359TIP3    H216084   3.647   4.735   1.185
 5360TIP3   OH216085   4.547   1.017   0.712
 5360TIP3    H116086   4.521   1.016   0.620
 5360TIP3    H216087   4.622   0.958   0.716
 5361TIP3   OH216088   3.726   1.822   4.377
 5361TIP3    H116089   3.673   1.758   4.425
 5361TIP3    H216090   3.810   1.778   4.362
 5362TIP3   OH216091   5.409   3.141   0.526
 5362TIP3    H116092   5.333   3.094   0.490
 5362TIP3    H216093   5.395   3.232   0.498
 5363TIP3   OH216094   1.731   3.427   3.018
 5363TIP3    H116095   1.678   3.454   3.094
 5363TIP3    H216096   1.667   3.420   2.947
 5364TIP3   OH216097   2.130   1.896   3.767
 5364TIP3    H116098   2.142   1.869   3.676
 5364TIP3    H216099   2.213   1.936   3.791
 5365TIP3   OH216100   4.076   0.350   2.747
 5365TIP3    H116101   4.100   0.394   2.828
 5365TIP3    H216102   4.142   0.380   2.683
 5366TIP3   OH216103   3.420   0.749   3.422
 5366TIP3    H116104   3.430   0.795   3.505
 5366TIP3    H216105   3.499   0.694   3.415
 5367TIP3   OH216106   1.659   0.817   3.162
 5367TIP3    H116107   1.742   0.854   3.132
 5367TIP3    H216108   1.593   0.883   3.141
 5368TIP3   OH216109   0.249   3.494   1.830
 5368TIP3    H116110   0.301   3.422   1.864
 5368TIP3    H216111   0.165   3.454   1.807
 5369TIP3   OH216112   1.904   5.543   3.223
 5369TIP3    H116113   1.875   5.467   3.275
 5369TIP3    H216114   1.996   5.554   3.247
 5370TIP3   OH216115   5.767   3.337   1.629
 5370TIP3    H116116   5.814   3.363   1.550
 5370TIP3    H216117   5.769   3.241   1.628
 5371TIP3   OH216118   4.151   0.600   3.059
 5371TIP3    H116119   4.106   0.682   3.077
 5371TIP3    H216120   4.152   0.554   3.143
 5372TIP3   OH216121   6.010   1.428   1.563
 5372TIP3    H116122   6.036   1.471   1.645
 5372TIP3    H216123   6.048   1.483   1.494
 5373TIP3   OH216124   4.377   0.299   2.099
 5373TIP3    H116125   4.460   0.342   2.078
 5373TIP3    H216126   4.311   0.368   2.091
 5374TIP3   OH216127   3.787   3.520   4.204
 5374TIP3    H116128   3.813   3.435   4.167
 5374TIP3    H216129   3.833   3.585   4.151
 5375TIP3   OH216130   0.603   4.820   3.131
 5375TIP3    H116131   0.631   4.759   3.063
 5375TIP3    H216132   0.600   4.905   3.087
 5376TIP3   OH216133   1.432   2.646   0.714
 5376TIP3    H116134   1.398   2.721   0.764
 5376TIP3    H216135   1.366   2.578   0.725
 5377TIP3   OH216136   2.059   2.947   0.544
 5377TIP3    H116137   2.051   2.903   0.459
 5377TIP3    H216138   1.984   3.007   0.546
 5378TIP3   OH216139   1.767   1.342   0.844
 5378TIP3    H116140   1.707   1.374   0.912
 5378TIP3    H216141   1.713   1.284   0.790
 5379TIP3   OH216142   4.883   2.401   2.532
 5379TIP3    H116143   4.829   2.357   2.598
 5379TIP3    H216144   4.958   2.343   2.520
 5380TIP3   OH216145   4.971   5.393   0.402
 5380TIP3    H116146   4.895   5.432   0.445
 5380TIP3    H216147   4.950   5.300   0.396
 5381TIP3   OH216148   5.901   3.569   0.106
 5381TIP3    H116149   5.892   3.482   0.068
 5381TIP3    H216150   5.812   3.594   0.131
 5382TIP3   OH216151   2.455   1.236   2.749
 5382TIP3    H116152   2.394   1.191   2.691
 5382TIP3    H216153   2.505   1.294   2.692
 5383TIP3   OH216154   3.180   1.954   1.193
 5383TIP3    H116155   3.197   2.028   1.251
 5383TIP3    H216156   3.264   1.936   1.151
 5384TIP3   OH216157   5.473   5.541   1.947
 5384TIP3    H116158   5.391   5.500   1.977
 5384TIP3    H216159   5.481   5.512   1.856
 5385TIP3   OH216160   4.193   0.422   3.277
 5385TIP3    H116161   4.175   0.335   3.243
 5385TIP3    H216162   4.286   0.436   3.258
 5386TIP3   OH216163   0.210   3.449   0.911
 5386TIP3    H116164   0.255   3.401   0.981
 5386TIP3    H216165   0.209   3.388   0.837
 5387TIP3   OH216166   0.904   4.256   2.369
 5387TIP3    H116167   0.977   4.278   2.427
 5387TIP3    H216168   0.896   4.332   2.311
 5388TIP3   OH216169   1.647   0.196   2.339
 5388TIP3    H116170   1.645   0.242   2.423
 5388TIP3    H216171   1.705   0.121   2.354
 5389TIP3   OH216172   3.161   3.240   0.761
 5389TIP3    H116173   3.157   3.222   0.667
 5389TIP3    H216174   3.075   3.277   0.782
 5390TIP3   OH216175   5.828   0.119   2.331
 5390TIP3    H116176   5.742   0.135   2.292
 5390TIP3    H216177   5.864   0.047   2.278
 5391TIP3   OH216178   0.245   0.536   1.823
 5391TIP3    H116179   0.328   0.495   1.846
 5391TIP3    H216180   0.264   0.590   1.746
 5392TIP3   OH216181   3.586   3.186   3.472
 5392TIP3    H116182   3.591   3.110   3.530
 5392TIP3    H216183   3.675   3.222   3.473
 5393TIP3   OH216184   0.456   4.074   2.780
 5393TIP3    H116185   0.415   4.069   2.866
 5393TIP3    H216186   0.541   4.114   2.795
 5394TIP3   OH216187   2.941   2.813   3.424
 5394TIP3    H116188   2.883   2.800   3.498
 5394TIP3    H216189   2.977   2.901   3.436
 5395TIP3   OH216190   0.171   2.617   5.143
 5395TIP3    H116191   0.235   2.560   5.101
 5395TIP3    H216192   0.221   2.693   5.172
 5396TIP3   OH216193   1.418   2.176   4.944
 5396TIP3    H116194   1.407   2.264   4.980
 5396TIP3    H216195   1.387   2.118   5.014
 5397TIP3   OH216196   3.787   3.020   2.187
 5397TIP3    H116197   3.827   3.076   2.121
 5397TIP3    H216198   3.695   3.047   2.187
 5398TIP3   OH216199   1.624   5.109   3.520
 5398TIP3    H116200   1.617   5.066   3.435
 5398TIP3    H216201   1.547   5.164   3.527
 5399TIP3   OH216202   4.201   2.129   4.070
 5399TIP3    H116203   4.233   2.073   4.141
 5399TIP3    H216204   4.206   2.073   3.992
 5400TIP3   OH216205   5.523   5.520   2.979
 5400TIP3    H116206   5.547   5.591   2.919
 5400TIP3    H216207   5.570   5.540   3.060
 5401TIP3   OH216208   3.109   4.375   5.144
 5401TIP3    H116209   3.099   4.281   5.160
 5401TIP3    H216210   3.172   4.381   5.073
 5402TIP3   OH216211   6.109   5.658   3.280
 5402TIP3    H116212   6.132   5.750   3.271
 5402TIP3    H216213   6.156   5.614   3.209
 5403TIP3   OH216214   3.741   4.547   2.092
 5403TIP3    H116215   3.760   4.493   2.015
 5403TIP3    H216216   3.815   4.532   2.151
 5404TIP3   OH216217   2.592   3.883   0.042
 5404TIP3    H116218   2.531   3.874   0.116
 5404TIP3    H216219   2.562   3.960  -0.005
 5405TIP3   OH216220   4.798   0.330   4.739
 5405TIP3    H116221   4.836   0.243   4.723
 5405TIP3    H216222   4.766   0.325   4.829
 5406TIP3   OH216223   4.317   5.617   1.470
 5406TIP3    H116224   4.366   5.622   1.552
 5406TIP3    H216225   4.313   5.524   1.449
 5407TIP3   OH216226   1.587   0.528   3.400
 5407TIP3    H116227   1.667   0.551   3.449
 5407TIP3    H216228   1.535   0.609   3.401
 5408TIP3   OH216229   4.701   4.323   3.955
 5408TIP3    H116230   4.672   4.232   3.953
 5408TIP3    H216231   4.697   4.347   4.047
 5409TIP3   OH216232   3.949   1.448   1.853
 5409TIP3    H116233   3.991   1.459   1.768
 5409TIP3    H216234   3.974   1.525   1.903
 5410TIP3   OH216235   1.900   3.075   2.559
 5410TIP3    H116236   1.966   3.100   2.625
 5410TIP3    H216237   1.936   3.108   2.476
 5411TIP3   OH216238   4.699   0.872   1.965
 5411TIP3    H116239   4.744   0.956   1.964
 5411TIP3    H216240   4.633   0.879   1.897
 5412TIP3   OH216241   5.382   2.046   4.288
 5412TIP3    H116242   5.451   2.111   4.302
 5412TIP3    H216243   5.362   2.053   4.195
 5413TIP3   OH216244   5.469   3.209   4.789
 5413TIP3    H116245   5.460   3.144   4.858
 5413TIP3    H216246   5.561   3.203   4.761
 5414TIP3   OH216247   4.642   1.269   4.699
 5414TIP3    H116248   4.628   1.222   4.617
 5414TIP3    H216249   4.737   1.275   4.707
 5415TIP3   OH216250   3.156   1.170   0.162
 5415TIP3    H116251   3.204   1.158   0.243
 5415TIP3    H216252   3.223   1.185   0.096
 5416TIP3   OH216253   4.688   4.040   3.827
 5416TIP3    H116254   4.594   4.036   3.810
 5416TIP3    H216255   4.710   3.955   3.864
 5417TIP3   OH216256   2.190   0.798   4.467
 5417TIP3    H116257   2.176   0.828   4.557
 5417TIP3    H216258   2.203   0.879   4.416
 5418TIP3   OH216259   2.182   4.683   5.044
 5418TIP3    H116260   2.248   4.614   5.038
 5418TIP3    H216261   2.117   4.660   4.978
 5419TIP3   OH216262   4.926   0.058   3.991
 5419TIP3    H116263   4.882   0.036   4.073
 5419TIP3    H216264   5.001  -0.002   3.988
 5420TIP3   OH216265   4.359   3.725   1.549
 5420TIP3    H116266   4.347   3.735   1.643
 5420TIP3    H216267   4.279   3.759   1.510
 5421TIP3   OH216268   0.656   4.988   4.205
 5421TIP3    H116269   0.739   5.013   4.245
 5421TIP3    H216270   0.659   5.026   4.117
 5422TIP3   OH216271   5.127   5.401   2.309
 5422TIP3    H116272   5.082   5.400   2.393
 5422TIP3    H216273   5.110   5.488   2.273
 5423TIP3   OH216274   1.608   3.708   4.302
 5423TIP3    H116275   1.518   3.678   4.316
 5423TIP3    H216276   1.613   3.725   4.208
 5424TIP3   OH216277   5.162   4.287   0.767
 5424TIP3    H116278   5.184   4.362   0.712
 5424TIP3    H216279   5.120   4.325   0.844
 5425TIP3   OH216280   6.009   4.500   4.091
 5425TIP3    H116281   6.009   4.432   4.024
 5425TIP3    H216282   6.061   4.571   4.053
 5426TIP3   OH216283   2.338   0.309   0.769
 5426TIP3    H116284   2.252   0.338   0.739
 5426TIP3    H216285   2.322   0.270   0.855
 5427TIP3   OH216286   2.175   1.969   4.177
 5427TIP3    H116287   2.137   2.025   4.109
 5427TIP3    H216288   2.269   1.970   4.159
 5428TIP3   OH216289   1.399   5.587   2.885
 5428TIP3    H116290   1.398   5.509   2.940
 5428TIP3    H216291   1.307   5.603   2.864
 5429TIP3   OH216292   1.811   0.637   3.827
 5429TIP3    H116293   1.860   0.592   3.896
 5429TIP3    H216294   1.772   0.713   3.870
 5430TIP3   OH216295   4.381   2.190   2.235
 5430TIP3    H116296   4.380   2.279   2.269
 5430TIP3    H216297   4.348   2.137   2.308
 5431TIP3   OH216298   2.889   5.266   0.801
 5431TIP3    H116299   2.899   5.351   0.845
 5431TIP3    H216300   2.825   5.283   0.732
 5432TIP3   OH216301   5.144   2.484   4.254
 5432TIP3    H116302   5.168   2.398   4.289
 5432TIP3    H216303   5.211   2.543   4.288
 5433TIP3   OH216304   2.746   3.123   2.004
 5433TIP3    H116305   2.701   3.156   1.927
 5433TIP3    H216306   2.680   3.123   2.073
 5434TIP3   OH216307   0.913   4.413   1.366
 5434TIP3    H116308   0.925   4.367   1.283
 5434TIP3    H216309   0.868   4.494   1.342
 5435TIP3   OH216310   5.112   3.255   4.322
 5435TIP3    H116311   5.079   3.165   4.320
 5435TIP3    H216312   5.162   3.261   4.404
 5436TIP3   OH216313   2.737   0.708   1.512
 5436TIP3    H116314   2.814   0.704   1.569
 5436TIP3    H216315   2.757   0.779   1.450
 5437TIP3   OH216316   2.229   5.110   2.615
 5437TIP3    H116317   2.263   5.028   2.650
 5437TIP3    H216318   2.189   5.154   2.691
 5438TIP3   OH216319   0.587   4.684   2.531
 5438TIP3    H116320   0.546   4.598   2.519
 5438TIP3    H216321   0.567   4.732   2.450
 5439TIP3   OH216322   3.838   4.130   4.204
 5439TIP3    H116323   3.918   4.127   4.150
 5439TIP3    H216324   3.787   4.054   4.174
 5440TIP3   OH216325   6.318   4.327   2.526
 5440TIP3    H116326   6.236   4.325   2.575
 5440TIP3    H216327   6.384   4.295   2.588
 5441TIP3   OH216328   3.500   3.571   1.211
 5441TIP3    H116329   3.588   3.534   1.211
 5441TIP3    H216330   3.485   3.598   1.120
 5442TIP3   OH216331   5.221   0.251   2.386
 5442TIP3    H116332   5.180   0.332   2.416
 5442TIP3    H216333   5.173   0.228   2.307
 5443TIP3   OH216334   1.454   2.667   4.553
 5443TIP3    H116335   1.360   2.680   4.542
 5443TIP3    H216336   1.461   2.587   4.605
 5444TIP3   OH216337   3.998   3.669   4.059
 5444TIP3    H116338   4.092   3.667   4.040
 5444TIP3    H216339   3.957   3.651   3.974
 5445TIP3   OH216340   4.451   3.843   3.636
 5445TIP3    H116341   4.373   3.872   3.588
 5445TIP3    H216342   4.469   3.914   3.697
 5446TIP3   OH216343   3.299   2.372   0.033
 5446TIP3    H116344   3.281   2.402   0.122
 5446TIP3    H216345   3.393   2.387   0.021
 5447TIP3   OH216346   2.473   1.658   3.354
 5447TIP3    H116347   2.414   1.619   3.419
 5447TIP3    H216348   2.450   1.614   3.272
 5448TIP3   OH216349   3.131   1.896   3.773
 5448TIP3    H116350   3.151   1.893   3.679
 5448TIP3    H216351   3.106   1.806   3.795
 5449TIP3   OH216352   0.187   3.008   5.072
 5449TIP3    H116353   0.091   3.007   5.068
 5449TIP3    H216354   0.215   3.038   4.986
 5450TIP3   OH216355   6.049   3.911   1.846
 5450TIP3    H116356   5.993   3.835   1.861
 5450TIP3    H216357   6.090   3.928   1.931
 5451TIP3   OH216358   5.612   5.711   2.117
 5451TIP3    H116359   5.554   5.657   2.064
 5451TIP3    H216360   5.673   5.749   2.053
 5452TIP3   OH216361   1.769   3.810   2.792
 5452TIP3    H116362   1.699   3.859   2.749
 5452TIP3    H216363   1.848   3.832   2.744
 5453TIP3   OH216364   4.502   0.149   4.327
 5453TIP3    H116365   4.440   0.214   4.294
 5453TIP3    H216366   4.533   0.185   4.410
 5454TIP3   OH216367   5.528   2.932   1.682
 5454TIP3    H116368   5.612   2.969   1.654
 5454TIP3    H216369   5.476   3.009   1.707
 5455TIP3   OH216370   3.355   0.333   2.899
 5455TIP3    H116371   3.350   0.428   2.892
 5455TIP3    H216372   3.380   0.304   2.811
 5456TIP3   OH216373   5.735   1.927   2.752
 5456TIP3    H116374   5.685   1.972   2.821
 5456TIP3    H216375   5.777   1.854   2.797
 5457TIP3   OH216376   1.911   5.863   2.599
 5457TIP3    H116377   1.826   5.891   2.565
 5457TIP3    H216378   1.970   5.936   2.579
 5458TIP3   OH216379   1.432   3.705   2.589
 5458TIP3    H116380   1.350   3.704   2.639
 5458TIP3    H216381   1.429   3.788   2.541
 5459TIP3   OH216382   2.560   3.701   4.268
 5459TIP3    H116383   2.580   3.770   4.331
 5459TIP3    H216384   2.481   3.659   4.303
 5460TIP3   OH216385   0.629   0.997   3.982
 5460TIP3    H116386   0.581   1.053   4.042
 5460TIP3    H216387   0.689   1.057   3.936
 5461TIP3   OH216388   1.730   5.342   2.480
 5461TIP3    H116389   1.726   5.345   2.575
 5461TIP3    H216390   1.747   5.433   2.454
 5462TIP3   OH216391   4.113   3.738   1.412
 5462TIP3    H116392   4.119   3.750   1.317
 5462TIP3    H216393   4.078   3.649   1.423
 5463TIP3   OH216394   5.870   0.439   2.337
 5463TIP3    H116395   5.931   0.366   2.351
 5463TIP3    H216396   5.921   0.517   2.354
 5464TIP3   OH216397   5.211   2.774   3.791
 5464TIP3    H116398   5.225   2.868   3.775
 5464TIP3    H216399   5.299   2.738   3.796
 5465TIP3   OH216400  -0.026   5.540   3.100
 5465TIP3    H116401  -0.039   5.587   3.018
 5465TIP3    H216402   0.069   5.528   3.106
 5466TIP3   OH216403   3.119   5.295   0.138
 5466TIP3    H116404   3.145   5.203   0.142
 5466TIP3    H216405   3.104   5.320   0.229
 5467TIP3   OH216406   2.586   3.472   0.764
 5467TIP3    H116407   2.560   3.385   0.796
 5467TIP3    H216408   2.677   3.461   0.736
 5468TIP3   OH216409   5.048   0.101   1.314
 5468TIP3    H116410   5.012   0.155   1.244
 5468TIP3    H216411   5.131   0.143   1.336
 5469TIP3   OH216412   3.852   1.500   0.921
 5469TIP3    H116413   3.868   1.446   0.844
 5469TIP3    H216414   3.915   1.469   0.986
 5470TIP3   OH216415   4.484   1.588   0.389
 5470TIP3    H116416   4.396   1.552   0.392
 5470TIP3    H216417   4.523   1.566   0.473
 5471TIP3   OH216418   6.041   1.989   0.702
 5471TIP3    H116419   6.107   1.962   0.638
 5471TIP3    H216420   5.987   1.911   0.714
 5472TIP3   OH216421   4.174   5.363   2.374
 5472TIP3    H116422   4.084   5.331   2.385
 5472TIP3    H216423   4.199   5.395   2.461
 5473TIP3   OH216424   4.919   4.548   3.133
 5473TIP3    H116425   4.824   4.540   3.130
 5473TIP3    H216426   4.948   4.470   3.181
 5474TIP3   OH216427   1.180   0.749   2.768
 5474TIP3    H116428   1.125   0.672   2.757
 5474TIP3    H216429   1.136   0.801   2.836
 5475TIP3   OH216430   1.010   0.638   3.452
 5475TIP3    H116431   0.923   0.677   3.462
 5475TIP3    H216432   1.056   0.661   3.532
 5476TIP3   OH216433   1.502   2.215   0.268
 5476TIP3    H116434   1.597   2.206   0.281
 5476TIP3    H216435   1.492   2.301   0.226
 5477TIP3   OH216436   3.968   3.878   1.895
 5477TIP3    H116437   3.943   3.948   1.835
 5477TIP3    H216438   4.064   3.881   1.897
 5478TIP3   OH216439   2.877   1.751   2.868
 5478TIP3    H116440   2.791   1.790   2.851
 5478TIP3    H216441   2.879   1.672   2.813
 5479TIP3   OH216442   6.306   1.908  -0.014
 5479TIP3    H116443   6.238   1.878   0.046
 5479TIP3    H216444   6.342   1.827  -0.051
 5480TIP3   OH216445   0.455   4.620   1.287
 5480TIP3    H116446   0.363   4.646   1.291
 5480TIP3    H216447   0.467   4.563   1.364
 5481TIP3   OH216448   4.196   1.032   4.153
 5481TIP3    H116449   4.181   0.938   4.148
 5481TIP3    H216450   4.235   1.046   4.240
 5482TIP3   OH216451   1.128   5.908   4.432
 5482TIP3    H116452   1.045   5.861   4.441
 5482TIP3    H216453   1.187   5.846   4.390
 5483TIP3   OH216454   2.300   2.489   2.755
 5483TIP3    H116455   2.362   2.445   2.697
 5483TIP3    H216456   2.229   2.426   2.767
 5484TIP3   OH216457   4.475   5.432   2.014
 5484TIP3    H116458   4.543   5.494   2.041
 5484TIP3    H216459   4.520   5.372   1.954
 5485TIP3   OH216460   5.759   1.620   1.702
 5485TIP3    H116461   5.672   1.630   1.741
 5485TIP3    H216462   5.751   1.546   1.642
 5486TIP3   OH216463   5.448   3.468   1.871
 5486TIP3    H116464   5.456   3.379   1.837
 5486TIP3    H216465   5.516   3.475   1.938
 5487TIP3   OH216466   1.834   1.701   1.009
 5487TIP3    H116467   1.840   1.645   0.932
 5487TIP3    H216468   1.824   1.641   1.083
 5488TIP3   OH216469   3.803   4.077   4.720
 5488TIP3    H116470   3.717   4.038   4.709
 5488TIP3    H216471   3.786   4.165   4.754
 5489TIP3   OH216472   3.115   2.388   3.120
 5489TIP3    H116473   3.159   2.474   3.120
 5489TIP3    H216474   3.091   2.374   3.029
 5490TIP3   OH216475   4.874   5.698   0.476
 5490TIP3    H116476   4.807   5.706   0.408
 5490TIP3    H216477   4.957   5.704   0.430
 5491TIP3   OH216478   5.034   3.402   1.371
 5491TIP3    H116479   5.083   3.376   1.293
 5491TIP3    H216480   4.956   3.347   1.371
 5492TIP3   OH216481   5.103   1.125   4.623
 5492TIP3    H116482   5.031   1.125   4.561
 5492TIP3    H216483   5.060   1.126   4.709
 5493TIP3   OH216484   5.150   3.352   3.126
 5493TIP3    H116485   5.157   3.293   3.051
 5493TIP3    H216486   5.142   3.294   3.202
 5494TIP3   OH216487   5.752   3.970   3.707
 5494TIP3    H116488   5.839   3.934   3.692
 5494TIP3    H216489   5.727   4.008   3.622
 5495TIP3   OH216490   5.087   1.168   3.878
 5495TIP3    H116491   5.051   1.251   3.847
 5495TIP3    H216492   5.091   1.178   3.973
 5496TIP3   OH216493   1.042   3.160   1.051
 5496TIP3    H116494   0.969   3.128   0.998
 5496TIP3    H216495   1.079   3.080   1.090
 5497TIP3   OH216496   5.258   3.803   3.926
 5497TIP3    H116497   5.293   3.859   3.856
 5497TIP3    H216498   5.171   3.839   3.944
 5498TIP3   OH216499   5.903   1.248   3.254
 5498TIP3    H116500   5.943   1.332   3.277
 5498TIP3    H216501   5.921   1.192   3.329
 5499TIP3   OH216502   5.507   3.462   0.075
 5499TIP3    H116503   5.475   3.408   0.003
 5499TIP3    H216504   5.427   3.498   0.114
 5500TIP3   OH216505   5.143   4.699   4.312
 5500TIP3    H116506   5.236   4.677   4.303
 5500TIP3    H216507   5.142   4.795   4.311
 5501TIP3   OH216508   2.809   1.382   5.019
 5501TIP3    H116509   2.836   1.355   5.107
 5501TIP3    H216510   2.818   1.477   5.020
 5502TIP3   OH216511   0.357   5.346   5.182
 5502TIP3    H116512   0.297   5.327   5.254
 5502TIP3    H216513   0.360   5.265   5.131
 5503TIP3   OH216514   2.146   5.719   0.174
 5503TIP3    H116515   2.198   5.799   0.180
 5503TIP3    H216516   2.170   5.680   0.091
 5504TIP3   OH216517   0.525   5.368   0.390
 5504TIP3    H116518   0.504   5.383   0.298
 5504TIP3    H216519   0.451   5.317   0.423
 5505TIP3   OH216520   0.911   3.425   4.736
 5505TIP3    H116521   1.003   3.402   4.721
 5505TIP3    H216522   0.861   3.350   4.702
 5506TIP3   OH216523  -0.008   3.248   4.826
 5506TIP3    H116524   0.050   3.181   4.790
 5506TIP3    H216525   0.033   3.331   4.801
 5507TIP3   OH216526   4.418   3.219   2.440
 5507TIP3    H116527   4.475   3.244   2.513
 5507TIP3    H216528   4.479   3.200   2.368
 5508TIP3   OH216529   2.563   4.225   4.903
 5508TIP3    H116530   2.523   4.154   4.853
 5508TIP3    H216531   2.489   4.266   4.949
 5509TIP3   OH216532   4.625   4.557   5.174
 5509TIP3    H116533   4.715   4.527   5.187
 5509TIP3    H216534   4.628   4.650   5.198
 5510TIP3   OH216535   2.018   4.930   0.416
 5510TIP3    H116536   1.983   4.879   0.343
 5510TIP3    H216537   1.955   4.917   0.487
 5511TIP3   OH216538   4.370   5.826   2.682
 5511TIP3    H116539   4.408   5.743   2.710
 5511TIP3    H216540   4.347   5.871   2.764
 5512TIP3   OH216541   0.636   2.719   0.461
 5512TIP3    H116542   0.644   2.627   0.485
 5512TIP3    H216543   0.555   2.748   0.503
 5513TIP3   OH216544   2.261   0.982   4.285
 5513TIP3    H116545   2.225   1.058   4.238
 5513TIP3    H216546   2.351   0.976   4.254
 5514TIP3   OH216547   2.100   4.402   2.842
 5514TIP3    H116548   2.007   4.379   2.846
 5514TIP3    H216549   2.121   4.402   2.749
 5515TIP3   OH216550   0.353   2.748   4.572
 5515TIP3    H116551   0.322   2.762   4.482
 5515TIP3    H216552   0.427   2.688   4.562
 5516TIP3   OH216553   2.110   0.232   3.528
 5516TIP3    H116554   2.083   0.299   3.591
 5516TIP3    H216555   2.045   0.163   3.537
 5517TIP3   OH216556   3.683   0.869   2.940
 5517TIP3    H116557   3.745   0.805   2.905
 5517TIP3    H216558   3.693   0.862   3.035
 5518TIP3   OH216559   5.301   4.023   3.087
 5518TIP3    H116560   5.381   3.992   3.044
 5518TIP3    H216561   5.231   4.006   3.024
 5519TIP3   OH216562   0.410   5.073   0.175
 5519TIP3    H116563   0.346   5.140   0.152
 5519TIP3    H216564   0.396   5.058   0.268
 5520TIP3   OH216565   0.217   4.699   1.598
 5520TIP3    H116566   0.215   4.638   1.672
 5520TIP3    H216567   0.176   4.651   1.527
 5521TIP3   OH216568   5.874   1.203   2.175
 5521TIP3    H116569   5.902   1.142   2.244
 5521TIP3    H216570   5.806   1.156   2.128
 5522TIP3   OH216571   0.962   5.387   2.394
 5522TIP3    H116572   1.051   5.417   2.376
 5522TIP3    H216573   0.974   5.305   2.442
 5523TIP3   OH216574   4.401   0.810   3.172
 5523TIP3    H116575   4.422   0.903   3.160
 5523TIP3    H216576   4.357   0.806   3.257
 5524TIP3   OH216577   2.610   5.987   4.200
 5524TIP3    H116578   2.575   5.934   4.129
 5524TIP3    H216579   2.536   6.039   4.231
 5525TIP3   OH216580   3.801   1.369   2.947
 5525TIP3    H116581   3.806   1.274   2.960
 5525TIP3    H216582   3.709   1.390   2.960
 5526TIP3   OH216583   0.253   0.327   4.289
 5526TIP3    H116584   0.293   0.413   4.297
 5526TIP3    H216585   0.265   0.286   4.375
 5527TIP3   OH216586   1.838   1.149   1.487
 5527TIP3    H116587   1.931   1.166   1.466
 5527TIP3    H216588   1.827   1.055   1.472
 5528TIP3   OH216589   3.859   0.681   4.174
 5528TIP3    H116590   3.833   0.680   4.266
 5528TIP3    H216591   3.812   0.755   4.137
 5529TIP3   OH216592   0.478   0.031   0.442
 5529TIP3    H116593   0.547   0.004   0.381
 5529TIP3    H216594   0.519   0.026   0.528
 5530TIP3   OH216595   1.465   3.322   2.773
 5530TIP3    H116596   1.463   3.382   2.698
 5530TIP3    H216597   1.528   3.254   2.747
 5531TIP3   OH216598   5.511   4.061   0.463
 5531TIP3    H116599   5.559   4.126   0.514
 5531TIP3    H216600   5.517   4.091   0.372
 5532TIP3   OH216601   3.976   2.022   4.656
 5532TIP3    H116602   3.899   2.064   4.618
 5532TIP3    H216603   3.994   1.948   4.599
 5533TIP3   OH216604   3.938   3.110   0.103
 5533TIP3    H116605   3.871   3.159   0.151
 5533TIP3    H216606   4.008   3.097   0.167
 5534TIP3   OH216607   2.215   4.013   2.294
 5534TIP3    H116608   2.168   4.090   2.262
 5534TIP3    H216609   2.149   3.944   2.297
 5535TIP3   OH216610   2.605   1.698   1.112
 5535TIP3    H116611   2.655   1.741   1.181
 5535TIP3    H216612   2.538   1.648   1.158
 5536TIP3   OH216613   4.244   0.920   1.600
 5536TIP3    H116614   4.171   0.965   1.559
 5536TIP3    H216615   4.297   0.991   1.638
 5537TIP3   OH216616   0.187   0.123   3.847
 5537TIP3    H116617   0.258   0.065   3.819
 5537TIP3    H216618   0.161   0.088   3.933
 5538TIP3   OH216619   0.654   0.971   3.041
 5538TIP3    H116620   0.726   1.022   3.003
 5538TIP3    H216621   0.667   0.979   3.136
 5539TIP3   OH216622   2.079   0.624   0.073
 5539TIP3    H116623   2.096   0.631   0.167
 5539TIP3    H216624   2.053   0.712   0.046
 5540TIP3   OH216625   2.856   4.704   1.661
 5540TIP3    H116626   2.926   4.748   1.710
 5540TIP3    H216627   2.899   4.628   1.621
 5541TIP3   OH216628   2.611   1.890   4.836
 5541TIP3    H116629   2.634   1.968   4.887
 5541TIP3    H216630   2.651   1.906   4.751
 5542TIP3   OH216631   1.129   4.274   2.553
 5542TIP3    H116632   1.159   4.237   2.470
 5542TIP3    H216633   1.151   4.367   2.546
 5543TIP3   OH216634   5.015   4.399   0.966
 5543TIP3    H116635   5.078   4.468   0.946
 5543TIP3    H216636   5.018   4.391   1.061
 5544TIP3   OH216637   0.259   3.176   3.385
 5544TIP3    H116638   0.347   3.210   3.397
 5544TIP3    H216639   0.250   3.165   3.290
 5545TIP3   OH216640   5.531   5.529   1.679
 5545TIP3    H116641   5.549   5.437   1.695
 5545TIP3    H216642   5.494   5.531   1.591
 5546TIP3   OH216643   4.489   0.080   0.734
 5546TIP3    H116644   4.454   0.066   0.646
 5546TIP3    H216645   4.412   0.088   0.790
 5547TIP3   OH216646   1.821   0.815   0.277
 5547TIP3    H116647   1.863   0.882   0.331
 5547TIP3    H216648   1.730   0.844   0.269
 5548TIP3   OH216649   4.124   4.425   3.367
 5548TIP3    H116650   4.054   4.389   3.421
 5548TIP3    H216651   4.132   4.516   3.394
 5549TIP3   OH216652   4.937   1.621   0.374
 5549TIP3    H116653   4.850   1.643   0.341
 5549TIP3    H216654   4.949   1.529   0.349
 5550TIP3   OH216655   1.104   2.993   3.597
 5550TIP3    H116656   1.017   2.960   3.619
 5550TIP3    H216657   1.131   2.942   3.521
 5551TIP3   OH216658   3.860   2.594   2.891
 5551TIP3    H116659   3.771   2.561   2.902
 5551TIP3    H216660   3.893   2.550   2.813
 5552TIP3   OH216661   6.331   4.105   3.138
 5552TIP3    H116662   6.388   4.182   3.140
 5552TIP3    H216663   6.316   4.084   3.230
 5553TIP3   OH216664   3.475   4.769   2.274
 5553TIP3    H116665   3.517   4.825   2.209
 5553TIP3    H216666   3.544   4.749   2.338
 5554TIP3   OH216667   6.189   3.572   0.169
 5554TIP3    H116668   6.208   3.564   0.076
 5554TIP3    H216669   6.094   3.587   0.173
 5555TIP3   OH216670   1.536   5.244   1.803
 5555TIP3    H116671   1.521   5.297   1.881
 5555TIP3    H216672   1.566   5.306   1.736
 5556TIP3   OH216673   1.771   1.404   4.666
 5556TIP3    H116674   1.785   1.490   4.626
 5556TIP3    H216675   1.792   1.417   4.758
 5557TIP3   OH216676   3.932   2.116   2.796
 5557TIP3    H116677   3.940   2.150   2.885
 5557TIP3    H216678   3.909   2.023   2.807
 5558TIP3   OH216679   5.762   1.383   2.714
 5558TIP3    H116680   5.854   1.360   2.729
 5558TIP3    H216681   5.766   1.467   2.668
 5559TIP3   OH216682   5.785   5.255   2.566
 5559TIP3    H116683   5.702   5.286   2.530
 5559TIP3    H216684   5.777   5.270   2.661
 5560TIP3   OH216685   0.226   2.596   0.322
 5560TIP3    H116686   0.299   2.657   0.311
 5560TIP3    H216687   0.244   2.526   0.260
 5561TIP3   OH216688   0.721   1.536   0.869
 5561TIP3    H116689   0.635   1.494   0.871
 5561TIP3    H216690   0.784   1.464   0.871
 5562TIP3   OH216691   2.617   4.348   3.133
 5562TIP3    H116692   2.564   4.414   3.178
 5562TIP3    H216693   2.702   4.351   3.178
 5563TIP3   OH216694   4.271   0.178   0.901
 5563TIP3    H116695   4.271   0.271   0.880
 5563TIP3    H216696   4.181   0.159   0.926
 5564TIP3   OH216697   3.610   5.569   4.971
 5564TIP3    H116698   3.566   5.507   5.029
 5564TIP3    H216699   3.624   5.647   5.025
 5565TIP3   OH216700   3.156   3.628   3.864
 5565TIP3    H116701   3.070   3.663   3.890
 5565TIP3    H216702   3.136   3.562   3.798
 5566TIP3   OH216703   3.710   4.650   3.015
 5566TIP3    H116704   3.731   4.593   3.089
 5566TIP3    H216705   3.679   4.590   2.947
 5567TIP3   OH216706   5.408   2.314   2.914
 5567TIP3    H116707   5.464   2.352   2.847
 5567TIP3    H216708   5.319   2.322   2.878
 5568TIP3   OH216709   2.507   4.675   0.531
 5568TIP3    H116710   2.479   4.603   0.588
 5568TIP3    H216711   2.558   4.633   0.462
 5569TIP3   OH216712   2.977   3.065   0.528
 5569TIP3    H116713   2.911   3.109   0.582
 5569TIP3    H216714   2.998   2.985   0.576
 5570TIP3   OH216715   2.070   4.452   2.511
 5570TIP3    H116716   2.067   4.380   2.448
 5570TIP3    H216717   1.982   4.490   2.509
 5571TIP3   OH216718   2.296   2.743   3.992
 5571TIP3    H116719   2.390   2.737   3.975
 5571TIP3    H216720   2.287   2.718   4.084
 5572TIP3   OH216721   4.561   1.179   0.224
 5572TIP3    H116722   4.657   1.175   0.218
 5572TIP3    H216723   4.530   1.117   0.158
 5573TIP3   OH216724  -0.009   2.088   1.250
 5573TIP3    H116725   0.077   2.048   1.233
 5573TIP3    H216726  -0.004   2.174   1.206
 5574TIP3   OH216727   2.373   2.021   2.551
 5574TIP3    H116728   2.445   2.028   2.614
 5574TIP3    H216729   2.326   1.941   2.576
 5575TIP3   OH216730   3.402   4.765   3.342
 5575TIP3    H116731   3.426   4.674   3.360
 5575TIP3    H216732   3.321   4.759   3.291
 5576TIP3   OH216733   0.132   5.192   0.738
 5576TIP3    H116734   0.186   5.116   0.716
 5576TIP3    H216735   0.164   5.219   0.824
 5577TIP3   OH216736   5.976   3.570   4.305
 5577TIP3    H116737   6.031   3.617   4.368
 5577TIP3    H216738   5.929   3.639   4.258
 5578TIP3   OH216739   0.714   3.993   2.563
 5578TIP3    H116740   0.709   4.017   2.470
 5578TIP3    H216741   0.745   4.073   2.606
 5579TIP3   OH216742   1.592   0.625   1.284
 5579TIP3    H116743   1.670   0.673   1.258
 5579TIP3    H216744   1.532   0.634   1.210
 5580TIP3   OH216745   3.590   0.797   1.223
 5580TIP3    H116746   3.586   0.777   1.130
 5580TIP3    H216747   3.680   0.775   1.248
 5581TIP3   OH216748   6.255   2.168   2.144
 5581TIP3    H116749   6.302   2.132   2.220
 5581TIP3    H216750   6.220   2.091   2.100
 5582TIP3   OH216751   4.277   3.386   1.607
 5582TIP3    H116752   4.260   3.296   1.632
 5582TIP3    H216753   4.275   3.385   1.511
 5583TIP3   OH216754   0.768   5.425   0.993
 5583TIP3    H116755   0.829   5.491   0.958
 5583TIP3    H216756   0.797   5.343   0.954
 5584TIP3   OH216757   4.125   3.057   1.312
 5584TIP3    H116758   4.147   3.127   1.251
 5584TIP3    H216759   4.032   3.072   1.332
 5585TIP3   OH216760   4.976   0.817   0.671
 5585TIP3    H116761   5.062   0.841   0.636
 5585TIP3    H216762   4.914   0.866   0.617
 5586TIP3   OH216763   3.528   4.403   4.514
 5586TIP3    H116764   3.469   4.357   4.455
 5586TIP3    H216765   3.614   4.362   4.498
 5587TIP3   OH216766   1.799   2.763   0.567
 5587TIP3    H116767   1.865   2.797   0.627
 5587TIP3    H216768   1.717   2.772   0.615
 5588TIP3   OH216769   6.185   3.630   2.792
 5588TIP3    H116770   6.248   3.669   2.853
 5588TIP3    H216771   6.100   3.654   2.827
 5589TIP3   OH216772   0.165   3.823   3.183
 5589TIP3    H116773   0.172   3.734   3.217
 5589TIP3    H216774   0.140   3.876   3.259
 5590TIP3   OH216775   4.292   3.680   3.971
 5590TIP3    H116776   4.284   3.617   3.899
 5590TIP3    H216777   4.326   3.628   4.044
 5591TIP3   OH216778   1.716   4.573   4.397
 5591TIP3    H116779   1.633   4.580   4.443
 5591TIP3    H216780   1.709   4.492   4.346
 5592TIP3   OH216781   3.745   0.855   3.226
 5592TIP3    H116782   3.724   0.762   3.215
 5592TIP3    H216783   3.689   0.884   3.297
 5593TIP3   OH216784   5.761   0.286   3.834
 5593TIP3    H116785   5.854   0.306   3.834
 5593TIP3    H216786   5.723   0.345   3.769
 5594TIP3   OH216787   5.005   1.411   0.666
 5594TIP3    H116788   4.964   1.361   0.737
 5594TIP3    H216789   5.079   1.357   0.639
 5595TIP3   OH216790   0.356   0.632   4.263
 5595TIP3    H116791   0.412   0.555   4.267
 5595TIP3    H216792   0.398   0.689   4.199
 5596TIP3   OH216793   3.691   2.490   1.185
 5596TIP3    H116794   3.703   2.395   1.182
 5596TIP3    H216795   3.611   2.505   1.135
 5597TIP3   OH216796   2.721   5.534   3.592
 5597TIP3    H116797   2.693   5.542   3.501
 5597TIP3    H216798   2.744   5.623   3.618
 5598TIP3   OH216799   0.826   0.287   0.384
 5598TIP3    H116800   0.749   0.339   0.360
 5598TIP3    H216801   0.850   0.240   0.305
 5599TIP3   OH216802   4.883   1.181   4.456
 5599TIP3    H116803   4.792   1.180   4.485
 5599TIP3    H216804   4.909   1.273   4.464
 5600TIP3   OH216805   2.464   4.667   1.884
 5600TIP3    H116806   2.498   4.644   1.971
 5600TIP3    H216807   2.437   4.758   1.892
 5601TIP3   OH216808   3.789   3.508   0.287
 5601TIP3    H116809   3.743   3.555   0.217
 5601TIP3    H216810   3.876   3.547   0.288
 5602TIP3   OH216811   3.439   4.620   0.908
 5602TIP3    H116812   3.403   4.570   0.981
 5602TIP3    H216813   3.383   4.697   0.901
 5603TIP3   OH216814   3.064   5.156   2.481
 5603TIP3    H116815   3.100   5.082   2.530
 5603TIP3    H216816   2.996   5.192   2.539
 5604TIP3   OH216817   2.541   0.585   3.146
 5604TIP3    H116818   2.629   0.553   3.167
 5604TIP3    H216819   2.486   0.551   3.216
 5605TIP3   OH216820   1.687   1.238   1.258
 5605TIP3    H116821   1.610   1.263   1.310
 5605TIP3    H216822   1.744   1.192   1.320
 5606TIP3   OH216823   2.329   1.332   1.887
 5606TIP3    H116824   2.316   1.258   1.947
 5606TIP3    H216825   2.409   1.311   1.839
 5607TIP3   OH216826   2.966   4.538   0.211
 5607TIP3    H116827   3.019   4.511   0.137
 5607TIP3    H216828   2.932   4.457   0.248
 5608TIP3   OH216829   0.535   3.907   3.404
 5608TIP3    H116830   0.487   3.834   3.364
 5608TIP3    H216831   0.601   3.864   3.459
 5609TIP3   OH216832   6.330   4.708   0.516
 5609TIP3    H116833   6.343   4.615   0.498
 5609TIP3    H216834   6.236   4.721   0.503
 5610TIP3   OH216835   0.654   0.418   4.993
 5610TIP3    H116836   0.571   0.459   4.968
 5610TIP3    H216837   0.684   0.467   5.070
 5611TIP3   OH216838   4.095   5.484   0.117
 5611TIP3    H116839   4.005   5.517   0.111
 5611TIP3    H216840   4.134   5.504   0.033
 5612TIP3   OH216841   1.847   3.163   4.536
 5612TIP3    H116842   1.796   3.226   4.587
 5612TIP3    H216843   1.884   3.215   4.464
 5613TIP3   OH216844   0.212   3.019   0.582
 5613TIP3    H116845   0.276   3.091   0.581
 5613TIP3    H216846   0.164   3.031   0.664
 5614TIP3   OH216847   6.347   0.966   3.680
 5614TIP3    H116848   6.327   1.008   3.596
 5614TIP3    H216849   6.431   0.922   3.664
 5615TIP3   OH216850   0.538   2.484   2.606
 5615TIP3    H116851   0.490   2.456   2.528
 5615TIP3    H216852   0.602   2.548   2.574
 5616TIP3   OH216853   4.976   0.872   4.148
 5616TIP3    H116854   5.062   0.845   4.115
 5616TIP3    H216855   4.919   0.798   4.130
 5617TIP3   OH216856   0.191   2.409   0.054
 5617TIP3    H116857   0.223   2.417  -0.036
 5617TIP3    H216858   0.224   2.324   0.083
 5618TIP3   OH216859   5.613   1.307   0.279
 5618TIP3    H116860   5.558   1.228   0.275
 5618TIP3    H216861   5.692   1.283   0.231
 5619TIP3   OH216862   4.306   2.419   1.029
 5619TIP3    H116863   4.335   2.330   1.010
 5619TIP3    H216864   4.355   2.444   1.108
 5620TIP3   OH216865   4.362   5.208   2.181
 5620TIP3    H116866   4.305   5.227   2.255
 5620TIP3    H216867   4.416   5.286   2.170
 5621TIP3   OH216868   6.224   3.851   3.102
 5621TIP3    H116869   6.258   3.932   3.139
 5621TIP3    H216870   6.295   3.817   3.048
 5622TIP3   OH216871   4.980   3.166   3.735
 5622TIP3    H116872   4.919   3.172   3.809
 5622TIP3    H216873   4.946   3.230   3.672
 5623TIP3   OH216874   2.457   1.944   2.306
 5623TIP3    H116875   2.447   1.951   2.401
 5623TIP3    H216876   2.399   1.872   2.281
 5624TIP3   OH216877   0.925   3.521   4.293
 5624TIP3    H116878   0.946   3.434   4.327
 5624TIP3    H216879   1.010   3.560   4.273
 5625TIP3   OH216880   4.682   4.798   4.966
 5625TIP3    H116881   4.598   4.758   4.988
 5625TIP3    H216882   4.659   4.880   4.922
 5626TIP3   OH216883   0.190   0.262   2.093
 5626TIP3    H116884   0.279   0.274   2.060
 5626TIP3    H216885   0.134   0.275   2.017
 5627TIP3   OH216886   4.316   5.364   4.789
 5627TIP3    H116887   4.399   5.401   4.759
 5627TIP3    H216888   4.290   5.304   4.719
 5628TIP3   OH216889   2.150   2.611   0.662
 5628TIP3    H116890   2.206   2.670   0.612
 5628TIP3    H216891   2.159   2.639   0.753
 5629TIP3   OH216892   3.204   3.254   1.820
 5629TIP3    H116893   3.193   3.279   1.911
 5629TIP3    H216894   3.225   3.336   1.775
 5630TIP3   OH216895   1.450   3.110   2.113
 5630TIP3    H116896   1.426   3.046   2.046
 5630TIP3    H216897   1.535   3.143   2.085
 5631TIP3   OH216898   0.355   5.897   0.516
 5631TIP3    H116899   0.310   5.818   0.547
 5631TIP3    H216900   0.328   5.906   0.425
 5632TIP3   OH216901   5.384   2.647   0.910
 5632TIP3    H116902   5.454   2.650   0.975
 5632TIP3    H216903   5.379   2.736   0.875
 5633TIP3   OH216904   4.250   0.858   0.163
 5633TIP3    H116905   4.171   0.910   0.151
 5633TIP3    H216906   4.320   0.912   0.127
 5634TIP3   OH216907   3.006   3.980   0.832
 5634TIP3    H116908   3.044   4.068   0.827
 5634TIP3    H216909   3.051   3.939   0.906
 5635TIP3   OH216910   3.208   1.500   1.911
 5635TIP3    H116911   3.157   1.448   1.849
 5635TIP3    H216912   3.142   1.542   1.967
 5636TIP3   OH216913   4.771   3.142   3.224
 5636TIP3    H116914   4.790   3.049   3.225
 5636TIP3    H216915   4.691   3.150   3.172
 5637TIP3   OH216916   0.154   2.249   2.995
 5637TIP3    H116917   0.071   2.255   2.947
 5637TIP3    H216918   0.133   2.201   3.074
 5638TIP3   OH216919   4.717   5.277   2.243
 5638TIP3    H116920   4.783   5.236   2.299
 5638TIP3    H216921   4.655   5.317   2.304
 5639TIP3   OH216922   0.058   3.972   0.162
 5639TIP3    H116923   0.123   3.944   0.227
 5639TIP3    H216924   0.065   4.067   0.161
 5640TIP3   OH216925   0.381   1.755   3.770
 5640TIP3    H116926   0.428   1.710   3.840
 5640TIP3    H216927   0.397   1.702   3.692
 5641TIP3   OH216928   0.105   4.375   0.594
 5641TIP3    H116929   0.046   4.362   0.520
 5641TIP3    H216930   0.184   4.325   0.571
 5642TIP3   OH216931   2.964   4.002   4.561
 5642TIP3    H116932   2.997   3.919   4.596
 5642TIP3    H216933   2.920   4.044   4.634
 5643TIP3   OH216934   2.699   3.399   4.471
 5643TIP3    H116935   2.694   3.313   4.512
 5643TIP3    H216936   2.622   3.403   4.414
 5644TIP3   OH216937   2.666   5.744   2.897
 5644TIP3    H116938   2.738   5.779   2.845
 5644TIP3    H216939   2.631   5.672   2.846
 5645TIP3   OH216940   0.098   5.483   3.418
 5645TIP3    H116941   0.171   5.426   3.394
 5645TIP3    H216942   0.056   5.438   3.491
 5646TIP3   OH216943   3.998   5.550   4.649
 5646TIP3    H116944   4.068   5.530   4.586
 5646TIP3    H216945   3.924   5.499   4.618
 5647TIP3   OH216946   3.907   1.298   0.744
 5647TIP3    H116947   3.970   1.266   0.680
 5647TIP3    H216948   3.853   1.221   0.765
 5648TIP3   OH216949   5.713   3.504   1.255
 5648TIP3    H116950   5.717   3.419   1.212
 5648TIP3    H216951   5.649   3.554   1.204
 5649TIP3   OH216952   1.598   0.861   1.667
 5649TIP3    H116953   1.597   0.813   1.750
 5649TIP3    H216954   1.676   0.828   1.621
 5650TIP3   OH216955   1.678   2.834   0.820
 5650TIP3    H116956   1.602   2.877   0.782
 5650TIP3    H216957   1.719   2.902   0.874
 5651TIP3   OH216958   2.467   4.014   0.714
 5651TIP3    H116959   2.480   3.980   0.803
 5651TIP3    H216960   2.554   4.041   0.685
 5652TIP3   OH216961   1.191   1.805   3.317
 5652TIP3    H116962   1.192   1.749   3.240
 5652TIP3    H216963   1.240   1.756   3.383
 5653TIP3   OH216964   6.160   2.209   1.461
 5653TIP3    H116965   6.217   2.197   1.384
 5653TIP3    H216966   6.202   2.156   1.529
 5654TIP3   OH216967   0.298   4.423   2.938
 5654TIP3    H116968   0.365   4.379   2.990
 5654TIP3    H216969   0.251   4.478   3.000
 5655TIP3   OH216970   6.159   5.516   4.452
 5655TIP3    H116971   6.204   5.599   4.437
 5655TIP3    H216972   6.073   5.541   4.485
 5656TIP3   OH216973   3.764   3.255   4.589
 5656TIP3    H116974   3.728   3.232   4.503
 5656TIP3    H216975   3.776   3.350   4.586
 5657TIP3   OH216976   1.307   2.951   0.111
 5657TIP3    H116977   1.324   2.862   0.079
 5657TIP3    H216978   1.267   2.938   0.197
 5658TIP3   OH216979   1.762   0.255   0.105
 5658TIP3    H116980   1.814   0.331   0.077
 5658TIP3    H216981   1.795   0.234   0.192
 5659TIP3   OH216982   4.768   2.218   4.454
 5659TIP3    H116983   4.760   2.214   4.358
 5659TIP3    H216984   4.862   2.211   4.471
 5660TIP3   OH216985   1.506   5.723   2.657
 5660TIP3    H116986   1.586   5.672   2.666
 5660TIP3    H216987   1.450   5.692   2.728
 5661TIP3   OH216988   1.051   5.550   0.644
 5661TIP3    H116989   1.034   5.610   0.571
 5661TIP3    H216990   0.998   5.473   0.625
 5662TIP3   OH216991   0.882   1.783   4.558
 5662TIP3    H116992   0.844   1.871   4.557
 5662TIP3    H216993   0.879   1.757   4.650
 5663TIP3   OH216994   5.651   0.743   1.007
 5663TIP3    H116995   5.571   0.790   0.985
 5663TIP3    H216996   5.688   0.716   0.923
 5664TIP3   OH216997   5.700   4.612   1.022
 5664TIP3    H116998   5.643   4.678   1.060
 5664TIP3    H216999   5.699   4.540   1.085
 5665TIP3   OH217000   3.407   5.167   1.976
 5665TIP3    H117001   3.445   5.245   1.936
 5665TIP3    H217002   3.312   5.179   1.966
 5666TIP3   OH217003   1.882   2.156   4.906
 5666TIP3    H117004   1.814   2.098   4.940
 5666TIP3    H217005   1.956   2.145   4.966
 5667TIP3   OH217006   3.985   0.761   2.557
 5667TIP3    H117007   3.926   0.829   2.589
 5667TIP3    H217008   3.930   0.708   2.498
 5668TIP3   OH217009   5.638   1.725   1.209
 5668TIP3    H117010   5.610   1.742   1.119
 5668TIP3    H217011   5.719   1.775   1.219
 5669TIP3   OH217012   3.732   1.874   1.770
 5669TIP3    H117013   3.700   1.784   1.769
 5669TIP3    H217014   3.762   1.888   1.860
 5670TIP3   OH217015   3.081   5.356   2.061
 5670TIP3    H117016   3.026   5.291   2.103
 5670TIP3    H217017   3.121   5.310   1.987
 5671TIP3   OH217018   3.804   4.904   4.879
 5671TIP3    H117019   3.786   4.921   4.971
 5671TIP3    H217020   3.832   4.988   4.844
 5672TIP3   OH217021   3.865   5.278   0.770
 5672TIP3    H117022   3.862   5.205   0.832
 5672TIP3    H217023   3.922   5.247   0.699
 5673TIP3   OH217024   0.550   2.391   2.344
 5673TIP3    H117025   0.561   2.397   2.249
 5673TIP3    H217026   0.522   2.300   2.359
 5674TIP3   OH217027   0.397   1.485   3.170
 5674TIP3    H117028   0.373   1.534   3.091
 5674TIP3    H217029   0.319   1.433   3.191
 5675TIP3   OH217030   1.259   2.390   4.167
 5675TIP3    H117031   1.246   2.373   4.260
 5675TIP3    H217032   1.216   2.474   4.151
 5676TIP3   OH217033   2.423   4.472   3.946
 5676TIP3    H117034   2.436   4.449   3.854
 5676TIP3    H217035   2.500   4.524   3.969
 5677TIP3   OH217036   6.104   1.478   3.255
 5677TIP3    H117037   6.156   1.417   3.307
 5677TIP3    H217038   6.123   1.564   3.293
 5678TIP3   OH217039   5.333   5.292   3.814
 5678TIP3    H117040   5.275   5.353   3.767
 5678TIP3    H217041   5.372   5.345   3.883
 5679TIP3   OH217042   1.240   0.780   1.085
 5679TIP3    H117043   1.206   0.781   1.174
 5679TIP3    H217044   1.167   0.749   1.031
 5680TIP3   OH217045   5.069   2.237   1.155
 5680TIP3    H117046   5.151   2.236   1.203
 5680TIP3    H217047   5.049   2.330   1.145
 5681TIP3   OH217048   0.631   5.804   4.134
 5681TIP3    H117049   0.632   5.782   4.040
 5681TIP3    H217050   0.600   5.895   4.136
 5682TIP3   OH217051   1.846   1.320   3.030
 5682TIP3    H117052   1.839   1.410   3.062
 5682TIP3    H217053   1.756   1.287   3.033
 5683TIP3   OH217054   0.939   4.960   3.530
 5683TIP3    H117055   0.945   4.865   3.540
 5683TIP3    H217056   0.931   4.974   3.435
 5684TIP3   OH217057   2.099   3.101   4.677
 5684TIP3    H117058   2.012   3.093   4.637
 5684TIP3    H217059   2.085   3.077   4.769
 5685TIP3   OH217060   4.196   1.598   2.420
 5685TIP3    H117061   4.164   1.685   2.442
 5685TIP3    H217062   4.283   1.612   2.384
 5686TIP3   OH217063   6.138   5.520   1.137
 5686TIP3    H117064   6.080   5.444   1.147
 5686TIP3    H217065   6.211   5.488   1.085
 5687TIP3   OH217066   5.745   0.412   4.490
 5687TIP3    H117067   5.779   0.494   4.451
 5687TIP3    H217068   5.778   0.343   4.432
 5688TIP3   OH217069   6.045   5.058   1.268
 5688TIP3    H117070   6.066   5.063   1.361
 5688TIP3    H217071   6.093   5.132   1.229
 5689TIP3   OH217072   1.336   0.253   0.930
 5689TIP3    H117073   1.245   0.266   0.901
 5689TIP3    H217074   1.386   0.248   0.848
 5690TIP3   OH217075   1.068   5.137   0.247
 5690TIP3    H117076   1.039   5.120   0.158
 5690TIP3    H217077   1.003   5.197   0.283
 5691TIP3   OH217078   4.915   1.099   2.647
 5691TIP3    H117079   4.997   1.076   2.691
 5691TIP3    H217080   4.910   1.040   2.572
 5692TIP3   OH217081   0.633   0.161   5.106
 5692TIP3    H117082   0.634   0.246   5.063
 5692TIP3    H217083   0.726   0.137   5.113
 5693TIP3   OH217084   1.226   4.153   4.429
 5693TIP3    H117085   1.319   4.173   4.429
 5693TIP3    H217086   1.184   4.236   4.454
 5694TIP3   OH217087   6.220   1.043   0.239
 5694TIP3    H117088   6.165   1.009   0.310
 5694TIP3    H217089   6.169   1.025   0.160
 5695TIP3   OH217090   4.578   0.979   1.380
 5695TIP3    H117091   4.639   1.053   1.379
 5695TIP3    H217092   4.624   0.911   1.430
 5696TIP3   OH217093   1.823   2.313   3.018
 5696TIP3    H117094   1.855   2.377   3.082
 5696TIP3    H217095   1.869   2.232   3.041
 5697TIP3   OH217096   1.731   5.941   3.869
 5697TIP3    H117097   1.758   6.015   3.924
 5697TIP3    H217098   1.722   5.868   3.930
 5698TIP3   OH217099   2.304   0.814   4.751
 5698TIP3    H117100   2.260   0.899   4.746
 5698TIP3    H217101   2.321   0.802   4.845
 5699TIP3   OH217102   2.663   2.078   3.980
 5699TIP3    H117103   2.748   2.113   4.007
 5699TIP3    H217104   2.684   2.012   3.914
 5700TIP3   OH217105   4.164   5.198   3.874
 5700TIP3    H117106   4.224   5.153   3.814
 5700TIP3    H217107   4.202   5.185   3.960
 5701TIP3   OH217108   2.824   1.919   3.807
 5701TIP3    H117109   2.830   1.915   3.712
 5701TIP3    H217110   2.915   1.931   3.836
 5702TIP3   OH217111   2.675   5.047   2.492
 5702TIP3    H117112   2.730   5.118   2.458
 5702TIP3    H217113   2.722   5.015   2.568
 5703TIP3   OH217114   3.370   3.060   4.524
 5703TIP3    H117115   3.316   3.137   4.544
 5703TIP3    H217116   3.451   3.097   4.486
 5704TIP3   OH217117   6.359   1.742   1.851
 5704TIP3    H117118   6.326   1.683   1.919
 5704TIP3    H217119   6.359   1.689   1.771
 5705TIP3   OH217120   5.844   5.740   4.884
 5705TIP3    H117121   5.897   5.758   4.806
 5705TIP3    H217122   5.902   5.762   4.958
 5706TIP3   OH217123   6.138   2.555   1.347
 5706TIP3    H117124   6.076   2.508   1.402
 5706TIP3    H217125   6.098   2.555   1.260
 5707TIP3   OH217126   5.498   1.976   3.453
 5707TIP3    H117127   5.487   1.898   3.508
 5707TIP3    H217128   5.414   2.021   3.460
 5708TIP3   OH217129   1.834   0.257   2.943
 5708TIP3    H117130   1.759   0.317   2.950
 5708TIP3    H217131   1.794   0.170   2.939
 5709TIP3   OH217132   5.551   0.517   4.206
 5709TIP3    H117133   5.512   0.598   4.239
 5709TIP3    H217134   5.477   0.460   4.186
 5710TIP3   OH217135   0.108   4.344   3.782
 5710TIP3    H117136   0.190   4.347   3.734
 5710TIP3    H217137   0.096   4.433   3.815
 5711TIP3   OH217138   2.797   0.231   3.930
 5711TIP3    H117139   2.892   0.221   3.938
 5711TIP3    H217140   2.766   0.144   3.905
 5712TIP3   OH217141   2.866   3.264   3.437
 5712TIP3    H117142   2.786   3.294   3.480
 5712TIP3    H217143   2.848   3.274   3.343
 5713TIP3   OH217144   2.957   5.273   2.771
 5713TIP3    H117145   3.047   5.299   2.791
 5713TIP3    H217146   2.904   5.351   2.787
 5714TIP3   OH217147   0.891   4.083   4.456
 5714TIP3    H117148   0.939   4.056   4.378
 5714TIP3    H217149   0.836   4.155   4.427
 5715TIP3   OH217150   0.509   4.005   1.555
 5715TIP3    H117151   0.421   3.972   1.537
 5715TIP3    H217152   0.556   3.930   1.590
 5716TIP3   OH217153   1.276   4.090   5.052
 5716TIP3    H117154   1.342   4.104   4.984
 5716TIP3    H217155   1.220   4.168   5.048
 5717TIP3   OH217156   3.027   4.980   3.501
 5717TIP3    H117157   2.948   5.026   3.529
 5717TIP3    H217158   3.014   4.890   3.532
 5718TIP3   OH217159   2.384   2.368   0.723
 5718TIP3    H117160   2.377   2.403   0.812
 5718TIP3    H217161   2.306   2.400   0.679
 5719TIP3   OH217162   4.662   5.688   2.345
 5719TIP3    H117163   4.709   5.613   2.382
 5719TIP3    H217164   4.654   5.668   2.252
 5720TIP3   OH217165   0.387   5.747   1.010
 5720TIP3    H117166   0.459   5.690   1.039
 5720TIP3    H217167   0.313   5.688   0.999
 5721TIP3   OH217168   1.563   5.443   1.627
 5721TIP3    H117169   1.522   5.506   1.687
 5721TIP3    H217170   1.654   5.474   1.619
 5722TIP3   OH217171   2.939   3.068   3.844
 5722TIP3    H117172   2.993   3.004   3.798
 5722TIP3    H217173   2.858   3.021   3.866
 5723TIP3   OH217174   4.548   1.328   3.029
 5723TIP3    H117175   4.560   1.367   3.115
 5723TIP3    H217176   4.469   1.370   2.994
 5724TIP3   OH217177   4.527   3.499  -0.005
 5724TIP3    H117178   4.603   3.443  -0.015
 5724TIP3    H217179   4.472   3.454   0.059
 5725TIP3   OH217180   4.716   0.069   1.926
 5725TIP3    H117181   4.774   0.059   1.851
 5725TIP3    H217182   4.766   0.034   2.000
 5726TIP3   OH217183   0.142   0.192   4.781
 5726TIP3    H117184   0.173   0.139   4.855
 5726TIP3    H217185   0.059   0.229   4.811
 5727TIP3   OH217186   4.313   2.434   1.616
 5727TIP3    H117187   4.245   2.494   1.645
 5727TIP3    H217188   4.336   2.464   1.528
 5728TIP3   OH217189   5.763   5.384   3.667
 5728TIP3    H117190   5.808   5.314   3.714
 5728TIP3    H217191   5.833   5.442   3.638
 5729TIP3   OH217192   2.140   0.869   0.301
 5729TIP3    H117193   2.098   0.855   0.386
 5729TIP3    H217194   2.233   0.854   0.319
 5730TIP3   OH217195   0.529   1.342   0.798
 5730TIP3    H117196   0.557   1.251   0.789
 5730TIP3    H217197   0.499   1.368   0.711
 5731TIP3   OH217198   1.531   1.110   1.757
 5731TIP3    H117199   1.569   1.136   1.841
 5731TIP3    H217200   1.553   1.017   1.748
 5732TIP3   OH217201   0.178   0.260   2.363
 5732TIP3    H117202   0.173   0.291   2.272
 5732TIP3    H217203   0.094   0.217   2.377
 5733TIP3   OH217204   0.982   2.081   3.692
 5733TIP3    H117205   0.979   1.989   3.665
 5733TIP3    H217206   1.059   2.086   3.749
 5734TIP3   OH217207   2.937   0.828   4.232
 5734TIP3    H117208   2.886   0.771   4.290
 5734TIP3    H217209   2.894   0.914   4.240
 5735TIP3   OH217210   0.961   0.211   4.677
 5735TIP3    H117211   0.900   0.281   4.700
 5735TIP3    H217212   0.987   0.174   4.761
 5736TIP3   OH217213   5.525   4.312   1.378
 5736TIP3    H117214   5.515   4.381   1.443
 5736TIP3    H217215   5.483   4.347   1.299
 5737TIP3   OH217216   3.948   4.676   4.806
 5737TIP3    H117217   3.887   4.749   4.820
 5737TIP3    H217218   4.033   4.717   4.796
 5738TIP3   OH217219   3.291   4.169   3.127
 5738TIP3    H117220   3.319   4.259   3.111
 5738TIP3    H217221   3.232   4.149   3.053
 5739TIP3   OH217222   3.591   4.144   3.107
 5739TIP3    H117223   3.584   4.148   3.011
 5739TIP3    H217224   3.560   4.056   3.129
 5740TIP3   OH217225   3.689   1.654   0.334
 5740TIP3    H117226   3.659   1.665   0.424
 5740TIP3    H217227   3.621   1.696   0.280
 5741TIP3   OH217228   5.049   4.251   1.673
 5741TIP3    H117229   5.017   4.288   1.756
 5741TIP3    H217230   4.973   4.255   1.615
 5742TIP3   OH217231   4.516   5.825   0.107
 5742TIP3    H117232   4.433   5.778   0.106
 5742TIP3    H217233   4.492   5.916   0.091
 5743TIP3   OH217234   4.867   1.430   4.137
 5743TIP3    H117235   4.788   1.451   4.088
 5743TIP3    H217236   4.867   1.335   4.143
 5744TIP3   OH217237   3.825   5.590   0.096
 5744TIP3    H117238   3.871   5.664   0.056
 5744TIP3    H217239   3.755   5.630   0.148
 5745TIP3   OH217240   3.340   4.198   2.567
 5745TIP3    H117241   3.246   4.188   2.582
 5745TIP3    H217242   3.365   4.121   2.517
 5746TIP3   OH217243   3.612   0.483   2.190
 5746TIP3    H117244   3.653   0.396   2.194
 5746TIP3    H217245   3.654   0.525   2.114
 5747TIP3   OH217246   4.357   5.608   3.064
 5747TIP3    H117247   4.287   5.639   3.122
 5747TIP3    H217248   4.428   5.585   3.124
 5748TIP3   OH217249   3.528   0.565   2.440
 5748TIP3    H117250   3.505   0.655   2.419
 5748TIP3    H217251   3.527   0.519   2.356
 5749TIP3   OH217252   0.688   4.684   1.794
 5749TIP3    H117253   0.632   4.706   1.720
 5749TIP3    H217254   0.631   4.636   1.854
 5750TIP3   OH217255   4.963   2.271   3.070
 5750TIP3    H117256   4.988   2.328   3.142
 5750TIP3    H217257   4.868   2.259   3.081
 5751TIP3   OH217258   0.923   3.782   3.864
 5751TIP3    H117259   0.860   3.851   3.842
 5751TIP3    H217260   0.992   3.828   3.912
 5752TIP3   OH217261   6.308   0.427   0.761
 5752TIP3    H117262   6.351   0.508   0.790
 5752TIP3    H217263   6.346   0.410   0.675
 5753TIP3   OH217264   2.248   4.500   4.625
 5753TIP3    H117265   2.337   4.507   4.658
 5753TIP3    H217266   2.227   4.588   4.593
 5754TIP3   OH217267   6.357   5.448   0.128
 5754TIP3    H117268   6.390   5.432   0.040
 5754TIP3    H217269   6.268   5.482   0.114
 5755TIP3   OH217270   1.427   1.919   3.895
 5755TIP3    H117271   1.417   1.916   3.991
 5755TIP3    H217272   1.500   1.979   3.881
 5756TIP3   OH217273   6.117   3.178   1.107
 5756TIP3    H117274   6.133   3.234   1.031
 5756TIP3    H217275   6.171   3.101   1.092
 5757TIP3   OH217276   0.373   3.794   2.216
 5757TIP3    H117277   0.337   3.738   2.147
 5757TIP3    H217278   0.333   3.760   2.297
 5758TIP3   OH217279   2.493   5.983   2.892
 5758TIP3    H117280   2.544   5.927   2.951
 5758TIP3    H217281   2.490   6.067   2.937
 5759TIP3   OH217282   0.326   4.381   0.855
 5759TIP3    H117283   0.245   4.407   0.812
 5759TIP3    H217284   0.314   4.406   0.946
 5760TIP3   OH217285   5.915   3.322   2.143
 5760TIP3    H117286   5.999   3.348   2.105
 5760TIP3    H217287   5.916   3.360   2.232
 5761TIP3   OH217288   4.392   0.227   2.808
 5761TIP3    H117289   4.345   0.308   2.831
 5761TIP3    H217290   4.422   0.242   2.718
 5762TIP3   OH217291   5.587   2.409   2.733
 5762TIP3    H117292   5.640   2.374   2.661
 5762TIP3    H217293   5.527   2.471   2.691
 5763TIP3   OH217294   3.888   5.201   3.321
 5763TIP3    H117295   3.879   5.106   3.313
 5763TIP3    H217296   3.928   5.215   3.406
 5764TIP3   OH217297   2.609   3.724   2.482
 5764TIP3    H117298   2.705   3.730   2.480
 5764TIP3    H217299   2.579   3.813   2.497
 5765TIP3   OH217300   1.694   2.388   1.605
 5765TIP3    H117301   1.699   2.483   1.598
 5765TIP3    H217302   1.736   2.368   1.688
 5766TIP3   OH217303   3.573   2.335   1.847
 5766TIP3    H117304   3.523   2.263   1.809
 5766TIP3    H217305   3.646   2.293   1.892
 5767TIP3   OH217306   6.066   0.906   3.995
 5767TIP3    H117307   6.022   0.843   4.053
 5767TIP3    H217308   6.047   0.992   4.033
 5768TIP3   OH217309   3.624   5.574   4.557
 5768TIP3    H117310   3.680   5.611   4.490
 5768TIP3    H217311   3.608   5.484   4.529
 5769TIP3   OH217312   0.946   5.783   1.135
 5769TIP3    H117313   0.974   5.717   1.071
 5769TIP3    H217314   0.916   5.733   1.210
 5770TIP3   OH217315   1.380   4.421   2.894
 5770TIP3    H117316   1.386   4.350   2.831
 5770TIP3    H217317   1.332   4.490   2.848
 5771TIP3   OH217318   4.257   2.022   4.335
 5771TIP3    H117319   4.351   2.017   4.350
 5771TIP3    H217320   4.229   1.931   4.327
 5772TIP3   OH217321   6.190   0.214   4.086
 5772TIP3    H117322   6.124   0.277   4.054
 5772TIP3    H217323   6.221   0.252   4.168
 5773TIP3   OH217324   5.648   1.345   3.496
 5773TIP3    H117325   5.683   1.433   3.513
 5773TIP3    H217326   5.673   1.294   3.573
 5774TIP3   OH217327   1.941   4.116   3.673
 5774TIP3    H117328   1.978   4.104   3.586
 5774TIP3    H217329   1.939   4.029   3.711
 5775TIP3   OH217330   4.605   4.047   4.290
 5775TIP3    H117331   4.574   3.985   4.224
 5775TIP3    H217332   4.533   4.110   4.299
 5776TIP3   OH217333   4.972  -0.084   2.359
 5776TIP3    H117334   4.881  -0.089   2.332
 5776TIP3    H217335   5.010  -0.015   2.303
 5777TIP3   OH217336   0.308   4.471   2.074
 5777TIP3    H117337   0.325   4.419   2.153
 5777TIP3    H217338   0.271   4.409   2.012
 5778TIP3   OH217339   4.813   5.201   1.105
 5778TIP3    H117340   4.727   5.238   1.126
 5778TIP3    H217341   4.872   5.239   1.171
 5779TIP3   OH217342   1.051   0.335   2.294
 5779TIP3    H117343   1.019   0.260   2.344
 5779TIP3    H217344   1.102   0.386   2.357
 5780TIP3   OH217345   5.814   0.206   4.315
 5780TIP3    H117346   5.860   0.172   4.392
 5780TIP3    H217347   5.747   0.140   4.297
 5781TIP3   OH217348   5.234   2.661   3.267
 5781TIP3    H117349   5.188   2.696   3.191
 5781TIP3    H217350   5.309   2.615   3.231
 5782TIP3   OH217351   3.212   3.670   2.826
 5782TIP3    H117352   3.245   3.586   2.796
 5782TIP3    H217353   3.119   3.669   2.804
 5783TIP3   OH217354   3.450   0.197   2.661
 5783TIP3    H117355   3.430   0.176   2.570
 5783TIP3    H217356   3.401   0.133   2.712
 5784TIP3   OH217357   5.947   1.353   3.900
 5784TIP3    H117358   5.913   1.428   3.949
 5784TIP3    H217359   6.036   1.380   3.876
 5785TIP3   OH217360   2.730   1.355   1.789
 5785TIP3    H117361   2.669   1.306   1.844
 5785TIP3    H217362   2.721   1.315   1.702
 5786TIP3   OH217363   0.627   1.452   1.371
 5786TIP3    H117364   0.566   1.517   1.335
 5786TIP3    H217365   0.708   1.501   1.385
 5787TIP3   OH217366   1.456   2.008   3.219
 5787TIP3    H117367   1.520   1.938   3.223
 5787TIP3    H217368   1.484   2.072   3.284
 5788TIP3   OH217369   2.461   5.041   3.502
 5788TIP3    H117370   2.463   4.978   3.430
 5788TIP3    H217371   2.407   5.113   3.470
 5789TIP3   OH217372   3.455   1.180   4.077
 5789TIP3    H117373   3.461   1.134   4.160
 5789TIP3    H217374   3.371   1.226   4.080
 5790TIP3   OH217375   5.559   1.810   2.432
 5790TIP3    H117376   5.620   1.774   2.496
 5790TIP3    H217377   5.551   1.742   2.365
 5791TIP3   OH217378   2.725   4.788   0.714
 5791TIP3    H117379   2.766   4.870   0.742
 5791TIP3    H217380   2.631   4.809   0.709
 5792TIP3   OH217381   5.977   4.963   2.648
 5792TIP3    H117382   6.041   4.906   2.605
 5792TIP3    H217383   6.021   5.048   2.652
 5793TIP3   OH217384   2.937   1.284   2.045
 5793TIP3    H117385   2.971   1.342   1.976
 5793TIP3    H217386   2.852   1.320   2.067
 5794TIP3   OH217387   0.136   1.811   4.180
 5794TIP3    H117388   0.189   1.863   4.119
 5794TIP3    H217389   0.189   1.732   4.194
 5795TIP3   OH217390   0.351   2.806   5.169
 5795TIP3    H117391   0.311   2.890   5.145
 5795TIP3    H217392   0.444   2.817   5.149
 5796TIP3   OH217393   5.717   3.051   4.283
 5796TIP3    H117394   5.789   2.991   4.263
 5796TIP3    H217395   5.717   3.113   4.209
 5797TIP3   OH217396   5.070   4.942   2.935
 5797TIP3    H117397   5.062   4.874   3.002
 5797TIP3    H217398   5.065   5.025   2.983
 5798TIP3   OH217399   1.761  -0.011   1.681
 5798TIP3    H117400   1.809  -0.002   1.763
 5798TIP3    H217401   1.714   0.072   1.671
 5799TIP3   OH217402   2.748   1.087   0.534
 5799TIP3    H117403   2.806   1.106   0.460
 5799TIP3    H217404   2.738   0.992   0.533
 5800TIP3   OH217405   2.945   4.665   3.028
 5800TIP3    H117406   2.870   4.612   3.000
 5800TIP3    H217407   2.910   4.723   3.095
 5801TIP3   OH217408   3.548   1.043   4.285
 5801TIP3    H117409   3.609   1.110   4.317
 5801TIP3    H217410   3.596   0.998   4.216
 5802TIP3   OH217411   3.917   0.630   2.830
 5802TIP3    H117412   3.833   0.605   2.868
 5802TIP3    H217413   3.937   0.559   2.768
 5803TIP3   OH217414   2.831   6.023   5.038
 5803TIP3    H117415   2.912   5.997   4.995
 5803TIP3    H217416   2.841   6.117   5.054
 5804TIP3   OH217417   5.248   0.910   4.493
 5804TIP3    H117418   5.209   0.996   4.505
 5804TIP3    H217419   5.186   0.849   4.533
 5805TIP3   OH217420   5.025   2.278   4.481
 5805TIP3    H117421   5.105   2.275   4.534
 5805TIP3    H217422   5.052   2.247   4.395
 5806TIP3   OH217423   1.577   5.063   0.146
 5806TIP3    H117424   1.498   5.116   0.139
 5806TIP3    H217425   1.545   4.976   0.169
 5807TIP3   OH217426   3.713   0.732   1.674
 5807TIP3    H117427   3.647   0.699   1.734
 5807TIP3    H217428   3.673   0.722   1.587
 5808TIP3   OH217429   5.093   2.585   3.584
 5808TIP3    H117430   5.185   2.605   3.603
 5808TIP3    H217431   5.043   2.642   3.642
 5809TIP3   OH217432   5.430   1.034   4.237
 5809TIP3    H117433   5.481   0.963   4.197
 5809TIP3    H217434   5.410   1.003   4.325
 5810TIP3   OH217435   2.382   0.542   2.374
 5810TIP3    H117436   2.386   0.543   2.469
 5810TIP3    H217437   2.473   0.533   2.346
 5811TIP3   OH217438   3.021   0.278   1.739
 5811TIP3    H117439   3.091   0.259   1.676
 5811TIP3    H217440   2.942   0.246   1.696
 5812TIP3   OH217441   0.062   4.723   4.385
 5812TIP3    H117442  -0.030   4.717   4.358
 5812TIP3    H217443   0.070   4.659   4.456
 5813TIP3   OH217444   5.269   2.430   4.984
 5813TIP3    H117445   5.207   2.365   5.018
 5813TIP3    H217446   5.217   2.482   4.922
 5814TIP3   OH217447   4.298   2.469   1.944
 5814TIP3    H117448   4.324   2.525   2.017
 5814TIP3    H217449   4.208   2.496   1.924
 5815TIP3   OH217450   4.487   1.368   0.896
 5815TIP3    H117451   4.410   1.424   0.911
 5815TIP3    H217452   4.562   1.426   0.910
 5816TIP3   OH217453   0.876   3.864   1.466
 5816TIP3    H117454   0.908   3.951   1.489
 5816TIP3    H217455   0.944   3.829   1.408
 5817TIP3   OH217456   0.620   5.991   3.834
 5817TIP3    H117457   0.593   5.899   3.842
 5817TIP3    H217458   0.569   6.025   3.760
 5818TIP3   OH217459   4.324   5.331   3.533
 5818TIP3    H117460   4.405   5.282   3.514
 5818TIP3    H217461   4.254   5.269   3.513
 5819TIP3   OH217462   4.877   6.032   3.586
 5819TIP3    H117463   4.802   6.071   3.539
 5819TIP3    H217464   4.907   5.962   3.528
 5820TIP3   OH217465   4.931   2.092   4.704
 5820TIP3    H117466   4.925   2.187   4.702
 5820TIP3    H217467   5.007   2.073   4.759
 5821TIP3   OH217468   5.018   4.742   3.304
 5821TIP3    H117469   5.067   4.692   3.369
 5821TIP3    H217470   4.974   4.675   3.250
 5822TIP3   OH217471   0.538   0.745   4.070
 5822TIP3    H117472   0.562   0.671   4.015
 5822TIP3    H217473   0.563   0.822   4.020
 5823TIP3   OH217474   0.162   0.944   4.949
 5823TIP3    H117475   0.155   0.917   4.857
 5823TIP3    H217476   0.121   1.031   4.952
 5824TIP3   OH217477   1.156   2.233   1.759
 5824TIP3    H117478   1.211   2.312   1.757
 5824TIP3    H217479   1.216   2.162   1.734
 5825TIP3   OH217480   5.410   1.455   2.631
 5825TIP3    H117481   5.331   1.510   2.626
 5825TIP3    H217482   5.379   1.373   2.671
 5826TIP3   OH217483   5.196   5.049   0.553
 5826TIP3    H117484   5.169   5.026   0.642
 5826TIP3    H217485   5.262   5.118   0.566
 5827TIP3   OH217486   3.114   5.539   2.549
 5827TIP3    H117487   3.195   5.588   2.537
 5827TIP3    H217488   3.122   5.463   2.492
 5828TIP3   OH217489   5.079   2.080   0.036
 5828TIP3    H117490   4.998   2.127   0.017
 5828TIP3    H217491   5.054   1.987   0.030
 5829TIP3   OH217492   1.638   3.949   1.662
 5829TIP3    H117493   1.573   3.889   1.625
 5829TIP3    H217494   1.654   3.916   1.751
 5830TIP3   OH217495   1.532   0.113   0.126
 5830TIP3    H117496   1.611   0.167   0.116
 5830TIP3    H217497   1.512   0.117   0.219
 5831TIP3   OH217498   0.037   2.855   4.175
 5831TIP3    H117499  -0.020   2.799   4.122
 5831TIP3    H217500   0.092   2.900   4.111
 5832TIP3   OH217501   3.656   4.162   0.733
 5832TIP3    H117502   3.735   4.207   0.704
 5832TIP3    H217503   3.684   4.112   0.810
 5833TIP3   OH217504   3.831   0.104   1.391
 5833TIP3    H117505   3.833   0.160   1.468
 5833TIP3    H217506   3.743   0.115   1.354
 5834TIP3   OH217507   0.880   4.284   0.146
 5834TIP3    H117508   0.828   4.208   0.173
 5834TIP3    H217509   0.970   4.253   0.148
 5835TIP3   OH217510   0.292   5.705   3.790
 5835TIP3    H117511   0.303   5.668   3.702
 5835TIP3    H217512   0.228   5.775   3.779
 5836TIP3   OH217513   6.279   3.178   4.056
 5836TIP3    H117514   6.254   3.250   4.114
 5836TIP3    H217515   6.372   3.164   4.075
 5837TIP3   OH217516   3.150   4.296   4.641
 5837TIP3    H117517   3.095   4.224   4.611
 5837TIP3    H217518   3.221   4.301   4.577
 5838TIP3   OH217519   5.723   5.727   3.913
 5838TIP3    H117520   5.675   5.659   3.865
 5838TIP3    H217521   5.684   5.726   4.001
 5839TIP3   OH217522   1.464   3.326   1.297
 5839TIP3    H117523   1.419   3.410   1.291
 5839TIP3    H217524   1.418   3.270   1.235
 5840TIP3   OH217525   1.614   5.185   4.508
 5840TIP3    H117526   1.598   5.092   4.522
 5840TIP3    H217527   1.683   5.188   4.442
 5841TIP3   OH217528   5.142   5.851   1.193
 5841TIP3    H117529   5.104   5.928   1.236
 5841TIP3    H217530   5.068   5.806   1.154
 5842TIP3   OH217531   2.224   2.277   2.458
 5842TIP3    H117532   2.287   2.210   2.486
 5842TIP3    H217533   2.156   2.276   2.525
 5843TIP3   OH217534   4.119   4.862   0.528
 5843TIP3    H117535   4.174   4.904   0.462
 5843TIP3    H217536   4.171   4.787   0.558
 5844TIP3   OH217537   5.226   1.061   5.040
 5844TIP3    H117538   5.158   1.050   4.973
 5844TIP3    H217539   5.304   1.088   4.992
 5845TIP3   OH217540   3.539   1.074   1.586
 5845TIP3    H117541   3.590   1.008   1.632
 5845TIP3    H217542   3.587   1.091   1.505
 5846TIP3   OH217543   1.326   1.102   4.687
 5846TIP3    H117544   1.332   1.197   4.698
 5846TIP3    H217545   1.310   1.089   4.594
 5847TIP3   OH217546   2.592   3.411   1.950
 5847TIP3    H117547   2.648   3.483   1.920
 5847TIP3    H217548   2.608   3.341   1.887
 5848TIP3   OH217549   1.412   0.620   4.885
 5848TIP3    H117550   1.467   0.569   4.944
 5848TIP3    H217551   1.472   0.648   4.815
 5849TIP3   OH217552   1.350   3.073   3.940
 5849TIP3    H117553   1.393   3.107   4.019
 5849TIP3    H217554   1.264   3.116   3.939
 5850TIP3   OH217555   6.194   5.217   1.054
 5850TIP3    H117556   6.197   5.159   0.978
 5850TIP3    H217557   6.269   5.276   1.042
 5851TIP3   OH217558   1.439   2.228   4.542
 5851TIP3    H117559   1.450   2.294   4.610
 5851TIP3    H217560   1.468   2.146   4.583
 5852TIP3   OH217561   0.368   1.391   1.482
 5852TIP3    H117562   0.379   1.481   1.451
 5852TIP3    H217563   0.277   1.370   1.461
 5853TIP3   OH217564   3.873   2.628   1.576
 5853TIP3    H117565   3.875   2.675   1.493
 5853TIP3    H217566   3.822   2.548   1.558
 5854TIP3   OH217567   6.319   3.736   1.727
 5854TIP3    H117568   6.359   3.698   1.648
 5854TIP3    H217569   6.226   3.743   1.706
 5855TIP3   OH217570   6.203   3.804   2.374
 5855TIP3    H117571   6.139   3.872   2.355
 5855TIP3    H217572   6.268   3.848   2.431
 5856TIP3   OH217573   1.049   0.178   3.598
 5856TIP3    H117574   0.980   0.139   3.543
 5856TIP3    H217575   1.059   0.115   3.670
 5857TIP3   OH217576   4.387   0.568   4.143
 5857TIP3    H117577   4.473   0.581   4.104
 5857TIP3    H217578   4.325   0.593   4.074
 5858TIP3   OH217579   0.214   5.988   3.222
 5858TIP3    H117580   0.191   5.900   3.250
 5858TIP3    H217581   0.286   5.975   3.160
 5859TIP3   OH217582   4.087   0.444   4.526
 5859TIP3    H117583   3.995   0.457   4.550
 5859TIP3    H217584   4.101   0.350   4.532
 5860TIP3   OH217585   2.545   2.828   0.980
 5860TIP3    H117586   2.533   2.746   1.028
 5860TIP3    H217587   2.566   2.800   0.891
 5861TIP3   OH217588   5.438   4.419   0.836
 5861TIP3    H117589   5.495   4.488   0.870
 5861TIP3    H217590   5.422   4.443   0.745
 5862TIP3   OH217591   1.863   3.339   5.014
 5862TIP3    H117592   1.854   3.434   5.005
 5862TIP3    H217593   1.902   3.327   5.101
 5863TIP3   OH217594   4.460   1.087   0.974
 5863TIP3    H117595   4.429   1.177   0.967
 5863TIP3    H217596   4.488   1.064   0.885
 5864TIP3   OH217597   4.745   4.373   4.230
 5864TIP3    H117598   4.831   4.417   4.231
 5864TIP3    H217599   4.765   4.281   4.248
 5865TIP3   OH217600   3.088   0.467   4.269
 5865TIP3    H117601   3.031   0.490   4.343
 5865TIP3    H217602   3.175   0.492   4.298
 5866TIP3   OH217603   3.976   3.090   4.427
 5866TIP3    H117604   3.909   3.157   4.433
 5866TIP3    H217605   4.012   3.083   4.515
 5867TIP3   OH217606   5.204   4.589   4.963
 5867TIP3    H117607   5.159   4.648   4.903
 5867TIP3    H217608   5.243   4.522   4.906
 5868TIP3   OH217609   2.211   1.508   0.920
 5868TIP3    H117610   2.177   1.479   0.835
 5868TIP3    H217611   2.305   1.490   0.915
 5869TIP3   OH217612   3.750   3.463   1.225
 5869TIP3    H117613   3.711   3.380   1.253
 5869TIP3    H217614   3.817   3.482   1.291
 5870TIP3   OH217615   4.597   5.853   1.317
 5870TIP3    H117616   4.581   5.788   1.249
 5870TIP3    H217617   4.626   5.802   1.392
 5871TIP3   OH217618   6.100   1.126   3.095
 5871TIP3    H117619   6.074   1.045   3.051
 5871TIP3    H217620   6.022   1.155   3.142
 5872TIP3   OH217621   1.361   0.110   0.588
 5872TIP3    H117622   1.362   0.205   0.579
 5872TIP3    H217623   1.431   0.092   0.650
 5873TIP3   OH217624   4.198   1.773   0.622
 5873TIP3    H117625   4.133   1.814   0.679
 5873TIP3    H217626   4.278   1.772   0.674
 5874TIP3   OH217627   3.413   5.779   4.516
 5874TIP3    H117628   3.448   5.698   4.552
 5874TIP3    H217629   3.475   5.846   4.544
 5875TIP3   OH217630   0.779   3.439   2.653
 5875TIP3    H117631   0.871   3.465   2.652
 5875TIP3    H217632   0.736   3.504   2.708
 5876TIP3   OH217633   2.855   1.502   3.689
 5876TIP3    H117634   2.805   1.564   3.635
 5876TIP3    H217635   2.792   1.471   3.754
 5877TIP3   OH217636   5.719   3.701   2.769
 5877TIP3    H117637   5.712   3.692   2.865
 5877TIP3    H217638   5.795   3.757   2.756
 5878TIP3   OH217639   2.824   2.467   4.162
 5878TIP3    H117640   2.840   2.402   4.231
 5878TIP3    H217641   2.898   2.526   4.168
 5879TIP3   OH217642   5.895   0.074   4.583
 5879TIP3    H117643   5.825   0.111   4.636
 5879TIP3    H217644   5.853   0.006   4.531
 5880TIP3   OH217645   3.651   3.000   0.029
 5880TIP3    H117646   3.575   3.053   0.054
 5880TIP3    H217647   3.722   3.030   0.085
 5881TIP3   OH217648   5.772   1.861   4.009
 5881TIP3    H117649   5.810   1.898   4.089
 5881TIP3    H217650   5.728   1.935   3.967
 5882TIP3   OH217651   1.794   2.203   1.303
 5882TIP3    H117652   1.752   2.219   1.387
 5882TIP3    H217653   1.770   2.278   1.249
 5883TIP3   OH217654   2.855   3.681   0.561
 5883TIP3    H117655   2.781   3.691   0.500
 5883TIP3    H217656   2.930   3.714   0.512
 5884TIP3   OH217657   6.000   3.411   2.435
 5884TIP3    H117658   6.068   3.462   2.391
 5884TIP3    H217659   5.972   3.465   2.508
 5885TIP3   OH217660   1.915   1.681   4.057
 5885TIP3    H117661   1.861   1.759   4.058
 5885TIP3    H217662   1.918   1.654   3.965
 5886TIP3   OH217663   3.052   5.149   4.879
 5886TIP3    H117664   2.998   5.225   4.861
 5886TIP3    H217665   3.007   5.104   4.950
 5887TIP3   OH217666   5.204   4.521   1.371
 5887TIP3    H117667   5.209   4.426   1.356
 5887TIP3    H217668   5.113   4.538   1.394
 5888TIP3   OH217669   4.228   3.234   3.558
 5888TIP3    H117670   4.286   3.277   3.495
 5888TIP3    H217671   4.188   3.162   3.509
 5889TIP3   OH217672   2.150   5.250   3.172
 5889TIP3    H117673   2.059   5.223   3.163
 5889TIP3    H217674   2.145   5.344   3.190
 5890TIP3   OH217675   2.656   2.241   3.338
 5890TIP3    H117676   2.737   2.265   3.293
 5890TIP3    H217677   2.651   2.145   3.328
 5891TIP3   OH217678   5.923   0.738   5.027
 5891TIP3    H117679   5.867   0.660   5.023
 5891TIP3    H217680   6.010   0.706   5.004
 5892TIP3   OH217681   4.004   0.968   5.127
 5892TIP3    H117682   3.922   0.917   5.125
 5892TIP3    H217683   3.975   1.059   5.136
 5893TIP3   OH217684   3.525   0.199   4.720
 5893TIP3    H117685   3.443   0.176   4.677
 5893TIP3    H217686   3.593   0.172   4.659
 5894TIP3   OH217687   4.656   0.054   2.405
 5894TIP3    H117688   4.678   0.145   2.385
 5894TIP3    H217689   4.692   0.003   2.332
 5895TIP3   OH217690   4.897   3.876   1.388
 5895TIP3    H117691   4.987   3.854   1.366
 5895TIP3    H217692   4.889   3.854   1.481
 5896TIP3   OH217693   5.912   0.440   3.113
 5896TIP3    H117694   5.868   0.523   3.100
 5896TIP3    H217695   6.002   0.464   3.137
 5897TIP3   OH217696   1.929   5.153   1.953
 5897TIP3    H117697   1.986   5.228   1.936
 5897TIP3    H217698   1.932   5.141   2.048
 5898TIP3   OH217699   2.669   0.324   3.487
 5898TIP3    H117700   2.710   0.245   3.523
 5898TIP3    H217701   2.734   0.393   3.500
 5899TIP3   OH217702   0.694   2.211   4.734
 5899TIP3    H117703   0.687   2.146   4.805
 5899TIP3    H217704   0.696   2.159   4.654
 5900TIP3   OH217705   5.883   5.496   3.154
 5900TIP3    H117706   5.823   5.463   3.222
 5900TIP3    H217707   5.919   5.577   3.191
 5901TIP3   OH217708   2.302   1.890   5.214
 5901TIP3    H117709   2.326   1.919   5.302
 5901TIP3    H217710   2.296   1.971   5.162
 5902TIP3   OH217711   1.498   3.667   0.077
 5902TIP3    H117712   1.516   3.703  -0.010
 5902TIP3    H217713   1.404   3.652   0.078
 5903TIP3   OH217714   6.369   2.332   2.481
 5903TIP3    H117715   6.303   2.318   2.549
 5903TIP3    H217716   6.439   2.270   2.503
 5904TIP3   OH217717   3.605   0.708   0.088
 5904TIP3    H117718   3.511   0.711   0.108
 5904TIP3    H217719   3.609   0.702  -0.007
 5905TIP3   OH217720   5.213   2.825   4.855
 5905TIP3    H117721   5.190   2.918   4.866
 5905TIP3    H217722   5.228   2.794   4.944
 5906TIP3   OH217723   5.231   1.179   4.153
 5906TIP3    H117724   5.163   1.115   4.175
 5906TIP3    H217725   5.313   1.134   4.172
 5907TIP3   OH217726   2.235   4.243   1.083
 5907TIP3    H117727   2.301   4.268   1.019
 5907TIP3    H217728   2.202   4.326   1.118
 5908TIP3   OH217729   4.968   5.549   4.669
 5908TIP3    H117730   4.918   5.558   4.750
 5908TIP3    H217731   4.969   5.638   4.632
 5909TIP3   OH217732   6.282   3.446   0.685
 5909TIP3    H117733   6.304   3.458   0.593
 5909TIP3    H217734   6.318   3.524   0.728
 5910TIP3   OH217735   1.420   5.129   1.420
 5910TIP3    H117736   1.434   5.099   1.330
 5910TIP3    H217737   1.501   5.107   1.466
 5911TIP3   OH217738   0.165   1.394   2.955
 5911TIP3    H117739   0.180   1.322   3.016
 5911TIP3    H217740   0.145   1.469   3.010
 5912TIP3   OH217741   1.040   1.713   4.084
 5912TIP3    H117742   0.973   1.666   4.034
 5912TIP3    H217743   1.024   1.688   4.175
 5913TIP3   OH217744   0.662   4.937   2.617
 5913TIP3    H117745   0.640   4.844   2.611
 5913TIP3    H217746   0.601   4.981   2.558
 5914TIP3   OH217747   4.093   5.412   3.196
 5914TIP3    H117748   4.137   5.495   3.212
 5914TIP3    H217749   4.159   5.346   3.214
 5915TIP3   OH217750   3.680   2.917   3.564
 5915TIP3    H117751   3.721   2.830   3.571
 5915TIP3    H217752   3.709   2.963   3.643
 5916TIP3   OH217753   4.437   3.317   3.861
 5916TIP3    H117754   4.487   3.376   3.805
 5916TIP3    H217755   4.464   3.229   3.834
 5917TIP3   OH217756   1.280   5.684   4.249
 5917TIP3    H117757   1.328   5.740   4.188
 5917TIP3    H217758   1.235   5.621   4.193
 5918TIP3   OH217759   5.684   3.394   3.519
 5918TIP3    H117760   5.732   3.476   3.510
 5918TIP3    H217761   5.624   3.392   3.445
 5919TIP3   OH217762   3.100   5.665   1.092
 5919TIP3    H117763   3.185   5.705   1.106
 5919TIP3    H217764   3.038   5.724   1.134
 5920TIP3   OH217765   4.468   2.099   3.671
 5920TIP3    H117766   4.516   2.169   3.627
 5920TIP3    H217767   4.536   2.037   3.698
 5921TIP3   OH217768   1.686   5.361   2.787
 5921TIP3    H117769   1.764   5.406   2.821
 5921TIP3    H217770   1.647   5.320   2.864
 5922TIP3   OH217771   4.349   5.890   2.058
 5922TIP3    H117772   4.295   5.891   1.979
 5922TIP3    H217773   4.344   5.799   2.089
 5923TIP3   OH217774   6.236   1.690   3.879
 5923TIP3    H117775   6.178   1.701   3.804
 5923TIP3    H217776   6.309   1.750   3.862
 5924TIP3   OH217777   0.466   3.216   4.379
 5924TIP3    H117778   0.518   3.262   4.313
 5924TIP3    H217779   0.446   3.131   4.339
 5925TIP3   OH217780   1.781   4.478   0.378
 5925TIP3    H117781   1.711   4.487   0.442
 5925TIP3    H217782   1.761   4.543   0.311
 5926TIP3   OH217783   5.204   2.542   1.738
 5926TIP3    H117784   5.148   2.560   1.813
 5926TIP3    H217785   5.260   2.620   1.731
 5927TIP3   OH217786   3.992   5.378   2.812
 5927TIP3    H117787   4.046   5.431   2.871
 5927TIP3    H217788   4.026   5.289   2.821
 5928TIP3   OH217789   4.843   1.113   2.034
 5928TIP3    H117790   4.933   1.082   2.031
 5928TIP3    H217791   4.805   1.071   2.111
 5929TIP3   OH217792   0.210   0.611   4.507
 5929TIP3    H117793   0.252   0.638   4.425
 5929TIP3    H217794   0.261   0.536   4.538
 5930TIP3   OH217795   5.476   4.582   0.076
 5930TIP3    H117796   5.468   4.668   0.035
 5930TIP3    H217797   5.534   4.533   0.018
 5931TIP3   OH217798   3.335   3.928   0.746
 5931TIP3    H117799   3.345   3.912   0.839
 5931TIP3    H217800   3.348   4.022   0.736
 5932TIP3   OH217801   0.412   3.714   4.634
 5932TIP3    H117802   0.440   3.623   4.628
 5932TIP3    H217803   0.494   3.764   4.635
 5933TIP3   OH217804   2.823   0.800   1.195
 5933TIP3    H117805   2.732   0.812   1.220
 5933TIP3    H217806   2.833   0.851   1.114
 5934TIP3   OH217807   2.744   1.050   2.202
 5934TIP3    H117808   2.839   1.060   2.210
 5934TIP3    H217809   2.708   1.121   2.255
 5935TIP3   OH217810   3.263   4.595   0.391
 5935TIP3    H117811   3.314   4.630   0.464
 5935TIP3    H217812   3.177   4.577   0.427
 5936TIP3   OH217813   4.700   4.167   1.155
 5936TIP3    H117814   4.770   4.103   1.137
 5936TIP3    H217815   4.692   4.215   1.073
 5937TIP3   OH217816   4.601   0.532   1.374
 5937TIP3    H117817   4.621   0.461   1.436
 5937TIP3    H217818   4.614   0.493   1.288
 5938TIP3   OH217819   4.756   0.012   2.679
 5938TIP3    H117820   4.687  -0.014   2.739
 5938TIP3    H217821   4.711   0.034   2.598
 5939TIP3   OH217822   4.648   0.936   3.938
 5939TIP3    H117823   4.704   0.941   3.860
 5939TIP3    H217824   4.625   1.027   3.956
 5940TIP3   OH217825   0.626   5.044   2.883
 5940TIP3    H117826   0.638   5.000   2.799
 5940TIP3    H217827   0.702   5.102   2.891
 5941TIP3   OH217828   4.120   5.782   0.965
 5941TIP3    H117829   4.213   5.796   0.950
 5941TIP3    H217830   4.101   5.699   0.920
 5942TIP3   OH217831   2.815   2.983   4.825
 5942TIP3    H117832   2.819   3.018   4.914
 5942TIP3    H217833   2.898   3.011   4.785
 5943TIP3   OH217834   5.209   0.508   1.868
 5943TIP3    H117835   5.176   0.554   1.790
 5943TIP3    H217836   5.172   0.556   1.942
 5944TIP3   OH217837   1.251   4.581   0.992
 5944TIP3    H117838   1.240   4.564   0.898
 5944TIP3    H217839   1.314   4.515   1.021
 5945TIP3   OH217840   1.216   5.944   4.690
 5945TIP3    H117841   1.167   5.907   4.617
 5945TIP3    H217842   1.162   6.017   4.721
 5946TIP3   OH217843   1.498   1.649   3.092
 5946TIP3    H117844   1.408   1.675   3.073
 5946TIP3    H217845   1.525   1.706   3.164
 5947TIP3   OH217846   4.419   3.580   3.447
 5947TIP3    H117847   4.387   3.629   3.372
 5947TIP3    H217848   4.423   3.644   3.518
 5948TIP3   OH217849   1.988   4.333   3.107
 5948TIP3    H117850   2.082   4.316   3.112
 5948TIP3    H217851   1.974   4.410   3.163
 5949TIP3   OH217852   6.045   1.730   2.538
 5949TIP3    H117853   6.132   1.701   2.566
 5949TIP3    H217854   6.017   1.664   2.475
 5950TIP3   OH217855   6.150   1.300   0.471
 5950TIP3    H117856   6.160   1.251   0.552
 5950TIP3    H217857   6.239   1.306   0.436
 5951TIP3   OH217858   5.069   5.032   3.290
 5951TIP3    H117859   5.044   4.940   3.300
 5951TIP3    H217860   4.997   5.081   3.329
 5952TIP3   OH217861   3.554   2.664   0.990
 5952TIP3    H117862   3.502   2.744   0.978
 5952TIP3    H217863   3.488   2.595   0.998
 5953TIP3   OH217864   2.369   3.587   4.395
 5953TIP3    H117865   2.283   3.550   4.417
 5953TIP3    H217866   2.411   3.601   4.480
 5954TIP3   OH217867   1.845   2.788   1.090
 5954TIP3    H117868   1.795   2.806   1.170
 5954TIP3    H217869   1.828   2.862   1.033
 5955TIP3   OH217870   3.963   2.278   0.192
 5955TIP3    H117871   3.975   2.248   0.102
 5955TIP3    H217872   3.872   2.308   0.195
 5956TIP3   OH217873   2.235   0.482   4.875
 5956TIP3    H117874   2.150   0.493   4.832
 5956TIP3    H217875   2.296   0.532   4.820
 5957TIP3   OH217876   2.470   1.915   3.541
 5957TIP3    H117877   2.561   1.906   3.513
 5957TIP3    H217878   2.438   1.825   3.548
 5958TIP3   OH217879   5.720   4.733   4.337
 5958TIP3    H117880   5.671   4.698   4.412
 5958TIP3    H217881   5.761   4.813   4.370
 5959TIP3   OH217882   3.573   2.864   1.722
 5959TIP3    H117883   3.513   2.873   1.796
 5959TIP3    H217884   3.527   2.807   1.661
 5960TIP3   OH217885   4.809   1.787   1.411
 5960TIP3    H117886   4.858   1.801   1.492
 5960TIP3    H217887   4.875   1.763   1.346
 5961TIP3   OH217888   2.068   1.390   1.999
 5961TIP3    H117889   2.162   1.380   1.986
 5961TIP3    H217890   2.049   1.480   1.974
 5962TIP3   OH217891   4.500   4.227   2.849
 5962TIP3    H117892   4.568   4.294   2.836
 5962TIP3    H217893   4.545   4.144   2.833
 5963TIP3   OH217894   3.166   0.262   0.383
 5963TIP3    H117895   3.249   0.217   0.368
 5963TIP3    H217896   3.114   0.201   0.434
 5964TIP3   OH217897   4.422   3.341   1.899
 5964TIP3    H117898   4.420   3.400   1.975
 5964TIP3    H217899   4.439   3.399   1.824
 5965TIP3   OH217900   4.099   3.512   1.037
 5965TIP3    H117901   4.122   3.420   1.049
 5965TIP3    H217902   4.150   3.540   0.961
 5966TIP3   OH217903   3.704   5.462   3.581
 5966TIP3    H117904   3.764   5.414   3.638
 5966TIP3    H217905   3.675   5.536   3.634
 5967TIP3   OH217906   2.596   4.372   5.214
 5967TIP3    H117907   2.643   4.434   5.158
 5967TIP3    H217908   2.624   4.286   5.184
 5968TIP3   OH217909   2.603   0.509   2.892
 5968TIP3    H117910   2.698   0.514   2.905
 5968TIP3    H217911   2.566   0.545   2.972
 5969TIP3   OH217912   5.232   2.737   4.367
 5969TIP3    H117913   5.192   2.759   4.451
 5969TIP3    H217914   5.165   2.757   4.302
 5970TIP3   OH217915   2.576   5.160   0.423
 5970TIP3    H117916   2.642   5.224   0.450
 5970TIP3    H217917   2.622   5.076   0.425
 5971TIP3   OH217918   6.026   0.671   0.941
 5971TIP3    H117919   6.038   0.584   0.901
 5971TIP3    H217920   5.938   0.669   0.976
 5972TIP3   OH217921   3.996   0.919   2.207
 5972TIP3    H117922   4.013   1.005   2.168
 5972TIP3    H217923   3.921   0.933   2.264
 5973TIP3   OH217924   0.588   3.160   0.715
 5973TIP3    H117925   0.539   3.170   0.797
 5973TIP3    H217926   0.628   3.073   0.722
 5974TIP3   OH217927   1.269   3.907   4.805
 5974TIP3    H117928   1.242   3.950   4.724
 5974TIP3    H217929   1.192   3.857   4.832
 5975TIP3   OH217930   5.286   2.742   2.855
 5975TIP3    H117931   5.274   2.649   2.833
 5975TIP3    H217932   5.239   2.753   2.938
 5976TIP3   OH217933   1.414   3.959   1.880
 5976TIP3    H117934   1.417   4.047   1.918
 5976TIP3    H217935   1.392   3.974   1.788
 5977TIP3   OH217936   2.318   3.989   1.106
 5977TIP3    H117937   2.402   4.005   1.063
 5977TIP3    H217938   2.283   4.077   1.123
 5978TIP3   OH217939   1.484   2.380   2.708
 5978TIP3    H117940   1.440   2.300   2.737
 5978TIP3    H217941   1.542   2.403   2.781
 5979TIP3   OH217942   6.326   1.479   4.755
 5979TIP3    H117943   6.358   1.556   4.708
 5979TIP3    H217944   6.256   1.513   4.811
 5980TIP3   OH217945   1.364   2.280   3.577
 5980TIP3    H117946   1.455   2.255   3.558
 5980TIP3    H217947   1.371   2.347   3.644
 5981TIP3   OH217948   5.730   4.207   0.518
 5981TIP3    H117949   5.761   4.287   0.475
 5981TIP3    H217950   5.795   4.140   0.495
 5982TIP3   OH217951   3.729   5.293   1.633
 5982TIP3    H117952   3.808   5.335   1.668
 5982TIP3    H217953   3.681   5.365   1.591
 5983TIP3   OH217954   6.314   5.844   4.778
 5983TIP3    H117955   6.331   5.878   4.865
 5983TIP3    H217956   6.377   5.773   4.767
 5984TIP3   OH217957   0.132   2.824   2.198
 5984TIP3    H117958   0.100   2.902   2.244
 5984TIP3    H217959   0.169   2.858   2.116
 5985TIP3   OH217960   3.143   4.245   2.171
 5985TIP3    H117961   3.222   4.191   2.176
 5985TIP3    H217962   3.133   4.263   2.077
 5986TIP3   OH217963   3.081   1.873   5.114
 5986TIP3    H117964   3.170   1.897   5.142
 5986TIP3    H217965   3.094   1.797   5.058
 5987TIP3   OH217966   0.937   1.905   3.036
 5987TIP3    H117967   1.013   1.861   3.075
 5987TIP3    H217968   0.974   1.981   2.991
 5988TIP3   OH217969   3.795   2.687   1.831
 5988TIP3    H117970   3.833   2.685   1.744
 5988TIP3    H217971   3.864   2.653   1.889
 5989TIP3   OH217972   0.883   6.002   1.517
 5989TIP3    H117973   0.795   6.036   1.500
 5989TIP3    H217974   0.881   5.976   1.609
 5990TIP3   OH217975   4.669   0.738   3.163
 5990TIP3    H117976   4.582   0.777   3.168
 5990TIP3    H217977   4.683   0.724   3.069
 5991TIP3   OH217978   3.801   5.564   2.734
 5991TIP3    H117979   3.859   5.488   2.740
 5991TIP3    H217980   3.714   5.530   2.757
 5992TIP3   OH217981   0.941   3.669   3.618
 5992TIP3    H117982   0.929   3.704   3.706
 5992TIP3    H217983   0.988   3.587   3.631
 5993TIP3   OH217984   5.792   5.589   1.208
 5993TIP3    H117985   5.830   5.674   1.232
 5993TIP3    H217986   5.860   5.526   1.231
 5994TIP3   OH217987   2.248   0.893   3.046
 5994TIP3    H117988   2.249   0.886   2.950
 5994TIP3    H217989   2.279   0.982   3.064
 5995TIP3   OH217990   5.508   4.556   2.249
 5995TIP3    H117991   5.575   4.562   2.317
 5995TIP3    H217992   5.550   4.509   2.177
 5996TIP3   OH217993   1.348   0.189   1.224
 5996TIP3    H117994   1.316   0.279   1.232
 5996TIP3    H217995   1.297   0.151   1.152
 5997TIP3   OH217996   3.236   1.290   4.278
 5997TIP3    H117997   3.203   1.208   4.240
 5997TIP3    H217998   3.204   1.290   4.368
 5998TIP3   OH217999   6.137   5.151   5.134
 5998TIP3    H118000   6.124   5.181   5.044
 5998TIP3    H218001   6.094   5.065   5.138
 5999TIP3   OH218002   3.544   1.624   4.423
 5999TIP3    H118003   3.449   1.612   4.423
 5999TIP3    H218004   3.575   1.565   4.355
 6000TIP3   OH218005   2.540   1.062   1.123
 6000TIP3    H118006   2.523   1.155   1.108
 6000TIP3    H218007   2.616   1.043   1.067
 6001TIP3   OH218008   4.681   2.213   2.634
 6001TIP3    H118009   4.746   2.154   2.671
 6001TIP3    H218010   4.703   2.218   2.541
 6002TIP3   OH218011  -0.002   4.017   0.736
 6002TIP3    H118012   0.092   4.028   0.726
 6002TIP3    H218013  -0.011   3.946   0.800
 6003TIP3   OH218014   4.621   3.423   3.373
 6003TIP3    H118015   4.557   3.489   3.398
 6003TIP3    H218016   4.583   3.340   3.400
 6004TIP3   OH218017   3.473   5.973   1.603
 6004TIP3    H118018   3.492   5.890   1.645
 6004TIP3    H218019   3.475   6.037   1.675
 6005TIP3   OH218020   3.915   1.862   0.300
 6005TIP3    H118021   3.908   1.892   0.390
 6005TIP3    H218022   3.874   1.775   0.300
 6006TIP3   OH218023   2.234   1.351   0.669
 6006TIP3    H118024   2.177   1.398   0.607
 6006TIP3    H218025   2.308   1.323   0.615
 6007TIP3   OH218026   3.183   4.978   0.773
 6007TIP3    H118027   3.224   4.958   0.857
 6007TIP3    H218028   3.148   4.894   0.744
 6008TIP3   OH218029   0.235   1.234   0.654
 6008TIP3    H118030   0.291   1.158   0.670
 6008TIP3    H218031   0.172   1.233   0.726
 6009TIP3   OH218032   3.211   1.236   0.942
 6009TIP3    H118033   3.223   1.179   0.866
 6009TIP3    H218034   3.128   1.281   0.926
 6010TIP3   OH218035   4.062   2.043   2.041
 6010TIP3    H118036   4.124   2.086   1.983
 6010TIP3    H218037   4.051   2.104   2.114
 6011TIP3   OH218038   2.266   4.658   1.660
 6011TIP3    H118039   2.231   4.570   1.675
 6011TIP3    H218040   2.341   4.664   1.719
 6012TIP3   OH218041   0.689   3.243   4.720
 6012TIP3    H118042   0.619   3.188   4.685
 6012TIP3    H218043   0.758   3.180   4.744
 6013TIP3   OH218044   1.616   4.000   2.677
 6013TIP3    H118045   1.547   4.018   2.613
 6013TIP3    H218046   1.697   4.009   2.627
 6014TIP3   OH218047   1.276   5.265   0.866
 6014TIP3    H118048   1.369   5.261   0.887
 6014TIP3    H218049   1.234   5.213   0.935
 6015TIP3   OH218050   2.896   1.052   0.040
 6015TIP3    H118051   2.949   0.974   0.028
 6015TIP3    H218052   2.960   1.124   0.041
 6016TIP3   OH218053   5.401   1.381   1.739
 6016TIP3    H118054   5.330   1.324   1.769
 6016TIP3    H218055   5.380   1.400   1.648
 6017TIP3   OH218056   3.940   3.846   4.905
 6017TIP3    H118057   3.990   3.927   4.916
 6017TIP3    H218058   3.916   3.846   4.812
 6018TIP3   OH218059   3.509   2.596   1.878
 6018TIP3    H118060   3.542   2.508   1.860
 6018TIP3    H218061   3.575   2.654   1.840
 6019TIP3   OH218062   4.811   0.715   5.136
 6019TIP3    H118063   4.734   0.711   5.193
 6019TIP3    H218064   4.883   0.737   5.195
 6020TIP3   OH218065   3.364   1.967   4.709
 6020TIP3    H118066   3.427   1.895   4.711
 6020TIP3    H218067   3.300   1.940   4.643
 6021TIP3   OH218068   4.174   2.662   1.670
 6021TIP3    H118069   4.195   2.751   1.699
 6021TIP3    H218070   4.079   2.657   1.673
 6022TIP3   OH218071   0.846   1.286   0.565
 6022TIP3    H118072   0.795   1.338   0.502
 6022TIP3    H218073   0.917   1.344   0.591
 6023TIP3   OH218074   3.143   2.884   4.438
 6023TIP3    H118075   3.234   2.871   4.464
 6023TIP3    H218076   3.116   2.799   4.403
 6024TIP3   OH218077   0.203   0.324   0.837
 6024TIP3    H118078   0.120   0.363   0.863
 6024TIP3    H218079   0.269   0.388   0.865
 6025TIP3   OH218080   1.364   3.160   3.226
 6025TIP3    H118081   1.436   3.114   3.184
 6025TIP3    H218082   1.295   3.094   3.236
 6026TIP3   OH218083   4.462   4.041   1.191
 6026TIP3    H118084   4.540   4.096   1.192
 6026TIP3    H218085   4.419   4.062   1.108
 6027TIP3   OH218086   2.853   3.079   2.805
 6027TIP3    H118087   2.925   3.140   2.785
 6027TIP3    H218088   2.788   3.096   2.737
 6028TIP3   OH218089   0.339   4.016   1.941
 6028TIP3    H118090   0.364   3.924   1.943
 6028TIP3    H218091   0.384   4.054   2.017
 6029TIP3   OH218092   1.917   5.682   0.655
 6029TIP3    H118093   1.973   5.746   0.698
 6029TIP3    H218094   1.925   5.702   0.561
 6030TIP3   OH218095   1.805   4.630   0.712
 6030TIP3    H118096   1.866   4.587   0.772
 6030TIP3    H218097   1.730   4.571   0.708
 6031TIP3   OH218098   4.444   4.105   4.680
 6031TIP3    H118099   4.483   4.192   4.692
 6031TIP3    H218100   4.449   4.064   4.766
 6032TIP3   OH218101   3.518   3.666   4.688
 6032TIP3    H118102   3.482   3.579   4.704
 6032TIP3    H218103   3.521   3.707   4.774
 6033TIP3   OH218104   5.895   1.031   3.466
 6033TIP3    H118105   5.851   1.103   3.510
 6033TIP3    H218106   5.975   1.016   3.518
 6034TIP3   OH218107   4.078   5.562   4.193
 6034TIP3    H118108   3.994   5.595   4.225
 6034TIP3    H218109   4.056   5.490   4.135
 6035TIP3   OH218110   3.560   2.094   4.567
 6035TIP3    H118111   3.501   2.088   4.642
 6035TIP3    H218112   3.595   2.005   4.557
 6036TIP3   OH218113   2.896   1.984   3.535
 6036TIP3    H118114   2.866   2.068   3.568
 6036TIP3    H218115   2.988   1.999   3.513
 6037TIP3   OH218116   2.591   1.448   3.807
 6037TIP3    H118117   2.512   1.502   3.809
 6037TIP3    H218118   2.622   1.449   3.898
 6038TIP3   OH218119   0.530   2.599   1.984
 6038TIP3    H118120   0.454   2.619   2.039
 6038TIP3    H218121   0.492   2.566   1.902
 6039TIP3   OH218122   4.609   0.288   3.661
 6039TIP3    H118123   4.672   0.283   3.733
 6039TIP3    H218124   4.559   0.206   3.668
 6040TIP3   OH218125   4.190   5.950   2.309
 6040TIP3    H118126   4.274   5.917   2.341
 6040TIP3    H218127   4.207   5.971   2.217
 6041TIP3   OH218128   5.501   2.329   0.050
 6041TIP3    H118129   5.519   2.324   0.144
 6041TIP3    H218130   5.430   2.267   0.035
 6042TIP3   OH218131   1.368   3.904   0.798
 6042TIP3    H118132   1.394   3.813   0.807
 6042TIP3    H218133   1.277   3.907   0.826
 6043TIP3   OH218134   4.404   3.525   2.118
 6043TIP3    H118135   4.399   3.614   2.154
 6043TIP3    H218136   4.495   3.499   2.130
 6044TIP3   OH218137   2.140   1.707   0.754
 6044TIP3    H118138   2.204   1.715   0.825
 6044TIP3    H218139   2.089   1.629   0.775
 6045TIP3   OH218140   2.244   3.970   0.560
 6045TIP3    H118141   2.327   3.974   0.606
 6045TIP3    H218142   2.264   4.000   0.471
 6046TIP3   OH218143   1.220   4.556   4.661
 6046TIP3    H118144   1.313   4.555   4.638
 6046TIP3    H218145   1.216   4.605   4.743
 6047TIP3   OH218146   3.893   2.421   3.680
 6047TIP3    H118147   3.843   2.350   3.640
 6047TIP3    H218148   3.984   2.402   3.658
 6048TIP3   OH218149   0.017   4.877   2.018
 6048TIP3    H118150   0.048   4.967   2.009
 6048TIP3    H218151   0.081   4.836   2.076
 6049TIP3   OH218152   0.342   3.590   2.885
 6049TIP3    H118153   0.349   3.513   2.830
 6049TIP3    H218154   0.418   3.644   2.862
 6050TIP3   OH218155   0.841   2.389   2.389
 6050TIP3    H118156   0.756   2.421   2.359
 6050TIP3    H218157   0.836   2.393   2.484
 6051TIP3   OH218158   3.316   0.773   3.160
 6051TIP3    H118159   3.253   0.844   3.147
 6051TIP3    H218160   3.346   0.782   3.250
 6052TIP3   OH218161   1.699   3.168   1.945
 6052TIP3    H118162   1.679   3.217   1.866
 6052TIP3    H218163   1.751   3.094   1.915
 6053TIP3   OH218164   2.599   0.325   0.837
 6053TIP3    H118165   2.504   0.336   0.826
 6053TIP3    H218166   2.616   0.235   0.808
 6054TIP3   OH218167   2.220   3.845   2.652
 6054TIP3    H118168   2.184   3.763   2.686
 6054TIP3    H218169   2.278   3.876   2.722
 6055TIP3   OH218170   4.215   0.772   4.531
 6055TIP3    H118171   4.242   0.864   4.539
 6055TIP3    H218172   4.123   0.772   4.557
 6056TIP3   OH218173   0.409   0.361   1.956
 6056TIP3    H118174   0.408   0.309   1.875
 6056TIP3    H218175   0.499   0.354   1.988
 6057TIP3   OH218176   6.113   5.482   2.064
 6057TIP3    H118177   6.124   5.440   1.978
 6057TIP3    H218178   6.161   5.426   2.125
 6058TIP3   OH218179   2.685   4.116   4.410
 6058TIP3    H118180   2.714   4.177   4.479
 6058TIP3    H218181   2.758   4.057   4.398
 6059TIP3   OH218182   4.910   4.868   3.975
 6059TIP3    H118183   4.967   4.892   4.049
 6059TIP3    H218184   4.862   4.948   3.955
 6060TIP3   OH218185   3.388   0.919   3.671
 6060TIP3    H118186   3.352   0.991   3.619
 6060TIP3    H218187   3.317   0.856   3.678
 6061TIP3   OH218188   2.280   4.740   2.121
 6061TIP3    H118189   2.275   4.709   2.212
 6061TIP3    H218190   2.330   4.673   2.075
 6062TIP3   OH218191   4.250   4.331   1.683
 6062TIP3    H118192   4.240   4.236   1.686
 6062TIP3    H218193   4.344   4.346   1.672
 6063TIP3   OH218194   4.906   3.036   2.194
 6063TIP3    H118195   4.904   2.961   2.254
 6063TIP3    H218196   4.950   3.002   2.116
 6064TIP3   OH218197   2.571   2.161   0.690
 6064TIP3    H118198   2.645   2.208   0.729
 6064TIP3    H218199   2.507   2.229   0.670
 6065TIP3   OH218200   1.692   3.216   1.418
 6065TIP3    H118201   1.635   3.273   1.366
 6065TIP3    H218202   1.666   3.127   1.394
 6066TIP3   OH218203   1.181   1.578   2.351
 6066TIP3    H118204   1.218   1.663   2.376
 6066TIP3    H218205   1.176   1.529   2.433
 6067TIP3   OH218206   1.744   5.831   1.797
 6067TIP3    H118207   1.722   5.744   1.831
 6067TIP3    H218208   1.686   5.843   1.723
 6068TIP3   OH218209   4.508   4.987   2.535
 6068TIP3    H118210   4.471   4.923   2.596
 6068TIP3    H218211   4.584   4.943   2.497
 6069TIP3   OH218212   4.655   2.776   4.242
 6069TIP3    H118213   4.654   2.700   4.300
 6069TIP3    H218214   4.605   2.749   4.165
 6070TIP3   OH218215   1.481   1.186   0.781
 6070TIP3    H118216   1.492   1.116   0.845
 6070TIP3    H218217   1.391   1.176   0.750
 6071TIP3   OH218218   2.024   1.952   4.503
 6071TIP3    H118219   1.931   1.964   4.521
 6071TIP3    H218220   2.067   1.968   4.588
 6072TIP3   OH218221   0.523   2.792   3.952
 6072TIP3    H118222   0.481   2.791   3.866
 6072TIP3    H218223   0.542   2.885   3.969
 6073TIP3   OH218224   3.190   5.346   2.334
 6073TIP3    H118225   3.147   5.366   2.250
 6073TIP3    H218226   3.139   5.272   2.369
 6074TIP3   OH218227   1.001   3.958   1.781
 6074TIP3    H118228   0.979   4.051   1.783
 6074TIP3    H218229   0.957   3.921   1.857
 6075TIP3   OH218230   2.482   3.054   3.776
 6075TIP3    H118231   2.388   3.041   3.763
 6075TIP3    H218232   2.519   2.966   3.773
 6076TIP3   OH218233   0.445   2.806   2.305
 6076TIP3    H118234   0.380   2.813   2.375
 6076TIP3    H218235   0.421   2.726   2.258
 6077TIP3   OH218236   5.326   0.330   0.898
 6077TIP3    H118237   5.382   0.265   0.856
 6077TIP3    H218238   5.336   0.314   0.992
 6078TIP3   OH218239   0.933   4.644   1.982
 6078TIP3    H118240   0.900   4.734   1.970
 6078TIP3    H218241   1.027   4.655   1.998
 6079TIP3   OH218242   0.060   4.566   2.752
 6079TIP3    H118243   0.070   4.586   2.845
 6079TIP3    H218244   0.107   4.484   2.740
 6080TIP3   OH218245   5.342   4.116   2.240
 6080TIP3    H118246   5.412   4.118   2.175
 6080TIP3    H218247   5.385   4.139   2.322
 6081TIP3   OH218248   1.225   2.459   0.740
 6081TIP3    H118249   1.225   2.395   0.811
 6081TIP3    H218250   1.133   2.483   0.730
 6082TIP3   OH218251   5.516   5.812   3.551
 6082TIP3    H118252   5.500   5.868   3.474
 6082TIP3    H218253   5.429   5.801   3.590
 6083TIP3   OH218254   1.245   0.713   4.045
 6083TIP3    H118255   1.182   0.782   4.020
 6083TIP3    H218256   1.215   0.683   4.130
 6084TIP3   OH218257   1.505   1.419   3.735
 6084TIP3    H118258   1.567   1.422   3.663
 6084TIP3    H218259   1.550   1.371   3.805
 6085TIP3   OH218260   2.774   4.352   2.758
 6085TIP3    H118261   2.843   4.418   2.753
 6085TIP3    H218262   2.734   4.352   2.671
 6086TIP3   OH218263   3.723   2.753   4.771
 6086TIP3    H118264   3.766   2.823   4.722
 6086TIP3    H218265   3.629   2.774   4.764
 6087TIP3   OH218266   1.920   3.723   1.420
 6087TIP3    H118267   1.997   3.685   1.377
 6087TIP3    H218268   1.902   3.665   1.493
 6088TIP3   OH218269   0.536   5.810   1.736
 6088TIP3    H118270   0.498   5.892   1.769
 6088TIP3    H218271   0.536   5.821   1.641
 6089TIP3   OH218272   0.293   5.145   4.720
 6089TIP3    H118273   0.348   5.097   4.782
 6089TIP3    H218274   0.304   5.099   4.637
 6090TIP3   OH218275   1.763   2.857   4.322
 6090TIP3    H118276   1.681   2.888   4.359
 6090TIP3    H218277   1.810   2.818   4.396
 6091TIP3   OH218278   0.302   2.165   0.365
 6091TIP3    H118279   0.276   2.130   0.280
 6091TIP3    H218280   0.367   2.233   0.344
 6092TIP3   OH218281   2.997   0.846   3.489
 6092TIP3    H118282   2.905   0.839   3.464
 6092TIP3    H218283   3.042   0.781   3.435
 6093TIP3   OH218284   2.529   5.468   1.047
 6093TIP3    H118285   2.576   5.396   1.089
 6093TIP3    H218286   2.444   5.431   1.023
 6094TIP3   OH218287   3.092   1.699   1.167
 6094TIP3    H118288   3.044   1.702   1.250
 6094TIP3    H218289   3.129   1.786   1.157
 6095TIP3   OH218290   1.388   0.536   3.071
 6095TIP3    H118291   1.342   0.486   3.138
 6095TIP3    H218292   1.354   0.625   3.079
 6096TIP3   OH218293   4.131   3.950   0.846
 6096TIP3    H118294   4.038   3.942   0.828
 6096TIP3    H218295   4.173   3.913   0.768
 6097TIP3   OH218296   3.887   5.692   5.054
 6097TIP3    H118297   3.872   5.719   5.144
 6097TIP3    H218298   3.857   5.601   5.051
 6098TIP3   OH218299   5.162   0.178   0.491
 6098TIP3    H118300   5.134   0.170   0.583
 6098TIP3    H218301   5.252   0.209   0.496
 6099TIP3   OH218302   4.474   3.924   4.080
 6099TIP3    H118303   4.390   3.879   4.084
 6099TIP3    H218304   4.466   3.983   4.004
 6100TIP3   OH218305   3.842   1.191   1.845
 6100TIP3    H118306   3.849   1.285   1.859
 6100TIP3    H218307   3.847   1.153   1.933
 6101TIP3   OH218308   6.188   5.318   3.021
 6101TIP3    H118309   6.179   5.324   2.926
 6101TIP3    H218310   6.258   5.380   3.042
 6102TIP3   OH218311   4.076   2.345   2.432
 6102TIP3    H118312   4.120   2.406   2.492
 6102TIP3    H218313   4.106   2.258   2.461
 6103TIP3   OH218314   4.910   3.813   0.028
 6103TIP3    H118315   4.857   3.740   0.059
 6103TIP3    H218316   4.905   3.807  -0.067
 6104TIP3   OH218317   4.570   5.480   4.698
 6104TIP3    H118318   4.618   5.485   4.781
 6104TIP3    H218319   4.594   5.561   4.653
 6105TIP3   OH218320   5.986   0.352   3.968
 6105TIP3    H118321   6.014   0.430   3.921
 6105TIP3    H218322   5.913   0.381   4.023
 6106TIP3   OH218323   3.553   3.078   3.027
 6106TIP3    H118324   3.483   3.115   2.973
 6106TIP3    H218325   3.622   3.054   2.965
 6107TIP3   OH218326   4.317   1.885   3.249
 6107TIP3    H118327   4.308   1.940   3.327
 6107TIP3    H218328   4.243   1.909   3.194
 6108TIP3   OH218329   2.010   2.669   4.497
 6108TIP3    H118330   1.980   2.741   4.553
 6108TIP3    H218331   2.081   2.708   4.446
 6109TIP3   OH218332   1.199   0.398   2.517
 6109TIP3    H118333   1.135   0.414   2.585
 6109TIP3    H218334   1.209   0.303   2.514
 6110TIP3   OH218335   2.725   1.045   4.321
 6110TIP3    H118336   2.778   1.106   4.371
 6110TIP3    H218337   2.747   1.063   4.230
 6111TIP3   OH218338   0.706   0.753   2.321
 6111TIP3    H118339   0.688   0.667   2.283
 6111TIP3    H218340   0.776   0.738   2.384
 6112TIP3   OH218341   4.559   5.556   3.253
 6112TIP3    H118342   4.519   5.561   3.340
 6112TIP3    H218343   4.610   5.637   3.245
 6113TIP3   OH218344   4.790   5.660   3.638
 6113TIP3    H118345   4.701   5.674   3.605
 6113TIP3    H218346   4.847   5.693   3.568
 6114TIP3   OH218347   5.102   3.781   0.255
 6114TIP3    H118348   5.024   3.735   0.225
 6114TIP3    H218349   5.174   3.742   0.205
 6115TIP3   OH218350   1.041   1.346   3.754
 6115TIP3    H118351   1.023   1.440   3.761
 6115TIP3    H218352   0.970   1.312   3.699
 6116TIP3   OH218353   6.256   5.647   2.874
 6116TIP3    H118354   6.206   5.637   2.793
 6116TIP3    H218355   6.215   5.721   2.919
 6117TIP3   OH218356   6.184   2.631   3.730
 6117TIP3    H118357   6.123   2.646   3.802
 6117TIP3    H218358   6.173   2.706   3.673
 6118TIP3   OH218359   2.742   4.140   0.723
 6118TIP3    H118360   2.784   4.171   0.803
 6118TIP3    H218361   2.811   4.093   0.676
 6119TIP3   OH218362   5.183   1.047   2.728
 6119TIP3    H118363   5.244   1.121   2.733
 6119TIP3    H218364   5.239   0.969   2.733
 6120TIP3   OH218365   3.986   0.170   2.248
 6120TIP3    H118366   4.016   0.257   2.276
 6120TIP3    H218367   4.065   0.126   2.218
 6121TIP3   OH218368   3.154   2.621   2.074
 6121TIP3    H118369   3.091   2.682   2.114
 6121TIP3    H218370   3.233   2.629   2.127
 6122TIP3   OH218371   5.487   3.248   1.040
 6122TIP3    H118372   5.421   3.178   1.044
 6122TIP3    H218373   5.436   3.328   1.026
 6123TIP3   OH218374   1.323   2.114   4.299
 6123TIP3    H118375   1.337   2.171   4.224
 6123TIP3    H218376   1.380   2.149   4.367
 6124TIP3   OH218377   2.658   1.914   0.846
 6124TIP3    H118378   2.723   1.877   0.786
 6124TIP3    H218379   2.630   1.995   0.804
 6125TIP3   OH218380   3.561   1.324   3.859
 6125TIP3    H118381   3.468   1.341   3.841
 6125TIP3    H218382   3.562   1.276   3.941
 6126TIP3   OH218383   1.195   2.673  -0.009
 6126TIP3    H118384   1.132   2.612  -0.047
 6126TIP3    H218385   1.267   2.617   0.021
 6127TIP3   OH218386   3.865   0.088   3.095
 6127TIP3    H118387   3.930   0.121   3.157
 6127TIP3    H218388   3.857  -0.005   3.116
 6128TIP3   OH218389   2.406   5.526   2.985
 6128TIP3    H118390   2.440   5.439   3.005
 6128TIP3    H218391   2.411   5.532   2.889
 6129TIP3   OH218392   5.763   4.004   3.400
 6129TIP3    H118393   5.793   4.026   3.311
 6129TIP3    H218394   5.836   3.957   3.439
 6130TIP3   OH218395   1.421   4.553   2.327
 6130TIP3    H118396   1.516   4.562   2.320
 6130TIP3    H218397   1.397   4.616   2.395
 6131TIP3   OH218398   1.920   2.051   2.848
 6131TIP3    H118399   1.964   1.980   2.895
 6131TIP3    H218400   1.838   2.063   2.896
 6132TIP3   OH218401   4.360   0.919   1.892
 6132TIP3    H118402   4.395   0.910   1.804
 6132TIP3    H218403   4.271   0.954   1.879
 6133TIP3   OH218404   4.012   4.824   0.929
 6133TIP3    H118405   3.960   4.750   0.897
 6133TIP3    H218406   4.049   4.793   1.011
 6134TIP3   OH218407   1.752   5.364   0.355
 6134TIP3    H118408   1.760   5.270   0.341
 6134TIP3    H218409   1.837   5.400   0.332
 6135TIP3   OH218410   1.209   1.715   1.454
 6135TIP3    H118411   1.251   1.636   1.487
 6135TIP3    H218412   1.224   1.780   1.523
 6136TIP3   OH218413   6.153   0.862   3.021
 6136TIP3    H118414   6.100   0.812   3.083
 6136TIP3    H218415   6.240   0.865   3.060
 6137TIP3   OH218416   4.536   0.979   0.031
 6137TIP3    H118417   4.611   0.927   0.062
 6137TIP3    H218418   4.568   1.024  -0.047
 6138TIP3   OH218419   3.359   4.563   2.663
 6138TIP3    H118420   3.400   4.560   2.577
 6138TIP3    H218421   3.275   4.606   2.648
 6139TIP3   OH218422   0.191   1.809   1.437
 6139TIP3    H118423   0.201   1.726   1.392
 6139TIP3    H218424   0.181   1.874   1.367
 6140TIP3   OH218425   6.245   5.110   4.257
 6140TIP3    H118426   6.308   5.152   4.199
 6140TIP3    H218427   6.189   5.182   4.288
 6141TIP3   OH218428   4.335   0.924   1.252
 6141TIP3    H118429   4.427   0.952   1.249
 6141TIP3    H218430   4.332   0.861   1.324
 6142TIP3   OH218431   0.041   1.971   2.612
 6142TIP3    H118432   0.079   1.981   2.700
 6142TIP3    H218433  -0.005   1.888   2.616
 6143TIP3   OH218434   2.233   4.403   4.376
 6143TIP3    H118435   2.216   4.447   4.459
 6143TIP3    H218436   2.269   4.318   4.401
 6144TIP3   OH218437   5.707   1.791   2.162
 6144TIP3    H118438   5.612   1.796   2.158
 6144TIP3    H218439   5.735   1.881   2.178
 6145TIP3   OH218440   5.400   1.204   2.726
 6145TIP3    H118441   5.466   1.223   2.792
 6145TIP3    H218442   5.449   1.188   2.646
 6146TIP3   OH218443   5.496   5.928   1.037
 6146TIP3    H118444   5.518   5.857   1.097
 6146TIP3    H218445   5.564   5.924   0.970
 6147TIP3   OH218446   4.531   1.214   3.673
 6147TIP3    H118447   4.564   1.300   3.647
 6147TIP3    H218448   4.436   1.224   3.670
 6148TIP3   OH218449   0.493   4.249   4.478
 6148TIP3    H118450   0.502   4.220   4.388
 6148TIP3    H218451   0.447   4.333   4.472
 6149TIP3   OH218452   3.222   5.876   1.232
 6149TIP3    H118453   3.225   5.913   1.320
 6149TIP3    H218454   3.313   5.882   1.200
 6150TIP3   OH218455   0.608   5.602   1.088
 6150TIP3    H118456   0.596   5.599   1.183
 6150TIP3    H218457   0.674   5.536   1.070
 6151TIP3   OH218458   0.008   2.615   2.389
 6151TIP3    H118459   0.017   2.548   2.457
 6151TIP3    H218460   0.056   2.579   2.314
 6152TIP3   OH218461   1.375   3.210   4.991
 6152TIP3    H118462   1.454   3.262   5.004
 6152TIP3    H218463   1.328   3.217   5.074
 6153TIP3   OH218464   4.587   1.508   3.992
 6153TIP3    H118465   4.613   1.567   3.921
 6153TIP3    H218466   4.566   1.567   4.065
 6154TIP3   OH218467   1.463   1.291   2.543
 6154TIP3    H118468   1.393   1.351   2.567
 6154TIP3    H218469   1.442   1.209   2.587
 6155TIP3   OH218470   3.594   4.055   1.411
 6155TIP3    H118471   3.618   3.969   1.446
 6155TIP3    H218472   3.666   4.079   1.353
 6156TIP3   OH218473   1.291   3.844   3.586
 6156TIP3    H118474   1.357   3.876   3.524
 6156TIP3    H218475   1.285   3.750   3.567
 6157TIP3   OH218476   1.845   4.563   1.768
 6157TIP3    H118477   1.808   4.627   1.707
 6157TIP3    H218478   1.869   4.489   1.712
 6158TIP3   OH218479   0.277   5.306   0.930
 6158TIP3    H118480   0.365   5.284   0.900
 6158TIP3    H218481   0.278   5.288   1.023
 6159TIP3   OH218482   4.997   1.500   3.340
 6159TIP3    H118483   4.923   1.475   3.395
 6159TIP3    H218484   5.074   1.466   3.386
 6160TIP3   OH218485   2.939   5.569   2.282
 6160TIP3    H118486   2.923   5.604   2.369
 6160TIP3    H218487   2.852   5.542   2.251
 6161TIP3   OH218488   1.872   0.340   1.975
 6161TIP3    H118489   1.820   0.403   1.926
 6161TIP3    H218490   1.808   0.277   2.010
 6162TIP3   OH218491   0.889   4.951   3.252
 6162TIP3    H118492   0.943   4.873   3.259
 6162TIP3    H218493   0.883   4.968   3.157
 6163TIP3   OH218494   4.633   2.300   1.392
 6163TIP3    H118495   4.602   2.293   1.483
 6163TIP3    H218496   4.698   2.231   1.383
 6164TIP3   OH218497   0.527   5.546   1.856
 6164TIP3    H118498   0.452   5.509   1.810
 6164TIP3    H218499   0.541   5.632   1.816
 6165TIP3   OH218500   1.281   3.718   3.879
 6165TIP3    H118501   1.252   3.759   3.961
 6165TIP3    H218502   1.301   3.791   3.821
 6166TIP3   OH218503   5.122   5.443   0.867
 6166TIP3    H118504   5.042   5.391   0.855
 6166TIP3    H218505   5.102   5.527   0.826
 6167TIP3   OH218506   3.095   3.242   3.991
 6167TIP3    H118507   3.042   3.321   3.977
 6167TIP3    H218508   3.044   3.172   3.950
 6168TIP3   OH218509   6.258   5.096   3.224
 6168TIP3    H118510   6.284   5.106   3.315
 6168TIP3    H218511   6.256   5.002   3.209
 6169TIP3   OH218512   2.975   2.414   4.930
 6169TIP3    H118513   3.010   2.331   4.965
 6169TIP3    H218514   2.881   2.398   4.922
 6170TIP3   OH218515   6.178   0.509   3.083
 6170TIP3    H118516   6.263   0.551   3.095
 6170TIP3    H218517   6.151   0.535   2.995
 6171TIP3   OH218518   3.080   1.373   4.846
 6171TIP3    H118519   3.069   1.420   4.763
 6171TIP3    H218520   2.993   1.375   4.886
 6172TIP3   OH218521   3.978   5.323   4.076
 6172TIP3    H118522   4.025   5.288   4.001
 6172TIP3    H218523   3.886   5.318   4.051
 6173TIP3   OH218524   5.280   0.069   2.573
 6173TIP3    H118525   5.256   0.139   2.513
 6173TIP3    H218526   5.197   0.046   2.617
 6174TIP3   OH218527   1.857   1.146   0.263
 6174TIP3    H118528   1.790   1.165   0.197
 6174TIP3    H218529   1.939   1.147   0.214
 6175TIP3   OH218530   4.457   1.793   0.719
 6175TIP3    H118531   4.483   1.875   0.675
 6175TIP3    H218532   4.487   1.804   0.809
 6176TIP3   OH218533   3.931   1.268   4.602
 6176TIP3    H118534   3.909   1.240   4.691
 6176TIP3    H218535   3.982   1.348   4.615
 6177TIP3   OH218536   5.287   2.278   1.328
 6177TIP3    H118537   5.313   2.370   1.332
 6177TIP3    H218538   5.365   2.233   1.295
 6178TIP3   OH218539   5.706   0.680   0.745
 6178TIP3    H118540   5.737   0.738   0.675
 6178TIP3    H218541   5.725   0.592   0.714
 6179TIP3   OH218542   3.461   4.653   4.239
 6179TIP3    H118543   3.409   4.688   4.312
 6179TIP3    H218544   3.550   4.682   4.257
 6180TIP3   OH218545   1.811   5.135   0.244
 6180TIP3    H118546   1.852   5.137   0.157
 6180TIP3    H218547   1.731   5.084   0.231
 6181TIP3   OH218548   4.993   4.342   1.238
 6181TIP3    H118549   4.995   4.255   1.276
 6181TIP3    H218550   4.950   4.397   1.304
 6182TIP3   OH218551   2.300   1.200   2.131
 6182TIP3    H118552   2.255   1.169   2.209
 6182TIP3    H218553   2.326   1.121   2.085
 6183TIP3   OH218554   3.348   1.484   0.413
 6183TIP3    H118555   3.304   1.418   0.467
 6183TIP3    H218556   3.395   1.539   0.476
 6184TIP3   OH218557   4.574   3.679   4.359
 6184TIP3    H118558   4.665   3.709   4.357
 6184TIP3    H218559   4.522   3.759   4.372
 6185TIP3   OH218560   6.328   4.600   3.205
 6185TIP3    H118561   6.347   4.693   3.189
 6185TIP3    H218562   6.319   4.562   3.118
 6186TIP3   OH218563   0.227   3.407   4.879
 6186TIP3    H118564   0.256   3.494   4.907
 6186TIP3    H218565   0.247   3.404   4.786
 6187TIP3   OH218566   3.473   2.406   2.130
 6187TIP3    H118567   3.475   2.356   2.049
 6187TIP3    H218568   3.495   2.496   2.103
 6188TIP3   OH218569   6.005   1.546   1.812
 6188TIP3    H118570   5.935   1.602   1.778
 6188TIP3    H218571   5.994   1.548   1.907
 6189TIP3   OH218572   2.764   2.523   0.980
 6189TIP3    H118573   2.779   2.484   1.066
 6189TIP3    H218574   2.674   2.556   0.984
 6190TIP3   OH218575   0.052   0.056   1.617
 6190TIP3    H118576   0.021   0.141   1.648
 6190TIP3    H218577   0.063   0.005   1.697
 6191TIP3   OH218578   4.297   5.388   5.066
 6191TIP3    H118579   4.308   5.386   4.971
 6191TIP3    H218580   4.259   5.475   5.084
 6192TIP3   OH218581   6.175   3.132   0.232
 6192TIP3    H118582   6.110   3.078   0.188
 6192TIP3    H218583   6.228   3.169   0.161
 6193TIP3   OH218584   1.920   3.855   2.172
 6193TIP3    H118585   1.925   3.827   2.264
 6193TIP3    H218586   1.843   3.913   2.169
 6194TIP3   OH218587   2.191   4.088   2.874
 6194TIP3    H118588   2.102   4.073   2.905
 6194TIP3    H218589   2.219   4.168   2.918
 6195TIP3   OH218590   1.658   4.708   0.250
 6195TIP3    H118591   1.626   4.749   0.330
 6195TIP3    H218592   1.582   4.708   0.191
 6196TIP3   OH218593   1.738   1.557   1.246
 6196TIP3    H118594   1.695   1.474   1.225
 6196TIP3    H218595   1.683   1.595   1.314
 6197TIP3   OH218596   3.584   4.249   3.359
 6197TIP3    H118597   3.578   4.167   3.409
 6197TIP3    H218598   3.582   4.221   3.268
 6198TIP3   OH218599   3.739   3.925   1.606
 6198TIP3    H118600   3.645   3.916   1.624
 6198TIP3    H218601   3.768   3.992   1.668
 6199TIP3   OH218602   2.793   3.309   4.785
 6199TIP3    H118603   2.837   3.281   4.866
 6199TIP3    H218604   2.728   3.241   4.770
 6200TIP3   OH218605   5.511   3.970   2.930
 6200TIP3    H118606   5.593   3.940   2.968
 6200TIP3    H218607   5.479   3.896   2.879
 6201TIP3   OH218608   3.838   0.464   1.442
 6201TIP3    H118609   3.863   0.391   1.498
 6201TIP3    H218610   3.742   0.463   1.443
 6202TIP3   OH218611   5.046   2.737   3.095
 6202TIP3    H118612   5.000   2.800   3.039
 6202TIP3    H218613   5.014   2.652   3.067
 6203TIP3   OH218614   2.862   0.610   4.394
 6203TIP3    H118615   2.796   0.541   4.389
 6203TIP3    H218616   2.817   0.683   4.437
 6204TIP3   OH218617   3.787   0.725   0.563
 6204TIP3    H118618   3.814   0.652   0.619
 6204TIP3    H218619   3.709   0.693   0.518
 6205TIP3   OH218620   0.310   4.276   3.392
 6205TIP3    H118621   0.304   4.195   3.442
 6205TIP3    H218622   0.400   4.277   3.359
 6206TIP3   OH218623   2.207   4.346   0.415
 6206TIP3    H118624   2.171   4.435   0.409
 6206TIP3    H218625   2.158   4.305   0.486
 6207TIP3   OH218626   4.031   5.231   1.681
 6207TIP3    H118627   3.997   5.319   1.695
 6207TIP3    H218628   4.048   5.197   1.770
 6208TIP3   OH218629   4.226   2.669   0.476
 6208TIP3    H118630   4.302   2.679   0.534
 6208TIP3    H218631   4.226   2.576   0.453
 6209TIP3   OH218632   3.305   5.003   3.487
 6209TIP3    H118633   3.306   4.933   3.422
 6209TIP3    H218634   3.212   5.023   3.499
 6210TIP3   OH218635   4.731   2.897   1.313
 6210TIP3    H118636   4.694   2.866   1.396
 6210TIP3    H218637   4.673   2.859   1.246
 6211TIP3   OH218638   1.708   3.070   5.141
 6211TIP3    H118639   1.692   3.040   5.051
 6211TIP3    H218640   1.647   3.143   5.153
 6212TIP3   OH218641   5.914   5.338   4.812
 6212TIP3    H118642   5.901   5.269   4.877
 6212TIP3    H218643   5.979   5.397   4.852
 6213TIP3   OH218644   0.127   5.520   3.950
 6213TIP3    H118645   0.045   5.491   3.912
 6213TIP3    H218646   0.163   5.583   3.887
 6214TIP3   OH218647   2.683   5.633   3.345
 6214TIP3    H118648   2.614   5.646   3.280
 6214TIP3    H218649   2.707   5.722   3.372
 6215TIP3   OH218650   5.204   3.135   2.639
 6215TIP3    H118651   5.208   3.208   2.576
 6215TIP3    H218652   5.279   3.080   2.615
 6216TIP3   OH218653   1.186   5.776   3.664
 6216TIP3    H118654   1.278   5.803   3.655
 6216TIP3    H218655   1.140   5.825   3.595
 6217TIP3   OH218656   4.974   1.119   4.875
 6217TIP3    H118657   4.987   1.203   4.919
 6217TIP3    H218658   4.911   1.072   4.930
 6218TIP3   OH218659   0.179   3.197   3.776
 6218TIP3    H118660   0.179   3.151   3.692
 6218TIP3    H218661   0.131   3.279   3.758
 6219TIP3   OH218662   1.136   0.781   0.331
 6219TIP3    H118663   1.189   0.791   0.252
 6219TIP3    H218664   1.111   0.689   0.332
 6220TIP3   OH218665   6.094   4.620   1.857
 6220TIP3    H118666   6.184   4.588   1.855
 6220TIP3    H218667   6.095   4.690   1.922
 6221TIP3   OH218668   1.059   2.145   0.602
 6221TIP3    H118669   0.975   2.158   0.559
 6221TIP3    H218670   1.116   2.213   0.566
 6222TIP3   OH218671   0.428   0.319   1.693
 6222TIP3    H118672   0.496   0.383   1.673
 6222TIP3    H218673   0.416   0.269   1.613
 6223TIP3   OH218674   6.146   5.651   3.562
 6223TIP3    H118675   6.144   5.668   3.467
 6223TIP3    H218676   6.057   5.622   3.583
 6224TIP3   OH218677   0.288   3.442   3.592
 6224TIP3    H118678   0.300   3.503   3.665
 6224TIP3    H218679   0.365   3.386   3.594
 6225TIP3   OH218680   2.077   5.724   4.278
 6225TIP3    H118681   2.147   5.782   4.307
 6225TIP3    H218682   2.036   5.693   4.359
 6226TIP3   OH218683   3.773   3.731   2.541
 6226TIP3    H118684   3.786   3.672   2.467
 6226TIP3    H218685   3.815   3.687   2.615
 6227TIP3   OH218686   1.773   4.681   3.304
 6227TIP3    H118687   1.678   4.689   3.310
 6227TIP3    H218688   1.793   4.598   3.348
 6228TIP3   OH218689   1.573   0.033   1.138
 6228TIP3    H118690   1.501   0.073   1.187
 6228TIP3    H218691   1.615   0.107   1.093
 6229TIP3   OH218692   2.206   5.738   3.827
 6229TIP3    H118693   2.174   5.825   3.849
 6229TIP3    H218694   2.192   5.687   3.906
 6230TIP3   OH218695   4.679   2.203   3.094
 6230TIP3    H118696   4.674   2.246   3.180
 6230TIP3    H218697   4.615   2.132   3.099
 6231TIP3   OH218698   2.468   4.489   0.722
 6231TIP3    H118699   2.423   4.405   0.734
 6231TIP3    H218700   2.558   4.472   0.750
 6232TIP3   OH218701   1.709   4.602   2.670
 6232TIP3    H118702   1.659   4.680   2.648
 6232TIP3    H218703   1.781   4.635   2.724
 6233TIP3   OH218704   0.153   5.592   1.110
 6233TIP3    H118705   0.099   5.544   1.046
 6233TIP3    H218706   0.193   5.524   1.164
 6234TIP3   OH218707   2.882   2.905   4.230
 6234TIP3    H118708   2.815   2.969   4.205
 6234TIP3    H218709   2.962   2.956   4.237
 6235TIP3   OH218710   3.621   2.079   0.279
 6235TIP3    H118711   3.675   2.109   0.205
 6235TIP3    H218712   3.537   2.056   0.239
 6236TIP3   OH218713   1.908   1.995   1.116
 6236TIP3    H118714   1.989   2.013   1.164
 6236TIP3    H218715   1.839   2.039   1.165
 6237TIP3   OH218716   1.555   2.034   2.129
 6237TIP3    H118717   1.478   2.086   2.151
 6237TIP3    H218718   1.519   1.954   2.089
 6238TIP3   OH218719   5.535   1.893   5.011
 6238TIP3    H118720   5.469   1.848   5.064
 6238TIP3    H218721   5.527   1.852   4.924
 6239TIP3   OH218722   3.078   2.140   2.289
 6239TIP3    H118723   3.024   2.171   2.362
 6239TIP3    H218724   3.166   2.169   2.311
 6240TIP3   OH218725   4.491   3.436   0.955
 6240TIP3    H118726   4.412   3.402   0.912
 6240TIP3    H218727   4.497   3.387   1.037
 6241TIP3   OH218728   2.165   3.404   0.756
 6241TIP3    H118729   2.101   3.416   0.686
 6241TIP3    H218730   2.158   3.311   0.778
 6242TIP3   OH218731   2.043   4.272   0.617
 6242TIP3    H118732   2.033   4.312   0.703
 6242TIP3    H218733   1.991   4.192   0.622
 6243TIP3   OH218734   4.586   2.346   3.615
 6243TIP3    H118735   4.492   2.354   3.628
 6243TIP3    H218736   4.621   2.433   3.635
 6244TIP3   OH218737   4.886   2.066   2.728
 6244TIP3    H118738   4.893   2.051   2.822
 6244TIP3    H218739   4.974   2.049   2.694
 6245TIP3   OH218740   3.519   1.096   2.348
 6245TIP3    H118741   3.439   1.094   2.295
 6245TIP3    H218742   3.490   1.123   2.435
 6246TIP3   OH218743   3.437   0.008   0.204
 6246TIP3    H118744   3.514   0.057   0.175
 6246TIP3    H218745   3.364   0.051   0.159
 6247TIP3   OH218746   1.931   5.246   2.250
 6247TIP3    H118747   2.025   5.236   2.261
 6247TIP3    H218748   1.900   5.272   2.337
 6248TIP3   OH218749   1.553   3.002   0.627
 6248TIP3    H118750   1.551   2.966   0.538
 6248TIP3    H218751   1.462   3.026   0.645
 6249TIP3   OH218752   6.276   3.654   3.524
 6249TIP3    H118753   6.194   3.701   3.542
 6249TIP3    H218754   6.254   3.595   3.452
 6250TIP3   OH218755   1.295   4.188   2.768
 6250TIP3    H118756   1.227   4.219   2.708
 6250TIP3    H218757   1.376   4.194   2.717
 6251TIP3   OH218758   3.729   0.331   5.181
 6251TIP3    H118759   3.800   0.348   5.118
 6251TIP3    H218760   3.664   0.283   5.130
 6252TIP3   OH218761   2.474   1.695   5.083
 6252TIP3    H118762   2.493   1.699   5.176
 6252TIP3    H218763   2.401   1.756   5.070
 6253TIP3   OH218764   1.717   0.467   4.397
 6253TIP3    H118765   1.717   0.466   4.493
 6253TIP3    H218766   1.636   0.512   4.374
 6254TIP3   OH218767   3.321   2.342   2.693
 6254TIP3    H118768   3.388   2.403   2.663
 6254TIP3    H218769   3.279   2.311   2.613
 6255TIP3   OH218770   1.246   0.123   2.501
 6255TIP3    H118771   1.185   0.050   2.507
 6255TIP3    H218772   1.313   0.094   2.439
 6256TIP3   OH218773   2.816   5.498   2.741
 6256TIP3    H118774   2.788   5.519   2.652
 6256TIP3    H218775   2.875   5.569   2.765
 6257TIP3   OH218776   5.177   0.750   4.967
 6257TIP3    H118777   5.130   0.817   5.016
 6257TIP3    H218778   5.269   0.776   4.974
 6258TIP3   OH218779   0.940   4.696   0.577
 6258TIP3    H118780   0.984   4.736   0.502
 6258TIP3    H218781   0.847   4.695   0.552
 6259TIP3   OH218782   3.526   3.650   4.238
 6259TIP3    H118783   3.610   3.605   4.229
 6259TIP3    H218784   3.480   3.631   4.156
 6260TIP3   OH218785   3.538   4.368   1.730
 6260TIP3    H118786   3.618   4.397   1.687
 6260TIP3    H218787   3.549   4.274   1.741
 6261TIP3   OH218788   4.443   1.931   0.047
 6261TIP3    H118789   4.366   1.973   0.010
 6261TIP3    H218790   4.427   1.837   0.036
 6262TIP3   OH218791   0.066   3.827   1.112
 6262TIP3    H118792   0.083   3.734   1.123
 6262TIP3    H218793  -0.024   3.839   1.144
 6263TIP3   OH218794   4.212   2.125   0.691
 6263TIP3    H118795   4.249   2.213   0.691
 6263TIP3    H218796   4.155   2.122   0.767
 6264TIP3   OH218797   3.587   4.040   4.565
 6264TIP3    H118798   3.492   4.042   4.557
 6264TIP3    H218799   3.614   3.965   4.512
 6265TIP3   OH218800   1.403   5.687   4.486
 6265TIP3    H118801   1.387   5.686   4.391
 6265TIP3    H218802   1.345   5.619   4.520
 6266TIP3   OH218803   4.269   2.844   1.212
 6266TIP3    H118804   4.202   2.793   1.167
 6266TIP3    H218805   4.221   2.914   1.255
 6267TIP3   OH218806   0.438   4.752  -0.011
 6267TIP3    H118807   0.406   4.774   0.077
 6267TIP3    H218808   0.441   4.836  -0.057
 6268TIP3   OH218809   3.888   0.096   3.416
 6268TIP3    H118810   3.935   0.176   3.439
 6268TIP3    H218811   3.957   0.036   3.387
 6269TIP3   OH218812   3.056   3.519   4.839
 6269TIP3    H118813   2.968   3.541   4.870
 6269TIP3    H218814   3.059   3.553   4.750
 6270TIP3   OH218815   4.718   0.766   1.475
 6270TIP3    H118816   4.803   0.745   1.514
 6270TIP3    H218817   4.684   0.683   1.444
 6271TIP3   OH218818   4.657   0.323   1.546
 6271TIP3    H118819   4.610   0.253   1.502
 6271TIP3    H218820   4.638   0.310   1.639
 6272TIP3   OH218821   4.110   4.473   4.234
 6272TIP3    H118822   4.085   4.556   4.191
 6272TIP3    H218823   4.053   4.468   4.311
 6273TIP3   OH218824   5.997   3.065   1.826
 6273TIP3    H118825   6.047   3.101   1.753
 6273TIP3    H218826   5.923   3.124   1.837
 6274TIP3   OH218827   3.773   2.568   0.856
 6274TIP3    H118828   3.832   2.524   0.918
 6274TIP3    H218829   3.703   2.603   0.911
 6275TIP3   OH218830   5.993   3.370   2.894
 6275TIP3    H118831   5.985   3.287   2.941
 6275TIP3    H218832   5.970   3.349   2.804
 6276TIP3   OH218833   6.020   4.232   2.877
 6276TIP3    H118834   5.986   4.144   2.896
 6276TIP3    H218835   5.950   4.291   2.904
 6277TIP3   OH218836   5.449   4.707   4.673
 6277TIP3    H118837   5.428   4.799   4.684
 6277TIP3    H218838   5.543   4.701   4.692
 6278TIP3   OH218839   3.086   1.902   2.757
 6278TIP3    H118840   3.118   1.870   2.672
 6278TIP3    H218841   3.031   1.832   2.790
 6279TIP3   OH218842   1.591   0.353   3.072
 6279TIP3    H118843   1.649   0.418   3.112
 6279TIP3    H218844   1.507   0.398   3.065
 6280TIP3   OH218845   3.927   5.107   4.607
 6280TIP3    H118846   3.835   5.132   4.616
 6280TIP3    H218847   3.970   5.143   4.686
 6281TIP3   OH218848   0.261   4.081   2.978
 6281TIP3    H118849   0.249   4.051   3.068
 6281TIP3    H218850   0.173   4.109   2.950
 6282TIP3   OH218851   4.806   0.630   2.541
 6282TIP3    H118852   4.811   0.649   2.634
 6282TIP3    H218853   4.717   0.597   2.528
 6283TIP3   OH218854   4.180   2.479   2.943
 6283TIP3    H118855   4.152   2.389   2.928
 6283TIP3    H218856   4.263   2.487   2.895
 6284TIP3   OH218857   4.659   4.002   4.823
 6284TIP3    H118858   4.607   3.926   4.848
 6284TIP3    H218859   4.690   4.039   4.906
 6285TIP3   OH218860   4.671   2.118   2.350
 6285TIP3    H118861   4.578   2.107   2.331
 6285TIP3    H218862   4.711   2.037   2.317
 6286TIP3   OH218863   3.852   3.306   2.387
 6286TIP3    H118864   3.906   3.384   2.369
 6286TIP3    H218865   3.897   3.236   2.340
 6287TIP3   OH218866   6.030   3.257   4.566
 6287TIP3    H118867   6.054   3.251   4.659
 6287TIP3    H218868   5.957   3.195   4.557
 6288TIP3   OH218869   0.633   0.123   4.806
 6288TIP3    H118870   0.585   0.128   4.889
 6288TIP3    H218871   0.724   0.141   4.830
 6289TIP3   OH218872   0.031   3.024   4.394
 6289TIP3    H118873   0.050   2.995   4.305
 6289TIP3    H218874   0.007   2.944   4.440
 6290TIP3   OH218875   3.821   2.777   3.914
 6290TIP3    H118876   3.820   2.788   3.819
 6290TIP3    H218877   3.737   2.735   3.934
 6291TIP3   OH218878   0.895   4.567   3.748
 6291TIP3    H118879   0.883   4.636   3.813
 6291TIP3    H218880   0.810   4.561   3.703
 6292TIP3   OH218881   3.946   1.004   1.106
 6292TIP3    H118882   3.963   0.962   1.191
 6292TIP3    H218883   3.933   0.931   1.046
 6293TIP3   OH218884   4.173   3.924   3.969
 6293TIP3    H118885   4.083   3.932   3.938
 6293TIP3    H218886   4.192   3.830   3.961
 6294TIP3   OH218887   3.963   5.874   2.185
 6294TIP3    H118888   3.912   5.802   2.222
 6294TIP3    H218889   4.035   5.887   2.248
 6295TIP3   OH218890   3.670   2.467   3.153
 6295TIP3    H118891   3.606   2.514   3.101
 6295TIP3    H218892   3.699   2.395   3.096
 6296TIP3   OH218893   2.186   4.892   0.936
 6296TIP3    H118894   2.107   4.883   0.883
 6296TIP3    H218895   2.241   4.818   0.911
 6297TIP3   OH218896   4.247   2.543   4.323
 6297TIP3    H118897   4.231   2.638   4.325
 6297TIP3    H218898   4.286   2.523   4.408
 6298TIP3   OH218899   0.091   3.715   2.938
 6298TIP3    H118900   0.149   3.760   3.000
 6298TIP3    H218901   0.126   3.626   2.934
 6299TIP3   OH218902   3.005   2.843   3.725
 6299TIP3    H118903   3.018   2.756   3.764
 6299TIP3    H218904   2.912   2.845   3.702
 6300TIP3   OH218905   1.244   1.873   5.041
 6300TIP3    H118906   1.204   1.944   5.091
 6300TIP3    H218907   1.331   1.862   5.080
 6301TIP3   OH218908   3.956   0.859   3.860
 6301TIP3    H118909   4.016   0.930   3.882
 6301TIP3    H218910   3.883   0.870   3.921
 6302TIP3   OH218911   1.827   2.611   1.909
 6302TIP3    H118912   1.759   2.596   1.975
 6302TIP3    H218913   1.907   2.575   1.948
 6303TIP3   OH218914   0.208   2.582   3.865
 6303TIP3    H118915   0.183   2.674   3.869
 6303TIP3    H218916   0.171   2.543   3.944
 6304TIP3   OH218917   4.932   5.516   3.036
 6304TIP3    H118918   4.894   5.546   2.954
 6304TIP3    H218919   5.021   5.548   3.035
 6305TIP3   OH218920   5.896   2.378   3.830
 6305TIP3    H118921   5.930   2.379   3.741
 6305TIP3    H218922   5.821   2.438   3.827
 6306TIP3   OH218923   3.967   3.128   5.036
 6306TIP3    H118924   3.954   3.181   4.957
 6306TIP3    H218925   3.929   3.182   5.107
 6307TIP3   OH218926   6.123   4.162   1.332
 6307TIP3    H118927   6.170   4.108   1.395
 6307TIP3    H218928   6.191   4.210   1.286
 6308TIP3   OH218929   1.698   2.978   0.089
 6308TIP3    H118930   1.736   2.990   0.002
 6308TIP3    H218931   1.625   3.041   0.092
 6309TIP3   OH218932   0.794   2.699   1.034
 6309TIP3    H118933   0.854   2.624   1.031
 6309TIP3    H218934   0.744   2.694   0.953
 6310TIP3   OH218935   1.038   0.365   3.367
 6310TIP3    H118936   1.035   0.461   3.370
 6310TIP3    H218937   1.019   0.337   3.456
 6311TIP3   OH218938   2.353   5.730   1.515
 6311TIP3    H118939   2.355   5.635   1.526
 6311TIP3    H218940   2.260   5.750   1.508
 6312TIP3   OH218941   0.914   5.203   4.970
 6312TIP3    H118942   0.985   5.208   4.906
 6312TIP3    H218943   0.933   5.125   5.021
 6313TIP3   OH218944   2.864   0.369   0.760
 6313TIP3    H118945   2.898   0.369   0.849
 6313TIP3    H218946   2.769   0.364   0.770
 6314TIP3   OH218947   0.906   5.651   4.036
 6314TIP3    H118948   0.913   5.703   3.956
 6314TIP3    H218949   0.923   5.713   4.107
 6315TIP3   OH218950   5.894   3.542   3.133
 6315TIP3    H118951   5.874   3.499   3.050
 6315TIP3    H218952   5.938   3.474   3.185
 6316TIP3   OH218953   2.562   0.114   4.481
 6316TIP3    H118954   2.500   0.180   4.512
 6316TIP3    H218955   2.519   0.031   4.500
 6317TIP3   OH218956   5.834   3.523   3.955
 6317TIP3    H118957   5.818   3.445   3.900
 6317TIP3    H218958   5.824   3.597   3.895
 6318TIP3   OH218959   1.776   5.279   3.681
 6318TIP3    H118960   1.718   5.228   3.624
 6318TIP3    H218961   1.744   5.369   3.673
 6319TIP3   OH218962   4.411   0.102   3.212
 6319TIP3    H118963   4.407   0.169   3.281
 6319TIP3    H218964   4.492   0.122   3.164
 6320TIP3   OH218965   0.924   5.600   1.805
 6320TIP3    H118966   1.003   5.551   1.828
 6320TIP3    H218967   0.870   5.538   1.758
 6321TIP3   OH218968   2.977   3.799   0.049
 6321TIP3    H118969   2.952   3.871   0.107
 6321TIP3    H218970   2.986   3.840  -0.037
 6322TIP3   OH218971   1.235   1.009   4.446
 6322TIP3    H118972   1.141   0.994   4.453
 6322TIP3    H218973   1.244   1.068   4.371
 6323TIP3   OH218974   0.865   5.862   3.237
 6323TIP3    H118975   0.932   5.878   3.171
 6323TIP3    H218976   0.800   5.808   3.192
 6324TIP3   OH218977   2.818   2.809   2.884
 6324TIP3    H118978   2.871   2.760   2.820
 6324TIP3    H218979   2.814   2.898   2.848
 6325TIP3   OH218980   1.505   3.402   0.365
 6325TIP3    H118981   1.465   3.404   0.452
 6325TIP3    H218982   1.504   3.309   0.340
 6326TIP3   OH218983   5.552   4.683   5.052
 6326TIP3    H118984   5.475   4.641   5.091
 6326TIP3    H218985   5.551   4.772   5.088
 6327TIP3   OH218986   3.727   4.373   4.163
 6327TIP3    H118987   3.778   4.292   4.168
 6327TIP3    H218988   3.778   4.436   4.216
 6328TIP3   OH218989   5.333   4.803   0.271
 6328TIP3    H118990   5.417   4.844   0.289
 6328TIP3    H218991   5.351   4.736   0.206
 6329TIP3   OH218992   0.025   2.456   3.693
 6329TIP3    H118993   0.087   2.482   3.761
 6329TIP3    H218994  -0.056   2.500   3.717
 6330TIP3   OH218995   2.846   2.205   0.131
 6330TIP3    H118996   2.932   2.170   0.111
 6330TIP3    H218997   2.786   2.130   0.119
 6331TIP3   OH218998   1.934   2.272   3.460
 6331TIP3    H118999   2.025   2.299   3.447
 6331TIP3    H219000   1.890   2.350   3.492
 6332TIP3   OH219001   2.318   1.222   0.953
 6332TIP3    H119002   2.365   1.295   0.993
 6332TIP3    H219003   2.265   1.263   0.884
 6333TIP3   OH219004   4.530   5.890   5.113
 6333TIP3    H119005   4.585   5.816   5.139
 6333TIP3    H219006   4.441   5.865   5.140
 6334TIP3   OH219007   2.857   4.342   1.924
 6334TIP3    H119008   2.828   4.431   1.900
 6334TIP3    H219009   2.952   4.345   1.913
 6335TIP3   OH219010   5.397   0.616   0.420
 6335TIP3    H119011   5.408   0.709   0.440
 6335TIP3    H219012   5.343   0.615   0.341
 6336TIP3   OH219013   4.589   2.796   1.544
 6336TIP3    H119014   4.645   2.722   1.568
 6336TIP3    H219015   4.510   2.755   1.508
 6337TIP3   OH219016   1.074   2.659   1.910
 6337TIP3    H119017   1.002   2.667   1.848
 6337TIP3    H219018   1.047   2.713   1.985
 6338TIP3   OH219019   2.519   1.133   4.471
 6338TIP3    H119020   2.590   1.079   4.435
 6338TIP3    H219021   2.504   1.096   4.558
 6339TIP3   OH219022   1.369   3.667   0.402
 6339TIP3    H119023   1.405   3.590   0.359
 6339TIP3    H219024   1.299   3.632   0.458
 6340TIP3   OH219025   5.058   0.119   0.784
 6340TIP3    H119026   5.096   0.163   0.860
 6340TIP3    H219027   5.114   0.043   0.770
 6341TIP3   OH219028   0.384   4.762   3.557
 6341TIP3    H119029   0.387   4.804   3.471
 6341TIP3    H219030   0.357   4.672   3.538
 6342TIP3   OH219031   5.491   1.052   0.924
 6342TIP3    H119032   5.417   0.993   0.913
 6342TIP3    H219033   5.455   1.139   0.911
 6343TIP3   OH219034   2.150   4.471   1.242
 6343TIP3    H119035   2.219   4.459   1.307
 6343TIP3    H219036   2.150   4.565   1.225
 6344TIP3   OH219037   5.336   4.552   1.767
 6344TIP3    H119038   5.353   4.481   1.828
 6344TIP3    H219039   5.306   4.508   1.687
 6345TIP3   OH219040   3.757   1.528   4.041
 6345TIP3    H119041   3.792   1.617   4.049
 6345TIP3    H219042   3.746   1.514   3.947
 6346TIP3   OH219043   0.948   1.919   2.426
 6346TIP3    H119044   0.995   1.879   2.499
 6346TIP3    H219045   0.944   1.850   2.360
 6347TIP3   OH219046   5.616   1.251   0.636
 6347TIP3    H119047   5.687   1.286   0.584
 6347TIP3    H219048   5.653   1.173   0.677
 6348TIP3   OH219049   1.927   1.538   0.765
 6348TIP3    H119050   1.907   1.564   0.675
 6348TIP3    H219051   1.875   1.459   0.779
 6349TIP3   OH219052   5.031   5.714   4.921
 6349TIP3    H119053   5.084   5.789   4.895
 6349TIP3    H219054   5.047   5.705   5.015
 6350TIP3   OH219055   3.550   1.720   4.134
 6350TIP3    H119056   3.574   1.773   4.210
 6350TIP3    H219057   3.562   1.630   4.163
 6351TIP3   OH219058   1.307   6.037   1.846
 6351TIP3    H119059   1.254   6.062   1.922
 6351TIP3    H219060   1.261   5.962   1.809
 6352TIP3   OH219061   1.424   1.190   1.523
 6352TIP3    H119062   1.452   1.277   1.494
 6352TIP3    H219063   1.475   1.174   1.602
 6353TIP3   OH219064   4.189   3.019   3.370
 6353TIP3    H119065   4.158   2.990   3.284
 6353TIP3    H219066   4.194   2.939   3.422
 6354TIP3   OH219067   3.297   1.122   3.532
 6354TIP3    H119068   3.315   1.207   3.571
 6354TIP3    H219069   3.205   1.127   3.505
 6355TIP3   OH219070   0.456   1.681   0.846
 6355TIP3    H119071   0.412   1.649   0.767
 6355TIP3    H219072   0.428   1.621   0.915
 6356TIP3   OH219073   6.211   1.860   2.297
 6356TIP3    H119074   6.199   1.812   2.379
 6356TIP3    H219075   6.260   1.799   2.241
 6357TIP3   OH219076   3.184   1.966   1.572
 6357TIP3    H119077   3.244   1.954   1.645
 6357TIP3    H219078   3.139   2.048   1.591
 6358TIP3   OH219079   5.736   4.435   5.123
 6358TIP3    H119080   5.679   4.402   5.054
 6358TIP3    H219081   5.676   4.456   5.195
 6359TIP3   OH219082   2.269   0.329   2.235
 6359TIP3    H119083   2.175   0.348   2.244
 6359TIP3    H219084   2.313   0.410   2.259
 6360TIP3   OH219085   2.553   0.339   3.862
 6360TIP3    H119086   2.562   0.283   3.784
 6360TIP3    H219087   2.627   0.315   3.917
 6361TIP3   OH219088   6.049   2.357   1.973
 6361TIP3    H119089   6.111   2.295   1.934
 6361TIP3    H219090   6.089   2.382   2.056
 6362TIP3   OH219091   1.286   4.620   4.944
 6362TIP3    H119092   1.339   4.559   4.994
 6362TIP3    H219093   1.319   4.707   4.968
 6363TIP3   OH219094   2.688   4.518   3.961
 6363TIP3    H119095   2.750   4.551   3.896
 6363TIP3    H219096   2.725   4.435   3.990
 6364TIP3   OH219097   2.108   5.978   3.866
 6364TIP3    H119098   2.047   6.014   3.802
 6364TIP3    H219099   2.081   6.015   3.949
 6365TIP3   OH219100   2.162   1.737   0.481
 6365TIP3    H119101   2.188   1.828   0.465
 6365TIP3    H219102   2.155   1.730   0.576
 6366TIP3   OH219103   1.734   2.434   1.167
 6366TIP3    H119104   1.671   2.494   1.208
 6366TIP3    H219105   1.745   2.468   1.078
 6367TIP3   OH219106   6.306   3.524   3.918
 6367TIP3    H119107   6.232   3.575   3.951
 6367TIP3    H219108   6.309   3.447   3.973
 6368TIP3   OH219109   5.151   5.903   4.685
 6368TIP3    H119110   5.205   5.874   4.611
 6368TIP3    H219111   5.061   5.883   4.659
 6369TIP3   OH219112   3.540   5.315   3.102
 6369TIP3    H119113   3.515   5.295   3.193
 6369TIP3    H219114   3.562   5.230   3.064
 6370TIP3   OH219115   4.629   0.639   4.597
 6370TIP3    H119116   4.669   0.627   4.511
 6370TIP3    H219117   4.542   0.598   4.590
 6371TIP3   OH219118   5.724  -0.037   1.356
 6371TIP3    H119119   5.758   0.035   1.303
 6371TIP3    H219120   5.677   0.006   1.428
 6372TIP3   OH219121   2.484   2.826   4.293
 6372TIP3    H119122   2.523   2.744   4.265
 6372TIP3    H219123   2.537   2.894   4.252
 6373TIP3   OH219124   2.765   1.396   1.102
 6373TIP3    H119125   2.825   1.366   1.170
 6373TIP3    H219126   2.808   1.474   1.066
 6374TIP3   OH219127   4.032   4.424   2.984
 6374TIP3    H119128   4.040   4.519   2.996
 6374TIP3    H219129   4.119   4.395   2.959
 6375TIP3   OH219130   5.226   5.542   2.977
 6375TIP3    H119131   5.210   5.598   3.052
 6375TIP3    H219132   5.318   5.516   2.984
 6376TIP3   OH219133   6.124   4.785   0.758
 6376TIP3    H119134   6.092   4.697   0.779
 6376TIP3    H219135   6.063   4.817   0.691
 6377TIP3   OH219136   6.001   3.204   1.571
 6377TIP3    H119137   5.969   3.218   1.482
 6377TIP3    H219138   6.079   3.149   1.561
 6378TIP3   OH219139   0.314   4.025   3.537
 6378TIP3    H119140   0.233   3.976   3.521
 6378TIP3    H219141   0.384   3.968   3.504
 6379TIP3   OH219142   0.719   1.892   3.787
 6379TIP3    H119143   0.804   1.890   3.743
 6379TIP3    H219144   0.716   1.809   3.836
 6380TIP3   OH219145   2.891   1.287   4.328
 6380TIP3    H119146   2.936   1.370   4.339
 6380TIP3    H219147   2.840   1.275   4.408
 6381TIP3   OH219148   1.978   0.021   0.288
 6381TIP3    H119149   1.946  -0.018   0.369
 6381TIP3    H219150   1.964   0.115   0.300
 6382TIP3   OH219151   5.643   1.041   0.096
 6382TIP3    H119152   5.582   1.062   0.025
 6382TIP3    H219153   5.686   1.124   0.116
 6383TIP3   OH219154   2.069   4.100   2.573
 6383TIP3    H119155   2.107   4.114   2.660
 6383TIP3    H219156   2.141   4.062   2.523
 6384TIP3   OH219157   1.307   1.964   2.967
 6384TIP3    H119158   1.375   1.984   3.031
 6384TIP3    H219159   1.272   1.879   2.995
 6385TIP3   OH219160   0.685   1.119   4.476
 6385TIP3    H119161   0.617   1.079   4.422
 6385TIP3    H219162   0.666   1.089   4.564
 6386TIP3   OH219163   4.094   4.962   3.098
 6386TIP3    H119164   4.021   4.957   3.161
 6386TIP3    H219165   4.140   4.879   3.108
 6387TIP3   OH219166   3.779   1.167   0.955
 6387TIP3    H119167   3.785   1.259   0.979
 6387TIP3    H219168   3.827   1.121   1.024
 6388TIP3   OH219169   0.009   5.738   4.138
 6388TIP3    H119170  -0.080   5.718   4.108
 6388TIP3    H219171   0.066   5.704   4.069
 6389TIP3   OH219172   4.792   0.071   0.645
 6389TIP3    H119173   4.813   0.048   0.555
 6389TIP3    H219174   4.875   0.099   0.684
 6390TIP3   OH219175   3.344   0.654   0.198
 6390TIP3    H119176   3.267   0.635   0.252
 6390TIP3    H219177   3.310   0.703   0.123
 6391TIP3   OH219178   5.532   3.945   2.543
 6391TIP3    H119179   5.468   4.014   2.525
 6391TIP3    H219180   5.514   3.877   2.478
 6392TIP3   OH219181   4.203   1.768   2.703
 6392TIP3    H119182   4.285   1.785   2.657
 6392TIP3    H219183   4.200   1.834   2.772
 6393TIP3   OH219184   5.449   5.722   2.555
 6393TIP3    H119185   5.535   5.721   2.513
 6393TIP3    H219186   5.418   5.632   2.549
 6394TIP3   OH219187   3.383   4.440   0.705
 6394TIP3    H119188   3.414   4.486   0.783
 6394TIP3    H219189   3.451   4.456   0.639
 6395TIP3   OH219190   1.689   4.668   1.962
 6395TIP3    H119191   1.743   4.616   1.902
 6395TIP3    H219192   1.722   4.757   1.954
 6396TIP3   OH219193   4.548   2.736   0.172
 6396TIP3    H119194   4.607   2.697   0.236
 6396TIP3    H219195   4.569   2.830   0.174
 6397TIP3   OH219196   2.304   1.263   4.871
 6397TIP3    H119197   2.360   1.187   4.885
 6397TIP3    H219198   2.359   1.338   4.892
 6398TIP3   OH219199   3.448   3.933   4.049
 6398TIP3    H119200   3.379   3.907   4.110
 6398TIP3    H219201   3.423   3.892   3.966
 6399TIP3   OH219202   0.674   2.006   4.492
 6399TIP3    H119203   0.710   2.050   4.416
 6399TIP3    H219204   0.585   1.980   4.466
 6400TIP3   OH219205   2.612   5.768   1.103
 6400TIP3    H119206   2.605   5.755   1.198
 6400TIP3    H219207   2.532   5.729   1.068
 6401TIP3   OH219208   6.085   2.675   2.177
 6401TIP3    H119209   6.163   2.713   2.138
 6401TIP3    H219210   6.112   2.587   2.203
 6402TIP3   OH219211   3.631   4.304   3.694
 6402TIP3    H119212   3.659   4.219   3.730
 6402TIP3    H219213   3.538   4.294   3.677
 6403TIP3   OH219214   5.848   2.212   1.711
 6403TIP3    H119215   5.829   2.121   1.685
 6403TIP3    H219216   5.836   2.213   1.806
 6404TIP3   OH219217   5.076   3.601   0.995
 6404TIP3    H119218   5.145   3.667   0.987
 6404TIP3    H219219   5.002   3.636   0.946
 6405TIP3   OH219220   1.054   4.295   4.107
 6405TIP3    H119221   0.990   4.295   4.035
 6405TIP3    H219222   1.113   4.367   4.086
 6406TIP3   OH219223   5.609   3.745   3.350
 6406TIP3    H119224   5.568   3.664   3.320
 6406TIP3    H219225   5.692   3.718   3.389
 6407TIP3   OH219226   5.848   2.006   4.703
 6407TIP3    H119227   5.804   1.993   4.787
 6407TIP3    H219228   5.877   1.918   4.678
 6408TIP3   OH219229   3.613   2.897   1.177
 6408TIP3    H119230   3.566   2.897   1.260
 6408TIP3    H219231   3.546   2.881   1.111
 6409TIP3   OH219232   5.531   0.870   0.306
 6409TIP3    H119233   5.560   0.937   0.244
 6409TIP3    H219234   5.562   0.788   0.268
 6410TIP3   OH219235   5.463   2.184   1.756
 6410TIP3    H119236   5.386   2.231   1.790
 6410TIP3    H219237   5.473   2.216   1.666
 6411TIP3   OH219238   2.447   4.804   3.312
 6411TIP3    H119239   2.387   4.863   3.265
 6411TIP3    H219240   2.391   4.760   3.376
 6412TIP3   OH219241   0.059   3.989   1.815
 6412TIP3    H119242   0.031   3.917   1.759
 6412TIP3    H219243   0.115   3.948   1.881
 6413TIP3   OH219244   0.776   1.621   2.484
 6413TIP3    H119245   0.856   1.658   2.522
 6413TIP3    H219246   0.785   1.526   2.496
 6414TIP3   OH219247   0.430   1.158   1.196
 6414TIP3    H119248   0.500   1.182   1.257
 6414TIP3    H219249   0.424   1.063   1.202
 6415TIP3   OH219250   4.102   0.872   4.752
 6415TIP3    H119251   4.113   0.967   4.751
 6415TIP3    H219252   4.184   0.838   4.788
 6416TIP3   OH219253   2.012   1.637   1.907
 6416TIP3    H119254   1.976   1.672   1.826
 6416TIP3    H219255   1.990   1.702   1.973
 6417TIP3   OH219256   1.169   3.022   4.878
 6417TIP3    H119257   1.133   2.964   4.946
 6417TIP3    H219258   1.234   3.074   4.923
 6418TIP3   OH219259   3.288   4.168   3.416
 6418TIP3    H119260   3.335   4.249   3.438
 6418TIP3    H219261   3.302   4.158   3.322
 6419TIP3   OH219262   3.210   5.844   2.362
 6419TIP3    H119263   3.300   5.813   2.370
 6419TIP3    H219264   3.190   5.881   2.448
 6420TIP3   OH219265   3.134   4.155   1.673
 6420TIP3    H119266   3.225   4.160   1.645
 6420TIP3    H219267   3.117   4.061   1.680
 6421TIP3   OH219268   1.124   3.948   2.827
 6421TIP3    H119269   1.188   4.012   2.796
 6421TIP3    H219270   1.136   3.946   2.922
 6422TIP3   OH219271   4.596   4.564   3.862
 6422TIP3    H119272   4.683   4.537   3.890
 6422TIP3    H219273   4.549   4.482   3.848
 6423TIP3   OH219274   2.288   3.433   3.049
 6423TIP3    H119275   2.234   3.356   3.031
 6423TIP3    H219276   2.353   3.433   2.978
 6424TIP3   OH219277   1.181   2.327   1.450
 6424TIP3    H119278   1.166   2.403   1.506
 6424TIP3    H219279   1.223   2.262   1.507
 6425TIP3   OH219280   0.923   4.515   4.258
 6425TIP3    H119281   0.976   4.468   4.193
 6425TIP3    H219282   0.854   4.453   4.282
 6426TIP3   OH219283   4.556   2.661   4.018
 6426TIP3    H119284   4.500   2.587   4.042
 6426TIP3    H219285   4.514   2.699   3.941
 6427TIP3   OH219286   2.174   5.489   3.733
 6427TIP3    H119287   2.227   5.564   3.761
 6427TIP3    H219288   2.085   5.522   3.731
 6428TIP3   OH219289   3.961   1.380   3.675
 6428TIP3    H119290   3.926   1.291   3.685
 6428TIP3    H219291   3.978   1.389   3.581
 6429TIP3   OH219292   2.519   0.708   4.614
 6429TIP3    H119293   2.455   0.656   4.565
 6429TIP3    H219294   2.473   0.790   4.632
 6430TIP3   OH219295   2.893   5.462   3.078
 6430TIP3    H119296   2.895   5.554   3.102
 6430TIP3    H219297   2.983   5.432   3.092
 6431TIP3   OH219298   0.982   5.051   1.282
 6431TIP3    H119299   0.895   5.089   1.272
 6431TIP3    H219300   1.014   5.084   1.366
 6432TIP3   OH219301   4.479   2.462   1.235
 6432TIP3    H119302   4.542   2.406   1.281
 6432TIP3    H219303   4.437   2.513   1.305
 6433TIP3   OH219304   2.991   3.366   1.056
 6433TIP3    H119305   2.901   3.398   1.061
 6433TIP3    H219306   3.039   3.437   1.013
 6434TIP3   OH219307   5.609   2.755   3.527
 6434TIP3    H119308   5.541   2.822   3.529
 6434TIP3    H219309   5.688   2.800   3.558
 6435TIP3   OH219310   0.273   1.079   4.221
 6435TIP3    H119311   0.243   1.030   4.144
 6435TIP3    H219312   0.286   1.168   4.190
 6436TIP3   OH219313   2.175   0.141   2.484
 6436TIP3    H119314   2.199   0.141   2.392
 6436TIP3    H219315   2.155   0.233   2.504
 6437TIP3   OH219316   0.729   4.804   4.588
 6437TIP3    H119317   0.672   4.792   4.512
 6437TIP3    H219318   0.801   4.858   4.556
 6438TIP3   OH219319   3.836   2.907   2.445
 6438TIP3    H119320   3.894   2.975   2.480
 6438TIP3    H219321   3.832   2.925   2.351
 6439TIP3   OH219322   5.884   4.968   0.246
 6439TIP3    H119323   5.973   4.932   0.243
 6439TIP3    H219324   5.883   5.036   0.179
 6440TIP3   OH219325   5.571   5.902   4.669
 6440TIP3    H119326   5.504   5.885   4.736
 6440TIP3    H219327   5.583   5.817   4.626
 6441TIP3   OH219328   4.394   3.905   4.468
 6441TIP3    H119329   4.408   3.972   4.535
 6441TIP3    H219330   4.332   3.944   4.407
 6442TIP3   OH219331   0.392   3.229   0.539
 6442TIP3    H119332   0.433   3.245   0.454
 6442TIP3    H219333   0.464   3.203   0.596
 6443TIP3   OH219334   2.692   4.056   2.164
 6443TIP3    H119335   2.602   4.036   2.137
 6443TIP3    H219336   2.690   4.050   2.260
 6444TIP3   OH219337   0.534   0.333   0.626
 6444TIP3    H119338   0.623   0.302   0.614
 6444TIP3    H219339   0.543   0.415   0.675
 6445TIP3   OH219340   1.048   3.291   0.624
 6445TIP3    H119341   1.037   3.213   0.569
 6445TIP3    H219342   0.965   3.299   0.670
 6446TIP3   OH219343   1.576   0.854   2.653
 6446TIP3    H119344   1.613   0.845   2.566
 6446TIP3    H219345   1.510   0.785   2.659
 6447TIP3   OH219346   0.726   5.126   1.567
 6447TIP3    H119347   0.721   5.217   1.595
 6447TIP3    H219348   0.820   5.107   1.564
 6448TIP3   OH219349   1.244   5.285   4.783
 6448TIP3    H119350   1.259   5.195   4.755
 6448TIP3    H219351   1.322   5.306   4.836
 6449TIP3   OH219352   5.058   4.885   1.135
 6449TIP3    H119353   5.020   4.863   1.220
 6449TIP3    H219354   5.127   4.821   1.121
 6450TIP3   OH219355   4.713   3.798   2.064
 6450TIP3    H119356   4.690   3.785   1.972
 6450TIP3    H219357   4.808   3.797   2.066
 6451TIP3   OH219358   3.212   2.888   4.874
 6451TIP3    H119359   3.180   2.820   4.814
 6451TIP3    H219360   3.174   2.969   4.842
 6452TIP3   OH219361   0.546   1.301   3.974
 6452TIP3    H119362   0.546   1.310   3.879
 6452TIP3    H219363   0.637   1.316   4.000
 6453TIP3   OH219364   3.227   0.183   1.572
 6453TIP3    H119365   3.147   0.151   1.531
 6453TIP3    H219366   3.294   0.118   1.548
 6454TIP3   OH219367   0.171   0.808   1.074
 6454TIP3    H119368   0.078   0.796   1.091
 6454TIP3    H219369   0.196   0.882   1.128
 6455TIP3   OH219370   6.231   2.726   1.765
 6455TIP3    H119371   6.323   2.755   1.770
 6455TIP3    H219372   6.236   2.639   1.726
 6456TIP3   OH219373   0.284   0.567   2.322
 6456TIP3    H119374   0.264   0.521   2.404
 6456TIP3    H219375   0.256   0.657   2.338
 6457TIP3   OH219376   0.561   4.598   2.124
 6457TIP3    H119377   0.522   4.548   2.052
 6457TIP3    H219378   0.528   4.554   2.203
 6458TIP3   OH219379   1.670   0.351   4.095
 6458TIP3    H119380   1.592   0.406   4.091
 6458TIP3    H219381   1.742   0.412   4.112
 6459TIP3   OH219382   3.906   4.628   0.160
 6459TIP3    H119383   3.814   4.654   0.159
 6459TIP3    H219384   3.936   4.646   0.071
 6460TIP3   OH219385   6.289   2.043   0.856
 6460TIP3    H119386   6.314   1.952   0.842
 6460TIP3    H219387   6.208   2.038   0.907
 6461TIP3   OH219388   0.673   3.584   4.387
 6461TIP3    H119389   0.629   3.645   4.327
 6461TIP3    H219390   0.751   3.556   4.341
 6462TIP3   OH219391   5.301   5.527   4.360
 6462TIP3    H119392   5.272   5.488   4.443
 6462TIP3    H219393   5.379   5.478   4.337
 6463TIP3   OH219394   2.088   5.600   4.998
 6463TIP3    H119395   2.074   5.523   5.054
 6463TIP3    H219396   2.161   5.646   5.039
 6464TIP3   OH219397   3.949   1.872   3.485
 6464TIP3    H119398   3.917   1.951   3.440
 6464TIP3    H219399   3.870   1.831   3.520
 6465TIP3   OH219400   5.504   1.984   4.558
 6465TIP3    H119401   5.546   1.980   4.472
 6465TIP3    H219402   5.523   2.073   4.590
 6466TIP3   OH219403   1.290   1.830   2.405
 6466TIP3    H119404   1.288   1.876   2.489
 6466TIP3    H219405   1.260   1.894   2.341
 6467TIP3   OH219406   2.287   4.396   2.067
 6467TIP3    H119407   2.251   4.455   2.000
 6467TIP3    H219408   2.344   4.337   2.017
 6468TIP3   OH219409   4.584   1.224   3.953
 6468TIP3    H119410   4.579   1.316   3.977
 6468TIP3    H219411   4.544   1.220   3.866
 6469TIP3   OH219412   2.727   2.178   1.415
 6469TIP3    H119413   2.743   2.220   1.331
 6469TIP3    H219414   2.660   2.233   1.457
 6470TIP3   OH219415   3.634   4.769   0.711
 6470TIP3    H119416   3.672   4.845   0.756
 6470TIP3    H219417   3.699   4.700   0.723
 6471TIP3   OH219418   2.242   2.509   2.301
 6471TIP3    H119419   2.244   2.437   2.365
 6471TIP3    H219420   2.333   2.517   2.271
 6472TIP3   OH219421   5.988   1.856   4.919
 6472TIP3    H119422   5.921   1.917   4.952
 6472TIP3    H219423   6.053   1.913   4.878
 6473TIP3   OH219424   2.792   0.670   2.403
 6473TIP3    H119425   2.869   0.708   2.360
 6473TIP3    H219426   2.724   0.669   2.336
 6474TIP3   OH219427   1.493   2.726   1.670
 6474TIP3    H119428   1.408   2.686   1.651
 6474TIP3    H219429   1.488   2.813   1.629
 6475TIP3   OH219430   5.598   5.111   4.923
 6475TIP3    H119431   5.546   5.186   4.893
 6475TIP3    H219432   5.615   5.060   4.844
 6476TIP3   OH219433   0.453   5.185   1.185
 6476TIP3    H119434   0.428   5.125   1.114
 6476TIP3    H219435   0.465   5.128   1.261
 6477TIP3   OH219436   0.491   2.657   0.171
 6477TIP3    H119437   0.516   2.574   0.211
 6477TIP3    H219438   0.570   2.711   0.175
 6478TIP3   OH219439   1.628   2.571   2.386
 6478TIP3    H119440   1.577   2.609   2.457
 6478TIP3    H219441   1.714   2.613   2.393
 6479TIP3   OH219442   3.463   4.563   2.082
 6479TIP3    H119443   3.431   4.605   2.161
 6479TIP3    H219444   3.557   4.581   2.082
 6480TIP3   OH219445   2.377   3.739   3.605
 6480TIP3    H119446   2.337   3.751   3.519
 6480TIP3    H219447   2.372   3.825   3.647
 6481TIP3   OH219448   1.774   4.170   1.803
 6481TIP3    H119449   1.828   4.166   1.881
 6481TIP3    H219450   1.795   4.091   1.754
 6482TIP3   OH219451   4.463   1.211   4.892
 6482TIP3    H119452   4.498   1.254   4.970
 6482TIP3    H219453   4.522   1.237   4.821
 6483TIP3   OH219454   5.096   0.751   3.682
 6483TIP3    H119455   5.028   0.777   3.745
 6483TIP3    H219456   5.178   0.777   3.724
 6484TIP3   OH219457   6.067   4.903   5.087
 6484TIP3    H119458   6.134   4.856   5.138
 6484TIP3    H219459   5.985   4.860   5.112
 6485TIP3   OH219460   5.924   1.161   4.093
 6485TIP3    H119461   5.834   1.184   4.118
 6485TIP3    H219462   5.950   1.231   4.034
 6486TIP3   OH219463   3.806   5.945   3.670
 6486TIP3    H119464   3.721   5.989   3.668
 6486TIP3    H219465   3.820   5.925   3.763
 6487TIP3   OH219466   4.005   2.310   1.367
 6487TIP3    H119467   4.028   2.392   1.411
 6487TIP3    H219468   4.084   2.285   1.319
 6488TIP3   OH219469   4.816   4.263   3.231
 6488TIP3    H119470   4.891   4.214   3.197
 6488TIP3    H219471   4.757   4.197   3.265
 6489TIP3   OH219472   1.540   5.298   5.145
 6489TIP3    H119473   1.545   5.304   5.050
 6489TIP3    H219474   1.447   5.307   5.165
 6490TIP3   OH219475   2.487   3.765   1.676
 6490TIP3    H119476   2.459   3.753   1.585
 6490TIP3    H219477   2.431   3.707   1.727
 6491TIP3   OH219478   5.533   0.228   4.470
 6491TIP3    H119479   5.598   0.295   4.450
 6491TIP3    H219480   5.570   0.179   4.544
 6492TIP3   OH219481   5.908   2.104   0.134
 6492TIP3    H119482   5.996   2.142   0.135
 6492TIP3    H219483   5.850   2.178   0.114
 6493TIP3   OH219484   4.625   0.158   0.341
 6493TIP3    H119485   4.618   0.064   0.358
 6493TIP3    H219486   4.625   0.166   0.245
 6494TIP3   OH219487   2.990   2.991  -0.014
 6494TIP3    H119488   2.962   2.901   0.002
 6494TIP3    H219489   3.084   2.990   0.006
 6495TIP3   OH219490   5.768   4.399   1.198
 6495TIP3    H119491   5.721   4.345   1.262
 6495TIP3    H219492   5.810   4.467   1.250
 6496TIP3   OH219493   0.182   1.234   3.156
 6496TIP3    H119494   0.244   1.204   3.222
 6496TIP3    H219495   0.107   1.176   3.166
 6497TIP3   OH219496   6.104   3.153   2.677
 6497TIP3    H119497   6.024   3.142   2.626
 6497TIP3    H219498   6.090   3.101   2.756
 6498TIP3   OH219499   2.980   3.558   1.807
 6498TIP3    H119500   2.964   3.518   1.893
 6498TIP3    H219501   2.892   3.577   1.773
 6499TIP3   OH219502   1.493   0.345   2.542
 6499TIP3    H119503   1.410   0.387   2.520
 6499TIP3    H219504   1.558   0.415   2.539
 6500TIP3   OH219505   4.548   3.214   3.054
 6500TIP3    H119506   4.486   3.221   2.982
 6500TIP3    H219507   4.585   3.302   3.063
 6501TIP3   OH219508   1.887   3.782   1.804
 6501TIP3    H119509   1.920   3.823   1.724
 6501TIP3    H219510   1.945   3.815   1.873
 6502TIP3   OH219511   1.613   4.048   2.967
 6502TIP3    H119512   1.563   3.984   3.019
 6502TIP3    H219513   1.593   4.024   2.876
 6503TIP3   OH219514   0.593   2.272   2.079
 6503TIP3    H119515   0.621   2.189   2.117
 6503TIP3    H219516   0.555   2.248   1.994
 6504TIP3   OH219517   4.422   1.814   2.534
 6504TIP3    H119518   4.508   1.856   2.540
 6504TIP3    H219519   4.401   1.818   2.440
 6505TIP3   OH219520   4.030   3.268   1.944
 6505TIP3    H119521   4.090   3.340   1.924
 6505TIP3    H219522   3.945   3.310   1.954
 6506TIP3   OH219523   0.333   0.166   2.859
 6506TIP3    H119524   0.344   0.228   2.931
 6506TIP3    H219525   0.284   0.215   2.792
 6507TIP3   OH219526   0.490   0.941   2.336
 6507TIP3    H119527   0.525   1.029   2.351
 6507TIP3    H219528   0.565   0.883   2.349
 6508TIP3   OH219529   4.993   4.036   0.233
 6508TIP3    H119530   4.914   4.001   0.274
 6508TIP3    H219531   5.048   3.959   0.217
 6509TIP3   OH219532   0.736   2.775   2.006
 6509TIP3    H119533   0.656   2.725   1.993
 6509TIP3    H219534   0.788   2.722   2.067
 6510TIP3   OH219535   1.780   3.108   3.386
 6510TIP3    H119536   1.762   3.192   3.428
 6510TIP3    H219537   1.738   3.043   3.442
 6511TIP3   OH219538   4.667   3.523   2.894
 6511TIP3    H119539   4.687   3.605   2.941
 6511TIP3    H219540   4.743   3.467   2.911
 6512TIP3   OH219541   4.490   1.056   3.029
 6512TIP3    H119542   4.498   1.151   3.023
 6512TIP3    H219543   4.482   1.027   2.938
 6513TIP3   OH219544   3.559   3.934   1.968
 6513TIP3    H119545   3.544   3.845   1.998
 6513TIP3    H219546   3.525   3.935   1.878
 6514TIP3   OH219547   3.002   4.661   2.030
 6514TIP3    H119548   2.950   4.720   1.976
 6514TIP3    H219549   3.092   4.672   1.998
 6515TIP3   OH219550   5.545   5.263   1.612
 6515TIP3    H119551   5.461   5.217   1.613
 6515TIP3    H219552   5.540   5.320   1.535
 6516TIP3   OH219553   5.553   1.264   4.441
 6516TIP3    H119554   5.491   1.319   4.489
 6516TIP3    H219555   5.574   1.314   4.362
 6517TIP3   OH219556   3.881   5.715   3.529
 6517TIP3    H119557   3.882   5.778   3.601
 6517TIP3    H219558   3.828   5.757   3.461
 6518TIP3   OH219559   4.369   5.688   4.530
 6518TIP3    H119560   4.335   5.607   4.494
 6518TIP3    H219561   4.322   5.699   4.613
 6519TIP3   OH219562   3.018   4.800   3.906
 6519TIP3    H119563   3.087   4.778   3.969
 6519TIP3    H219564   2.989   4.888   3.932
 6520TIP3   OH219565   0.855   4.127   3.654
 6520TIP3    H119566   0.922   4.081   3.604
 6520TIP3    H219567   0.813   4.185   3.591
 6521TIP3   OH219568   3.095   4.646   2.677
 6521TIP3    H119569   3.098   4.724   2.732
 6521TIP3    H219570   3.008   4.648   2.636
 6522TIP3   OH219571   4.736   2.152   0.298
 6522TIP3    H119572   4.671   2.091   0.333
 6522TIP3    H219573   4.781   2.102   0.230
 6523TIP3   OH219574   0.374   4.353   3.744
 6523TIP3    H119575   0.434   4.283   3.717
 6523TIP3    H219576   0.432   4.423   3.775
 6524TIP3   OH219577   1.887   1.578   0.031
 6524TIP3    H119578   1.969   1.577   0.080
 6524TIP3    H219579   1.897   1.650  -0.031
 6525TIP3   OH219580   5.296   4.324   1.583
 6525TIP3    H119581   5.328   4.238   1.556
 6525TIP3    H219582   5.204   4.308   1.607
 6526TIP3   OH219583   4.108   1.385   3.426
 6526TIP3    H119584   4.105   1.363   3.333
 6526TIP3    H219585   4.139   1.475   3.428
 6527TIP3   OH219586   2.615   2.929   5.100
 6527TIP3    H119587   2.567   2.891   5.173
 6527TIP3    H219588   2.692   2.970   5.140
 6528TIP3   OH219589   5.875   1.255   0.507
 6528TIP3    H119590   5.864   1.171   0.552
 6528TIP3    H219591   5.968   1.260   0.487
 6529TIP3   OH219592   4.744   2.658   0.375
 6529TIP3    H119593   4.735   2.743   0.418
 6529TIP3    H219594   4.829   2.626   0.404
 6530TIP3   OH219595   1.678   2.028   3.841
 6530TIP3    H119596   1.740   1.963   3.809
 6530TIP3    H219597   1.725   2.074   3.911
 6531TIP3   OH219598   2.226   5.986   0.255
 6531TIP3    H119599   2.275   6.042   0.195
 6531TIP3    H219600   2.151   6.040   0.281
 6532TIP3   OH219601   3.366   2.287   1.614
 6532TIP3    H119602   3.419   2.207   1.618
 6532TIP3    H219603   3.411   2.342   1.550
 6533TIP3   OH219604   0.201   0.540   1.235
 6533TIP3    H119605   0.135   0.537   1.167
 6533TIP3    H219606   0.273   0.486   1.202
 6534TIP3   OH219607   3.757   0.592   4.806
 6534TIP3    H119608   3.821   0.524   4.828
 6534TIP3    H219609   3.674   0.545   4.796
 6535TIP3   OH219610   1.562   5.443   4.591
 6535TIP3    H119611   1.579   5.494   4.512
 6535TIP3    H219612   1.570   5.352   4.563
 6536TIP3   OH219613   3.835   0.552   4.535
 6536TIP3    H119614   3.807   0.576   4.623
 6536TIP3    H219615   3.838   0.635   4.487
 6537TIP3   OH219616   0.783   1.300   3.372
 6537TIP3    H119617   0.705   1.354   3.358
 6537TIP3    H219618   0.856   1.359   3.351
 6538TIP3   OH219619   4.033   2.740   1.108
 6538TIP3    H119620   3.989   2.754   1.192
 6538TIP3    H219621   3.981   2.789   1.045
 6539TIP3   OH219622   3.755   0.968   2.352
 6539TIP3    H119623   3.668   1.007   2.344
 6539TIP3    H219624   3.754   0.925   2.437
 6540TIP3   OH219625   3.232   5.486   0.653
 6540TIP3    H119626   3.316   5.512   0.691
 6540TIP3    H219627   3.221   5.394   0.679
 6541TIP3   OH219628   6.174   2.796   2.480
 6541TIP3    H119629   6.213   2.810   2.566
 6541TIP3    H219630   6.237   2.740   2.434
 6542TIP3   OH219631   0.342   3.329   1.128
 6542TIP3    H119632   0.415   3.385   1.153
 6542TIP3    H219633   0.324   3.277   1.207
 6543TIP3   OH219634   1.498   0.944   4.230
 6543TIP3    H119635   1.530   0.856   4.208
 6543TIP3    H219636   1.572   0.986   4.273
 6544TIP3   OH219637   6.197   4.801   2.532
 6544TIP3    H119638   6.248   4.735   2.487
 6544TIP3    H219639   6.261   4.847   2.587
 6545TIP3   OH219640   6.280   0.187   2.457
 6545TIP3    H119641   6.262   0.117   2.395
 6545TIP3    H219642   6.227   0.261   2.426
 6546TIP3   OH219643   3.258   1.651   1.665
 6546TIP3    H119644   3.234   1.614   1.750
 6546TIP3    H219645   3.293   1.738   1.686
 6547TIP3   OH219646   3.154   0.553   5.106
 6547TIP3    H119647   3.069   0.540   5.146
 6547TIP3    H219648   3.148   0.639   5.064
 6548TIP3   OH219649   2.759   3.498   1.523
 6548TIP3    H119650   2.679   3.490   1.574
 6548TIP3    H219651   2.760   3.589   1.494
 6549TIP3   OH219652   0.468   6.036   0.980
 6549TIP3    H119653   0.457   5.942   0.997
 6549TIP3    H219654   0.468   6.044   0.885
 6550TIP3   OH219655   1.426   4.638   3.642
 6550TIP3    H119656   1.476   4.563   3.608
 6550TIP3    H219657   1.339   4.603   3.659
 6551TIP3   OH219658   0.673   5.348   0.631
 6551TIP3    H119659   0.636   5.331   0.544
 6551TIP3    H219660   0.762   5.312   0.626
 6552TIP3   OH219661   1.973   2.117   3.194
 6552TIP3    H119662   1.931   2.180   3.254
 6552TIP3    H219663   2.052   2.090   3.240
 6553TIP3   OH219664   0.438   0.881   1.227
 6553TIP3    H119665   0.499   0.898   1.299
 6553TIP3    H219666   0.399   0.796   1.248
 6554TIP3   OH219667   1.913   0.985   1.200
 6554TIP3    H119668   2.002   1.016   1.216
 6554TIP3    H219669   1.888   1.024   1.117
 6555TIP3   OH219670   2.509   4.701   2.490
 6555TIP3    H119671   2.536   4.728   2.578
 6555TIP3    H219672   2.439   4.762   2.467
 6556TIP3   OH219673   1.169   1.144   3.063
 6556TIP3    H119674   1.158   1.076   2.996
 6556TIP3    H219675   1.119   1.111   3.138
 6557TIP3   OH219676   4.820   1.250   3.513
 6557TIP3    H119677   4.908   1.214   3.507
 6557TIP3    H219678   4.829   1.327   3.570
 6558TIP3   OH219679   1.859   4.287   2.575
 6558TIP3    H119680   1.933   4.227   2.582
 6558TIP3    H219681   1.853   4.329   2.661
 6559TIP3   OH219682   4.194   1.121   2.188
 6559TIP3    H119683   4.181   1.205   2.231
 6559TIP3    H219684   4.191   1.142   2.094
 6560TIP3   OH219685   4.808   2.579   3.002
 6560TIP3    H119686   4.847   2.557   2.918
 6560TIP3    H219687   4.738   2.515   3.015
 6561TIP3   OH219688   0.744   5.163   1.173
 6561TIP3    H119689   0.798   5.219   1.118
 6561TIP3    H219690   0.655   5.196   1.160
 6562TIP3   OH219691   3.413   1.864   0.379
 6562TIP3    H119692   3.345   1.812   0.336
 6562TIP3    H219693   3.376   1.883   0.465
 6563TIP3   OH219694   4.163   0.393   1.770
 6563TIP3    H119695   4.209   0.442   1.838
 6563TIP3    H219696   4.085   0.359   1.813
 6564TIP3   OH219697   5.493   4.539   3.346
 6564TIP3    H119698   5.524   4.546   3.437
 6564TIP3    H219699   5.524   4.453   3.317
 6565TIP3   OH219700   5.901   4.328   0.956
 6565TIP3    H119701   5.853   4.324   1.039
 6565TIP3    H219702   5.832   4.327   0.889
 6566TIP3   OH219703   0.751   1.760   2.859
 6566TIP3    H119704   0.664   1.797   2.864
 6566TIP3    H219705   0.801   1.805   2.928
 6567TIP3   OH219706   2.245   5.881   4.419
 6567TIP3    H119707   2.297   5.938   4.362
 6567TIP3    H219708   2.292   5.881   4.502
 6568TIP3   OH219709   5.401   5.184   1.064
 6568TIP3    H119710   5.333   5.251   1.071
 6568TIP3    H219711   5.479   5.225   1.102
 6569TIP3   OH219712   3.817   0.454   0.034
 6569TIP3    H119713   3.890   0.410  -0.010
 6569TIP3    H219714   3.859   0.509   0.100
 6570TIP3   OH219715   3.676   2.142   3.091
 6570TIP3    H119716   3.631   2.169   3.171
 6570TIP3    H219717   3.606   2.135   3.026
 6571TIP3   OH219718   1.994   1.453   4.177
 6571TIP3    H119719   1.972   1.468   4.269
 6571TIP3    H219720   1.929   1.503   4.128
 6572TIP3   OH219721   4.932   0.287   3.604
 6572TIP3    H119722   4.934   0.258   3.513
 6572TIP3    H219723   4.946   0.382   3.600
 6573TIP3   OH219724   0.356   2.444   0.577
 6573TIP3    H119725   0.440   2.425   0.536
 6573TIP3    H219726   0.300   2.474   0.504
 6574TIP3   OH219727   6.282   5.396   3.620
 6574TIP3    H119728   6.253   5.358   3.703
 6574TIP3    H219729   6.274   5.490   3.633
 6575TIP3   OH219730   2.974   3.033   2.167
 6575TIP3    H119731   2.925   3.028   2.085
 6575TIP3    H219732   2.911   3.070   2.229
 6576TIP3   OH219733   4.456   3.037   0.675
 6576TIP3    H119734   4.547   3.056   0.695
 6576TIP3    H219735   4.448   2.942   0.684
 6577TIP3   OH219736   2.620   4.197   1.703
 6577TIP3    H119737   2.625   4.278   1.754
 6577TIP3    H219738   2.610   4.128   1.768
 6578TIP3   OH219739   6.235   4.326   5.206
 6578TIP3    H119740   6.218   4.419   5.187
 6578TIP3    H219741   6.232   4.284   5.120
 6579TIP3   OH219742   3.394   5.633   2.418
 6579TIP3    H119743   3.403   5.567   2.349
 6579TIP3    H219744   3.413   5.585   2.499
 6580TIP3   OH219745   2.079   4.963   2.342
 6580TIP3    H119746   2.145   4.915   2.292
 6580TIP3    H219747   2.126   5.035   2.383
 6581TIP3   OH219748   5.010   3.632   5.061
 6581TIP3    H119749   4.999   3.622   4.966
 6581TIP3    H219750   5.082   3.695   5.069
 6582TIP3   OH219751   3.381   1.426   1.545
 6582TIP3    H119752   3.454   1.413   1.605
 6582TIP3    H219753   3.327   1.494   1.586
 6583TIP3   OH219754   3.666   1.762   3.365
 6583TIP3    H119755   3.613   1.704   3.310
 6583TIP3    H219756   3.652   1.730   3.455
 6584TIP3   OH219757   0.652   5.966   1.175
 6584TIP3    H119758   0.617   5.982   1.088
 6584TIP3    H219759   0.721   5.900   1.161
 6585TIP3   OH219760   5.379   1.723   1.314
 6585TIP3    H119761   5.461   1.681   1.289
 6585TIP3    H219762   5.353   1.772   1.236
 6586TIP3   OH219763   2.583   4.771   2.773
 6586TIP3    H119764   2.581   4.845   2.834
 6586TIP3    H219765   2.602   4.695   2.828
 6587TIP3   OH219766   2.194   2.587   1.391
 6587TIP3    H119767   2.116   2.535   1.377
 6587TIP3    H219768   2.169   2.649   1.460
 6588TIP3   OH219769   6.051   2.027   2.451
 6588TIP3    H119770   6.023   1.947   2.495
 6588TIP3    H219771   6.111   1.997   2.382
 6589TIP3   OH219772   1.740   2.969   2.221
 6589TIP3    H119773   1.726   2.889   2.271
 6589TIP3    H219774   1.705   3.039   2.276
 6590TIP3   OH219775   2.265   4.380   3.431
 6590TIP3    H119776   2.193   4.389   3.493
 6590TIP3    H219777   2.332   4.441   3.462
 6591TIP3   OH219778   0.632   2.307   1.425
 6591TIP3    H119779   0.642   2.332   1.518
 6591TIP3    H219780   0.688   2.230   1.415
 6592TIP3   OH219781   6.182   0.144   4.413
 6592TIP3    H119782   6.118   0.189   4.469
 6592TIP3    H219783   6.225   0.214   4.365
 6593TIP3   OH219784   6.257   3.259   4.362
 6593TIP3    H119785   6.285   3.168   4.370
 6593TIP3    H219786   6.186   3.268   4.426
 6594TIP3   OH219787   1.905   5.089   1.704
 6594TIP3    H119788   1.918   5.095   1.798
 6594TIP3    H219789   1.968   5.151   1.667
 6595TIP3   OH219790   3.434   4.380   4.219
 6595TIP3    H119791   3.503   4.343   4.165
 6595TIP3    H219792   3.461   4.471   4.234
 6596TIP3   OH219793   2.488   5.176   2.038
 6596TIP3    H119794   2.579   5.182   2.008
 6596TIP3    H219795   2.457   5.267   2.038
 6597TIP3   OH219796   2.081   5.591   2.051
 6597TIP3    H119797   2.098   5.570   2.143
 6597TIP3    H219798   2.027   5.670   2.054
 6598TIP3   OH219799   0.658   0.554   1.192
 6598TIP3    H119800   0.643   0.593   1.278
 6598TIP3    H219801   0.576   0.507   1.173
 6599TIP3   OH219802   0.476   4.183   2.508
 6599TIP3    H119803   0.479   4.111   2.572
 6599TIP3    H219804   0.479   4.139   2.423
 6600TIP3   OH219805   0.603   4.315   0.767
 6600TIP3    H119806   0.511   4.341   0.770
 6600TIP3    H219807   0.607   4.236   0.822
 6601TIP3   OH219808   2.715   3.596   4.060
 6601TIP3    H119809   2.664   3.632   4.133
 6601TIP3    H219810   2.651   3.552   4.005
 6602TIP3   OH219811   2.624   0.469   1.864
 6602TIP3    H119812   2.682   0.545   1.854
 6602TIP3    H219813   2.683   0.397   1.887
 6603TIP3   OH219814   3.182   2.800   4.005
 6603TIP3    H119815   3.125   2.850   3.946
 6603TIP3    H219816   3.231   2.742   3.947
 6604TIP3   OH219817   3.499   5.037   4.628
 6604TIP3    H119818   3.436   5.108   4.641
 6604TIP3    H219819   3.473   4.970   4.690
 6605TIP3   OH219820   0.875   1.933   3.397
 6605TIP3    H119821   0.802   1.993   3.411
 6605TIP3    H219822   0.903   1.908   3.485
 6606TIP3   OH219823   2.094   3.395   4.754
 6606TIP3    H119824   2.171   3.383   4.809
 6606TIP3    H219825   2.053   3.309   4.750
 6607TIP3   OH219826   4.160   1.257   0.297
 6607TIP3    H119827   4.121   1.248   0.210
 6607TIP3    H219828   4.196   1.346   0.297
 6608TIP3   OH219829   3.806   5.222   1.893
 6608TIP3    H119830   3.773   5.269   1.969
 6608TIP3    H219831   3.763   5.265   1.818
 6609TIP3   OH219832   5.679   4.040   5.091
 6609TIP3    H119833   5.706   3.956   5.055
 6609TIP3    H219834   5.601   4.064   5.041
 6610TIP3   OH219835   5.221   1.692   1.554
 6610TIP3    H119836   5.300   1.731   1.515
 6610TIP3    H219837   5.161   1.680   1.481
 6611TIP3   OH219838   3.419   3.120   1.218
 6611TIP3    H119839   3.351   3.144   1.156
 6611TIP3    H219840   3.421   3.024   1.217
 6612TIP3   OH219841   4.759   2.542   3.713
 6612TIP3    H119842   4.815   2.617   3.735
 6612TIP3    H219843   4.770   2.482   3.787
 6613TIP3   OH219844   1.001   3.191   4.433
 6613TIP3    H119845   1.046   3.130   4.492
 6613TIP3    H219846   0.911   3.159   4.430
 6614TIP3   OH219847   1.846   3.527   1.604
 6614TIP3    H119848   1.896   3.466   1.658
 6614TIP3    H219849   1.754   3.510   1.628
 6615TIP3   OH219850   2.485   0.283   2.812
 6615TIP3    H119851   2.521   0.370   2.827
 6615TIP3    H219852   2.557   0.233   2.776
 6616TIP3   OH219853   4.977   1.913   1.858
 6616TIP3    H119854   4.971   2.003   1.890
 6616TIP3    H219855   4.905   1.867   1.902
 6617TIP3   OH219856   1.415   0.373   0.542
 6617TIP3    H119857   1.463   0.332   0.470
 6617TIP3    H219858   1.482   0.390   0.609
 6618TIP3   OH219859   4.808   0.996   2.878
 6618TIP3    H119860   4.795   1.033   2.791
 6618TIP3    H219861   4.726   1.012   2.924
 6619TIP3   OH219862   6.122   0.194   1.928
 6619TIP3    H119863   6.196   0.134   1.938
 6619TIP3    H219864   6.159   0.280   1.947
 6620TIP3   OH219865   2.204   0.923   3.609
 6620TIP3    H119866   2.109   0.916   3.598
 6620TIP3    H219867   2.227   1.005   3.566
 6621TIP3   OH219868   4.204   5.482   4.434
 6621TIP3    H119869   4.178   5.390   4.440
 6621TIP3    H219870   4.173   5.510   4.348
 6622TIP3   OH219871   1.501   3.799   1.067
 6622TIP3    H119872   1.589   3.776   1.095
 6622TIP3    H219873   1.511   3.881   1.019
 6623TIP3   OH219874   3.065   1.209   2.457
 6623TIP3    H119875   3.040   1.258   2.535
 6623TIP3    H219876   3.131   1.146   2.488
 6624TIP3   OH219877   1.822   3.090   0.614
 6624TIP3    H119878   1.810   3.148   0.690
 6624TIP3    H219879   1.743   3.036   0.613
 6625TIP3   OH219880   1.461   1.919   1.241
 6625TIP3    H119881   1.510   1.990   1.200
 6625TIP3    H219882   1.384   1.908   1.187
 6626TIP3   OH219883   3.447   1.973   3.547
 6626TIP3    H119884   3.434   1.886   3.508
 6626TIP3    H219885   3.485   1.955   3.633
 6627TIP3   OH219886   3.420   3.772   3.387
 6627TIP3    H119887   3.443   3.681   3.368
 6627TIP3    H219888   3.333   3.768   3.427
 6628TIP3   OH219889   3.640   4.382   4.794
 6628TIP3    H119890   3.701   4.447   4.828
 6628TIP3    H219891   3.610   4.419   4.711
 6629TIP3   OH219892   0.520   0.393   4.166
 6629TIP3    H119893   0.497   0.342   4.088
 6629TIP3    H219894   0.606   0.430   4.146
 6630TIP3   OH219895   4.578   0.916   1.714
 6630TIP3    H119896   4.591   0.878   1.627
 6630TIP3    H219897   4.650   0.978   1.724
 6631TIP3   OH219898   0.701   4.378   1.155
 6631TIP3    H119899   0.661   4.294   1.180
 6631TIP3    H219900   0.697   4.431   1.234
 6632TIP3   OH219901   1.330   4.900   3.598
 6632TIP3    H119902   1.352   4.808   3.608
 6632TIP3    H219903   1.398   4.947   3.646
 6633TIP3   OH219904   0.065   2.656   1.019
 6633TIP3    H119905   0.068   2.583   1.081
 6633TIP3    H219906   0.108   2.623   0.940
 6634TIP3   OH219907   5.215   4.084   1.415
 6634TIP3    H119908   5.169   4.027   1.352
 6634TIP3    H219909   5.305   4.088   1.383
 6635TIP3   OH219910   3.633   1.831   4.704
 6635TIP3    H119911   3.726   1.810   4.713
 6635TIP3    H219912   3.591   1.784   4.776
 6636TIP3   OH219913   4.676   3.218   3.754
 6636TIP3    H119914   4.662   3.134   3.799
 6636TIP3    H219915   4.678   3.195   3.661
 6637TIP3   OH219916   3.832   3.627   5.013
 6637TIP3    H119917   3.771   3.603   4.943
 6637TIP3    H219918   3.879   3.703   4.978
 6638TIP3   OH219919   0.980   4.865   4.780
 6638TIP3    H119920   0.924   4.792   4.808
 6638TIP3    H219921   0.969   4.869   4.685
 6639TIP3   OH219922   3.210   0.111   1.065
 6639TIP3    H119923   3.219   0.060   1.145
 6639TIP3    H219924   3.115   0.123   1.054
 6640TIP3   OH219925   3.181   4.412   3.768
 6640TIP3    H119926   3.183   4.507   3.774
 6640TIP3    H219927   3.110   4.392   3.708
 6641TIP3   OH219928   5.630   5.081   4.619
 6641TIP3    H119929   5.597   5.168   4.639
 6641TIP3    H219930   5.553   5.024   4.625
 6642TIP3   OH219931   4.851   3.364   0.824
 6642TIP3    H119932   4.931   3.408   0.794
 6642TIP3    H219933   4.780   3.422   0.797
 6643TIP3   OH219934   1.720   0.259   1.052
 6643TIP3    H119935   1.792   0.202   1.025
 6643TIP3    H219936   1.752   0.303   1.131
 6644TIP3   OH219937   0.989   5.967   0.529
 6644TIP3    H119938   1.081   5.962   0.555
 6644TIP3    H219939   0.970   5.882   0.489
 6645TIP3   OH219940   0.169   2.149   4.504
 6645TIP3    H119941   0.189   2.242   4.491
 6645TIP3    H219942   0.239   2.103   4.457
   6.35538   5.99191   5.18915   0.00000   0.00000  -2.11847   0.00000  -2.11847  -2.99596
