Title
19942
    1ASP      N    1   1.066   2.424   4.064  0.4038 -0.7738  0.2161
    1ASP    HT1    2   0.985   2.451   4.005  0.4980  3.8848  1.7787
    1ASP    HT2    3   1.154   2.475   4.042  0.5403 -0.8270  0.6275
    1ASP    HT3    4   1.051   2.452   4.163  2.3031  0.5320  0.1850
    1ASP     CA    5   1.110   2.287   4.056 -0.9411 -0.1257  0.6029
    1ASP     HA    6   1.209   2.287   4.100 -0.4164  0.7532 -0.5489
    1ASP     CB    7   1.010   2.179   4.114 -0.0888 -0.5436 -0.0498
    1ASP    HB1    8   1.050   2.080   4.083  0.8945 -0.0286 -0.4749
    1ASP    HB2    9   0.909   2.191   4.070  0.7528  2.1799 -1.4155
    1ASP     CG   10   1.013   2.195   4.264 -0.4960  0.5372  0.0017
    1ASP    OD1   11   0.942   2.112   4.334 -0.0231  0.2947 -0.1793
    1ASP    OD2   12   1.094   2.279   4.311 -0.4332 -0.0252 -0.0237
    1ASP      C   13   1.136   2.266   3.906 -0.0064  0.4193  0.1332
    1ASP      O   14   1.081   2.339   3.820 -0.2534 -0.3139 -0.0458
    2ALA      N   15   1.208   2.158   3.866 -0.6709  0.1044  0.0085
    2ALA     HN   16   1.243   2.093   3.933  0.1515 -0.6152 -1.0731
    2ALA     CA   17   1.256   2.120   3.734  0.2276  0.6791  0.2211
    2ALA     HA   18   1.346   2.170   3.700  1.4938 -1.7816 -0.3237
    2ALA     CB   19   1.304   1.975   3.753 -0.3049 -0.6472  0.2854
    2ALA    HB1   20   1.335   1.931   3.656  1.9473  1.5777 -0.1053
    2ALA    HB2   21   1.227   1.916   3.807  0.3823 -1.7998  0.0583
    2ALA    HB3   22   1.401   1.966   3.807 -0.2100 -0.2465  0.1797
    2ALA      C   23   1.158   2.118   3.617 -0.4886  0.1414  0.3009
    2ALA      O   24   1.035   2.121   3.638  0.4313 -0.0169  0.5535
    3ASP      N   25   1.213   2.113   3.500 -0.3537  0.6974 -0.3777
    3ASP     HN   26   1.311   2.095   3.495 -0.5500 -0.2776 -1.0884
    3ASP     CA   27   1.132   2.102   3.381 -0.7428 -0.1686  0.4828
    3ASP     HA   28   1.051   2.172   3.393 -1.5174 -1.3439  2.8066
    3ASP     CB   29   1.214   2.135   3.254  0.2128  0.0423  0.0041
    3ASP    HB1   30   1.155   2.095   3.170 -1.0993 -1.2083  1.4662
    3ASP    HB2   31   1.315   2.089   3.249  0.1580 -0.0304 -0.4607
    3ASP     CG   32   1.230   2.285   3.240  0.3334  0.1665 -0.0964
    3ASP    OD1   33   1.313   2.317   3.154 -0.0908  0.3360  0.3114
    3ASP    OD2   34   1.158   2.363   3.305 -0.7176  0.0472 -0.6345
    3ASP      C   35   1.062   1.976   3.366 -0.0718 -0.2152  0.5528
    3ASP      O   36   1.103   1.871   3.406 -0.0304 -0.1193  0.0449
    4GLY      N   37   0.947   1.991   3.298 -0.1790 -0.1644 -0.3638
    4GLY     HN   38   0.920   2.081   3.265  1.8416 -0.0159 -1.7572
    4GLY     CA   39   0.849   1.880   3.276  0.1777  0.5809  0.1774
    4GLY    HA1   40   0.758   1.916   3.232  0.6555  0.3753 -1.0190
    4GLY    HA2   41   0.830   1.845   3.377  0.6609 -1.5170 -0.4208
    4GLY      C   42   0.882   1.775   3.181 -0.2867  0.1275 -0.3958
    4GLY      O   43   0.991   1.782   3.118  0.1665 -0.2128  0.1250
    5PRO      N   44   0.794   1.677   3.150  0.6779 -0.4066 -0.1262
    5PRO     CD   45   0.660   1.675   3.198  0.4840 -0.4249  0.0195
    5PRO    HD1   46   0.609   1.773   3.195  0.1377 -0.6096 -2.8469
    5PRO    HD2   47   0.651   1.649   3.306 -2.4100 -0.5585 -0.1580
    5PRO     CA   48   0.809   1.588   3.035 -0.4789  0.5699  0.4047
    5PRO     HA   49   0.908   1.546   3.030 -0.9832 -0.5545 -1.8366
    5PRO     CB   50   0.702   1.480   3.048  0.4527  0.0602  0.1483
    5PRO    HB1   51   0.734   1.390   3.104  0.2759  0.6192  1.1669
    5PRO    HB2   52   0.664   1.459   2.946  0.9754 -1.7615  0.2892
    5PRO     CG   53   0.589   1.562   3.120 -0.9032 -0.4519  0.5753
    5PRO    HG1   54   0.523   1.612   3.046 -0.5209 -1.5693 -0.5635
    5PRO    HG2   55   0.521   1.501   3.183 -3.2449  3.3156  2.0334
    5PRO      C   56   0.810   1.663   2.902 -0.3135  0.2582 -0.4818
    5PRO      O   57   0.735   1.756   2.875 -0.1317 -0.5657 -0.0910
    6GLY      N   58   0.902   1.613   2.808  0.3027  0.6226  0.1892
    6GLY     HN   59   0.956   1.531   2.824 -0.7958 -0.5012 -1.4940
    6GLY     CA   60   0.911   1.665   2.671 -0.1111 -0.3023  0.1295
    6GLY    HA1   61   1.015   1.658   2.642  0.5554  1.9080  1.6972
    6GLY    HA2   62   0.868   1.764   2.665  0.7562  0.0775  0.0220
    6GLY      C   63   0.842   1.571   2.578  0.1150  0.1021  0.5405
    6GLY      O   64   0.796   1.616   2.475 -0.7860 -0.4746  0.4032
    7ASP      N   65   0.822   1.436   2.609 -0.2320  0.4958 -0.4168
    7ASP     HN   66   0.856   1.395   2.693 -1.3361  0.4030 -0.0034
    7ASP     CA   67   0.747   1.350   2.529  0.4760 -0.5582 -0.1716
    7ASP     HA   68   0.727   1.397   2.434  2.3315  1.7029  0.4815
    7ASP     CB   69   0.813   1.210   2.508  0.2741  0.0720 -0.6757
    7ASP    HB1   70   0.808   1.171   2.611 -0.4910 -2.3023 -1.5355
    7ASP    HB2   71   0.919   1.218   2.477  0.4181  0.4338 -0.1017
    7ASP     CG   72   0.740   1.112   2.422 -0.1604 -0.0679 -0.5134
    7ASP    OD1   73   0.794   1.006   2.393  0.3419  0.0529 -0.0571
    7ASP    OD2   74   0.630   1.150   2.368 -0.4330  0.4076 -0.3131
    7ASP      C   75   0.608   1.351   2.602 -0.4634  0.6741  0.7299
    7ASP      O   76   0.607   1.312   2.723  0.1215  0.2268  0.3900
    8PRO      N   77   0.488   1.384   2.555  0.5278 -0.6668  0.0728
    8PRO     CD   78   0.463   1.463   2.431  0.4470  0.0261  0.1856
    8PRO    HD1   79   0.469   1.394   2.344  0.1192  0.3726 -0.1202
    8PRO    HD2   80   0.537   1.545   2.422  1.2557 -0.6378  0.6749
    8PRO     CA   81   0.364   1.347   2.618 -0.3636  0.4925 -0.5851
    8PRO     HA   82   0.363   1.393   2.715 -1.4469 -0.5113 -0.0933
    8PRO     CB   83   0.254   1.409   2.518 -0.3399  0.2101 -0.4132
    8PRO    HB1   84   0.157   1.430   2.568 -1.2189  0.2223 -2.0649
    8PRO    HB2   85   0.237   1.339   2.433  0.9138 -0.4066 -0.1794
    8PRO     CG   86   0.326   1.526   2.454  0.0817 -0.0557 -0.2166
    8PRO    HG1   87   0.281   1.568   2.361 -0.3077 -0.7152 -0.3295
    8PRO    HG2   88   0.341   1.599   2.537  1.3892 -2.4001  1.7557
    8PRO      C   89   0.341   1.207   2.654 -0.0477 -0.0243  0.5078
    8PRO      O   90   0.254   1.196   2.733  0.0759 -0.5230  0.5292
    9ASP      N   91   0.415   1.104   2.605  0.2055 -0.2465 -0.2018
    9ASP     HN   92   0.480   1.131   2.534 -0.1670  2.7389  0.4421
    9ASP     CA   93   0.408   0.971   2.655 -0.4878 -0.2464  0.0090
    9ASP     HA   94   0.305   0.941   2.644 -0.7518  0.1930  1.1879
    9ASP     CB   95   0.500   0.882   2.575  0.5201 -0.4088 -0.3490
    9ASP    HB1   96   0.492   0.777   2.611 -0.7598 -0.0337  0.5324
    9ASP    HB2   97   0.605   0.918   2.580  0.1752  0.6312 -0.2017
    9ASP     CG   98   0.454   0.878   2.433 -0.4994 -0.6460 -0.1116
    9ASP    OD1   99   0.334   0.875   2.400  0.1535 -0.7842  0.0349
    9ASP    OD2  100   0.546   0.852   2.350 -0.2261  0.0954 -0.1775
    9ASP      C  101   0.449   0.950   2.801 -0.0867 -0.8817  0.7583
    9ASP      O  102   0.407   0.854   2.866  0.5912  0.5201  0.3864
   10ALA      N  103   0.525   1.040   2.858 -0.0409  0.2874 -0.2884
   10ALA     HN  104   0.536   1.130   2.816  0.9670 -0.3229 -1.3751
   10ALA     CA  105   0.584   1.037   2.986  0.4588 -0.0846 -0.4482
   10ALA     HA  106   0.599   0.939   3.027  0.7617 -0.1222 -0.6394
   10ALA     CB  107   0.728   1.105   2.961 -0.1012 -0.2025 -0.6854
   10ALA    HB1  108   0.781   1.118   3.058 -1.8485  0.9271  0.1888
   10ALA    HB2  109   0.715   1.203   2.912  1.0012  0.0342 -0.5141
   10ALA    HB3  110   0.788   1.052   2.884  1.8978  1.8840 -0.6467
   10ALA      C  111   0.510   1.112   3.095  0.5347 -0.2825  0.3420
   10ALA      O  112   0.569   1.137   3.204 -0.5901 -0.4092  0.4955
   11GLY      N  113   0.379   1.142   3.072 -0.0379 -0.1862 -0.2405
   11GLY     HN  114   0.355   1.137   2.975  0.7860  0.0836 -0.4659
   11GLY     CA  115   0.288   1.209   3.166  0.1317  0.3198  0.0693
   11GLY    HA1  116   0.225   1.273   3.106  0.8853  2.2468  1.2339
   11GLY    HA2  117   0.353   1.252   3.241  1.1894 -1.1243  0.0255
   11GLY      C  118   0.204   1.110   3.245  0.1115 -0.1905  0.1158
   11GLY    OT1  119   0.131   1.031   3.178  0.1311  0.3582  0.3483
   11GLY    OT2  120   0.183   1.127   3.366 -0.0494  0.0633  0.5685
   12LIT    LIT  121   5.144   5.963   4.096 -0.0433 -0.9031  0.0565
   13LIT    LIT  122   1.067   0.645   1.413 -0.1112  0.2158 -0.5885
   14LIT    LIT  123   2.880   2.785   4.146 -0.4079  0.2421  0.5712
   15LIT    LIT  124   4.639   3.035   4.571 -0.2593  0.5365  0.4104
   16LIT    LIT  125   5.334   2.790   2.143  0.3399 -0.3418  0.1879
   17LIT    LIT  126   2.156   4.312   4.253  0.2666 -1.1289  0.4989
   18LIT    LIT  127   0.629   2.580   1.173  1.5607  0.5600 -0.0674
   19LIT    LIT  128   0.627   0.991   2.268 -0.8105 -0.2257  1.0577
   20LIT    LIT  129   0.282   3.930   4.572 -0.2240 -0.7957 -0.1424
   21LIT    LIT  130   4.353   3.377   1.605 -0.4078  1.3573  0.9016
   22LIT    LIT  131   0.854   3.966   1.032 -1.3888 -0.1180  0.0886
   23LIT    LIT  132   3.428   1.710   3.233 -0.4784 -0.5568 -0.1728
   24LIT    LIT  133   3.367   3.859   3.335 -0.4821 -0.8706  0.0444
   25LIT    LIT  134   2.622   4.598   1.336  0.2682  0.1889 -0.8520
   26LIT    LIT  135   4.122   3.392   1.010 -0.9272 -0.9010 -0.2380
   27LIT    LIT  136   1.312   3.584   1.153 -0.2724 -0.0493 -0.1222
   28LIT    LIT  137   2.434   5.761   3.245 -0.3038  0.6384 -0.4041
   29LIT    LIT  138   2.952   5.677   0.339 -0.6771 -0.4981 -0.4477
   30LIT    LIT  139   3.448   0.302   0.437 -0.5047 -0.3731  0.3834
   31LIT    LIT  140   2.191   0.843   3.896  0.2701  0.1558  0.8051
   32LIT    LIT  141   4.381   4.110   0.653  0.7055  1.6611  1.0608
   33LIT    LIT  142   0.170   0.426   0.751 -0.2394  0.6814  0.4510
   34CLA    CLA  143   4.186   3.037   4.651  0.2963 -0.0468 -0.0673
   35CLA    CLA  144   1.883   5.287   3.611 -0.3210 -0.1447 -0.2656
   36CLA    CLA  145   4.533   4.475   0.408 -0.3023  0.3236  0.2345
   37CLA    CLA  146   2.119   2.350   5.100 -0.4106 -0.0344  0.2777
   38CLA    CLA  147   3.564   2.183   4.322 -0.0227 -0.2693 -0.3432
   39CLA    CLA  148   1.825   5.506   4.401 -0.2295  0.1781  0.1777
   40CLA    CLA  149   5.298   3.474   3.653  0.2787  0.2303  0.0757
   41CLA    CLA  150   5.636   4.883   3.623 -0.0171  0.3214  0.2189
   42CLA    CLA  151   5.676   5.453   1.539  0.1694 -0.7345  0.0779
   43CLA    CLA  152   2.907   3.765   3.362  0.0482  0.2855  0.1031
   44CLA    CLA  153   2.015   3.011   2.234 -0.0735  0.0232  0.7669
   45CLA    CLA  154   0.490   3.310   4.723  0.1496 -0.3128 -0.2998
   46CLA    CLA  155   1.650   4.187   4.895  0.1889 -0.0641  0.2106
   47CLA    CLA  156   0.373   1.684   0.897  0.3354 -0.1772  0.2165
   48CLA    CLA  157   5.800   2.345   3.917 -0.2164 -0.6050  0.0172
   49CLA    CLA  158   3.591   4.423   1.636  0.0424 -0.4804 -0.3606
   50CLA    CLA  159   3.787   3.232   0.654 -0.5105 -0.2961  0.1959
   51CLA    CLA  160   5.526   5.659   5.163 -0.0327 -0.0333  0.1297
   52TIP3   OH2  161   3.799   5.530   0.123 -0.6890  0.1681 -0.1359
   52TIP3    H1  162   3.767   5.463   0.064 -0.6511  0.1842 -0.1749
   52TIP3    H2  163   3.723   5.554   0.176 -0.5002 -0.4994  0.4473
   53TIP3   OH2  164   1.515   1.088   2.570 -0.2874 -0.5772  0.7859
   53TIP3    H1  165   1.610   1.097   2.561  0.1594 -2.4783  2.8444
   53TIP3    H2  166   1.480   1.163   2.521  2.1729 -0.5458 -1.1637
   54TIP3   OH2  167   3.658   2.488   3.879 -0.5489  0.8292  0.2610
   54TIP3    H1  168   3.669   2.553   3.948 -1.4496  2.3723 -0.9776
   54TIP3    H2  169   3.573   2.507   3.841 -0.3072 -0.3133 -0.9563
   55TIP3   OH2  170   5.335   1.083   4.970  0.7327  0.3805 -0.0561
   55TIP3    H1  171   5.393   1.103   4.896  0.1144  2.7554  0.0229
   55TIP3    H2  172   5.294   1.000   4.946  2.5329 -0.2873 -1.0973
   56TIP3   OH2  173   1.655   0.098   2.385  0.3125  0.6831  0.2992
   56TIP3    H1  174   1.719   0.169   2.384  1.2528 -0.0383  2.3327
   56TIP3    H2  175   1.605   0.112   2.466 -2.2072  1.2493 -1.2511
   57TIP3   OH2  176   4.169   0.714   2.475 -0.3290 -0.7356 -0.0489
   57TIP3    H1  177   4.190   0.621   2.481 -0.7703 -0.8307  0.0458
   57TIP3    H2  178   4.081   0.721   2.512 -1.0433 -0.5503 -1.6936
   58TIP3   OH2  179   3.813   2.817   1.421  0.2238 -0.0193  0.0055
   58TIP3    H1  180   3.746   2.807   1.489  0.3995  0.5977  0.2760
   58TIP3    H2  181   3.832   2.727   1.393  0.1322 -0.2843  0.7562
   59TIP3   OH2  182   5.307   1.769   0.404  0.0266  0.0000 -0.0066
   59TIP3    H1  183   5.341   1.783   0.492  0.1561 -0.1758 -0.0276
   59TIP3    H2  184   5.296   1.674   0.397 -1.2105  0.1105  0.2649
   60TIP3   OH2  185   5.380   3.628   4.836 -0.6661  0.0588 -0.1196
   60TIP3    H1  186   5.348   3.571   4.766  0.4925  0.6052 -1.1356
   60TIP3    H2  187   5.355   3.584   4.917  0.9365 -2.3198 -0.8520
   61TIP3   OH2  188   5.555   2.839   2.427  0.1752  0.3282  0.9465
   61TIP3    H1  189   5.649   2.831   2.412  0.4319  3.6047 -0.1558
   61TIP3    H2  190   5.547   2.857   2.521  0.6170 -0.2846  1.1024
   62TIP3   OH2  191   4.957   1.550   3.598 -0.3091 -0.6004 -0.0933
   62TIP3    H1  192   4.982   1.600   3.520  0.6749 -0.2134  0.4559
   62TIP3    H2  193   5.040   1.523   3.637 -0.7663 -0.1103  1.2619
   63TIP3   OH2  194   0.207   0.452   4.234  0.3166  0.2310 -0.1219
   63TIP3    H1  195   0.262   0.382   4.199  1.2311  0.8010  0.1186
   63TIP3    H2  196   0.192   0.510   4.159  0.6003  0.4194 -0.0328
   64TIP3   OH2  197   2.578   1.565   2.975 -0.2701 -0.4137  0.7085
   64TIP3    H1  198   2.651   1.606   3.021 -1.2091  0.9916  1.0010
   64TIP3    H2  199   2.501   1.611   3.007 -1.3187 -1.9844  0.5409
   65TIP3   OH2  200   1.431   0.880   1.506 -0.1526 -0.4940 -0.1813
   65TIP3    H1  201   1.371   0.952   1.486  0.6984  0.0383 -0.8940
   65TIP3    H2  202   1.475   0.908   1.585 -0.4952 -0.6707  0.0759
   66TIP3   OH2  203   4.615   4.202   2.709  0.3547 -0.0711  0.0473
   66TIP3    H1  204   4.618   4.294   2.738  0.9598 -0.3002  0.7402
   66TIP3    H2  205   4.564   4.157   2.776  0.6545 -0.3705  0.0767
   67TIP3   OH2  206   4.694   3.132   2.159  0.1929 -0.1277 -0.4548
   67TIP3    H1  207   4.722   3.222   2.140  0.4405 -0.2685 -0.7709
   67TIP3    H2  208   4.755   3.102   2.227 -0.4697  0.2544  0.3250
   68TIP3   OH2  209   5.055   3.282   3.609  0.6230  0.4102  0.4934
   68TIP3    H1  210   5.130   3.341   3.612 -0.6518  2.2108 -0.6519
   68TIP3    H2  211   5.007   3.300   3.691  0.0644  1.2705 -0.0013
   69TIP3   OH2  212   5.558   4.542   2.720 -0.1521  0.3060  0.4489
   69TIP3    H1  213   5.579   4.627   2.681  0.4019 -0.1429 -0.2588
   69TIP3    H2  214   5.474   4.555   2.763 -0.9736  0.7178 -1.2170
   70TIP3   OH2  215   3.503   4.494   2.399  0.1954 -0.1368  0.5310
   70TIP3    H1  216   3.554   4.521   2.476 -0.9590 -1.3557  1.7752
   70TIP3    H2  217   3.415   4.527   2.415  0.2133  0.7220 -0.9261
   71TIP3   OH2  218   1.249   4.217   3.662 -0.0171 -0.3308 -0.3963
   71TIP3    H1  219   1.315   4.148   3.661  0.3549  0.0301 -0.8585
   71TIP3    H2  220   1.296   4.295   3.691 -0.5464 -0.3781  0.6160
   72TIP3   OH2  221   3.467   1.184   1.970  0.2599 -0.1215 -0.1575
   72TIP3    H1  222   3.456   1.102   1.922  1.9084 -0.0437 -0.7274
   72TIP3    H2  223   3.562   1.200   1.969  0.1003  1.0944  1.1129
   73TIP3   OH2  224   0.745   4.108   3.570 -0.1321 -0.2025  0.7017
   73TIP3    H1  225   0.717   4.165   3.641  0.6238  0.5154  0.4401
   73TIP3    H2  226   0.678   4.041   3.565  0.6368 -1.2528  3.1906
   74TIP3   OH2  227   4.711   4.360   0.904  0.1208  0.2059  0.4139
   74TIP3    H1  228   4.783   4.409   0.945 -0.7703  1.6688  0.2952
   74TIP3    H2  229   4.707   4.394   0.815 -0.0563 -0.6272  0.0980
   75TIP3   OH2  230   4.058   4.272   0.813  0.5733 -0.0434  0.1727
   75TIP3    H1  231   4.098   4.250   0.897  2.0985  2.2345  0.1223
   75TIP3    H2  232   4.091   4.360   0.793 -0.9935  0.1130 -2.0641
   76TIP3   OH2  233   2.508   0.780   4.614 -0.3370  0.2261  0.1315
   76TIP3    H1  234   2.491   0.843   4.685  2.5713  0.9509  0.3268
   76TIP3    H2  235   2.523   0.834   4.537 -0.2825 -0.3768 -0.2880
   77TIP3   OH2  236   4.589   0.762   1.556  0.3455 -1.1200 -0.0135
   77TIP3    H1  237   4.600   0.807   1.472 -0.4852 -1.7383 -0.4628
   77TIP3    H2  238   4.511   0.801   1.594 -0.1626 -1.8856 -0.2336
   78TIP3   OH2  239   0.968   5.967   3.744  0.4561 -0.5512  0.1721
   78TIP3    H1  240   1.002   5.909   3.676 -1.4219 -2.7252  0.9906
   78TIP3    H2  241   1.047   6.005   3.783  1.6210 -0.0141 -2.4653
   79TIP3   OH2  242   3.613   1.883   0.204 -0.2513  0.0136 -0.2052
   79TIP3    H1  243   3.567   1.805   0.236  0.2025 -0.6962 -1.2301
   79TIP3    H2  244   3.560   1.914   0.131 -1.3093  1.6598  1.1808
   80TIP3   OH2  245   5.067   4.983   0.889  0.3499 -0.2582 -0.5080
   80TIP3    H1  246   5.036   5.051   0.828  1.7499 -0.5327 -1.5883
   80TIP3    H2  247   4.994   4.922   0.896 -0.6536  0.9304 -0.1312
   81TIP3   OH2  248   4.718   1.311   0.345  0.5673  0.1180  0.6012
   81TIP3    H1  249   4.647   1.356   0.300  1.0171  0.4540  0.2249
   81TIP3    H2  250   4.711   1.340   0.436  1.0168  1.1659  0.3127
   82TIP3   OH2  251   1.758   1.814   1.005 -0.2421 -0.2213 -0.0765
   82TIP3    H1  252   1.705   1.828   1.084  2.5243 -0.2263  1.9307
   82TIP3    H2  253   1.821   1.886   1.006  0.0827 -0.4280 -2.1277
   83TIP3   OH2  254   2.260   1.390  -0.005 -0.3068 -0.3954  0.4122
   83TIP3    H1  255   2.209   1.343   0.061  0.1522  0.8017  1.6715
   83TIP3    H2  256   2.250   1.482   0.018 -3.0464  0.4444 -3.2865
   84TIP3   OH2  257   5.364   2.012   2.526  0.2185  0.4891 -0.3972
   84TIP3    H1  258   5.275   1.990   2.553  0.5282  0.4755  0.6295
   84TIP3    H2  259   5.360   2.013   2.430 -0.0480 -3.1954 -0.5829
   85TIP3   OH2  260   1.310   0.468   2.766 -0.1017  0.1273 -0.1448
   85TIP3    H1  261   1.244   0.537   2.769 -1.0396 -0.7588  0.1447
   85TIP3    H2  262   1.305   0.426   2.852  0.3185 -0.4222 -0.3762
   86TIP3   OH2  263   2.904   4.949   3.030 -0.7695 -0.8428 -0.5648
   86TIP3    H1  264   2.813   4.920   3.028 -0.4349 -1.9446 -0.1074
   86TIP3    H2  265   2.953   4.877   2.990 -0.4050  1.0223 -3.8335
   87TIP3   OH2  266   3.780   2.049   4.702  0.2705  0.0657 -0.2222
   87TIP3    H1  267   3.767   2.076   4.793 -1.5169  0.6605 -0.6229
   87TIP3    H2  268   3.871   2.074   4.682  1.0967 -1.1394  1.7283
   88TIP3   OH2  269   5.217   3.289   0.731  0.6586  0.3951 -0.0253
   88TIP3    H1  270   5.261   3.344   0.796 -0.8736  1.4885  0.1662
   88TIP3    H2  271   5.143   3.342   0.701 -0.3337 -1.2001 -0.5609
   89TIP3   OH2  272   5.909   5.000   4.201  0.5414  0.6220 -0.4918
   89TIP3    H1  273   5.858   5.050   4.138  2.0005  2.0682 -0.5881
   89TIP3    H2  274   5.999   5.004   4.168  0.8426 -1.4190 -0.0664
   90TIP3   OH2  275   4.814   1.246   2.954  0.0827  0.2124 -0.2838
   90TIP3    H1  276   4.749   1.315   2.943 -0.1986  0.3239  1.7001
   90TIP3    H2  277   4.896   1.285   2.925 -0.5763  0.2952 -2.1676
   91TIP3   OH2  278   1.218   0.374   4.270 -0.1307  0.6556 -0.5917
   91TIP3    H1  279   1.309   0.351   4.289 -0.3648 -1.0754 -1.4033
   91TIP3    H2  280   1.175   0.376   4.355  0.7843  2.1618 -0.1332
   92TIP3   OH2  281   5.975   1.126   4.650 -0.1326 -0.5199 -0.2061
   92TIP3    H1  282   5.933   1.082   4.576 -0.6163 -1.2025  0.4510
   92TIP3    H2  283   6.067   1.132   4.626 -0.7498  2.2638 -2.2825
   93TIP3   OH2  284   2.199   0.707   0.147  0.1015 -0.1715 -0.3324
   93TIP3    H1  285   2.113   0.709   0.105  0.1556 -0.9891 -0.4883
   93TIP3    H2  286   2.180   0.700   0.241  0.0023 -0.1507 -0.3507
   94TIP3   OH2  287   2.485   0.774   1.435 -0.3492 -0.2709 -0.6879
   94TIP3    H1  288   2.417   0.778   1.502  0.0376  0.6791 -0.3404
   94TIP3    H2  289   2.443   0.805   1.355 -1.2075 -2.6784 -1.2723
   95TIP3   OH2  290   1.222   1.628   4.622 -0.0400 -0.3470 -0.5854
   95TIP3    H1  291   1.291   1.591   4.567 -0.1244 -1.7865  0.2393
   95TIP3    H2  292   1.146   1.571   4.608 -0.6644  0.4336 -0.4626
   96TIP3   OH2  293   4.232   3.771   3.402  0.5891 -0.3412  0.2089
   96TIP3    H1  294   4.158   3.787   3.460  0.2724 -1.3131  0.0903
   96TIP3    H2  295   4.235   3.847   3.344 -1.5448 -1.1782 -1.0954
   97TIP3   OH2  296   2.807   0.773   4.031  0.0233  0.1287 -0.0708
   97TIP3    H1  297   2.855   0.699   4.069  0.0415 -0.0215 -0.3868
   97TIP3    H2  298   2.742   0.732   3.974  0.2092  0.3691 -0.4546
   98TIP3   OH2  299   6.237   1.590   0.930 -0.9002 -0.0140  0.3337
   98TIP3    H1  300   6.240   1.685   0.919 -2.1170 -0.0955 -0.9415
   98TIP3    H2  301   6.182   1.559   0.858 -0.6570 -1.6733  0.8232
   99TIP3   OH2  302   2.053   4.419   3.849  0.0111 -0.1693 -0.7078
   99TIP3    H1  303   2.123   4.354   3.855 -1.1394 -1.4011  0.1673
   99TIP3    H2  304   2.009   4.399   3.766  0.3640  0.2688 -1.0061
  100TIP3   OH2  305   2.998   0.777   2.363 -0.2675  0.0023 -0.1506
  100TIP3    H1  306   2.989   0.767   2.268  0.2745 -3.8314  0.0311
  100TIP3    H2  307   2.914   0.748   2.399 -0.7382  2.1237  0.6185
  101TIP3   OH2  308   0.809   2.383   1.565  0.4617 -0.1640 -0.3415
  101TIP3    H1  309   0.902   2.396   1.547  0.0628  0.0963 -2.5137
  101TIP3    H2  310   0.778   2.470   1.592 -0.0387  1.0953 -4.3604
  102TIP3   OH2  311   3.693   1.407   3.713 -0.4049 -0.1735  0.2597
  102TIP3    H1  312   3.682   1.316   3.686 -0.0654  0.0317 -0.6153
  102TIP3    H2  313   3.636   1.456   3.654  1.2035  0.3991 -0.8882
  103TIP3   OH2  314   1.126   5.293   4.302 -0.7700  0.1921 -0.3601
  103TIP3    H1  315   1.128   5.323   4.393 -0.1329 -0.0370 -0.2935
  103TIP3    H2  316   1.144   5.371   4.251  0.3779  0.0430 -0.2102
  104TIP3   OH2  317   4.815   5.181   4.264  0.0888  0.6207 -0.5325
  104TIP3    H1  318   4.910   5.177   4.271  0.0055 -1.4127  0.4840
  104TIP3    H2  319   4.786   5.224   4.344  0.1346  0.8901 -0.6603
  105TIP3   OH2  320   6.028   5.667   3.274 -0.3235 -0.0165 -0.6438
  105TIP3    H1  321   6.030   5.577   3.242  2.3413  0.2649 -1.5766
  105TIP3    H2  322   6.065   5.718   3.202 -1.2978  1.7827  0.0642
  106TIP3   OH2  323   1.322   4.898   1.092  0.2004 -0.0004  1.2180
  106TIP3    H1  324   1.240   4.928   1.130 -1.1461 -1.1020 -0.6732
  106TIP3    H2  325   1.311   4.804   1.081  0.8202  0.1458 -1.0941
  107TIP3   OH2  326   0.734   3.866   0.089  0.5622 -0.0078 -0.3142
  107TIP3    H1  327   0.640   3.853   0.096  0.0309  2.2761 -2.0110
  107TIP3    H2  328   0.751   3.944   0.143  1.4580 -0.2629 -0.2076
  108TIP3   OH2  329   2.488   2.029   4.064 -0.0272 -0.2544 -0.7038
  108TIP3    H1  330   2.403   2.065   4.092 -0.1660 -1.3239  0.3107
  108TIP3    H2  331   2.548   2.053   4.135  0.1881 -0.7703 -0.7084
  109TIP3   OH2  332   3.995   2.639   3.310  0.2760 -0.6058  0.0338
  109TIP3    H1  333   4.012   2.548   3.333  0.3274 -0.3610  1.0189
  109TIP3    H2  334   3.911   2.659   3.350 -0.2940 -0.5353 -1.1413
  110TIP3   OH2  335   0.384   5.334   0.900  0.6724 -0.5369 -0.3109
  110TIP3    H1  336   0.457   5.378   0.858 -0.5186  0.5025 -1.3853
  110TIP3    H2  337   0.382   5.370   0.989  0.5697  0.5593 -0.7438
  111TIP3   OH2  338   5.810   0.498   0.554 -0.4801  0.5516  0.0917
  111TIP3    H1  339   5.726   0.542   0.542 -0.0936  1.3021  0.1048
  111TIP3    H2  340   5.823   0.496   0.649 -0.6452  0.1119  0.1096
  112TIP3   OH2  341   5.252   0.426   4.988  0.1687 -0.5788  0.5392
  112TIP3    H1  342   5.312   0.362   4.951  0.8662  0.6598 -0.5423
  112TIP3    H2  343   5.293   0.511   4.971 -2.2004  0.3849 -0.9183
  113TIP3   OH2  344   0.562   0.504   0.785  0.2004  0.0401 -0.2222
  113TIP3    H1  345   0.589   0.500   0.693 -0.9619 -1.0299 -0.5427
  113TIP3    H2  346   0.551   0.413   0.811 -1.3124  0.3755  0.3981
  114TIP3   OH2  347   3.789   4.470   0.374  0.0120  0.4030 -0.2248
  114TIP3    H1  348   3.794   4.420   0.455 -0.6191  0.9344  0.1506
  114TIP3    H2  349   3.866   4.443   0.324 -0.7146 -1.5173 -0.3856
  115TIP3   OH2  350   1.619   2.981   2.887 -0.6666  0.0710  0.3343
  115TIP3    H1  351   1.559   3.049   2.920 -0.7772 -0.2477  0.7931
  115TIP3    H2  352   1.694   2.984   2.947 -1.4194 -1.3645  1.4244
  116TIP3   OH2  353   2.296   0.231   4.936  0.0632 -0.1539 -0.0774
  116TIP3    H1  354   2.390   0.244   4.946 -0.3049  2.0603  1.1276
  116TIP3    H2  355   2.279   0.246   4.843  0.6991  1.2018  0.0059
  117TIP3   OH2  356   0.228   0.885   0.769  0.0259 -0.4097 -0.8683
  117TIP3    H1  357   0.319   0.907   0.787 -0.5012  0.0492  1.6396
  117TIP3    H2  358   0.182   0.969   0.776 -1.0623 -1.1325  1.8034
  118TIP3   OH2  359   1.542   0.226   0.858  0.0424 -0.3571  0.2697
  118TIP3    H1  360   1.583   0.139   0.864  2.2365  0.4367 -1.8442
  118TIP3    H2  361   1.501   0.227   0.772 -1.2494  0.2345  0.8635
  119TIP3   OH2  362   4.499   2.523   0.431  0.2294  0.7449 -0.0651
  119TIP3    H1  363   4.588   2.495   0.454  0.4385  0.7524 -0.8392
  119TIP3    H2  364   4.511   2.608   0.388 -0.0496  0.2828 -1.0752
  120TIP3   OH2  365   2.476   5.649   0.216 -0.0243  0.7834  0.1173
  120TIP3    H1  366   2.390   5.671   0.251  0.3133 -0.7340  2.0611
  120TIP3    H2  367   2.527   5.621   0.292  1.7310  0.1896 -1.1950
  121TIP3   OH2  368   4.786   3.549   4.265 -0.4517 -0.0764 -0.1584
  121TIP3    H1  369   4.776   3.479   4.330 -2.9382 -1.3790 -1.7949
  121TIP3    H2  370   4.845   3.513   4.199 -1.6654 -0.6539 -0.9586
  122TIP3   OH2  371   1.645   0.648   0.158  0.3444 -0.3460 -0.5245
  122TIP3    H1  372   1.602   0.716   0.209  0.2630 -0.1172 -0.8942
  122TIP3    H2  373   1.587   0.573   0.164  0.3646 -0.3421 -0.2351
  123TIP3   OH2  374   1.042   4.524   2.525 -0.6640 -0.0330  0.4262
  123TIP3    H1  375   1.037   4.431   2.543 -1.6241 -0.3946 -1.5016
  123TIP3    H2  376   1.125   4.535   2.477 -0.8629 -0.0048  0.0863
  124TIP3   OH2  377   0.601   1.793   2.303  0.2331 -0.0536  0.0060
  124TIP3    H1  378   0.553   1.754   2.377  0.0155 -1.2114 -0.7166
  124TIP3    H2  379   0.685   1.818   2.340 -0.1865  0.1625  0.8414
  125TIP3   OH2  380   4.154   2.967   3.566  0.3386 -0.2197 -0.6344
  125TIP3    H1  381   4.121   3.029   3.502  0.9172  0.4638 -0.2901
  125TIP3    H2  382   4.081   2.908   3.583 -0.0562  0.0583 -1.3467
  126TIP3   OH2  383   0.367   0.260   1.947 -0.0690  0.3735 -0.4050
  126TIP3    H1  384   0.304   0.191   1.970 -2.0354  2.3627  0.5635
  126TIP3    H2  385   0.337   0.337   1.996  1.9681  1.9727 -1.5214
  127TIP3   OH2  386   3.130   0.522   2.360 -0.6829 -0.1225 -0.1888
  127TIP3    H1  387   3.071   0.588   2.397 -1.3596  0.0071 -1.4498
  127TIP3    H2  388   3.218   0.551   2.385 -0.9601  1.3104 -0.7795
  128TIP3   OH2  389   5.132   4.160   2.914  0.1360  0.1460  0.5017
  128TIP3    H1  390   5.050   4.132   2.874 -0.0272  2.0338 -0.5998
  128TIP3    H2  391   5.184   4.079   2.920 -0.9007 -0.6944 -1.0185
  129TIP3   OH2  392   4.725   1.873   2.592  0.5849  0.0712 -0.5951
  129TIP3    H1  393   4.793   1.839   2.534 -0.2165 -1.7967 -0.4782
  129TIP3    H2  394   4.670   1.798   2.613 -0.6888  1.2424  0.4843
  130TIP3   OH2  395   1.905   1.142   5.075 -0.6611  0.4517 -0.5399
  130TIP3    H1  396   1.886   1.093   4.995 -0.0154  1.2091 -1.1750
  130TIP3    H2  397   1.964   1.212   5.047 -1.1455  1.2799  0.4335
  131TIP3   OH2  398   4.118   2.519   3.729 -0.9028 -0.3850 -0.1907
  131TIP3    H1  399   4.121   2.476   3.643  0.1389  0.9121 -0.8253
  131TIP3    H2  400   4.171   2.597   3.719 -1.8067  0.4607  1.2898
  132TIP3   OH2  401   4.771   5.330   1.176  0.1323 -0.4691 -0.1425
  132TIP3    H1  402   4.815   5.413   1.195 -0.2751 -0.4538  0.7503
  132TIP3    H2  403   4.778   5.279   1.257  0.1981 -1.2309 -0.6138
  133TIP3   OH2  404   1.289   1.515   0.462 -0.0527  0.6210  0.4752
  133TIP3    H1  405   1.268   1.588   0.403  0.8385  3.0880  2.9821
  133TIP3    H2  406   1.278   1.437   0.408  1.3993  2.6801 -3.1650
  134TIP3   OH2  407   3.411   0.408   1.207  0.2060  0.3157 -0.4915
  134TIP3    H1  408   3.476   0.387   1.139  0.7622 -0.4014  0.2536
  134TIP3    H2  409   3.457   0.469   1.265 -0.2825  0.9499 -0.7561
  135TIP3   OH2  410   0.685   4.879   3.021 -0.0999 -0.1629 -0.3470
  135TIP3    H1  411   0.591   4.867   3.012 -0.1637 -0.5836  0.6617
  135TIP3    H2  412   0.722   4.793   3.001  0.1451  0.1976 -1.5102
  136TIP3   OH2  413   4.499   1.746   1.204  0.0064  0.0324  1.2476
  136TIP3    H1  414   4.411   1.755   1.242 -1.1559 -0.2851 -1.1732
  136TIP3    H2  415   4.528   1.836   1.190 -0.7883  0.1605  0.3058
  137TIP3   OH2  416   1.429   1.297   0.677 -0.0745  0.4317 -0.3090
  137TIP3    H1  417   1.389   1.376   0.641 -1.3285 -0.2433 -0.4428
  137TIP3    H2  418   1.488   1.330   0.745  0.9742  1.5968 -1.7294
  138TIP3   OH2  419   2.140   5.889   4.601 -0.4107  0.4944 -0.3087
  138TIP3    H1  420   2.126   5.938   4.682 -0.4722 -1.4424  0.9415
  138TIP3    H2  421   2.075   5.818   4.605  1.2096 -1.0933 -0.8090
  139TIP3   OH2  422   2.662   3.308   3.431  0.4873 -0.0902  1.0125
  139TIP3    H1  423   2.658   3.400   3.404  2.1672  0.1303  1.3934
  139TIP3    H2  424   2.574   3.290   3.465 -0.1747  1.0635  0.0274
  140TIP3   OH2  425   2.880   0.825   0.134  0.1762  0.3179 -0.5321
  140TIP3    H1  426   2.918   0.834   0.221 -2.1755  0.0402  0.5845
  140TIP3    H2  427   2.851   0.913   0.111 -2.5267 -0.1906  0.6310
  141TIP3   OH2  428   5.941   2.432   1.801 -0.1561 -0.4723 -0.2231
  141TIP3    H1  429   5.950   2.365   1.869  2.9269  0.0704  0.0507
  141TIP3    H2  430   5.878   2.394   1.739 -3.1367 -0.9628  2.8110
  142TIP3   OH2  431   3.994   2.706   0.172 -0.5495  0.2281  0.0029
  142TIP3    H1  432   4.061   2.767   0.143 -1.8913  1.1654 -1.2858
  142TIP3    H2  433   3.924   2.761   0.208 -0.0250 -0.7827  2.8878
  143TIP3   OH2  434   1.402   4.670   0.166  0.6066 -0.0101 -0.4237
  143TIP3    H1  435   1.406   4.614   0.089  1.8352 -0.7290  0.1396
  143TIP3    H2  436   1.478   4.728   0.158 -0.3797  1.2899 -0.7535
  144TIP3   OH2  437   3.270   5.020   1.016  0.1379  0.7379 -0.4410
  144TIP3    H1  438   3.214   4.971   0.955  0.9445 -0.7253 -0.0461
  144TIP3    H2  439   3.248   4.985   1.102 -1.0217  2.8246  0.1798
  145TIP3   OH2  440   4.653   3.037   3.671  0.2765 -0.2789 -0.2317
  145TIP3    H1  441   4.565   3.042   3.709  0.0315 -0.5571 -0.7542
  145TIP3    H2  442   4.706   2.996   3.739  0.2893  0.9898  0.5643
  146TIP3   OH2  443   4.040   6.006   0.384 -0.6727  0.7047  0.2548
  146TIP3    H1  444   4.086   6.032   0.305  0.2261  0.9242  0.8367
  146TIP3    H2  445   4.049   5.911   0.388 -1.6587  0.5586 -0.4602
  147TIP3   OH2  446   3.126   2.647   1.655 -0.3948  0.1786  0.2012
  147TIP3    H1  447   3.114   2.727   1.706  0.0144  0.6324 -0.3950
  147TIP3    H2  448   3.163   2.677   1.572 -2.1917 -0.3665 -0.8768
  148TIP3   OH2  449   4.128   1.538   1.431  0.1557  0.3158 -0.6651
  148TIP3    H1  450   4.150   1.623   1.392  0.1705  0.8974  0.5760
  148TIP3    H2  451   4.047   1.512   1.388 -0.1363  1.2179 -0.6749
  149TIP3   OH2  452   0.243   2.977   1.977 -0.3691 -0.6421 -0.2921
  149TIP3    H1  453   0.331   2.947   1.950 -0.0306 -0.1898  0.2922
  149TIP3    H2  454   0.187   2.901   1.964  0.5231 -1.6455  1.3932
  150TIP3   OH2  455   2.936   0.423   3.780 -0.0650 -0.1396 -0.2243
  150TIP3    H1  456   3.002   0.359   3.806  1.5743  0.2909 -2.9112
  150TIP3    H2  457   2.886   0.379   3.711 -2.4656 -0.3208  1.4933
  151TIP3   OH2  458   1.963   1.946   1.482  0.2619  0.3102 -0.2978
  151TIP3    H1  459   1.920   1.907   1.406 -0.4695 -2.6984  1.4691
  151TIP3    H2  460   2.049   1.904   1.485  1.6843  2.9465 -1.2696
  152TIP3   OH2  461   2.067   2.996   0.150 -0.2784 -0.1164  0.2905
  152TIP3    H1  462   2.079   3.052   0.227 -0.0590  0.5051 -0.1836
  152TIP3    H2  463   1.985   2.950   0.166 -1.9413  2.3804 -0.5176
  153TIP3   OH2  464   3.851   3.637   4.778  0.3659 -1.1519  0.0861
  153TIP3    H1  465   3.821   3.620   4.868  0.7573 -3.3704 -0.1262
  153TIP3    H2  466   3.781   3.688   4.738  0.7718  1.0710  2.0022
  154TIP3   OH2  467   0.956   2.472   2.268 -0.5066  0.0664 -0.3215
  154TIP3    H1  468   0.931   2.383   2.295 -3.2281  1.4658  2.3793
  154TIP3    H2  469   0.914   2.484   2.183  0.1301 -1.2726 -0.8598
  155TIP3   OH2  470   3.131   2.385   4.495  0.2699  0.0850  0.8000
  155TIP3    H1  471   3.098   2.454   4.553  0.5135  0.4676  0.4925
  155TIP3    H2  472   3.207   2.425   4.452  0.3220 -0.3268  0.5061
  156TIP3   OH2  473   1.226   2.250   2.214  0.7172 -0.7498  0.1169
  156TIP3    H1  474   1.186   2.163   2.205  1.2447 -1.0109  0.2396
  156TIP3    H2  475   1.216   2.271   2.307  0.4071 -0.5827  0.0495
  157TIP3   OH2  476   3.189   3.044   3.905  0.1760  0.1168 -0.6769
  157TIP3    H1  477   3.218   3.129   3.938 -2.8170  0.6028  1.0809
  157TIP3    H2  478   3.112   3.064   3.852 -0.5152 -1.4843 -0.3221
  158TIP3   OH2  479   5.841   4.271   0.800 -0.1389  0.4498 -0.0155
  158TIP3    H1  480   5.871   4.351   0.843  2.6128  0.1278 -1.1355
  158TIP3    H2  481   5.803   4.218   0.870 -0.1850  1.9076  1.0966
  159TIP3   OH2  482   6.163   1.580   3.219 -0.3048  0.6186 -0.3139
  159TIP3    H1  483   6.167   1.673   3.241 -2.6384  0.5159  0.8575
  159TIP3    H2  484   6.079   1.551   3.253  0.1163 -1.8207 -1.1508
  160TIP3   OH2  485   3.248   0.258   0.752 -0.5508  0.0693 -0.4380
  160TIP3    H1  486   3.257   0.205   0.673 -0.8624  0.1569 -0.5350
  160TIP3    H2  487   3.229   0.196   0.822  1.0565 -0.1647 -0.1594
  161TIP3   OH2  488   2.345   3.555   4.792 -0.1879 -0.3381  0.2233
  161TIP3    H1  489   2.364   3.491   4.724  1.7135  1.7529 -1.3755
  161TIP3    H2  490   2.397   3.632   4.768 -1.7925  1.5834  2.4037
  162TIP3   OH2  491   0.737   2.039   4.797 -0.4170  0.4184 -0.6455
  162TIP3    H1  492   0.794   2.001   4.730 -0.9968  0.1623 -1.0068
  162TIP3    H2  493   0.649   2.009   4.773 -0.9157  2.0324 -0.9788
  163TIP3   OH2  494   0.923   4.967   2.592 -0.3441  0.1245 -0.6267
  163TIP3    H1  495   0.957   4.938   2.677  0.2974  1.5303 -0.3617
  163TIP3    H2  496   0.928   4.890   2.536  0.2602 -0.5412  0.3151
  164TIP3   OH2  497   4.287   1.614   3.678 -0.1390 -0.8627  0.0516
  164TIP3    H1  498   4.379   1.637   3.695 -0.0634 -0.2478 -1.0649
  164TIP3    H2  499   4.289   1.519   3.663  0.5760 -0.6684 -1.3415
  165TIP3   OH2  500   2.292   4.714   1.649 -0.7041  0.2704  0.5264
  165TIP3    H1  501   2.281   4.776   1.721  1.6296 -0.1553  1.3159
  165TIP3    H2  502   2.206   4.671   1.642 -1.4088  1.3180  2.0853
  166TIP3   OH2  503   2.730   0.325   4.568  0.6005  0.0326 -0.0975
  166TIP3    H1  504   2.699   0.303   4.656 -1.6654 -1.1462 -1.1056
  166TIP3    H2  505   2.694   0.413   4.551  2.5900  1.0810  0.7723
  167TIP3   OH2  506   2.850   4.114   0.985  0.1700  0.0682  0.1603
  167TIP3    H1  507   2.941   4.142   0.986  0.2007 -0.0412  0.5086
  167TIP3    H2  508   2.852   4.022   1.014 -0.2396  0.6664  2.3145
  168TIP3   OH2  509   1.713   2.702   1.789  0.0001 -0.3130 -0.3614
  168TIP3    H1  510   1.776   2.768   1.817 -0.1432 -0.8137  1.2206
  168TIP3    H2  511   1.628   2.744   1.799 -0.0165 -0.2707 -0.6804
  169TIP3   OH2  512   6.271   5.764   2.653 -0.2934 -0.5475  0.5573
  169TIP3    H1  513   6.234   5.852   2.650  1.0494  0.0093 -1.1760
  169TIP3    H2  514   6.196   5.708   2.673 -1.7305  0.7185 -0.9790
  170TIP3   OH2  515   3.392   0.977   3.259 -0.2253  0.7862  0.1826
  170TIP3    H1  516   3.449   0.917   3.306  1.0805  0.5111 -1.6387
  170TIP3    H2  517   3.357   0.926   3.187 -0.2495  1.8062 -0.5525
  171TIP3   OH2  518   2.805   3.443   0.301  0.2971 -0.2337 -0.5687
  171TIP3    H1  519   2.745   3.452   0.375  1.7020 -1.8495  0.8376
  171TIP3    H2  520   2.787   3.356   0.265  0.6682 -0.0687 -1.1898
  172TIP3   OH2  521   3.229   2.083   0.074  0.2268 -0.0978 -0.2023
  172TIP3    H1  522   3.159   2.028   0.109 -0.7350  1.0618 -0.2186
  172TIP3    H2  523   3.234   2.156   0.136  2.8942 -1.1565  0.9849
  173TIP3   OH2  524   2.161   2.507   4.015  0.4521  0.4969 -0.6609
  173TIP3    H1  525   2.160   2.418   3.979 -0.5181  0.8615 -1.6027
  173TIP3    H2  526   2.144   2.496   4.108 -0.3823 -0.2800 -0.8879
  174TIP3   OH2  527   0.719   2.886   1.770 -0.1661  0.1012  0.2669
  174TIP3    H1  528   0.707   2.968   1.722  0.5534  0.2575  0.3528
  174TIP3    H2  529   0.760   2.912   1.852 -0.6340 -0.2607  0.6192
  175TIP3   OH2  530   3.387   2.231   0.997 -0.2100  0.2605  0.1966
  175TIP3    H1  531   3.439   2.204   0.921  0.0140 -1.2404  0.8547
  175TIP3    H2  532   3.450   2.236   1.069 -0.7317 -0.2525  0.7010
  176TIP3   OH2  533   3.371   3.799   0.953 -0.2944 -0.3145  0.1948
  176TIP3    H1  534   3.297   3.846   0.989 -1.7665 -1.1964 -1.4874
  176TIP3    H2  535   3.409   3.752   1.027 -2.0060 -0.5622  0.9584
  177TIP3   OH2  536   5.828   5.672   0.192  0.1507  0.6448  0.0533
  177TIP3    H1  537   5.829   5.673   0.097 -3.7055  0.5588 -0.1497
  177TIP3    H2  538   5.832   5.579   0.215 -2.0383  0.4038 -0.2926
  178TIP3   OH2  539   1.289   5.121   2.470  0.9258 -0.3696 -0.1323
  178TIP3    H1  540   1.284   5.154   2.559 -1.5770 -1.2197  0.1183
  178TIP3    H2  541   1.201   5.088   2.451  1.5142 -0.6835 -2.7420
  179TIP3   OH2  542   2.468   4.928   2.664  0.0530 -0.3700  0.2165
  179TIP3    H1  543   2.530   4.917   2.735 -0.3351 -0.7146  0.5037
  179TIP3    H2  544   2.413   4.850   2.666 -0.8709  0.2563  0.4506
  180TIP3   OH2  545   1.004   2.503   4.871 -0.1049  0.5557  0.2057
  180TIP3    H1  546   1.084   2.457   4.848 -0.8440 -0.0931 -1.2247
  180TIP3    H2  547   0.997   2.495   4.966  2.0949  1.6354  0.5084
  181TIP3   OH2  548   2.303   5.293   3.067 -0.0458 -0.0814  0.3815
  181TIP3    H1  549   2.207   5.285   3.072  0.0495 -1.6600  0.1861
  181TIP3    H2  550   2.333   5.270   3.155  0.0855  2.5692  1.1020
  182TIP3   OH2  551   5.775   1.412   1.716 -0.1206 -0.0802 -0.0479
  182TIP3    H1  552   5.783   1.420   1.812 -2.1528  1.3211  0.0706
  182TIP3    H2  553   5.693   1.363   1.703 -1.0133  1.5759 -1.0280
  183TIP3   OH2  554   6.174   1.328   3.323  0.2409  0.1874  0.0071
  183TIP3    H1  555   6.203   1.418   3.329  2.1381 -0.3035 -1.1109
  183TIP3    H2  556   6.129   1.322   3.238  0.9585 -0.1210 -0.3600
  184TIP3   OH2  557   0.297   4.917   3.210  0.2901  0.2239  0.3807
  184TIP3    H1  558   0.220   4.879   3.168  0.9558  1.3519 -2.0139
  184TIP3    H2  559   0.272   5.007   3.230  0.9170  0.5319 -0.2080
  185TIP3   OH2  560   6.023   5.216   1.170  0.4244 -0.4047 -0.1368
  185TIP3    H1  561   6.018   5.132   1.217  1.3581 -0.1664  0.4309
  185TIP3    H2  562   6.098   5.206   1.111  1.3096  0.4276  0.8027
  186TIP3   OH2  563   1.415   2.457   0.281  0.6702 -0.1583 -0.0503
  186TIP3    H1  564   1.327   2.420   0.274  0.8029 -0.2026 -1.9780
  186TIP3    H2  565   1.461   2.398   0.340 -0.3793 -0.5679  0.3747
  187TIP3   OH2  566   1.970   3.748   0.649  0.0746  0.3487  0.2977
  187TIP3    H1  567   1.997   3.735   0.558  0.5572 -0.5535  0.5591
  187TIP3    H2  568   1.875   3.756   0.645 -0.0592 -1.1651 -0.1440
  188TIP3   OH2  569   5.800   0.004   2.979  0.1878  0.1524 -0.1612
  188TIP3    H1  570   5.855  -0.045   3.040 -0.1920 -0.7246 -0.5111
  188TIP3    H2  571   5.861   0.048   2.921  0.5668  1.1694  0.9539
  189TIP3   OH2  572   0.090   1.126   0.753  0.4821 -0.0864 -0.3152
  189TIP3    H1  573   0.096   1.171   0.837  0.7523  0.7823 -0.7870
  189TIP3    H2  574   0.094   1.196   0.688  1.4009 -0.8185 -1.0789
  190TIP3   OH2  575   1.814   2.487   4.226  0.4232 -0.1071  0.6041
  190TIP3    H1  576   1.877   2.558   4.216  1.0191 -0.4394  1.8518
  190TIP3    H2  577   1.730   2.531   4.237  0.8300  0.4351  1.6638
  191TIP3   OH2  578   1.506   0.726   2.913  0.1367  0.0302  0.4243
  191TIP3    H1  579   1.542   0.644   2.879  1.9181  0.4320  1.2568
  191TIP3    H2  580   1.507   0.715   3.008 -1.1616  0.4082  0.5064
  192TIP3   OH2  581   5.598   2.719   1.148 -0.0088 -0.0139  0.2459
  192TIP3    H1  582   5.608   2.694   1.056 -2.2009 -1.6830  0.3855
  192TIP3    H2  583   5.640   2.805   1.153  1.0343 -0.2844 -2.0703
  193TIP3   OH2  584   4.062   4.577   0.093 -0.1435  0.5929 -0.0323
  193TIP3    H1  585   4.132   4.628   0.052  0.5207  0.0071  0.3518
  193TIP3    H2  586   4.012   4.541   0.019  0.1475  0.7671 -0.3163
  194TIP3   OH2  587   1.529   1.846   4.659  0.2449 -0.6418 -0.0691
  194TIP3    H1  588   1.505   1.878   4.746 -1.4100 -0.2579 -0.6264
  194TIP3    H2  589   1.460   1.881   4.601  0.8000 -1.6527 -1.3845
  195TIP3   OH2  590   4.539   3.900   2.042  0.1445  0.8702  0.1275
  195TIP3    H1  591   4.621   3.851   2.054  1.3335  2.2832 -1.6491
  195TIP3    H2  592   4.537   3.961   2.115  0.3250  0.3704  0.5543
  196TIP3   OH2  593   4.330   3.060   3.801  0.2091  0.3077 -0.6149
  196TIP3    H1  594   4.272   3.032   3.730 -2.6778  0.4626  1.5075
  196TIP3    H2  595   4.331   2.985   3.861  0.0879  1.2498  0.5967
  197TIP3   OH2  596   2.375   3.333   3.791  0.0533 -0.3019  0.4517
  197TIP3    H1  597   2.422   3.397   3.738 -0.2256 -0.7190 -0.3356
  197TIP3    H2  598   2.442   3.273   3.822  0.3706  0.5782  1.5311
  198TIP3   OH2  599   5.668   0.876   4.979  0.0922 -0.2787  0.1286
  198TIP3    H1  600   5.633   0.889   4.891 -0.0278  0.8187  0.3247
  198TIP3    H2  601   5.758   0.845   4.964  1.1389  2.7560 -0.4546
  199TIP3   OH2  602   1.841   2.863   0.969 -0.0203 -0.6896 -0.0712
  199TIP3    H1  603   1.878   2.940   0.928 -1.1899 -0.1172 -0.0974
  199TIP3    H2  604   1.893   2.850   1.048  1.4292 -1.0450 -1.0405
  200TIP3   OH2  605   4.922   4.488   0.960  0.1462 -1.3208  0.2720
  200TIP3    H1  606   4.971   4.522   0.885  0.9286 -1.0362  0.9004
  200TIP3    H2  607   4.968   4.524   1.036 -1.0980 -0.9756  0.8793
  201TIP3   OH2  608   3.717   0.912   0.969 -0.6972  0.5446  0.4147
  201TIP3    H1  609   3.748   0.923   0.879  0.1470  1.4625  0.8003
  201TIP3    H2  610   3.781   0.853   1.010 -0.5697  0.8415  0.6520
  202TIP3   OH2  611   5.786   5.416   0.328  0.1869  0.1577  0.8595
  202TIP3    H1  612   5.838   5.337   0.313 -0.1886  0.1947 -0.9311
  202TIP3    H2  613   5.713   5.387   0.382 -0.2545 -0.8780 -0.2419
  203TIP3   OH2  614   4.785   0.955   0.576  0.2974 -0.1257 -0.5919
  203TIP3    H1  615   4.795   0.860   0.590  1.2333 -0.1892 -1.5074
  203TIP3    H2  616   4.698   0.975   0.608  0.2910 -1.2034  0.1373
  204TIP3   OH2  617   1.212   3.254   3.089 -0.6823 -0.7819 -0.5793
  204TIP3    H1  618   1.153   3.182   3.113 -3.8613  1.6115 -0.4895
  204TIP3    H2  619   1.213   3.311   3.167 -0.4954  0.5699 -1.5360
  205TIP3   OH2  620   2.131   4.100   5.173  0.1449 -0.0448  0.3321
  205TIP3    H1  621   2.058   4.103   5.110  0.5033 -1.1477 -0.1543
  205TIP3    H2  622   2.089   4.103   5.258 -0.4405 -0.0273  0.0481
  206TIP3   OH2  623   1.709   1.254   1.815 -0.2658  0.1500  0.1148
  206TIP3    H1  624   1.756   1.191   1.761 -1.5002 -1.6957  1.0767
  206TIP3    H2  625   1.616   1.236   1.798 -0.7072 -0.5531  2.7834
  207TIP3   OH2  626   1.004   2.409   0.792 -0.0822  0.3755  0.2119
  207TIP3    H1  627   1.047   2.402   0.877 -0.3720 -1.5197  0.2416
  207TIP3    H2  628   1.073   2.439   0.733  1.1097 -1.6733  0.4554
  208TIP3   OH2  629   0.764   4.636   0.340 -0.0845 -0.0730 -0.2488
  208TIP3    H1  630   0.683   4.614   0.387  0.1537 -0.6659 -0.1155
  208TIP3    H2  631   0.756   4.591   0.256  0.5425 -0.9564  0.1470
  209TIP3   OH2  632   3.061   1.125   2.200 -0.0635 -0.1466 -0.2104
  209TIP3    H1  633   2.983   1.091   2.156  1.3357 -0.5414 -2.5998
  209TIP3    H2  634   3.097   1.049   2.246  0.0803 -0.5390 -0.9503
  210TIP3   OH2  635   5.055   5.614   4.060 -0.2700  0.2564 -0.5445
  210TIP3    H1  636   5.029   5.562   3.984  0.2282 -2.6480  1.1339
  210TIP3    H2  637   5.107   5.554   4.114  1.3042  2.8518  1.0695
  211TIP3   OH2  638   3.177   5.718   3.417 -0.1330 -0.3337 -0.1906
  211TIP3    H1  639   3.196   5.748   3.328 -1.2206 -0.8519 -0.6096
  211TIP3    H2  640   3.085   5.694   3.416 -0.5036  0.8234  1.4227
  212TIP3   OH2  641   3.267   3.499   4.505  0.0238  0.1908  0.0766
  212TIP3    H1  642   3.240   3.475   4.594 -1.6331 -1.6706 -0.8483
  212TIP3    H2  643   3.258   3.594   4.503 -2.1915  0.0983  1.2763
  213TIP3   OH2  644   3.731   2.311   2.731 -0.2851  0.5601  0.1748
  213TIP3    H1  645   3.784   2.232   2.729 -0.8609  0.1281  0.9596
  213TIP3    H2  646   3.783   2.377   2.686  1.7988  0.6974  2.5602
  214TIP3   OH2  647   1.744   0.364   4.270 -0.4041  0.1908  0.1236
  214TIP3    H1  648   1.742   0.351   4.364  0.9303  3.2234  0.6915
  214TIP3    H2  649   1.824   0.415   4.254 -2.1341  2.4934 -2.1901
  215TIP3   OH2  650   6.323   3.439   4.866  0.2872 -0.3399 -0.0637
  215TIP3    H1  651   6.293   3.409   4.780  1.0348 -1.4413  0.0397
  215TIP3    H2  652   6.414   3.462   4.853  0.0478  0.7666  0.1461
  216TIP3   OH2  653   2.709   2.066   3.371 -0.2149  0.1480  0.0433
  216TIP3    H1  654   2.706   2.098   3.461 -1.0300  0.4331 -0.0809
  216TIP3    H2  655   2.638   2.003   3.365  1.4266 -1.8249  0.3053
  217TIP3   OH2  656   2.118   4.505   5.193 -0.4080 -0.4496 -0.0728
  217TIP3    H1  657   2.064   4.577   5.160 -0.8900 -0.6537  0.2507
  217TIP3    H2  658   2.192   4.501   5.133 -0.7983 -0.2212 -0.5796
  218TIP3   OH2  659   1.977   5.100   3.246  0.6342 -0.3271  0.1867
  218TIP3    H1  660   2.058   5.077   3.292 -0.1263  1.8271  2.9088
  218TIP3    H2  661   1.907   5.078   3.308 -0.6428  0.6241 -0.8602
  219TIP3   OH2  662   0.339   2.930   0.412  0.1426  0.4369  0.3039
  219TIP3    H1  663   0.311   2.852   0.460  1.2813 -0.5415 -0.5645
  219TIP3    H2  664   0.311   2.914   0.322 -0.1224  1.2966  0.2301
  220TIP3   OH2  665   2.675   5.505   1.472 -0.0510 -0.3561 -0.4542
  220TIP3    H1  666   2.716   5.437   1.419  2.1869  0.1976  0.4517
  220TIP3    H2  667   2.636   5.458   1.545 -1.6805 -0.9534 -1.6356
  221TIP3   OH2  668   2.104   5.777   3.193 -0.7988  0.3490  0.0473
  221TIP3    H1  669   2.139   5.837   3.127 -0.6690  1.0078  0.6997
  221TIP3    H2  670   2.031   5.733   3.149 -0.0620  0.0118 -0.8695
  222TIP3   OH2  671   3.964   1.064   0.536 -0.2309  0.4909 -0.0925
  222TIP3    H1  672   4.041   1.086   0.588 -0.6401 -0.0057  0.7437
  222TIP3    H2  673   3.982   1.101   0.449  1.1691 -0.0689 -0.0588
  223TIP3   OH2  674   3.717   2.644   4.653 -0.1125 -0.1806  0.3275
  223TIP3    H1  675   3.728   2.687   4.738 -1.2363 -0.1798  0.4886
  223TIP3    H2  676   3.793   2.671   4.602  1.3711 -1.3481  1.7982
  224TIP3   OH2  677   6.192   4.926   5.035  0.1982 -0.1477  0.3824
  224TIP3    H1  678   6.286   4.935   5.019 -0.0232 -0.0806 -1.0554
  224TIP3    H2  679   6.158   4.887   4.954 -1.3331  1.9194 -0.0471
  225TIP3   OH2  680   0.629   3.247   3.543  0.2643  0.2331 -0.0230
  225TIP3    H1  681   0.564   3.269   3.610  0.6850 -1.7891  1.1374
  225TIP3    H2  682   0.663   3.332   3.514 -1.5413  1.2606  0.6641
  226TIP3   OH2  683   2.274   4.620   0.420  0.1455  0.0370  0.1115
  226TIP3    H1  684   2.315   4.570   0.350  0.1354 -0.1232  0.2203
  226TIP3    H2  685   2.182   4.592   0.419 -0.3030  1.4234 -1.0674
  227TIP3   OH2  686   1.324   0.917   2.837  0.0505  0.1241 -0.1347
  227TIP3    H1  687   1.387   0.846   2.852 -0.5428 -0.2974  0.4145
  227TIP3    H2  688   1.249   0.874   2.797  0.8648  0.9394 -2.6995
  228TIP3   OH2  689   5.142   0.042   2.644  1.2288 -0.2888 -0.1204
  228TIP3    H1  690   5.219  -0.012   2.624  2.1460  1.3806 -1.3899
  228TIP3    H2  691   5.076  -0.021   2.674  1.6064 -2.4468 -3.2055
  229TIP3   OH2  692   4.583   4.746   1.188 -0.0276 -0.0460  0.3383
  229TIP3    H1  693   4.567   4.785   1.102  0.7392 -0.7514 -0.1290
  229TIP3    H2  694   4.570   4.652   1.176 -1.5928 -0.0193  1.3994
  230TIP3   OH2  695   5.872   5.748   2.177  0.1203  0.2599 -0.2691
  230TIP3    H1  696   5.922   5.669   2.157 -0.1251  0.1181 -0.3145
  230TIP3    H2  697   5.901   5.773   2.265 -1.3514 -1.0903  0.6431
  231TIP3   OH2  698   3.402   5.194   3.234  0.4890  0.7309  0.3128
  231TIP3    H1  699   3.341   5.239   3.293  1.2648  1.5779  0.5039
  231TIP3    H2  700   3.353   5.120   3.199 -0.5234  1.1923  0.7363
  232TIP3   OH2  701   1.136   5.056   4.163 -0.2307  0.1241  0.2310
  232TIP3    H1  702   1.094   4.996   4.224 -1.5232 -1.5783 -2.1391
  232TIP3    H2  703   1.111   5.143   4.194 -0.7526 -0.6492  2.1222
  233TIP3   OH2  704   3.434   3.430   2.910 -0.0850 -0.5000 -0.6259
  233TIP3    H1  705   3.485   3.510   2.900 -0.8427  0.2191  1.0285
  233TIP3    H2  706   3.462   3.393   2.994 -0.9374 -1.0917 -0.5923
  234TIP3   OH2  707   3.115   0.019   5.138  0.4119  0.3962  0.0468
  234TIP3    H1  708   3.148   0.067   5.214  0.5066  0.0935  0.1987
  234TIP3    H2  709   3.110   0.084   5.069  4.3951 -0.0795 -0.9317
  235TIP3   OH2  710   4.197   2.589   1.983 -0.5473 -0.5500  0.3950
  235TIP3    H1  711   4.241   2.554   2.061  0.4662 -0.4158 -0.0953
  235TIP3    H2  712   4.158   2.671   2.012 -0.4196 -0.6403  0.8347
  236TIP3   OH2  713   6.227   4.407   2.669  0.2717 -0.3322 -0.1153
  236TIP3    H1  714   6.262   4.320   2.687  0.9234 -0.1375 -0.4036
  236TIP3    H2  715   6.247   4.423   2.577 -0.7623 -0.2849 -0.3471
  237TIP3   OH2  716   1.523   0.444   2.230  0.3747  0.4622 -0.0477
  237TIP3    H1  717   1.482   0.359   2.242 -0.9135  0.8195 -1.5397
  237TIP3    H2  718   1.451   0.507   2.243  1.2491  1.3168  0.8203
  238TIP3   OH2  719   1.254   3.697   1.305  0.4829  0.6213 -0.4959
  238TIP3    H1  720   1.293   3.782   1.283  4.6124 -1.2068 -1.3175
  238TIP3    H2  721   1.214   3.710   1.391  1.0369  3.3618 -0.5506
  239TIP3   OH2  722   5.697   5.403   3.031 -0.0537 -0.2400 -0.1014
  239TIP3    H1  723   5.643   5.407   3.109  0.5414  0.0094  0.3032
  239TIP3    H2  724   5.658   5.332   2.978 -0.0347 -0.8937  0.7380
  240TIP3   OH2  725   2.010   2.058   0.722  0.0848 -0.1621 -0.0244
  240TIP3    H1  726   2.016   2.018   0.635 -0.5995  1.0907 -0.6730
  240TIP3    H2  727   2.101   2.061   0.752  0.2552 -1.3098 -0.3431
  241TIP3   OH2  728   4.034   1.463   3.478 -0.5055  0.1239  0.1543
  241TIP3    H1  729   4.105   1.515   3.440  0.1957 -1.0582 -0.1762
  241TIP3    H2  730   4.048   1.468   3.572  1.2585 -1.7580  0.0496
  242TIP3   OH2  731   5.537   2.267   2.099  0.7832 -0.0663 -0.2989
  242TIP3    H1  732   5.479   2.336   2.067  0.7539 -0.0275 -0.1599
  242TIP3    H2  733   5.611   2.315   2.137  1.6717 -0.1147 -1.8817
  243TIP3   OH2  734   4.798   4.253   3.541 -0.3404  0.5520  0.4596
  243TIP3    H1  735   4.795   4.349   3.541 -0.9400  0.5430 -0.4270
  243TIP3    H2  736   4.730   4.227   3.479  0.1371 -0.4358  0.3338
  244TIP3   OH2  737  -0.022   3.718   3.209  0.4625  0.2284 -0.3823
  244TIP3    H1  738   0.033   3.706   3.131 -0.3548 -2.6538 -0.6447
  244TIP3    H2  739   0.040   3.733   3.280  1.2316  2.8707 -1.4882
  245TIP3   OH2  740   5.880   0.055   0.492  0.4325 -0.8314 -0.4587
  245TIP3    H1  741   5.958   0.021   0.448  1.4040  0.9069 -0.2042
  245TIP3    H2  742   5.911   0.078   0.580  0.8396  3.6402 -1.5157
  246TIP3   OH2  743   5.286   4.608   2.760 -0.3175 -0.3487  0.2506
  246TIP3    H1  744   5.229   4.661   2.705 -1.7460 -0.0479  1.9277
  246TIP3    H2  745   5.235   4.530   2.780  0.4117 -0.7405  0.6307
  247TIP3   OH2  746   5.983   2.475   4.121 -0.6008  0.0582 -0.0096
  247TIP3    H1  747   5.930   2.423   4.061  0.5183 -1.0323 -0.1113
  247TIP3    H2  748   5.929   2.550   4.144 -1.6402 -0.3273 -1.1488
  248TIP3   OH2  749   1.108   5.714   5.028 -0.3380 -0.2770 -0.1598
  248TIP3    H1  750   1.098   5.793   5.081  1.3130 -0.9065  1.2131
  248TIP3    H2  751   1.036   5.657   5.056 -0.3320 -0.0339  0.3695
  249TIP3   OH2  752   1.501   2.688   1.456  0.1851  0.1345  0.0978
  249TIP3    H1  753   1.453   2.662   1.377 -0.3246 -1.7122  0.9728
  249TIP3    H2  754   1.488   2.783   1.461  0.0696  0.2660 -1.9055
  250TIP3   OH2  755   3.288   4.166   4.287 -0.1887  0.7324  0.3598
  250TIP3    H1  756   3.377   4.146   4.315  0.5325  0.8324 -1.7266
  250TIP3    H2  757   3.293   4.175   4.192 -1.8241  3.7286  0.4001
  251TIP3   OH2  758   0.964   4.804   3.676 -0.2910  0.3000 -0.1505
  251TIP3    H1  759   0.870   4.820   3.667 -1.0810 -3.3227  0.0148
  251TIP3    H2  760   0.986   4.838   3.763 -1.5020  0.8922 -0.0528
  252TIP3   OH2  761   5.408   2.858   3.004 -0.3041 -0.1187  0.1492
  252TIP3    H1  762   5.462   2.937   2.997 -0.6029 -0.0490 -2.9429
  252TIP3    H2  763   5.449   2.807   3.073  1.3245  1.6764  0.6115
  253TIP3   OH2  764   3.957   1.611   0.644 -0.1457  0.4990 -0.5239
  253TIP3    H1  765   3.911   1.553   0.585 -0.2650 -0.9262  0.9115
  253TIP3    H2  766   3.978   1.688   0.591  0.5112 -1.0614 -2.6326
  254TIP3   OH2  767   5.946   4.412   3.025 -0.1643 -0.0097 -0.0844
  254TIP3    H1  768   5.916   4.455   3.106  1.4446 -0.0185  0.5528
  254TIP3    H2  769   5.949   4.319   3.047 -1.1117 -0.1776 -0.6300
  255TIP3   OH2  770   3.247   2.757   0.388 -0.2691  0.0288  0.6376
  255TIP3    H1  771   3.252   2.813   0.466  0.4696  1.0692 -0.1264
  255TIP3    H2  772   3.238   2.819   0.316  0.1743 -0.8719 -0.2025
  256TIP3   OH2  773   1.439   2.517   2.861 -0.4016  0.0480 -0.3868
  256TIP3    H1  774   1.514   2.510   2.803  0.2458 -0.8271  0.5268
  256TIP3    H2  775   1.432   2.611   2.881  0.7723  0.0872 -0.0826
  257TIP3   OH2  776   0.696   1.495  -0.001  0.5304  0.3857  0.3279
  257TIP3    H1  777   0.691   1.444   0.080  1.0955  2.1982  1.5907
  257TIP3    H2  778   0.649   1.443  -0.066 -0.8982 -0.6349  2.0929
  258TIP3   OH2  779   0.669   4.011   1.440 -0.4985  0.4791  0.4719
  258TIP3    H1  780   0.628   4.086   1.483 -2.5464  0.3236 -1.0469
  258TIP3    H2  781   0.596   3.965   1.397  0.4231 -3.1861  2.3744
  259TIP3   OH2  782   3.779   3.220   1.898 -0.1393  0.5506 -0.1692
  259TIP3    H1  783   3.840   3.167   1.950 -0.3548  1.7567  1.3695
  259TIP3    H2  784   3.804   3.310   1.917 -0.9443  1.0375 -1.3349
  260TIP3   OH2  785   0.589   3.795   0.751  0.6123  0.1423 -0.3044
  260TIP3    H1  786   0.593   3.707   0.713 -0.5422 -0.5917  1.1906
  260TIP3    H2  787   0.604   3.782   0.844  0.3172  1.5347 -0.0465
  261TIP3   OH2  788   0.781   5.146   2.874 -0.6791 -0.4462 -0.1365
  261TIP3    H1  789   0.732   5.106   2.946 -1.0826 -1.8345 -1.1439
  261TIP3    H2  790   0.737   5.115   2.795  1.3866 -1.1702 -1.0689
  262TIP3   OH2  791   4.598   4.209   3.310  0.0076  0.2784  0.0247
  262TIP3    H1  792   4.552   4.292   3.298  0.1703  0.1974 -1.2956
  262TIP3    H2  793   4.682   4.222   3.267 -0.2602 -0.7986 -0.8812
  263TIP3   OH2  794   5.540   1.418   4.818 -0.1811 -0.1075 -0.2323
  263TIP3    H1  795   5.596   1.354   4.775  0.3176  0.3859 -0.3270
  263TIP3    H2  796   5.591   1.451   4.891 -0.0500  0.8688 -0.7415
  264TIP3   OH2  797   5.419   5.563   3.229 -0.5976 -0.6327  0.4055
  264TIP3    H1  798   5.443   5.594   3.317 -0.6997  0.6960 -0.0136
  264TIP3    H2  799   5.390   5.473   3.243 -0.4592 -0.5002  1.7131
  265TIP3   OH2  800   1.660   1.611   4.594  0.2677  0.3484  0.2334
  265TIP3    H1  801   1.613   1.691   4.617  0.4834  0.5989 -0.1891
  265TIP3    H2  802   1.741   1.615   4.645  1.8635  2.0661 -2.2196
  266TIP3   OH2  803   4.810   0.206   1.980  0.4606 -0.1050 -0.3320
  266TIP3    H1  804   4.731   0.233   2.026 -0.4678 -2.3389 -0.4577
  266TIP3    H2  805   4.879   0.212   2.046 -0.5053 -1.4523  0.8848
  267TIP3   OH2  806   3.591   1.954   0.861 -0.0958  0.3077 -0.6015
  267TIP3    H1  807   3.626   1.921   0.779  2.2809 -2.2782  1.2669
  267TIP3    H2  808   3.529   2.023   0.835 -0.4764 -1.2758 -4.5282
  268TIP3   OH2  809   5.699   5.412   0.070  0.7380  0.0782  0.4325
  268TIP3    H1  810   5.732   5.382   0.154  1.1274  0.0123  0.2614
  268TIP3    H2  811   5.660   5.334   0.030  0.7407  0.0597  0.4667
  269TIP3   OH2  812  -0.023   4.467   0.131 -0.4649  0.1785 -0.4763
  269TIP3    H1  813  -0.008   4.520   0.053  2.7170  2.4578  1.4766
  269TIP3    H2  814   0.037   4.393   0.122 -1.3717 -0.5212 -0.9404
  270TIP3   OH2  815   5.884   4.479   1.993 -0.2337 -0.0817 -0.3403
  270TIP3    H1  816   5.807   4.492   1.938 -0.7142  0.5709  0.4449
  270TIP3    H2  817   5.938   4.556   1.978 -0.4572  0.1944  0.2203
  271TIP3   OH2  818   1.589   5.158   4.113 -0.3176 -0.1337  0.0151
  271TIP3    H1  819   1.662   5.220   4.113  0.6560 -1.1654 -2.3641
  271TIP3    H2  820   1.523   5.200   4.058  0.0102 -0.7939 -0.9070
  272TIP3   OH2  821   0.203   2.077   3.776  0.0952 -0.2594 -0.2107
  272TIP3    H1  822   0.116   2.058   3.740  0.5694  0.9245 -2.0904
  272TIP3    H2  823   0.256   2.001   3.751 -0.2734 -0.7867  0.5708
  273TIP3   OH2  824   0.928   0.522   0.078 -0.0669  0.5281  0.1724
  273TIP3    H1  825   0.922   0.428   0.063 -0.7659  0.7470 -1.0109
  273TIP3    H2  826   1.022   0.539   0.083  0.0674 -0.1940  0.2096
  274TIP3   OH2  827   0.312   1.799   2.917  0.2178  0.8383  0.4635
  274TIP3    H1  828   0.377   1.833   2.855  0.2460 -0.7889 -0.4529
  274TIP3    H2  829   0.295   1.872   2.976  0.8671  2.1497 -0.9118
  275TIP3   OH2  830   4.716   0.549   3.064  0.1365 -0.2305  0.7030
  275TIP3    H1  831   4.801   0.530   3.025  0.7245  1.3151  1.1727
  275TIP3    H2  832   4.655   0.546   2.990  0.8281  0.0621  0.1070
  276TIP3   OH2  833   0.162   1.971   1.707  0.2301  0.5814 -0.3018
  276TIP3    H1  834   0.222   2.045   1.707 -1.5112  2.1088 -2.2314
  276TIP3    H2  835   0.075   2.010   1.705 -0.8189 -1.5489  0.5345
  277TIP3   OH2  836   4.155   1.471   1.915 -0.2114 -0.0859 -0.7301
  277TIP3    H1  837   4.184   1.393   1.962  1.2782  0.7344 -0.2017
  277TIP3    H2  838   4.178   1.455   1.824  0.0338 -0.2960 -0.6308
  278TIP3   OH2  839   6.152   2.063   4.483 -0.4860  0.1245  0.6015
  278TIP3    H1  840   6.182   1.981   4.444  0.3632  0.2552  0.9431
  278TIP3    H2  841   6.136   2.121   4.409  1.5045  0.5060  0.4098
  279TIP3   OH2  842   3.843   5.105   4.973  0.1426 -0.2445  0.3183
  279TIP3    H1  843   3.752   5.132   4.985 -0.4846 -2.7772  2.1154
  279TIP3    H2  844   3.851   5.089   4.879 -1.1701  0.2531  0.1029
  280TIP3   OH2  845   0.394   0.073   3.436  0.1529 -0.0901  0.2573
  280TIP3    H1  846   0.305   0.102   3.415 -0.0436 -1.2441 -0.6234
  280TIP3    H2  847   0.430   0.045   3.352  1.3950  0.4457  0.5916
  281TIP3   OH2  848   4.400   3.338   4.259 -0.6792  0.0023 -0.4677
  281TIP3    H1  849   4.402   3.357   4.353 -0.8587  0.8753 -0.6253
  281TIP3    H2  850   4.454   3.408   4.220  0.7014 -1.2466 -0.8762
  282TIP3   OH2  851   1.456   4.828   3.108 -0.2148 -0.1822  0.0431
  282TIP3    H1  852   1.447   4.919   3.137  1.9865  0.2141 -0.3191
  282TIP3    H2  853   1.395   4.820   3.034 -1.5475  0.5244  1.0238
  283TIP3   OH2  854   3.567   4.988   3.642  0.2928  0.0301  0.3860
  283TIP3    H1  855   3.584   4.987   3.548  1.1798 -2.7789  0.4733
  283TIP3    H2  856   3.480   4.950   3.651 -0.4125  1.6497  0.6652
  284TIP3   OH2  857   2.084   3.899   1.969 -0.8451 -0.5800 -0.3850
  284TIP3    H1  858   2.122   3.972   2.016 -0.2445 -0.9808 -0.2379
  284TIP3    H2  859   2.037   3.849   2.036  1.3122 -2.0253  0.1608
  285TIP3   OH2  860   2.179   1.004   0.835 -0.2591  0.1628  0.0185
  285TIP3    H1  861   2.098   0.996   0.884 -0.9453 -0.4076 -1.1632
  285TIP3    H2  862   2.176   1.092   0.797 -0.0416  0.3568  0.4442
  286TIP3   OH2  863   4.323   3.297   4.892  0.0565 -0.4413  0.2868
  286TIP3    H1  864   4.404   3.284   4.842  0.4306 -0.4813  0.8970
  286TIP3    H2  865   4.349   3.287   4.984 -0.9405 -2.1569  0.4343
  287TIP3   OH2  866   4.112   3.908   2.902 -0.0550  0.8973 -0.5032
  287TIP3    H1  867   4.139   3.889   2.812  0.2776 -1.5375  0.0497
  287TIP3    H2  868   4.048   3.979   2.893 -1.1197 -0.2333 -2.8202
  288TIP3   OH2  869   2.857   4.119   4.304  0.7892 -0.0503  0.0139
  288TIP3    H1  870   2.861   4.214   4.310 -0.7840  0.0454 -0.0230
  288TIP3    H2  871   2.885   4.099   4.214  0.8000  0.4084 -0.0846
  289TIP3   OH2  872   2.681   2.686   3.768 -0.3763 -0.1476  0.2767
  289TIP3    H1  873   2.638   2.746   3.829 -1.7036  0.1908 -0.9287
  289TIP3    H2  874   2.760   2.733   3.740 -1.3419  1.0512 -0.5721
  290TIP3   OH2  875   1.642   5.255   4.906 -0.0130  0.0537  0.0334
  290TIP3    H1  876   1.669   5.169   4.938  1.7499  0.6870  0.3716
  290TIP3    H2  877   1.689   5.266   4.823 -1.8268 -0.1219 -1.0723
  291TIP3   OH2  878   1.516   0.063   4.051 -0.5649  0.4060 -0.0736
  291TIP3    H1  879   1.597   0.091   4.008 -1.6812  0.0701 -2.5584
  291TIP3    H2  880   1.450   0.066   3.982 -2.8733  1.3488  2.0089
  292TIP3   OH2  881   4.766   3.737   2.043  0.4194 -0.1932 -0.0776
  292TIP3    H1  882   4.858   3.764   2.040  0.9124 -1.8176 -1.1858
  292TIP3    H2  883   4.761   3.663   1.981 -1.2410 -1.2852  1.2770
  293TIP3   OH2  884   2.508   3.350   2.087 -0.0734  0.0857  0.3026
  293TIP3    H1  885   2.456   3.292   2.031 -0.2095  0.2559  0.2512
  293TIP3    H2  886   2.599   3.332   2.062 -0.0998 -0.3050  0.4810
  294TIP3   OH2  887   5.724   4.626   4.045  0.3601  0.2638 -0.2347
  294TIP3    H1  888   5.673   4.665   3.974 -0.3300  2.1544  1.1927
  294TIP3    H2  889   5.810   4.667   4.038  0.5021 -0.0546 -0.3707
  295TIP3   OH2  890   4.986   4.210   3.738 -0.5241  0.0569 -0.1250
  295TIP3    H1  891   4.921   4.215   3.668 -0.5475 -0.2626 -0.1278
  295TIP3    H2  892   5.009   4.117   3.742  1.3696  0.4017 -1.4560
  296TIP3   OH2  893   3.048   0.158   1.118  0.1404  0.2686  1.0743
  296TIP3    H1  894   3.138   0.135   1.093  0.2492  0.0878  1.6171
  296TIP3    H2  895   3.012   0.078   1.155  0.1754  0.6766  2.0107
  297TIP3   OH2  896   0.253   3.442   4.147  0.0571  0.6986  0.5454
  297TIP3    H1  897   0.309   3.428   4.222 -0.3609  0.8294  0.8850
  297TIP3    H2  898   0.275   3.371   4.086  0.2262  0.4556  0.8901
  298TIP3   OH2  899   4.245   0.439   0.086  0.3267 -0.3237  0.1255
  298TIP3    H1  900   4.185   0.484   0.027  0.1874 -0.9960 -0.2589
  298TIP3    H2  901   4.209   0.350   0.093  0.5097 -0.3398  0.9801
  299TIP3   OH2  902   5.423   0.342   3.686 -0.1412 -0.2038  0.2102
  299TIP3    H1  903   5.479   0.412   3.718 -0.9128  0.8203 -0.5860
  299TIP3    H2  904   5.442   0.267   3.742  1.2848  0.4031  0.5708
  300TIP3   OH2  905   0.478   1.232   1.580 -0.0308  0.2268 -0.3609
  300TIP3    H1  906   0.396   1.188   1.562  0.5915 -1.4152  0.6151
  300TIP3    H2  907   0.454   1.303   1.640 -0.6845 -0.5224  0.2870
  301TIP3   OH2  908   1.154   3.304   0.534 -0.0235 -0.1695 -0.1420
  301TIP3    H1  909   1.095   3.320   0.461  0.7208  4.1042 -0.0725
  301TIP3    H2  910   1.106   3.336   0.611  0.6063 -1.1177  0.6733
  302TIP3   OH2  911   4.220   4.345   4.169  0.0355  0.0644 -0.0897
  302TIP3    H1  912   4.170   4.284   4.225  0.6781 -0.4457 -0.0599
  302TIP3    H2  913   4.200   4.431   4.205 -0.1190 -0.2036  0.4911
  303TIP3   OH2  914   4.246   5.795   1.052  0.5200  0.3277  0.1524
  303TIP3    H1  915   4.209   5.708   1.063 -1.0285  0.5512 -2.5427
  303TIP3    H2  916   4.174   5.855   1.075  0.4758  0.8269 -1.2226
  304TIP3   OH2  917   1.879   3.394   2.849 -0.4438  0.1833  0.4923
  304TIP3    H1  918   1.794   3.366   2.885 -0.8266 -0.7775 -1.0599
  304TIP3    H2  919   1.862   3.405   2.756  1.1312  0.0300  0.1711
  305TIP3   OH2  920   2.632   4.064   2.057  0.1376  0.4127  0.2816
  305TIP3    H1  921   2.710   4.073   2.003  1.7025  0.7784  2.4536
  305TIP3    H2  922   2.634   3.973   2.087  0.3560  0.7119  1.2063
  306TIP3   OH2  923   1.294   1.333   1.094 -0.5141  0.2598  0.3687
  306TIP3    H1  924   1.256   1.326   1.182 -0.3160  2.1794  0.6446
  306TIP3    H2  925   1.236   1.393   1.047  0.5573  0.9544 -0.1187
  307TIP3   OH2  926   5.201   0.539   2.173  0.4403 -0.6343 -0.8149
  307TIP3    H1  927   5.199   0.625   2.214 -2.2707 -0.7051 -0.6232
  307TIP3    H2  928   5.191   0.556   2.080 -1.7619 -0.7425 -0.6378
  308TIP3   OH2  929   0.228   3.822   4.718  0.1262 -0.0629 -0.4017
  308TIP3    H1  930   0.137   3.795   4.728  0.5830 -2.1153 -1.2278
  308TIP3    H2  931   0.276   3.767   4.780  0.9493 -0.1294 -1.0763
  309TIP3   OH2  932   0.168   1.249   2.127  0.0391  0.5081  0.3453
  309TIP3    H1  933   0.122   1.207   2.200 -0.1148  0.7084  0.3643
  309TIP3    H2  934   0.153   1.190   2.052  1.7601 -0.6845  0.8766
  310TIP3   OH2  935   2.844   4.821   1.923 -0.3882 -0.3356  0.3330
  310TIP3    H1  936   2.778   4.872   1.876 -0.9993  0.3178  1.8415
  310TIP3    H2  937   2.794   4.769   1.986  0.5870  1.3769  2.6309
  311TIP3   OH2  938   2.700   5.439   5.113  0.3762  0.3391  0.0542
  311TIP3    H1  939   2.669   5.417   5.025  1.4385  2.2672 -0.8597
  311TIP3    H2  940   2.794   5.422   5.110  0.3202 -0.2277  1.0617
  312TIP3   OH2  941   4.093   0.449   3.582  0.5867  0.9503  0.3691
  312TIP3    H1  942   4.004   0.457   3.617  0.7179  1.0648  0.6782
  312TIP3    H2  943   4.149   0.446   3.659  0.8976  1.4306  0.1709
  313TIP3   OH2  944   3.254   4.477   3.037  0.0403  0.3634  0.1559
  313TIP3    H1  945   3.269   4.391   3.076 -1.2404 -0.6072 -1.3620
  313TIP3    H2  946   3.313   4.536   3.085  3.1381 -1.8356 -0.6140
  314TIP3   OH2  947   3.812   5.718   2.911 -0.1308  0.0840 -0.2081
  314TIP3    H1  948   3.863   5.798   2.924 -1.1200  0.5115  1.2164
  314TIP3    H2  949   3.806   5.709   2.816  0.9989  1.0460 -0.3971
  315TIP3   OH2  950   4.932   0.345   0.481 -0.3364 -0.2016  0.0432
  315TIP3    H1  951   5.025   0.322   0.473 -0.2972 -0.1784  0.4442
  315TIP3    H2  952   4.888   0.262   0.496 -0.4878 -0.3284 -1.0309
  316TIP3   OH2  953   4.034   3.123   3.371 -0.4050  0.1059 -0.0333
  316TIP3    H1  954   3.950   3.152   3.336 -0.3703 -1.6834 -1.8284
  316TIP3    H2  955   4.097   3.191   3.345 -1.0883  0.8717  0.2927
  317TIP3   OH2  956   5.939   4.871   4.452 -0.2765  0.3576 -0.7288
  317TIP3    H1  957   5.912   4.886   4.361  0.2420  0.7370 -0.8229
  317TIP3    H2  958   5.869   4.910   4.504 -1.1770 -0.9074 -0.9416
  318TIP3   OH2  959   5.806   3.539   2.153 -0.3979  0.4553  0.0200
  318TIP3    H1  960   5.865   3.564   2.082  0.4106 -1.8569 -0.2173
  318TIP3    H2  961   5.831   3.594   2.227  2.8732 -1.1102  0.2650
  319TIP3   OH2  962   1.356   0.504   0.707  0.1395  0.7380  0.0584
  319TIP3    H1  963   1.425   0.506   0.641  0.3788  1.5241  0.3113
  319TIP3    H2  964   1.301   0.430   0.683  0.7058  0.4975 -0.5236
  320TIP3   OH2  965   5.204   3.345   0.153 -0.4230 -0.2783  0.9803
  320TIP3    H1  966   5.217   3.398   0.232  1.0944  1.7742 -0.5438
  320TIP3    H2  967   5.111   3.322   0.156 -0.5581  0.2719  3.0346
  321TIP3   OH2  968   4.733   4.846   0.145  0.1093  0.4790  0.1448
  321TIP3    H1  969   4.662   4.817   0.087  0.5413  0.4209 -0.3559
  321TIP3    H2  970   4.812   4.808   0.108  0.2107 -0.9817  1.7178
  322TIP3   OH2  971   0.578   2.698   0.060 -0.2441  0.0353 -0.1502
  322TIP3    H1  972   0.566   2.615   0.014 -0.8032  0.8736 -1.6097
  322TIP3    H2  973   0.669   2.698   0.087 -0.1073 -0.8450 -0.5789
  323TIP3   OH2  974   2.811   1.258   0.243 -0.3770  0.2838 -0.1262
  323TIP3    H1  975   2.723   1.296   0.245 -0.2523  0.5460  1.0353
  323TIP3    H2  976   2.802   1.182   0.186 -1.4561  0.0573  0.3148
  324TIP3   OH2  977   6.153   1.035   4.344  0.0082 -0.4118  0.5760
  324TIP3    H1  978   6.219   1.063   4.281 -0.1275 -0.3984  0.4371
  324TIP3    H2  979   6.197   1.039   4.429  0.1533 -0.3020  0.4969
  325TIP3   OH2  980   5.901   5.969   2.034 -0.0151 -0.1577  0.1280
  325TIP3    H1  981   5.900   5.888   2.085 -0.2845  0.1316  0.5920
  325TIP3    H2  982   5.850   6.031   2.087  0.3436  0.3661 -0.1336
  326TIP3   OH2  983   1.305   1.511   4.161  0.7776 -0.1889 -0.0282
  326TIP3    H1  984   1.312   1.415   4.158 -3.1832 -0.7608  1.9063
  326TIP3    H2  985   1.279   1.536   4.072 -0.6955 -1.2979  0.0576
  327TIP3   OH2  986   0.450   0.600   1.055  0.2345 -0.2465  0.3837
  327TIP3    H1  987   0.473   0.525   1.110 -1.7625 -0.9424  0.3650
  327TIP3    H2  988   0.471   0.570   0.966 -1.4633 -1.2316  0.2692
  328TIP3   OH2  989   0.441   0.337   4.768 -0.1738  0.7412  0.3880
  328TIP3    H1  990   0.435   0.421   4.721  0.4186 -0.2065 -1.4673
  328TIP3    H2  991   0.359   0.292   4.747 -0.0279  0.4195  0.4971
  329TIP3   OH2  992   3.068   4.563   1.417  0.3077  0.5250  0.0834
  329TIP3    H1  993   3.059   4.619   1.494  1.1157  0.7580  0.0235
  329TIP3    H2  994   3.123   4.615   1.357  0.3505  0.0188 -0.3198
  330TIP3   OH2  995   5.592   3.058   1.373 -0.3873 -0.3970 -0.1062
  330TIP3    H1  996   5.657   3.039   1.440 -0.8473  0.6631  0.6736
  330TIP3    H2  997   5.642   3.063   1.292  0.4057 -0.2346  0.3808
  331TIP3   OH2  998   5.300   0.737   3.218 -0.2616  0.4021  0.1276
  331TIP3    H1  999   5.332   0.742   3.308  1.1522 -0.6211 -0.2720
  331TIP3    H2 1000   5.372   0.770   3.165 -1.9035  3.2099 -0.5646
  332TIP3   OH2 1001   0.225   4.448   0.493 -0.2204 -0.1153 -0.4069
  332TIP3    H1 1002   0.156   4.472   0.555  1.0140 -1.0747  1.4436
  332TIP3    H2 1003   0.219   4.514   0.424 -1.2384  1.4264  1.0570
  333TIP3   OH2 1004   0.386   1.864   3.740  0.1403 -0.1996  0.0193
  333TIP3    H1 1005   0.352   1.775   3.734 -0.2918 -0.0340  0.0475
  333TIP3    H2 1006   0.481   1.852   3.748 -0.1295 -0.8234  4.0386
  334TIP3   OH2 1007   4.743   2.935   0.957  0.1038  0.5724 -0.2868
  334TIP3    H1 1008   4.822   2.918   1.009  1.0131  0.6325 -1.5990
  334TIP3    H2 1009   4.720   2.850   0.919  0.4618  0.8357 -1.1317
  335TIP3   OH2 1010   3.941   2.813   4.673  0.3524 -0.2351 -0.2120
  335TIP3    H1 1011   4.016   2.871   4.661 -0.5151  1.5048  2.0521
  335TIP3    H2 1012   3.974   2.743   4.729  0.5596 -0.0417 -0.0885
  336TIP3   OH2 1013   3.552   2.441   1.924  0.0490 -0.1430  0.0496
  336TIP3    H1 1014   3.479   2.484   1.879 -1.2425 -1.7587  0.5224
  336TIP3    H2 1015   3.554   2.482   2.010 -0.5844 -0.4081  0.1893
  337TIP3   OH2 1016   5.957   5.839   0.634 -0.0741 -0.1737  0.5871
  337TIP3    H1 1017   6.029   5.777   0.629 -1.5772 -1.9649  0.0378
  337TIP3    H2 1018   5.957   5.883   0.549  0.4992  0.0200  0.6814
  338TIP3   OH2 1019   2.333   3.755   2.715  0.2221 -0.5685 -0.3276
  338TIP3    H1 1020   2.316   3.735   2.623 -0.8775 -0.9002 -0.0636
  338TIP3    H2 1021   2.385   3.835   2.712 -1.4352  0.5506 -1.2230
  339TIP3   OH2 1022   4.596   3.422   2.753 -0.1070  0.3367 -0.5372
  339TIP3    H1 1023   4.506   3.395   2.732  0.0955 -0.8013 -0.0278
  339TIP3    H2 1024   4.600   3.422   2.848  0.5805 -0.1529 -0.5550
  340TIP3   OH2 1025   4.266   5.775   1.368 -0.0417 -0.5613 -0.2859
  340TIP3    H1 1026   4.186   5.735   1.334 -0.3862  0.1532 -0.3397
  340TIP3    H2 1027   4.334   5.708   1.356 -0.4385 -0.8282 -1.1086
  341TIP3   OH2 1028   4.175   1.633   2.446  0.1136 -0.1775  0.5783
  341TIP3    H1 1029   4.118   1.586   2.386  0.2807 -0.7261  0.8404
  341TIP3    H2 1030   4.249   1.660   2.393 -0.7199  1.1997  0.0581
  342TIP3   OH2 1031   6.125   0.519   1.037  0.6547  0.6835 -0.5027
  342TIP3    H1 1032   6.091   0.566   0.960 -3.5075 -0.2706  0.4913
  342TIP3    H2 1033   6.099   0.573   1.111 -1.1799 -1.3445  0.4659
  343TIP3   OH2 1034   5.004   0.594   4.925  0.4467  0.3156  0.2278
  343TIP3    H1 1035   5.029   0.534   4.996  0.4928 -0.2104 -0.2253
  343TIP3    H2 1036   5.068   0.577   4.856 -0.5744 -0.3770 -0.5915
  344TIP3   OH2 1037   1.000   3.077   1.068 -0.2258 -0.8459 -0.3281
  344TIP3    H1 1038   0.975   3.158   1.113  0.6975 -0.5237 -0.3700
  344TIP3    H2 1039   0.963   3.086   0.980 -0.8329 -0.8463 -0.0767
  345TIP3   OH2 1040   4.543   5.295   2.051  0.5382  0.3722  0.4681
  345TIP3    H1 1041   4.624   5.343   2.069  0.9347  0.0776 -0.5058
  345TIP3    H2 1042   4.562   5.244   1.972 -0.5839  0.2667  0.2561
  346TIP3   OH2 1043   4.317   4.124   4.763 -0.4261 -0.2928  0.3888
  346TIP3    H1 1044   4.337   4.132   4.857  0.9948 -0.2716  0.1072
  346TIP3    H2 1045   4.344   4.035   4.741 -0.1981 -0.0962 -0.1263
  347TIP3   OH2 1046   5.808   5.307   4.372  0.0430  0.9462  0.2445
  347TIP3    H1 1047   5.812   5.256   4.453 -0.3041  0.0630 -0.2861
  347TIP3    H2 1048   5.745   5.377   4.391 -0.8428  0.1248  0.4068
  348TIP3   OH2 1049   5.801   3.804   4.707 -0.6776  0.2922  0.2637
  348TIP3    H1 1050   5.783   3.887   4.751 -2.2316 -0.1954  0.6046
  348TIP3    H2 1051   5.717   3.757   4.708  0.0127 -1.0251 -0.4755
  349TIP3   OH2 1052   6.134   4.715   3.815  0.4830  0.7502 -0.2841
  349TIP3    H1 1053   6.181   4.792   3.781  0.8397  0.8516  0.4166
  349TIP3    H2 1054   6.196   4.675   3.876 -0.0843  0.4717  0.1109
  350TIP3   OH2 1055   0.263   5.348   2.331 -0.2123 -0.0862 -0.2422
  350TIP3    H1 1056   0.245   5.322   2.240  0.2183 -1.1263 -0.0443
  350TIP3    H2 1057   0.224   5.435   2.339  0.5668  0.4353 -1.6975
  351TIP3   OH2 1058   3.670   1.728   4.283  0.1652  0.0196  0.1699
  351TIP3    H1 1059   3.590   1.679   4.262 -0.8211 -0.1736  3.6343
  351TIP3    H2 1060   3.665   1.807   4.230 -0.4131 -1.6324 -2.3953
  352TIP3   OH2 1061   5.586   5.560   1.248 -0.1819  0.4609 -0.1458
  352TIP3    H1 1062   5.642   5.504   1.195 -0.5310 -0.8339  0.7994
  352TIP3    H2 1063   5.609   5.537   1.339 -2.4627 -0.3885  0.2798
  353TIP3   OH2 1064   5.306   3.654   1.509 -0.1353 -0.4088  0.2768
  353TIP3    H1 1065   5.367   3.600   1.459  0.0504 -0.8306  0.9556
  353TIP3    H2 1066   5.310   3.620   1.598 -2.7188 -1.6647 -0.0082
  354TIP3   OH2 1067   5.028   0.575   4.388 -0.1710  0.3143  0.0336
  354TIP3    H1 1068   4.942   0.603   4.356  0.3839  0.3765 -1.5051
  354TIP3    H2 1069   5.015   0.484   4.415 -0.3940 -0.2305 -1.7513
  355TIP3   OH2 1070   6.086   4.259   4.319 -0.1967 -0.3114 -0.1483
  355TIP3    H1 1071   6.127   4.218   4.396  2.0525  0.6526 -0.7390
  355TIP3    H2 1072   6.141   4.231   4.246 -1.1198  0.4014 -1.1433
  356TIP3   OH2 1073   0.748   4.488   2.575 -0.2785  0.2425  0.0755
  356TIP3    H1 1074   0.682   4.532   2.521  1.0299  1.2681 -0.7510
  356TIP3    H2 1075   0.783   4.418   2.520 -0.9098 -0.5447  0.6471
  357TIP3   OH2 1076   1.853   2.563   2.006 -0.3406  0.5436  0.4456
  357TIP3    H1 1077   1.926   2.525   1.958 -1.8116 -1.0364 -0.6644
  357TIP3    H2 1078   1.835   2.645   1.960  1.2070  1.3742  1.2472
  358TIP3   OH2 1079   4.744   1.326   0.699 -0.3027  0.2439 -0.6494
  358TIP3    H1 1080   4.709   1.396   0.754  0.0317 -0.1818  0.1350
  358TIP3    H2 1081   4.781   1.263   0.762  0.0049 -0.3046 -1.3646
  359TIP3   OH2 1082   2.400   3.181   0.843 -0.4763 -0.2973 -0.0374
  359TIP3    H1 1083   2.362   3.168   0.756  1.3364 -0.3962 -0.8743
  359TIP3    H2 1084   2.375   3.270   0.867  2.3845  1.4138 -2.6123
  360TIP3   OH2 1085   6.261   5.872   1.365  0.0553 -0.4217 -0.2639
  360TIP3    H1 1086   6.206   5.947   1.386 -0.9656 -0.7367 -1.6511
  360TIP3    H2 1087   6.229   5.802   1.421 -1.4065 -0.7627 -1.4530
  361TIP3   OH2 1088   1.762   0.517   1.967 -0.1516 -0.2455 -0.3834
  361TIP3    H1 1089   1.691   0.571   2.001 -1.3869 -0.1508 -2.8864
  361TIP3    H2 1090   1.832   0.579   1.945 -0.0881 -0.1122  0.1843
  362TIP3   OH2 1091   0.311   1.997   4.269 -0.3953  0.1668  0.3050
  362TIP3    H1 1092   0.239   2.014   4.330 -0.6428  0.2794 -0.0189
  362TIP3    H2 1093   0.376   1.950   4.322 -0.7116  0.0505  0.5967
  363TIP3   OH2 1094   2.667   0.959   0.913 -0.1415  0.3604  0.6024
  363TIP3    H1 1095   2.744   0.904   0.908  0.9529  1.9325 -1.7067
  363TIP3    H2 1096   2.644   0.961   1.006  2.3475 -0.4774  1.3082
  364TIP3   OH2 1097   0.730   5.264   1.533  0.2607  0.7372 -0.3851
  364TIP3    H1 1098   0.654   5.272   1.591  1.2009  2.7281  0.6736
  364TIP3    H2 1099   0.780   5.343   1.548  2.1166 -0.1010 -1.7408
  365TIP3   OH2 1100   1.344   3.837   2.159  0.9183  0.3349  0.1868
  365TIP3    H1 1101   1.386   3.915   2.195  0.2434  0.8270 -0.0635
  365TIP3    H2 1102   1.349   3.772   2.229  0.6132  0.9181  0.7615
  366TIP3   OH2 1103   2.000   4.077   3.002  0.0695 -0.1628 -0.6821
  366TIP3    H1 1104   1.940   4.035   2.940  0.0105 -2.9303  1.0935
  366TIP3    H2 1105   2.085   4.035   2.986 -0.3283 -2.3547  2.1855
  367TIP3   OH2 1106   5.952   2.465   0.237 -0.0447  0.3983  0.3064
  367TIP3    H1 1107   5.944   2.556   0.209 -0.6307  0.5677  1.0107
  367TIP3    H2 1108   5.868   2.425   0.215 -0.1077  0.2534  0.8086
  368TIP3   OH2 1109   6.231   4.015   2.770  0.0233  0.8195 -0.0942
  368TIP3    H1 1110   6.195   4.049   2.688 -0.5312  0.5173  0.0200
  368TIP3    H2 1111   6.253   4.094   2.820  2.2272  1.0467 -1.2934
  369TIP3   OH2 1112   4.257   2.295   0.652 -0.2425  0.2840 -0.3773
  369TIP3    H1 1113   4.177   2.313   0.700  0.1039  2.6357 -0.5792
  369TIP3    H2 1114   4.316   2.258   0.718 -0.5816  1.1731  0.4508
  370TIP3   OH2 1115   5.564   5.159   2.129 -0.0499  0.3054 -0.3288
  370TIP3    H1 1116   5.600   5.189   2.213 -0.6888 -1.2337  0.5236
  370TIP3    H2 1117   5.637   5.170   2.067  1.0978 -0.3943  0.8432
  371TIP3   OH2 1118   6.288   0.028   0.151  0.1298 -0.3888  0.3312
  371TIP3    H1 1119   6.348  -0.043   0.173 -0.0528 -0.6460  0.0192
  371TIP3    H2 1120   6.331   0.075   0.079  0.7403  0.4686  1.2419
  372TIP3   OH2 1121   1.415   4.555   1.615 -0.3190 -0.0268 -0.6424
  372TIP3    H1 1122   1.351   4.486   1.633  0.5509 -1.1547 -1.7043
  372TIP3    H2 1123   1.367   4.636   1.630 -1.2074 -0.8296  1.1941
  373TIP3   OH2 1124   2.374   0.784   2.569  0.0913 -0.1047 -0.0990
  373TIP3    H1 1125   2.386   0.834   2.650  0.4430  0.1602 -0.3106
  373TIP3    H2 1126   2.282   0.758   2.571  0.5638 -1.9126  1.4086
  374TIP3   OH2 1127   5.727   3.106   2.575 -0.0029  0.0562  0.3882
  374TIP3    H1 1128   5.753   3.160   2.500 -0.2360  0.0899  0.3313
  374TIP3    H2 1129   5.751   3.159   2.652 -0.6600  0.4440  0.3273
  375TIP3   OH2 1130   2.321   0.592   3.262 -0.7545 -0.0231  0.4126
  375TIP3    H1 1131   2.322   0.634   3.176 -0.4258 -0.1831  0.3374
  375TIP3    H2 1132   2.381   0.644   3.315  0.0764 -0.7164  0.1640
  376TIP3   OH2 1133   5.580   3.808   2.953 -0.3658  0.3073  0.1840
  376TIP3    H1 1134   5.495   3.796   2.912 -0.6983  1.0237  0.6465
  376TIP3    H2 1135   5.632   3.854   2.888  0.1445 -1.3820 -0.6549
  377TIP3   OH2 1136   2.262   5.224   3.334  0.2514  0.1007 -0.4131
  377TIP3    H1 1137   2.273   5.128   3.334  0.6342  0.1378  0.6271
  377TIP3    H2 1138   2.284   5.251   3.423 -1.1875  1.0224 -0.3049
  378TIP3   OH2 1139   0.576   0.635   0.351 -0.0542 -0.5666 -0.2519
  378TIP3    H1 1140   0.631   0.641   0.274 -1.2534  0.7619 -1.0570
  378TIP3    H2 1141   0.530   0.719   0.354 -2.3939 -1.7781  0.0820
  379TIP3   OH2 1142   2.097   4.130   2.489 -0.4497 -0.2385  0.8537
  379TIP3    H1 1143   2.179   4.098   2.528 -0.1268  1.5313  1.7359
  379TIP3    H2 1144   2.124   4.203   2.434 -1.1448 -1.4568 -1.2114
  380TIP3   OH2 1145   2.363   3.893   0.219 -0.3319  0.2027  0.5337
  380TIP3    H1 1146   2.421   3.850   0.281  0.1825  2.2852  1.6008
  380TIP3    H2 1147   2.360   3.835   0.143  1.2134 -1.0973  1.4210
  381TIP3   OH2 1148   0.672   3.249   1.971 -0.3763 -0.0971 -0.0953
  381TIP3    H1 1149   0.654   3.189   2.043 -0.3567  0.6138  0.5158
  381TIP3    H2 1150   0.586   3.276   1.940 -0.5201 -2.7455 -2.4185
  382TIP3   OH2 1151   1.555   0.443   0.482  0.2118 -0.0982 -0.1048
  382TIP3    H1 1152   1.553   0.358   0.527 -0.3594 -0.3684 -0.6237
  382TIP3    H2 1153   1.648   0.464   0.475  0.3942 -0.9601 -0.4736
  383TIP3   OH2 1154   1.561   3.614   4.875  0.5566  0.1059 -0.2557
  383TIP3    H1 1155   1.602   3.672   4.811  2.0164 -0.9908 -0.3564
  383TIP3    H2 1156   1.630   3.594   4.938 -0.4285 -0.0768  0.8083
  384TIP3   OH2 1157   5.493   3.325   2.628  0.6008 -0.5003 -0.0586
  384TIP3    H1 1158   5.499   3.230   2.627  1.4331 -0.4954  1.4644
  384TIP3    H2 1159   5.407   3.344   2.589  1.3658 -1.7139 -2.5537
  385TIP3   OH2 1160   5.606   4.928   3.005  0.0561 -0.1166 -0.4623
  385TIP3    H1 1161   5.577   4.998   3.064 -0.3569 -1.4257  0.9670
  385TIP3    H2 1162   5.531   4.868   3.002  0.7844 -1.0247 -0.7804
  386TIP3   OH2 1163   0.912   0.618   0.799  0.2378  0.7428 -0.0427
  386TIP3    H1 1164   0.963   0.698   0.810  1.2017  0.0974  0.3199
  386TIP3    H2 1165   0.908   0.604   0.705 -0.1430  1.3316 -0.1235
  387TIP3   OH2 1166   5.731   0.688   2.752 -0.5669 -0.1786 -0.1694
  387TIP3    H1 1167   5.822   0.683   2.723 -0.0827 -1.5808  1.4267
  387TIP3    H2 1168   5.689   0.612   2.711 -1.0278  0.4429 -0.8719
  388TIP3   OH2 1169   4.270   0.330   0.549  0.3892 -0.0691  0.0411
  388TIP3    H1 1170   4.191   0.280   0.529 -0.7126  1.2682  0.8698
  388TIP3    H2 1171   4.304   0.357   0.463 -0.6710  0.2538 -0.2849
  389TIP3   OH2 1172   3.806   4.120   0.061 -0.0634 -0.0391 -0.3399
  389TIP3    H1 1173   3.878   4.120  -0.002 -1.3186 -0.6777 -1.8315
  389TIP3    H2 1174   3.843   4.080   0.140  1.5615  0.8533 -0.6078
  390TIP3   OH2 1175   2.493   4.525   3.219  0.1115 -0.0563  0.2736
  390TIP3    H1 1176   2.458   4.609   3.189  2.7749  1.3891  0.8786
  390TIP3    H2 1177   2.565   4.549   3.278  0.2358 -2.7903  1.3890
  391TIP3   OH2 1178   2.432   1.207   1.039  0.1701  0.0169  0.0550
  391TIP3    H1 1179   2.514   1.248   1.010  0.4255 -0.2467  0.4047
  391TIP3    H2 1180   2.456   1.158   1.117 -0.4467  0.4440  0.5224
  392TIP3   OH2 1181   1.254   5.351   3.599 -0.0368  0.7210  0.3620
  392TIP3    H1 1182   1.302   5.385   3.523 -1.0822 -0.4903 -0.9000
  392TIP3    H2 1183   1.316   5.290   3.640 -0.8703 -2.0685 -2.1808
  393TIP3   OH2 1184   0.749   4.959   1.231 -0.3462  0.3505 -0.2179
  393TIP3    H1 1185   0.654   4.966   1.236 -0.2242  2.9476 -0.1379
  393TIP3    H2 1186   0.768   4.949   1.138 -0.7002 -1.7838 -0.1154
  394TIP3   OH2 1187   1.220   5.111   2.989 -0.4650  0.2473  0.3371
  394TIP3    H1 1188   1.151   5.074   2.934 -0.4713  1.1858 -0.3037
  394TIP3    H2 1189   1.300   5.071   2.956 -0.5088  0.5228 -0.1063
  395TIP3   OH2 1190   4.602   0.966   4.760  0.2047  0.2857 -0.5889
  395TIP3    H1 1191   4.594   1.024   4.685 -0.3453  0.4099 -0.4385
  395TIP3    H2 1192   4.533   0.994   4.820  0.8470  0.4090  0.1166
  396TIP3   OH2 1193   1.803   3.524   4.561  0.0001 -0.4512 -0.6266
  396TIP3    H1 1194   1.828   3.489   4.646 -0.9157 -0.1353 -0.2189
  396TIP3    H2 1195   1.727   3.473   4.534 -0.1451 -0.0843 -0.9294
  397TIP3   OH2 1196   6.156   3.533   1.581  0.3217 -0.2074  0.2067
  397TIP3    H1 1197   6.251   3.539   1.587  0.1797  1.5525  1.4656
  397TIP3    H2 1198   6.135   3.447   1.617  1.3475  0.0243  1.4392
  398TIP3   OH2 1199   2.760   3.239   3.178 -0.0581 -0.0371 -0.5453
  398TIP3    H1 1200   2.837   3.197   3.216 -0.0671  0.2921 -0.1517
  398TIP3    H2 1201   2.698   3.247   3.251  1.5475  4.6267  0.6751
  399TIP3   OH2 1202   1.034   0.586   1.591 -0.0982  0.5121 -0.6340
  399TIP3    H1 1203   0.962   0.600   1.653 -1.9197 -0.5954 -2.3908
  399TIP3    H2 1204   1.103   0.544   1.643 -1.6982 -0.7281  0.5907
  400TIP3   OH2 1205   2.990   5.322   0.245 -0.2391  0.0567 -0.4655
  400TIP3    H1 1206   2.905   5.299   0.207 -1.5255  0.2441  2.0953
  400TIP3    H2 1207   3.029   5.238   0.270 -0.8245  0.0749  0.5822
  401TIP3   OH2 1208   2.111   5.710   5.097  0.7879 -0.4027 -0.8006
  401TIP3    H1 1209   2.075   5.648   5.033  1.0883 -1.4057 -0.0178
  401TIP3    H2 1210   2.033   5.750   5.136  0.5337 -1.2764 -0.3678
  402TIP3   OH2 1211   2.879   1.818   1.385  0.1402 -0.6922  0.1250
  402TIP3    H1 1212   2.893   1.752   1.317  0.7798  0.1748 -0.6046
  402TIP3    H2 1213   2.967   1.844   1.412 -0.0861 -1.5274  1.8267
  403TIP3   OH2 1214   5.582   5.888   4.914  0.4765 -0.1035  0.5963
  403TIP3    H1 1215   5.556   5.961   4.970  0.6082 -0.2979  0.9152
  403TIP3    H2 1216   5.585   5.813   4.973 -0.8012 -0.6117  0.0594
  404TIP3   OH2 1217   5.188   1.300   4.589  0.0422 -0.3147  0.7903
  404TIP3    H1 1218   5.099   1.335   4.585  0.2557  0.2377  0.7771
  404TIP3    H2 1219   5.229   1.348   4.662  1.7062  2.7330 -1.8831
  405TIP3   OH2 1220   4.092   5.284   3.870 -0.1251  0.2684 -0.0042
  405TIP3    H1 1221   3.998   5.267   3.858 -1.0117  2.8049  2.2449
  405TIP3    H2 1222   4.117   5.338   3.795 -0.2170 -1.0740 -1.0303
  406TIP3   OH2 1223   0.041   3.659   2.470  0.0326 -0.0205  0.0407
  406TIP3    H1 1224   0.010   3.689   2.555  0.6857 -1.5518  0.8559
  406TIP3    H2 1225   0.002   3.573   2.459  0.0376  0.1187 -1.1869
  407TIP3   OH2 1226   2.757   4.990   2.244  0.3043  0.1872  0.0422
  407TIP3    H1 1227   2.701   4.933   2.297  1.1636 -0.6297  0.1123
  407TIP3    H2 1228   2.697   5.042   2.192 -0.5237 -0.7128  0.0703
  408TIP3   OH2 1229   2.502   1.499   1.083 -0.4967 -0.4296 -0.2987
  408TIP3    H1 1230   2.546   1.513   1.167  0.3998  0.7468 -0.9411
  408TIP3    H2 1231   2.414   1.534   1.097 -0.5418 -0.7575  0.3116
  409TIP3   OH2 1232   0.253   4.311   0.762 -0.4820  0.4221  0.1542
  409TIP3    H1 1233   0.270   4.377   0.695 -0.1142  0.7747  0.5905
  409TIP3    H2 1234   0.231   4.361   0.840  0.3735  0.0437  0.6507
  410TIP3   OH2 1235   2.791   5.173   3.388  0.2417 -0.0427 -0.4921
  410TIP3    H1 1236   2.815   5.229   3.314  0.6912 -0.8231 -0.9418
  410TIP3    H2 1237   2.794   5.232   3.464  1.2044  0.4293 -0.8814
  411TIP3   OH2 1238   2.446   1.938   4.475 -0.0858 -0.5590  0.1211
  411TIP3    H1 1239   2.418   2.013   4.424  1.2250  0.1557  0.3937
  411TIP3    H2 1240   2.430   1.862   4.419  0.6259  0.1397 -1.0467
  412TIP3   OH2 1241   5.731   3.480   1.549  0.0840 -0.6302  0.6531
  412TIP3    H1 1242   5.773   3.397   1.570 -1.9076 -1.7488  0.4235
  412TIP3    H2 1243   5.767   3.542   1.613  1.4314 -1.6999  0.9670
  413TIP3   OH2 1244   2.890   2.005   3.846 -0.2406  0.0143 -0.0671
  413TIP3    H1 1245   2.905   1.919   3.885  0.7288  0.1857 -0.0328
  413TIP3    H2 1246   2.816   2.041   3.894 -0.1776 -0.4970  0.4272
  414TIP3   OH2 1247   1.628   3.779   0.150  0.4003 -0.5491  0.4976
  414TIP3    H1 1248   1.640   3.843   0.080  0.2044 -2.1184 -1.0279
  414TIP3    H2 1249   1.603   3.831   0.226 -0.8554  1.1114 -0.9615
  415TIP3   OH2 1250   3.823   5.465   1.067 -0.2719 -0.6465 -0.2940
  415TIP3    H1 1251   3.807   5.412   1.145  0.1936 -0.2591  0.0743
  415TIP3    H2 1252   3.746   5.451   1.012  0.1337 -2.2120 -0.5049
  416TIP3   OH2 1253   1.422   4.983   4.247  0.5141  0.4534  0.0469
  416TIP3    H1 1254   1.503   4.940   4.272  1.7939  0.5560 -3.3772
  416TIP3    H2 1255   1.448   5.050   4.184 -2.2482 -0.3971 -2.2492
  417TIP3   OH2 1256   1.178   4.265   2.592 -0.5045 -0.5079  0.1355
  417TIP3    H1 1257   1.146   4.232   2.676 -0.7746  0.5583  0.4691
  417TIP3    H2 1258   1.238   4.336   2.615  0.4197 -1.0419 -0.5520
  418TIP3   OH2 1259   3.504   1.114   3.505  0.0313  0.4439  0.2849
  418TIP3    H1 1260   3.473   1.039   3.455  1.6499 -0.8183  1.0627
  418TIP3    H2 1261   3.429   1.139   3.559 -0.2363 -1.3605  0.8310
  419TIP3   OH2 1262   5.427   3.810   1.959  0.4749  0.0440  0.1663
  419TIP3    H1 1263   5.422   3.772   2.047  0.9324 -2.0376 -0.6442
  419TIP3    H2 1264   5.489   3.754   1.912 -0.3944  0.5837 -1.7214
  420TIP3   OH2 1265   0.740   4.150   0.230 -0.5415  0.1612  0.3931
  420TIP3    H1 1266   0.656   4.119   0.197 -0.0964 -0.1236 -0.4825
  420TIP3    H2 1267   0.741   4.123   0.322 -1.7814  0.9492  0.6573
  421TIP3   OH2 1268   1.554   1.833   5.036 -0.1218  0.0392 -0.0956
  421TIP3    H1 1269   1.497   1.891   5.086 -0.3473 -0.1778 -0.1032
  421TIP3    H2 1270   1.498   1.760   5.011 -0.2218  0.5123 -1.3190
  422TIP3   OH2 1271   5.621   4.031   4.376  0.4844 -0.0717 -0.1828
  422TIP3    H1 1272   5.544   4.013   4.322 -0.9212  1.0503  1.3297
  422TIP3    H2 1273   5.669   3.948   4.380 -0.9374 -0.9446 -0.7273
  423TIP3   OH2 1274   1.037   1.509   2.195  0.1315  0.2282  0.1886
  423TIP3    H1 1275   1.058   1.522   2.103  1.0899  2.6952  0.6723
  423TIP3    H2 1276   0.944   1.531   2.202  0.5070  1.9873  0.0798
  424TIP3   OH2 1277   0.758   5.512   1.877 -0.7299  0.5779  0.3375
  424TIP3    H1 1278   0.756   5.607   1.875 -1.7563  0.5657 -0.8738
  424TIP3    H2 1279   0.672   5.487   1.911 -0.8141  0.0879 -0.2206
  425TIP3   OH2 1280   1.695  -0.022   4.290 -0.2112  0.8180  0.0159
  425TIP3    H1 1281   1.675   0.036   4.216  0.8784 -0.1573 -1.0880
  425TIP3    H2 1282   1.750   0.030   4.347 -0.7575  1.4667 -0.0336
  426TIP3   OH2 1283   2.408   1.756   2.610  0.2658  0.5272 -0.0908
  426TIP3    H1 1284   2.353   1.795   2.678 -0.5903 -0.5259 -0.1573
  426TIP3    H2 1285   2.376   1.793   2.528 -0.8607 -0.6123 -0.1987
  427TIP3   OH2 1286   1.043   1.356   2.796  0.6576 -0.1411  0.4035
  427TIP3    H1 1287   1.031   1.261   2.802  0.3448 -0.1305 -0.0069
  427TIP3    H2 1288   1.135   1.367   2.772  0.7518 -0.3326  0.6725
  428TIP3   OH2 1289   2.446   3.001   1.280 -0.0764  0.3934  0.3099
  428TIP3    H1 1290   2.453   2.970   1.190 -0.0537  0.1939  0.3793
  428TIP3    H2 1291   2.371   3.061   1.280  0.1000  0.6137  0.0979
  429TIP3   OH2 1292   5.395   0.619   0.156 -0.5835  0.5118 -0.1558
  429TIP3    H1 1293   5.455   0.658   0.220 -0.8200  0.6906 -0.0418
  429TIP3    H2 1294   5.379   0.688   0.092 -1.0846  0.6422  0.1015
  430TIP3   OH2 1295   0.910   1.540   1.539 -0.0690  0.2776  0.4372
  430TIP3    H1 1296   0.999   1.569   1.560 -0.3040  1.2456  0.1737
  430TIP3    H2 1297   0.857   1.573   1.612 -0.0763 -1.2454  1.1670
  431TIP3   OH2 1298   3.300   0.678   4.908  0.6470  0.0774  0.6129
  431TIP3    H1 1299   3.334   0.768   4.915  2.7855 -0.2611 -2.8904
  431TIP3    H2 1300   3.363   0.625   4.958  0.7030  0.2912  0.7709
  432TIP3   OH2 1301   1.772   0.194   2.942  0.2557 -0.0277 -0.5196
  432TIP3    H1 1302   1.793   0.241   2.861  0.5122 -0.8981 -0.9645
  432TIP3    H2 1303   1.781   0.102   2.919 -1.2920 -0.3360  0.0634
  433TIP3   OH2 1304   0.591   1.593   4.537  0.5354 -0.0962  0.0759
  433TIP3    H1 1305   0.634   1.605   4.621  2.6952  0.2217 -1.0010
  433TIP3    H2 1306   0.575   1.682   4.505 -1.8097 -0.1892  0.8184
  434TIP3   OH2 1307   4.575   0.580   1.217 -0.2278 -0.1476 -0.2725
  434TIP3    H1 1308   4.617   0.500   1.185  1.7436  0.6213  0.2322
  434TIP3    H2 1309   4.533   0.617   1.140 -1.6222 -1.9022 -0.4120
  435TIP3   OH2 1310   4.465   2.561   4.843  0.4278 -0.2926  0.1988
  435TIP3    H1 1311   4.389   2.521   4.801  0.9888 -0.3415 -0.8066
  435TIP3    H2 1312   4.516   2.486   4.874  1.2500 -0.3924 -1.2798
  436TIP3   OH2 1313   6.144   5.152   0.459  0.0183  0.1307  0.5743
  436TIP3    H1 1314   6.060   5.131   0.418  0.5536  0.0692 -0.5485
  436TIP3    H2 1315   6.141   5.247   0.472 -0.1087  0.1694  0.2632
  437TIP3   OH2 1316   3.294   3.524   1.531 -0.0297 -0.0306  0.9186
  437TIP3    H1 1317   3.261   3.472   1.457  1.0595 -1.3529  1.3128
  437TIP3    H2 1318   3.293   3.614   1.499  0.0063 -0.5217 -0.5668
  438TIP3   OH2 1319   2.549   4.892   3.832  0.3583  0.6785  0.0582
  438TIP3    H1 1320   2.544   4.985   3.809 -0.8193  0.1382 -2.1148
  438TIP3    H2 1321   2.575   4.848   3.751  1.5636 -0.8660  1.2149
  439TIP3   OH2 1322   5.882   0.151   1.763 -0.6155  0.1265 -0.2226
  439TIP3    H1 1323   5.807   0.104   1.800 -0.0734 -1.8434 -1.4418
  439TIP3    H2 1324   5.957   0.122   1.815 -0.5073  1.2153  0.2648
  440TIP3   OH2 1325   4.486   0.355   0.324 -0.8368  0.1672 -0.0045
  440TIP3    H1 1326   4.520   0.426   0.377  0.7391 -0.9405  0.5296
  440TIP3    H2 1327   4.476   0.393   0.236 -0.2253  1.0853  0.3116
  441TIP3   OH2 1328   1.723   2.884   1.551  0.1509  0.0930 -0.8565
  441TIP3    H1 1329   1.739   2.793   1.576 -2.6640 -0.6191 -1.3097
  441TIP3    H2 1330   1.642   2.908   1.596  0.1304  1.9557 -1.7646
  442TIP3   OH2 1331   3.158   3.690   1.210 -0.2726 -0.7013  0.3686
  442TIP3    H1 1332   3.198   3.773   1.184  0.5590 -1.3746 -0.5861
  442TIP3    H2 1333   3.115   3.709   1.293  0.5476  0.4979  0.5451
  443TIP3   OH2 1334   1.293   4.692   0.713 -0.2862  0.7793 -0.0812
  443TIP3    H1 1335   1.327   4.656   0.631 -0.4242  0.5743 -0.0495
  443TIP3    H2 1336   1.338   4.776   0.723 -0.0092  0.6443 -0.1865
  444TIP3   OH2 1337   4.929   1.783   4.204  0.0114  0.2042 -0.1588
  444TIP3    H1 1338   4.916   1.825   4.119  0.2843 -1.1238 -0.8802
  444TIP3    H2 1339   4.931   1.689   4.185  1.1141 -0.0759  1.1684
  445TIP3   OH2 1340   2.563   1.233   1.542  0.3462  0.3546  0.0734
  445TIP3    H1 1341   2.503   1.195   1.606  1.5939  0.1687  1.1673
  445TIP3    H2 1342   2.610   1.158   1.506  0.1166  0.5219 -0.5966
  446TIP3   OH2 1343   1.372   1.193   0.185  0.1549  0.3542 -0.4614
  446TIP3    H1 1344   1.411   1.109   0.160  1.2801  0.3325  1.2099
  446TIP3    H2 1345   1.428   1.258   0.143  0.5668  0.2926 -0.0099
  447TIP3   OH2 1346   6.314   5.538   0.803  0.3464  0.9316  0.0130
  447TIP3    H1 1347   6.300   5.448   0.774 -0.1821  0.9258  0.2821
  447TIP3    H2 1348   6.262   5.546   0.883  1.4606  1.0731  0.7472
  448TIP3   OH2 1349   0.968   4.661   4.947 -0.8109 -0.1292 -0.0698
  448TIP3    H1 1350   1.015   4.653   5.030 -0.8246  0.3487 -0.0140
  448TIP3    H2 1351   0.900   4.726   4.964 -0.2892  0.5935 -0.6885
  449TIP3   OH2 1352   1.699   2.276   0.940 -0.0349  0.4007 -0.2300
  449TIP3    H1 1353   1.785   2.235   0.944 -0.5156 -0.6019  0.3058
  449TIP3    H2 1354   1.680   2.298   1.031 -1.2752 -1.4268 -0.0001
  450TIP3   OH2 1355   0.465   1.026   0.937 -0.0901 -0.3972  0.0358
  450TIP3    H1 1356   0.520   0.962   0.983 -1.4133 -1.7577 -0.1801
  450TIP3    H2 1357   0.526   1.095   0.910  1.0196 -0.4419  2.1992
  451TIP3   OH2 1358   2.790   4.240   3.214  0.2151  0.0876  0.1446
  451TIP3    H1 1359   2.849   4.165   3.205 -1.1205 -0.8552 -1.3306
  451TIP3    H2 1360   2.766   4.239   3.307  0.4057 -1.1904  0.2060
  452TIP3   OH2 1361   4.703   5.485   1.507  0.0502  0.4440 -0.6460
  452TIP3    H1 1362   4.779   5.429   1.492 -0.3541  0.0250 -1.1520
  452TIP3    H2 1363   4.733   5.574   1.487  1.3826  0.8101  2.3205
  453TIP3   OH2 1364   4.098   1.535   0.400  0.7859  0.5036  0.2373
  453TIP3    H1 1365   4.132   1.611   0.353  2.7847  0.5255  1.5887
  453TIP3    H2 1366   4.003   1.540   0.388  1.0922  1.3525 -2.4119
  454TIP3   OH2 1367   1.475   5.015   3.375 -0.1721 -0.5692  0.0163
  454TIP3    H1 1368   1.380   5.013   3.385 -0.1999 -1.3110 -0.3297
  454TIP3    H2 1369   1.505   4.935   3.417  0.2137 -0.7873 -0.6494
  455TIP3   OH2 1370   1.317   4.088   0.288  0.5087 -0.4065 -0.4538
  455TIP3    H1 1371   1.254   4.055   0.224 -1.0198  2.2070 -0.4352
  455TIP3    H2 1372   1.263   4.128   0.356  2.1612  0.3244  0.4823
  456TIP3   OH2 1373   1.837   5.017   1.479 -0.1451 -0.2515 -0.5146
  456TIP3    H1 1374   1.900   5.087   1.462  0.4484 -0.7652 -0.4634
  456TIP3    H2 1375   1.794   5.002   1.395  0.7035 -0.7721 -0.8618
  457TIP3   OH2 1376   4.576   1.297   3.760 -0.0439  0.0723  0.4392
  457TIP3    H1 1377   4.632   1.319   3.834  1.6324 -2.4732  0.0738
  457TIP3    H2 1378   4.623   1.331   3.684 -0.1700 -0.0374  0.3126
  458TIP3   OH2 1379   1.578   1.863   1.258  0.2840 -1.0859 -0.2785
  458TIP3    H1 1380   1.611   1.815   1.334  0.0401 -0.6910  0.0840
  458TIP3    H2 1381   1.498   1.906   1.290 -0.2881 -1.5915 -0.9905
  459TIP3   OH2 1382   5.478   0.781   4.680  0.1048 -0.2856 -0.3446
  459TIP3    H1 1383   5.409   0.738   4.628 -0.1307 -1.6148  1.0004
  459TIP3    H2 1384   5.494   0.721   4.752  1.1253  1.0602  0.5917
  460TIP3   OH2 1385   2.512   5.638   3.937  0.0057 -0.0982 -0.1986
  460TIP3    H1 1386   2.474   5.677   4.015  0.0291  0.3519 -0.4079
  460TIP3    H2 1387   2.469   5.554   3.928  1.3111 -0.9880  1.3483
  461TIP3   OH2 1388   1.857   0.645   3.294  0.1605  0.5835 -0.6276
  461TIP3    H1 1389   1.856   0.737   3.320  0.5549  0.3220  0.3400
  461TIP3    H2 1390   1.941   0.612   3.323 -0.8669 -0.6432  1.1033
  462TIP3   OH2 1391   0.491   5.839   1.684 -0.1073 -0.4799  0.0896
  462TIP3    H1 1392   0.503   5.923   1.639  2.1374 -0.4978  0.5731
  462TIP3    H2 1393   0.512   5.857   1.775 -2.6013 -0.9277  0.8327
  463TIP3   OH2 1394   4.143   2.067   2.857  0.0169  0.1340 -0.5208
  463TIP3    H1 1395   4.169   2.158   2.876  1.5472 -0.0731 -1.4946
  463TIP3    H2 1396   4.082   2.074   2.784  0.0419  0.3750 -0.5193
  464TIP3   OH2 1397   4.141   3.793   1.758 -0.7139 -0.0705  0.2375
  464TIP3    H1 1398   4.055   3.753   1.746 -0.4214 -0.8750  0.7342
  464TIP3    H2 1399   4.178   3.749   1.834 -0.2677  0.9897  0.6531
  465TIP3   OH2 1400   2.794   5.654   4.064 -0.4783 -1.2725 -0.6166
  465TIP3    H1 1401   2.746   5.607   4.133 -0.3135  1.5171  1.5666
  465TIP3    H2 1402   2.727   5.708   4.022  0.2232  0.8470  0.8524
  466TIP3   OH2 1403   6.228   5.051   4.399 -0.4136 -0.2194 -0.4032
  466TIP3    H1 1404   6.144   5.015   4.427 -1.1219  1.9259  0.3913
  466TIP3    H2 1405   6.229   5.140   4.433  2.2290 -0.1872 -0.3373
  467TIP3   OH2 1406   3.607   5.614   1.288  0.0738  0.0904  0.2076
  467TIP3    H1 1407   3.684   5.562   1.308 -0.2579 -0.9202 -1.0417
  467TIP3    H2 1408   3.641   5.702   1.271  0.6201  0.3968  2.4956
  468TIP3   OH2 1409   4.975   5.927   4.185 -0.5171 -0.1938 -0.4124
  468TIP3    H1 1410   4.925   5.978   4.249  0.6468  0.4818 -0.0114
  468TIP3    H2 1411   4.919   5.852   4.165 -1.4311  0.2303  0.4642
  469TIP3   OH2 1412   1.808   0.474   4.749  0.3902  0.0055  0.1250
  469TIP3    H1 1413   1.864   0.546   4.718 -0.0999  0.6789  0.7586
  469TIP3    H2 1414   1.735   0.518   4.792 -1.2282 -0.8335 -1.6492
  470TIP3   OH2 1415   0.454   3.338   0.319 -0.3690 -0.3052  0.4624
  470TIP3    H1 1416   0.458   3.286   0.239  0.4111  1.4529 -0.6987
  470TIP3    H2 1417   0.365   3.324   0.352 -0.6707 -1.1433 -0.6599
  471TIP3   OH2 1418   1.818   4.362   0.532  0.0937  0.4576  0.3155
  471TIP3    H1 1419   1.833   4.445   0.577  2.3939 -0.0138  0.5614
  471TIP3    H2 1420   1.906   4.329   0.512 -0.7848 -0.8965 -1.6923
  472TIP3   OH2 1421   3.552   2.123   1.620  0.4401 -0.2334  0.3294
  472TIP3    H1 1422   3.514   2.084   1.699 -0.5848  0.2756  0.1063
  472TIP3    H2 1423   3.483   2.116   1.555  1.0050  0.0448 -0.3084
  473TIP3   OH2 1424   6.192   2.745   2.353 -0.2992 -0.3522 -0.0395
  473TIP3    H1 1425   6.223   2.734   2.263  0.0935 -1.3277  0.2033
  473TIP3    H2 1426   6.172   2.656   2.383 -0.4232 -0.0429  0.8421
  474TIP3   OH2 1427   3.410   3.459   5.001  0.1058 -0.0980  0.2203
  474TIP3    H1 1428   3.427   3.404   4.924  1.3272 -1.3167  1.3032
  474TIP3    H2 1429   3.496   3.496   5.022 -0.6059  1.9340 -0.2098
  475TIP3   OH2 1430   3.889   2.850   4.403 -0.4164 -0.1506  0.5211
  475TIP3    H1 1431   3.921   2.769   4.363  0.3035  0.1673  0.4396
  475TIP3    H2 1432   3.914   2.843   4.495  3.3368  1.7038 -0.1759
  476TIP3   OH2 1433   1.394   4.977   0.086  0.1186  0.3242  0.0288
  476TIP3    H1 1434   1.362   4.937   0.166 -0.4719  1.8473  0.5776
  476TIP3    H2 1435   1.489   4.984   0.098 -0.0668  1.3548  0.9877
  477TIP3   OH2 1436   5.894   0.289   3.755 -0.5240  0.5324 -0.5203
  477TIP3    H1 1437   5.942   0.211   3.785 -2.3493 -0.2285  0.6035
  477TIP3    H2 1438   5.870   0.269   3.664 -0.6883 -0.1030 -0.3476
  478TIP3   OH2 1439   6.355   5.647   3.952 -0.8176 -0.0294 -0.9287
  478TIP3    H1 1440   6.335   5.727   4.000 -0.5324 -0.7202  0.3927
  478TIP3    H2 1441   6.365   5.580   4.020  0.1017 -0.9424 -1.9191
  479TIP3   OH2 1442   4.998   2.421   2.478  0.2261  0.2187  0.2157
  479TIP3    H1 1443   5.004   2.516   2.480 -2.3229  0.4498  1.4169
  479TIP3    H2 1444   5.069   2.391   2.535  0.7619  1.4195  0.2077
  480TIP3   OH2 1445   5.895   1.011   0.839 -1.1730  0.6494 -0.6814
  480TIP3    H1 1446   5.933   0.948   0.778 -2.1394 -1.0177  0.3671
  480TIP3    H2 1447   5.811   1.034   0.799 -1.5064  0.0657 -0.3394
  481TIP3   OH2 1448   4.726   0.201   0.203 -0.6007  0.2795 -0.5407
  481TIP3    H1 1449   4.774   0.191   0.121 -0.8213 -1.4012 -0.4951
  481TIP3    H2 1450   4.635   0.185   0.180 -0.7027  0.1071 -0.0298
  482TIP3   OH2 1451   4.269   4.602   0.309  0.6870  0.4738 -0.2452
  482TIP3    H1 1452   4.298   4.636   0.224  0.7556 -1.3122 -1.0056
  482TIP3    H2 1453   4.349   4.568   0.349  0.3870 -0.2947 -0.2825
  483TIP3   OH2 1454   4.756   4.159   4.639  0.1262  0.5092 -0.1861
  483TIP3    H1 1455   4.751   4.222   4.568  1.0666  1.2994  0.4176
  483TIP3    H2 1456   4.843   4.120   4.631  0.1319  0.3968  0.3583
  484TIP3   OH2 1457   1.681   0.888   4.612 -0.2451  0.4494  0.4389
  484TIP3    H1 1458   1.628   0.968   4.613 -0.3313  0.4167 -0.7494
  484TIP3    H2 1459   1.645   0.835   4.683 -0.9502  0.9733  0.4809
  485TIP3   OH2 1460   2.989   2.388   5.074  1.1357 -0.0903  0.3514
  485TIP3    H1 1461   3.066   2.395   5.018  1.5428  1.1294  1.0284
  485TIP3    H2 1462   2.998   2.460   5.136  0.0702 -0.6758  1.2146
  486TIP3   OH2 1463   5.233   5.258   0.614  0.4011  0.0401 -0.1274
  486TIP3    H1 1464   5.322   5.285   0.635  0.7691 -0.3431 -1.1285
  486TIP3    H2 1465   5.187   5.260   0.698  1.2197  0.7177  0.3211
  487TIP3   OH2 1466   1.445   4.351   2.304  0.4638 -0.5588  0.2597
  487TIP3    H1 1467   1.400   4.374   2.385 -0.0054 -0.5741  0.0050
  487TIP3    H2 1468   1.511   4.420   2.292 -1.5468  1.2902 -1.0064
  488TIP3   OH2 1469   6.268   1.303   2.519  0.1719  0.3357 -0.0863
  488TIP3    H1 1470   6.185   1.282   2.475  0.6401 -0.3964 -0.6338
  488TIP3    H2 1471   6.336   1.270   2.460  0.8535  0.5852  0.5407
  489TIP3   OH2 1472   2.280   5.292   2.779  0.4036  0.0696 -0.4816
  489TIP3    H1 1473   2.363   5.308   2.735  1.5215 -3.4659  0.0907
  489TIP3    H2 1474   2.298   5.307   2.872 -0.1796  1.0969 -0.5080
  490TIP3   OH2 1475   2.005   3.120   1.942  0.1561 -0.0172 -0.3394
  490TIP3    H1 1476   1.999   3.069   2.023 -2.1406 -0.6587 -0.8330
  490TIP3    H2 1477   1.995   3.211   1.971 -0.4804 -0.2317  0.1551
  491TIP3   OH2 1478   1.889   4.835   0.336  0.2721 -0.2991  0.2129
  491TIP3    H1 1479   1.933   4.751   0.348  2.1382  0.6569  0.4452
  491TIP3    H2 1480   1.948   4.886   0.280 -0.3098  1.1847  0.8820
  492TIP3   OH2 1481   2.647   5.819   0.845 -0.1370  0.2656 -0.1835
  492TIP3    H1 1482   2.629   5.895   0.900 -0.4342  1.3934 -1.7942
  492TIP3    H2 1483   2.652   5.746   0.907 -1.9042  1.2387  1.1989
  493TIP3   OH2 1484   4.561   1.597   4.015  0.0277 -0.8908 -0.2581
  493TIP3    H1 1485   4.565   1.577   3.921  2.4387  0.3304 -0.5089
  493TIP3    H2 1486   4.649   1.578   4.047 -0.0495  0.9710  1.2299
  494TIP3   OH2 1487   0.423   0.591   3.220  0.0917  0.1643 -0.5499
  494TIP3    H1 1488   0.407   0.555   3.132  1.9058  0.7026 -1.1425
  494TIP3    H2 1489   0.374   0.673   3.221 -1.4668 -0.7185 -0.3410
  495TIP3   OH2 1490   3.408   5.407   1.189 -0.2403  0.5416 -0.7088
  495TIP3    H1 1491   3.453   5.346   1.247 -0.6695  0.0691 -0.8572
  495TIP3    H2 1492   3.437   5.494   1.217  1.4189  0.2350 -1.3507
  496TIP3   OH2 1493   0.805   5.707   2.554 -0.1327  0.1880  0.0068
  496TIP3    H1 1494   0.898   5.706   2.578 -0.1954  2.0072  0.3998
  496TIP3    H2 1495   0.759   5.691   2.636 -0.2060  0.0201 -0.0644
  497TIP3   OH2 1496   3.037   5.183   1.141 -0.0795 -0.8739 -0.6168
  497TIP3    H1 1497   3.003   5.120   1.205 -0.1899 -1.0443 -0.8445
  497TIP3    H2 1498   3.004   5.152   1.057 -0.0793 -0.5484 -0.7372
  498TIP3   OH2 1499   1.198   1.585   1.671  0.3558 -0.1922  0.0130
  498TIP3    H1 1500   1.230   1.675   1.675 -1.2538  0.3730  1.8770
  498TIP3    H2 1501   1.275   1.531   1.691  1.3928  0.7207 -1.3589
  499TIP3   OH2 1502   0.895   5.130   0.155  0.1019  0.1601  0.2360
  499TIP3    H1 1503   0.957   5.149   0.226  1.2712 -0.8725 -0.4574
  499TIP3    H2 1504   0.863   5.042   0.175 -1.7993  0.9544  0.9979
  500TIP3   OH2 1505   2.144   0.816   1.982  0.3360 -0.5170  0.1560
  500TIP3    H1 1506   2.090   0.819   2.061 -1.7255 -0.5148 -1.2004
  500TIP3    H2 1507   2.137   0.904   1.946 -3.2410 -1.7753 -2.8234
  501TIP3   OH2 1508   6.290   4.199   3.427 -0.8986 -0.5025 -0.2869
  501TIP3    H1 1509   6.267   4.291   3.411  2.1494  0.6408  1.2173
  501TIP3    H2 1510   6.253   4.179   3.513 -1.3569 -0.6246 -0.5094
  502TIP3   OH2 1511   3.561   1.574   2.495  0.0683  0.0115  0.4312
  502TIP3    H1 1512   3.497   1.504   2.506  1.8083 -2.0254 -1.5839
  502TIP3    H2 1513   3.583   1.601   2.585 -1.4089 -1.2571  1.2168
  503TIP3   OH2 1514   1.368   5.369   4.776 -0.4785  0.1722  0.2796
  503TIP3    H1 1515   1.424   5.314   4.831  0.6938 -0.7826 -1.7456
  503TIP3    H2 1516   1.324   5.307   4.717  2.5986  1.2710 -3.6471
  504TIP3   OH2 1517   3.149   3.715   0.084 -0.5735  0.2912 -0.2973
  504TIP3    H1 1518   3.182   3.798   0.050 -0.9340  0.0393 -1.2915
  504TIP3    H2 1519   3.224   3.656   0.079  0.2155  0.9691  2.0723
  505TIP3   OH2 1520   4.759   4.804   1.418 -0.2493  0.0678 -0.2207
  505TIP3    H1 1521   4.802   4.784   1.335 -0.0313 -1.1454  0.1521
  505TIP3    H2 1522   4.671   4.769   1.409 -0.5253  0.7787 -0.2792
  506TIP3   OH2 1523   2.326   1.464   1.983 -0.4379 -0.2314 -0.1019
  506TIP3    H1 1524   2.266   1.483   2.055 -1.5314  0.5357 -1.1762
  506TIP3    H2 1525   2.283   1.499   1.906  0.8432 -0.7713 -1.1053
  507TIP3   OH2 1526   5.522   3.382   0.417 -0.1830 -0.1984  0.1900
  507TIP3    H1 1527   5.518   3.302   0.470 -0.7190  1.1893  2.3278
  507TIP3    H2 1528   5.609   3.419   0.436 -0.8239  0.9093  1.0624
  508TIP3   OH2 1529   4.364   0.159   2.349 -0.0860 -0.1711 -0.1957
  508TIP3    H1 1530   4.399   0.104   2.279 -0.6072  0.9454 -1.3664
  508TIP3    H2 1531   4.269   0.148   2.344 -0.1284 -0.1860  0.4433
  509TIP3   OH2 1532   4.036   2.012   3.284 -0.4401 -0.4467  0.2296
  509TIP3    H1 1533   3.991   2.083   3.239  0.1038 -0.3720 -0.2155
  509TIP3    H2 1534   3.971   1.975   3.344 -0.5002  0.9082  1.0261
  510TIP3   OH2 1535   6.296   0.598   4.504 -0.1986 -0.0672 -0.5885
  510TIP3    H1 1536   6.230   0.647   4.453  0.3547  1.2028 -0.1298
  510TIP3    H2 1537   6.371   0.657   4.508 -0.0256 -0.3620  1.2182
  511TIP3   OH2 1538   3.110   4.659   3.488  0.5233  0.0812 -0.2108
  511TIP3    H1 1539   3.173   4.623   3.550  2.7407 -0.2283 -2.5034
  511TIP3    H2 1540   3.044   4.702   3.543  1.8452 -0.9468  2.3416
  512TIP3   OH2 1541   2.363   5.939   3.315 -0.3376  0.1707 -0.3773
  512TIP3    H1 1542   2.415   5.953   3.394  1.2824 -1.9954 -0.9570
  512TIP3    H2 1543   2.295   6.006   3.319  2.0249  2.6908  0.8185
  513TIP3   OH2 1544   4.810   3.726   2.641 -0.2734 -0.0472  0.4417
  513TIP3    H1 1545   4.816   3.807   2.590 -2.0811  0.0490  0.3079
  513TIP3    H2 1546   4.876   3.668   2.602  0.1215  0.8936 -0.3326
  514TIP3   OH2 1547   4.475   2.856   3.528  0.0532 -0.2254  0.5070
  514TIP3    H1 1548   4.504   2.863   3.437  0.4412  0.3698  0.6699
  514TIP3    H2 1549   4.550   2.817   3.574 -0.2926 -0.9145  0.5035
  515TIP3   OH2 1550   4.414   4.448   3.325 -0.1197 -0.1519  0.0643
  515TIP3    H1 1551   4.422   4.459   3.230 -0.6012  0.6763  0.1073
  515TIP3    H2 1552   4.364   4.524   3.353 -0.3828 -0.6351  0.9279
  516TIP3   OH2 1553   5.375   3.070   4.354 -0.0862 -0.1222  0.3984
  516TIP3    H1 1554   5.313   2.999   4.336 -0.3604  0.7384 -2.4773
  516TIP3    H2 1555   5.457   3.041   4.314  0.7759 -0.2055  2.1129
  517TIP3   OH2 1556   4.064   1.913   5.023  0.7451 -0.3557 -0.6377
  517TIP3    H1 1557   4.003   1.987   5.016  0.6681 -0.2914  0.6024
  517TIP3    H2 1558   4.113   1.915   4.941 -0.1168  0.3091 -1.1560
  518TIP3   OH2 1559   4.168   5.887   0.776  0.0899  0.0383 -0.2955
  518TIP3    H1 1560   4.088   5.934   0.753 -1.4914 -2.4876 -0.3928
  518TIP3    H2 1561   4.189   5.916   0.864 -0.7053  1.0194 -0.4112
  519TIP3   OH2 1562   0.452   3.926   2.652  0.1997 -0.2435 -0.2927
  519TIP3    H1 1563   0.502   3.851   2.619  1.2301  0.6740 -0.9062
  519TIP3    H2 1564   0.434   3.978   2.573  0.3909  0.6610  0.2507
  520TIP3   OH2 1565   4.663   1.873   1.566  1.0300 -0.2979 -0.7130
  520TIP3    H1 1566   4.593   1.818   1.603  0.8334 -1.6131 -2.8994
  520TIP3    H2 1567   4.616   1.937   1.511  1.3466  1.3780  0.8579
  521TIP3   OH2 1568   5.728   2.248   4.622 -0.0416  0.4279 -0.2877
  521TIP3    H1 1569   5.760   2.331   4.587 -1.1849  1.3012  0.6545
  521TIP3    H2 1570   5.637   2.244   4.594  0.3812 -1.2675 -1.6046
  522TIP3   OH2 1571   5.299   2.607   0.116  0.1468  0.3911  0.3957
  522TIP3    H1 1572   5.346   2.687   0.095  1.8853 -0.9078 -0.9450
  522TIP3    H2 1573   5.268   2.621   0.206 -0.4283  2.8946 -0.1203
  523TIP3   OH2 1574   3.868   2.963   1.700 -0.1461 -0.2414 -0.3012
  523TIP3    H1 1575   3.812   3.032   1.736  1.1595 -0.5481  2.5949
  523TIP3    H2 1576   3.854   2.967   1.605 -3.2769  1.1797  0.1055
  524TIP3   OH2 1577   4.747   4.110   5.061  0.4660  0.2123 -0.6760
  524TIP3    H1 1578   4.786   4.065   4.987  1.8481  1.4319 -0.7393
  524TIP3    H2 1579   4.814   4.107   5.130  1.0439  2.9008 -0.9963
  525TIP3   OH2 1580   0.713   0.925   2.101  0.8661 -0.7939 -1.1066
  525TIP3    H1 1581   0.692   1.002   2.048 -2.8975 -0.4252  0.5630
  525TIP3    H2 1582   0.670   0.852   2.057 -0.9115 -0.7614  0.4582
  526TIP3   OH2 1583   6.320   4.415   1.713 -0.0307 -0.3132  0.0549
  526TIP3    H1 1584   6.332   4.335   1.765 -0.0701 -1.1253 -1.1554
  526TIP3    H2 1585   6.303   4.384   1.624 -1.4299  1.0172 -0.1779
  527TIP3   OH2 1586   0.417   1.811   3.394 -0.5070  0.5523  0.3460
  527TIP3    H1 1587   0.440   1.904   3.384 -0.9082  0.6680  0.4691
  527TIP3    H2 1588   0.467   1.782   3.470  1.0325  0.1815 -0.7684
  528TIP3   OH2 1589   1.862   0.658   0.868 -0.0494  0.1392 -1.0036
  528TIP3    H1 1590   1.951   0.653   0.835 -0.4668 -0.7159 -2.0642
  528TIP3    H2 1591   1.818   0.582   0.830 -1.1933  0.4600 -0.3788
  529TIP3   OH2 1592   1.199   3.448   1.634 -0.0904  0.1310 -0.2656
  529TIP3    H1 1593   1.247   3.501   1.697  0.7713  0.8435 -1.4729
  529TIP3    H2 1594   1.156   3.512   1.577 -1.4334 -0.4976  0.0125
  530TIP3   OH2 1595   1.876   4.110   4.601 -0.0179 -0.4688  0.0237
  530TIP3    H1 1596   1.809   4.090   4.666  1.1030 -1.5743  0.8735
  530TIP3    H2 1597   1.959   4.108   4.650  0.6927  0.5069 -1.0700
  531TIP3   OH2 1598   1.981   1.845   1.189  0.3023  0.0982 -0.0005
  531TIP3    H1 1599   2.068   1.849   1.228  0.9800  0.6727 -1.4918
  531TIP3    H2 1600   1.958   1.936   1.171 -0.6066 -0.0486  0.3613
  532TIP3   OH2 1601   2.367   2.709   2.769  0.2461  0.0388 -0.0702
  532TIP3    H1 1602   2.336   2.799   2.769  0.1869  0.0186  0.0193
  532TIP3    H2 1603   2.374   2.686   2.676 -1.1955 -0.3658 -0.1066
  533TIP3   OH2 1604   5.123   1.709   2.225  0.1573  0.2958 -0.1810
  533TIP3    H1 1605   5.093   1.619   2.211 -0.0774  0.6397 -2.1735
  533TIP3    H2 1606   5.205   1.699   2.273  0.4005 -1.0266 -0.8132
  534TIP3   OH2 1607   3.807   2.315   2.075 -0.2000  0.3333 -1.0438
  534TIP3    H1 1608   3.733   2.289   2.129  0.8410 -1.8878 -0.5678
  534TIP3    H2 1609   3.788   2.278   1.988 -0.4344  1.2443 -1.3903
  535TIP3   OH2 1610   1.243   1.320   2.246 -0.1999 -0.0522 -0.0100
  535TIP3    H1 1611   1.158   1.363   2.258  0.6981  1.6583  0.4754
  535TIP3    H2 1612   1.226   1.228   2.264 -1.1793  0.7639  4.1803
  536TIP3   OH2 1613   5.758   1.018   3.546 -0.2960  1.0709 -0.2672
  536TIP3    H1 1614   5.853   1.025   3.534 -0.3214  0.8962 -0.5767
  536TIP3    H2 1615   5.748   0.979   3.633 -0.0612  0.0152 -0.7041
  537TIP3   OH2 1616   5.115   3.612   0.547 -0.0456  0.2131 -0.2324
  537TIP3    H1 1617   5.139   3.693   0.592  1.9967 -1.2951  1.5885
  537TIP3    H2 1618   5.046   3.574   0.601  0.6592 -0.3722  0.2843
  538TIP3   OH2 1619   4.581   0.418   4.076 -0.5857  0.0980 -0.4353
  538TIP3    H1 1620   4.554   0.327   4.067  0.4794 -0.1391 -1.4913
  538TIP3    H2 1621   4.551   0.460   3.996  2.5020 -0.3087 -1.9415
  539TIP3   OH2 1622   5.153   2.694   2.522  0.0566  0.0781  0.2053
  539TIP3    H1 1623   5.158   2.789   2.529 -0.9892  0.0843  1.0748
  539TIP3    H2 1624   5.230   2.670   2.470 -1.5011  1.7181 -3.1913
  540TIP3   OH2 1625   5.006   2.755   4.089 -0.5886 -0.5771 -0.0649
  540TIP3    H1 1626   5.043   2.679   4.134  0.2100 -1.4924 -2.1468
  540TIP3    H2 1627   5.032   2.830   4.143 -0.1142 -1.6419  1.2398
  541TIP3   OH2 1628   4.757   2.680   4.436  0.3357 -0.1415  0.1148
  541TIP3    H1 1629   4.765   2.729   4.518 -0.3930  1.4415 -0.7096
  541TIP3    H2 1630   4.844   2.644   4.421  0.2823 -1.2114  1.9932
  542TIP3   OH2 1631   1.902   4.643   0.661 -0.2648 -0.0869  0.5861
  542TIP3    H1 1632   1.979   4.591   0.638 -0.6976 -1.1585  1.4422
  542TIP3    H2 1633   1.896   4.636   0.756 -1.3539  0.0804  0.5404
  543TIP3   OH2 1634   2.105   1.089   1.994  0.1873 -0.6571  0.4238
  543TIP3    H1 1635   2.039   1.100   2.063 -1.3472 -2.1390 -0.7454
  543TIP3    H2 1636   2.079   1.152   1.927 -0.1980 -1.4201 -0.1476
  544TIP3   OH2 1637   5.041   5.288   1.016 -0.0178 -0.4697  0.0724
  544TIP3    H1 1638   5.069   5.330   0.935  0.4505 -0.1867  0.3791
  544TIP3    H2 1639   4.945   5.299   1.017  0.1809  1.8217  0.8045
  545TIP3   OH2 1640   2.568   2.764   2.460  0.1276  0.6111  0.4421
  545TIP3    H1 1641   2.491   2.720   2.497  0.2220  0.6537  0.6939
  545TIP3    H2 1642   2.595   2.708   2.387  0.0061  0.4634  0.5089
  546TIP3   OH2 1643   5.528   2.689   0.554 -0.0282 -1.1311  0.1154
  546TIP3    H1 1644   5.541   2.686   0.459  0.6062 -1.0435  0.2016
  546TIP3    H2 1645   5.523   2.597   0.580  0.8976 -1.1743  0.1493
  547TIP3   OH2 1646   3.295   0.404   0.380  0.0339  0.1981  0.7357
  547TIP3    H1 1647   3.212   0.429   0.422 -0.0557  0.4494  0.4131
  547TIP3    H2 1648   3.314   0.476   0.320  0.1283 -0.1913  0.2920
  548TIP3   OH2 1649   2.816   4.505   3.112  0.1789  0.1680  0.1290
  548TIP3    H1 1650   2.823   4.413   3.138 -0.2801  0.0491 -0.1570
  548TIP3    H2 1651   2.889   4.548   3.157  0.3715 -0.3262  0.2994
  549TIP3   OH2 1652   2.187   2.245   0.478  0.2212 -0.4340  0.0844
  549TIP3    H1 1653   2.276   2.261   0.446  0.0173  2.0397  0.5438
  549TIP3    H2 1654   2.193   2.258   0.573 -0.5197 -0.8901  0.2070
  550TIP3   OH2 1655   2.012   1.743   4.188  0.7638 -0.2188  0.0429
  550TIP3    H1 1656   1.970   1.661   4.161  0.8948 -0.1379 -0.4057
  550TIP3    H2 1657   2.060   1.772   4.111 -0.2820  0.9213 -0.2117
  551TIP3   OH2 1658   1.925   3.107   0.482  0.6978  0.6451 -0.6019
  551TIP3    H1 1659   1.846   3.160   0.476 -0.2271 -0.6570 -0.5109
  551TIP3    H2 1660   1.893   3.016   0.476  2.0962  0.0557  0.3973
  552TIP3   OH2 1661   2.869   1.855   4.832  0.5142  0.6870  0.6516
  552TIP3    H1 1662   2.913   1.785   4.782 -0.5476 -0.0342  0.6924
  552TIP3    H2 1663   2.818   1.903   4.766 -1.2935 -0.5765  1.0445
  553TIP3   OH2 1664   0.449   4.484   4.419  0.0603 -0.0087  0.2592
  553TIP3    H1 1665   0.543   4.466   4.423  0.2366  0.3013 -1.6038
  553TIP3    H2 1666   0.442   4.578   4.431 -0.0203 -0.0379  0.4437
  554TIP3   OH2 1667   5.047   3.189   4.578 -0.1504 -0.0970  0.0826
  554TIP3    H1 1668   5.092   3.150   4.654  0.2438  1.4990  0.6990
  554TIP3    H2 1669   5.112   3.247   4.539 -0.4273 -0.7246 -1.3841
  555TIP3   OH2 1670   5.835   4.138   2.565 -0.0207 -0.0844 -0.3034
  555TIP3    H1 1671   5.853   4.203   2.633  1.3830 -0.0297 -0.6822
  555TIP3    H2 1672   5.759   4.173   2.518  0.3388  0.9816 -0.1244
  556TIP3   OH2 1673   1.788   5.912   0.926  0.0176 -0.7020 -0.3483
  556TIP3    H1 1674   1.857   5.974   0.901  1.0822 -1.1066  1.3979
  556TIP3    H2 1675   1.826   5.861   0.997 -1.2665 -2.5873 -0.9373
  557TIP3   OH2 1676   2.099   3.985  -0.000  0.3229  0.2476 -0.5570
  557TIP3    H1 1677   2.141   4.041   0.065  0.0519  0.9332 -0.9699
  557TIP3    H2 1678   2.169   3.965  -0.063  0.7147 -0.8093  0.1721
  558TIP3   OH2 1679   2.461   3.306   4.604  0.1688 -0.2811 -0.2754
  558TIP3    H1 1680   2.471   3.211   4.599  0.7246 -0.1884 -1.0007
  558TIP3    H2 1681   2.527   3.334   4.668  0.6732 -0.2890 -0.7817
  559TIP3   OH2 1682   2.004   1.156   4.225 -0.1505 -0.0427 -0.2402
  559TIP3    H1 1683   1.913   1.175   4.203 -0.4703  1.4295  2.0214
  559TIP3    H2 1684   2.000   1.077   4.279  0.0922 -0.7845 -1.2831
  560TIP3   OH2 1685   2.015   2.053   2.243 -0.3061  0.3113 -0.8463
  560TIP3    H1 1686   2.047   2.123   2.187 -1.9796  0.3717 -1.7801
  560TIP3    H2 1687   1.928   2.081   2.269  0.2585  0.0921  1.5099
  561TIP3   OH2 1688   0.783   4.375   2.184 -0.2849  0.0345 -0.3761
  561TIP3    H1 1689   0.871   4.399   2.156  0.0084  1.5404  1.6412
  561TIP3    H2 1690   0.791   4.283   2.212  0.3331 -0.2173 -1.3520
  562TIP3   OH2 1691   1.109   1.812   1.944  0.6546  0.1459 -0.2190
  562TIP3    H1 1692   1.163   1.778   2.016  1.8136  2.2482  0.0017
  562TIP3    H2 1693   1.169   1.817   1.870  0.9705  2.7439  0.0916
  563TIP3   OH2 1694   2.591   1.766   0.212  0.5978 -0.2064  0.3960
  563TIP3    H1 1695   2.617   1.738   0.299 -0.0802  1.2330  1.0923
  563TIP3    H2 1696   2.673   1.796   0.171  0.9498 -1.0815  0.4334
  564TIP3   OH2 1697   1.132   1.519   3.654 -0.3916 -0.2124  0.1960
  564TIP3    H1 1698   1.084   1.532   3.573 -2.8201 -3.7347  0.8181
  564TIP3    H2 1699   1.212   1.474   3.627  0.9157  2.3411 -0.4952
  565TIP3   OH2 1700   4.958   3.130   4.302  0.3892 -0.3173  0.4427
  565TIP3    H1 1701   4.962   3.186   4.379 -0.1077 -0.5795  0.6689
  565TIP3    H2 1702   4.871   3.147   4.265  1.8022  2.3005 -1.9997
  566TIP3   OH2 1703   1.673   0.941   2.871  0.0335  0.0829 -0.4180
  566TIP3    H1 1704   1.627   0.859   2.889 -2.8254  2.0651  2.5238
  566TIP3    H2 1705   1.605   1.008   2.873  2.6061  2.9403  0.9100
  567TIP3   OH2 1706   5.093   1.136   2.970 -0.1030 -0.3877  0.5816
  567TIP3    H1 1707   5.106   1.216   3.022  1.0355  0.0856 -0.3741
  567TIP3    H2 1708   5.105   1.165   2.879 -0.2610 -1.5417  0.1836
  568TIP3   OH2 1709   1.491   0.336   4.565 -0.6628  0.0588  0.4843
  568TIP3    H1 1710   1.468   0.425   4.537 -0.4139 -0.2972 -0.9494
  568TIP3    H2 1711   1.452   0.279   4.499  0.4536 -0.8078  0.5456
  569TIP3   OH2 1712   3.249   5.964   1.757  0.3005  0.0550 -0.0321
  569TIP3    H1 1713   3.269   5.986   1.666  0.0307  1.0124  0.1304
  569TIP3    H2 1714   3.272   5.872   1.764 -0.6877 -0.3257 -1.3554
  570TIP3   OH2 1715   3.060   3.189   1.205 -0.2592  0.3442 -0.2275
  570TIP3    H1 1716   2.970   3.223   1.199 -0.9093 -1.2268 -0.0209
  570TIP3    H2 1717   3.069   3.132   1.129  1.8112  3.0693 -2.1954
  571TIP3   OH2 1718   1.168   4.877   4.743 -0.0786 -0.6683 -0.1608
  571TIP3    H1 1719   1.198   4.939   4.810  2.9643 -1.3227 -0.7265
  571TIP3    H2 1720   1.146   4.932   4.668  1.5399 -0.1154 -0.2894
  572TIP3   OH2 1721   1.413   5.225   1.914 -0.0879  0.3488  0.4955
  572TIP3    H1 1722   1.400   5.161   1.984  0.5542  0.7691  1.0209
  572TIP3    H2 1723   1.440   5.305   1.960  3.6331 -0.2386 -0.3419
  573TIP3   OH2 1724   5.556   0.843   1.349 -0.5703  0.2041 -0.0902
  573TIP3    H1 1725   5.465   0.826   1.374 -0.6074  0.8068  0.2015
  573TIP3    H2 1726   5.607   0.778   1.397 -0.6607  1.2295  1.4609
  574TIP3   OH2 1727   4.473   1.018   1.668  0.2774  0.2648  0.2214
  574TIP3    H1 1728   4.470   1.090   1.731 -0.3599 -0.0123  0.5166
  574TIP3    H2 1729   4.535   1.047   1.601 -0.8905  1.6226 -0.3056
  575TIP3   OH2 1730  -0.001   2.351   4.049 -0.0118  0.0204 -0.2877
  575TIP3    H1 1731  -0.022   2.361   3.957  0.5718 -0.6241 -0.5048
  575TIP3    H2 1732   0.055   2.273   4.052  1.5700  1.1416  0.3521
  576TIP3   OH2 1733   0.964   3.124   2.398  0.3403  0.3744 -0.3211
  576TIP3    H1 1734   1.029   3.085   2.340  0.0148  0.8715 -1.0335
  576TIP3    H2 1735   0.931   3.199   2.350 -1.7855 -0.6568 -0.5815
  577TIP3   OH2 1736   1.295   4.787   5.176 -0.6300 -0.0751  0.2415
  577TIP3    H1 1737   1.213   4.835   5.191 -1.0067 -0.4501 -0.5172
  577TIP3    H2 1738   1.267   4.696   5.166 -0.0130 -0.3373  0.8685
  578TIP3   OH2 1739   0.287   0.163   2.295 -0.1379 -0.2224  0.9842
  578TIP3    H1 1740   0.305   0.112   2.374  0.6257 -1.2885  0.1598
  578TIP3    H2 1741   0.331   0.247   2.311  0.1009 -0.4628  1.6466
  579TIP3   OH2 1742   2.695   0.505   1.878 -0.0807 -0.1522  0.0898
  579TIP3    H1 1743   2.636   0.444   1.835  0.8163  0.5242 -2.2733
  579TIP3    H2 1744   2.779   0.493   1.833  0.7557  1.0603  1.2592
  580TIP3   OH2 1745   6.265   5.711   1.110  0.1273  0.0249 -0.3275
  580TIP3    H1 1746   6.260   5.738   1.201  1.6897  1.0632 -0.5072
  580TIP3    H2 1747   6.357   5.685   1.097 -0.3602 -1.3858 -1.2784
  581TIP3   OH2 1748   5.057   4.106   2.438 -0.2680 -0.0502 -0.7875
  581TIP3    H1 1749   5.049   4.013   2.414 -1.0293 -1.4520  3.8977
  581TIP3    H2 1750   5.131   4.108   2.499 -1.5628  1.9264  0.8560
  582TIP3   OH2 1751   5.954   1.459   2.624  0.2663 -0.1980  0.2571
  582TIP3    H1 1752   5.989   1.432   2.539 -1.1249 -0.9343 -0.1082
  582TIP3    H2 1753   5.864   1.425   2.625 -0.4348  1.5618  1.1795
  583TIP3   OH2 1754   3.970   2.977   2.315  0.4054 -0.1168 -0.3536
  583TIP3    H1 1755   4.027   2.967   2.392 -1.3654  2.0816  1.3995
  583TIP3    H2 1756   3.906   2.907   2.324  0.1642  0.1725  0.2498
  584TIP3   OH2 1757   1.718   2.252   0.483 -0.2055  0.3852  0.2220
  584TIP3    H1 1758   1.632   2.235   0.444 -0.2706  0.2437  0.4207
  584TIP3    H2 1759   1.765   2.169   0.475  0.3905  0.8220 -1.0492
  585TIP3   OH2 1760   3.384   0.509   2.463 -0.0796 -0.5330 -0.1629
  585TIP3    H1 1761   3.451   0.478   2.401  1.5937  1.3113  0.6220
  585TIP3    H2 1762   3.432   0.562   2.526 -2.2994  0.8335  0.4950
  586TIP3   OH2 1763   5.013   5.978   0.030 -0.4594 -0.1959  0.3228
  586TIP3    H1 1764   5.101   5.940   0.023 -0.6386 -0.5445 -0.0988
  586TIP3    H2 1765   5.008   6.009   0.120  0.6831  1.2890 -0.0952
  587TIP3   OH2 1766   5.610   3.277   3.426  0.2622 -0.0229 -0.4166
  587TIP3    H1 1767   5.554   3.350   3.397  0.1820 -0.2288 -0.7871
  587TIP3    H2 1768   5.587   3.264   3.518  1.6927  1.7421  0.2546
  588TIP3   OH2 1769   4.048   3.427   0.646 -0.5759  0.3105 -0.1276
  588TIP3    H1 1770   4.055   3.419   0.551 -0.0975 -0.6086 -0.0259
  588TIP3    H2 1771   3.980   3.364   0.670  1.0451 -1.3149  0.3804
  589TIP3   OH2 1772   4.081   4.709   5.153  0.4281 -0.2875 -0.5097
  589TIP3    H1 1773   4.033   4.683   5.231  0.1908  2.8089  0.5419
  589TIP3    H2 1774   4.020   4.764   5.104  1.7656  0.9121 -0.8976
  590TIP3   OH2 1775   5.239   2.660   0.367 -0.1530 -0.2777 -0.1745
  590TIP3    H1 1776   5.230   2.752   0.393 -0.4651 -0.5835  0.8483
  590TIP3    H2 1777   5.256   2.614   0.449  1.3761 -0.9721 -0.8340
  591TIP3   OH2 1778   5.862   5.629   2.977  0.1812 -0.7223 -0.0882
  591TIP3    H1 1779   5.863   5.639   2.882 -3.0196  1.6275 -0.0087
  591TIP3    H2 1780   5.804   5.555   2.993 -0.6567 -0.0531  0.0341
  592TIP3   OH2 1781   0.935   4.746   1.991 -0.2727  0.1957 -0.2167
  592TIP3    H1 1782   0.867   4.810   2.011 -2.0065 -1.1821 -1.4398
  592TIP3    H2 1783   0.896   4.661   2.012  2.9416 -0.5306  4.1767
  593TIP3   OH2 1784   1.471   1.401   3.204  0.0953  0.3653  0.3212
  593TIP3    H1 1785   1.453   1.461   3.131 -0.8716 -0.6805 -0.3294
  593TIP3    H2 1786   1.391   1.350   3.213  0.6447 -0.3474  1.3444
  594TIP3   OH2 1787   0.751   0.668   4.127  0.4552 -0.0568  0.0576
  594TIP3    H1 1788   0.766   0.666   4.033  1.4825 -0.8098  0.2178
  594TIP3    H2 1789   0.693   0.594   4.145 -1.9660  1.6392 -0.2896
  595TIP3   OH2 1790   0.966   0.910   3.114  0.3577 -0.6372 -0.0714
  595TIP3    H1 1791   1.061   0.921   3.110  0.2122  2.3769  1.8274
  595TIP3    H2 1792   0.948   0.890   3.206 -0.7942 -3.3307 -0.7541
  596TIP3   OH2 1793   5.346   5.097   1.948  0.3488 -0.1267  0.1098
  596TIP3    H1 1794   5.323   5.042   2.022 -0.0204  0.7001  0.6254
  596TIP3    H2 1795   5.432   5.132   1.970  0.6186 -0.5613 -0.2535
  597TIP3   OH2 1796   4.535   5.334   4.012  0.0222 -0.3216 -0.3252
  597TIP3    H1 1797   4.448   5.302   3.988 -0.8471  0.1180  1.9953
  597TIP3    H2 1798   4.530   5.351   4.106  2.4531  0.2972 -0.2243
  598TIP3   OH2 1799   2.698   5.490   3.328 -0.3576  0.3806  0.1899
  598TIP3    H1 1800   2.748   5.437   3.266 -0.9739  1.1281 -0.9921
  598TIP3    H2 1801   2.619   5.439   3.345 -1.3307  1.1908 -1.5727
  599TIP3   OH2 1802   0.800   5.899   0.198 -0.7967  0.0787 -0.1628
  599TIP3    H1 1803   0.835   5.812   0.180 -0.1723  0.3313 -0.2016
  599TIP3    H2 1804   0.721   5.905   0.143 -0.2177 -0.0414 -1.0209
  600TIP3   OH2 1805   1.596   3.704   3.822 -0.5688  0.2361 -0.2903
  600TIP3    H1 1806   1.505   3.706   3.791 -0.4494 -1.1054 -0.8060
  600TIP3    H2 1807   1.648   3.686   3.744  0.3266  2.4020 -0.2592
  601TIP3   OH2 1808   5.782   0.825   2.274 -0.2406 -0.4486 -0.3342
  601TIP3    H1 1809   5.819   0.854   2.357  1.2832 -4.1377  0.4719
  601TIP3    H2 1810   5.856   0.786   2.227 -1.4397 -0.1166 -2.6143
  602TIP3   OH2 1811   4.896   1.066   4.177  0.1335  0.9179 -0.2981
  602TIP3    H1 1812   4.908   0.980   4.215  0.9082  0.0929 -2.2937
  602TIP3    H2 1813   4.807   1.092   4.204  0.0090 -0.3432  0.5772
  603TIP3   OH2 1814   4.930   5.614   1.879  0.4513 -0.2673  0.3147
  603TIP3    H1 1815   4.970   5.699   1.864  0.4607 -0.5097 -1.2649
  603TIP3    H2 1816   4.964   5.585   1.964  0.7011  1.1376  0.7196
  604TIP3   OH2 1817   3.139   2.801   0.059 -0.3032 -0.3347 -0.3770
  604TIP3    H1 1818   3.226   2.773   0.033  0.4546 -0.1761  1.8075
  604TIP3    H2 1819   3.085   2.723   0.050  0.4165 -0.8609 -0.2024
  605TIP3   OH2 1820   5.017   0.836   3.477  0.4296  0.0487  0.0609
  605TIP3    H1 1821   5.013   0.909   3.538 -1.5035  0.7369 -0.7997
  605TIP3    H2 1822   4.929   0.830   3.440  1.2242 -1.0193 -1.8609
  606TIP3   OH2 1823   3.667   1.465   1.761  0.7205 -0.3338 -0.5693
  606TIP3    H1 1824   3.657   1.510   1.677 -1.5183  0.9378  0.2734
  606TIP3    H2 1825   3.577   1.449   1.790  1.3956  0.3632  2.1501
  607TIP3   OH2 1826   0.956   3.718   1.777  0.0748  0.3258 -0.0728
  607TIP3    H1 1827   1.017   3.787   1.800  1.2043 -1.2727  2.0799
  607TIP3    H2 1828   0.881   3.730   1.836  1.5110 -1.8057  2.4052
  608TIP3   OH2 1829   3.300   5.287   0.962 -0.3210 -0.0058  0.0468
  608TIP3    H1 1830   3.332   5.314   1.049 -3.2965 -0.4607  1.3837
  608TIP3    H2 1831   3.285   5.193   0.970  2.2763 -0.7524 -2.0612
  609TIP3   OH2 1832   5.454   1.603   3.569 -0.0084  0.5684 -0.3924
  609TIP3    H1 1833   5.484   1.559   3.489 -1.3402 -1.1294 -0.0263
  609TIP3    H2 1834   5.474   1.695   3.554  0.5926  0.1911 -2.2997
  610TIP3   OH2 1835   4.266   4.210   3.723 -0.1622 -0.3277  0.0259
  610TIP3    H1 1836   4.174   4.209   3.699 -0.0748 -1.8283 -0.3614
  610TIP3    H2 1837   4.268   4.185   3.816 -0.1363 -0.3465  0.0204
  611TIP3   OH2 1838   0.661   1.165   1.294 -0.3630  0.0540 -0.0035
  611TIP3    H1 1839   0.644   1.258   1.312 -2.6128 -0.2886 -0.0244
  611TIP3    H2 1840   0.579   1.133   1.254  1.8413 -0.8710 -4.5179
  612TIP3   OH2 1841   3.307   4.911   3.446 -0.2266 -0.1146 -0.7557
  612TIP3    H1 1842   3.243   4.845   3.472 -0.5714  0.2799 -0.5769
  612TIP3    H2 1843   3.256   4.975   3.397 -0.1164  0.5855  0.0177
  613TIP3   OH2 1844   2.656   2.562   1.742  0.8132  0.0471  0.1587
  613TIP3    H1 1845   2.674   2.630   1.676  2.7414 -1.7051 -1.2422
  613TIP3    H2 1846   2.741   2.523   1.760 -0.3123 -2.3992  0.4837
  614TIP3   OH2 1847   1.873   4.684   2.132  0.4192 -0.0922  0.3802
  614TIP3    H1 1848   1.910   4.719   2.052  0.2749 -2.2577 -0.6869
  614TIP3    H2 1849   1.779   4.699   2.124  0.4189 -0.1905  0.2145
  615TIP3   OH2 1850   5.814   3.002   1.566 -0.1405 -0.5144  0.3305
  615TIP3    H1 1851   5.889   2.962   1.522 -0.9871 -1.5903 -0.1748
  615TIP3    H2 1852   5.846   3.088   1.595  0.9632 -0.5225 -0.8021
  616TIP3   OH2 1853   4.531   2.261   4.302  0.6579  0.3156 -0.5722
  616TIP3    H1 1854   4.450   2.247   4.350  0.4562  0.9058 -0.7202
  616TIP3    H2 1855   4.560   2.349   4.329  1.2571  0.1068 -0.5078
  617TIP3   OH2 1856   0.378   2.271   3.657  0.5553 -0.1550 -0.3018
  617TIP3    H1 1857   0.325   2.196   3.682  0.8178  0.0369  0.9143
  617TIP3    H2 1858   0.461   2.233   3.627  0.2857 -0.3915 -0.7512
  618TIP3   OH2 1859   2.504   2.821   0.167  0.2328 -0.2567  0.1426
  618TIP3    H1 1860   2.571   2.789   0.228  1.0472  0.1843 -0.4980
  618TIP3    H2 1861   2.548   2.821   0.082 -0.3150  0.8732 -0.1515
  619TIP3   OH2 1862   5.856   3.386   2.511 -0.0092  0.2042 -0.4351
  619TIP3    H1 1863   5.852   3.442   2.435 -0.8062  0.2538 -0.3601
  619TIP3    H2 1864   5.816   3.437   2.582  0.9970  0.2849  0.1076
  620TIP3   OH2 1865   0.416   3.296   2.219 -0.6454 -0.3180 -0.1381
  620TIP3    H1 1866   0.468   3.221   2.192  0.1100  0.0186  0.3635
  620TIP3    H2 1867   0.401   3.283   2.313  0.6256  0.8149  0.2499
  621TIP3   OH2 1868   1.619   5.812   1.715 -0.1995  0.1919 -0.1172
  621TIP3    H1 1869   1.686   5.840   1.777  0.8407 -0.7751 -0.7703
  621TIP3    H2 1870   1.633   5.867   1.638 -0.2555  0.0850 -0.2038
  622TIP3   OH2 1871   6.287   3.418   2.522  0.2319  0.2890  0.3447
  622TIP3    H1 1872   6.212   3.393   2.575 -0.6054  0.2238 -0.8454
  622TIP3    H2 1873   6.297   3.347   2.459  0.3765  1.0017 -0.4554
  623TIP3   OH2 1874   4.102   5.540   0.134 -0.5028 -0.1159 -0.1736
  623TIP3    H1 1875   4.018   5.569   0.098 -0.2192 -0.0356 -0.7714
  623TIP3    H2 1876   4.129   5.467   0.079 -0.0489  0.0279 -0.1469
  624TIP3   OH2 1877   0.462   1.912   0.720 -0.2201  0.2128 -0.2974
  624TIP3    H1 1878   0.541   1.907   0.775  0.5545 -1.6758 -1.4642
  624TIP3    H2 1879   0.407   1.840   0.752 -1.3054  1.2428  0.2095
  625TIP3   OH2 1880   1.972   2.080   0.440  0.1184 -0.5781  0.7073
  625TIP3    H1 1881   2.032   2.153   0.454 -2.8606  2.3383 -0.3794
  625TIP3    H2 1882   1.973   2.066   0.345 -1.2262 -0.1303  0.6083
  626TIP3   OH2 1883   4.360   5.559   3.855 -0.4113  0.4575 -0.5222
  626TIP3    H1 1884   4.435   5.528   3.805  1.2579  1.7873  1.0502
  626TIP3    H2 1885   4.321   5.627   3.800 -0.3484 -0.0574 -1.2276
  627TIP3   OH2 1886   5.541   4.034   2.399  0.1124  0.2879  0.8121
  627TIP3    H1 1887   5.458   3.995   2.372  0.8150 -0.5352 -0.2418
  627TIP3    H2 1888   5.583   3.967   2.452  0.7859  0.0770  0.0260
  628TIP3   OH2 1889   4.918   2.605   3.678  0.3431  0.3464 -0.1515
  628TIP3    H1 1890   4.993   2.557   3.714  0.2145  0.9257  0.9325
  628TIP3    H2 1891   4.903   2.677   3.740 -1.4982 -0.1122  0.0079
  629TIP3   OH2 1892   2.389   0.880   0.047  0.6718 -0.3359  0.1849
  629TIP3    H1 1893   2.312   0.837   0.085 -0.1054  0.5288 -0.3699
  629TIP3    H2 1894   2.377   0.873  -0.047  0.6239  0.8990  0.0827
  630TIP3   OH2 1895   1.691   5.978   4.202 -0.1828 -0.3791  0.3778
  630TIP3    H1 1896   1.689   6.014   4.114  2.0417 -0.7558  0.1090
  630TIP3    H2 1897   1.746   5.900   4.195 -1.1155 -1.2228  1.8407
  631TIP3   OH2 1898   2.530   5.441   0.674  0.0681  0.1340 -0.0865
  631TIP3    H1 1899   2.451   5.435   0.620  0.7791  1.4619 -1.3235
  631TIP3    H2 1900   2.498   5.477   0.757 -0.3858  2.6491 -1.2699
  632TIP3   OH2 1901   0.854   4.651   3.017 -0.3899  0.2373 -0.0810
  632TIP3    H1 1902   0.938   4.671   3.057 -1.3013  2.2592  1.0043
  632TIP3    H2 1903   0.811   4.593   3.080 -0.7370  1.1630  0.5437
  633TIP3   OH2 1904   5.319   2.374   3.953 -0.2639 -0.6904  0.2510
  633TIP3    H1 1905   5.405   2.412   3.972  0.6661 -1.1631 -2.6287
  633TIP3    H2 1906   5.327   2.282   3.981 -0.3903 -0.3716  1.3906
  634TIP3   OH2 1907   3.934   2.981   2.783  0.0458  0.2873 -0.1415
  634TIP3    H1 1908   3.894   2.894   2.778 -0.0147  0.2499  0.8338
  634TIP3    H2 1909   3.987   2.987   2.704 -0.3380 -0.4405 -0.4718
  635TIP3   OH2 1910   1.523   0.160   1.124 -0.1380  0.3395  0.1372
  635TIP3    H1 1911   1.608   0.132   1.158 -0.9925 -2.1000  0.4688
  635TIP3    H2 1912   1.537   0.171   1.030  0.7251  0.7930  0.3097
  636TIP3   OH2 1913   1.625   3.732   0.904  0.3595 -1.2380 -0.1702
  636TIP3    H1 1914   1.579   3.813   0.882 -0.1182 -1.5531 -0.3335
  636TIP3    H2 1915   1.679   3.713   0.827  2.6672  0.4302  0.9101
  637TIP3   OH2 1916   6.153   5.005   3.728  0.5990 -0.1255  0.1222
  637TIP3    H1 1917   6.124   5.054   3.804  2.0039  0.1115  0.5357
  637TIP3    H2 1918   6.072   4.980   3.683 -0.2006  1.1139  0.8093
  638TIP3   OH2 1919   2.824   3.821   3.082  0.1099 -0.6482 -0.7182
  638TIP3    H1 1920   2.830   3.840   3.175 -1.0136 -0.5404 -0.6560
  638TIP3    H2 1921   2.909   3.782   3.060  0.1215 -1.3752  0.5147
  639TIP3   OH2 1922   4.279   3.269   0.240 -0.5791  0.3133  0.3615
  639TIP3    H1 1923   4.351   3.232   0.190 -1.2479 -0.5460  0.0123
  639TIP3    H2 1924   4.309   3.356   0.266  0.7638 -0.2166  0.6303
  640TIP3   OH2 1925   4.258   5.214   2.866  0.4202  0.5220 -0.3171
  640TIP3    H1 1926   4.219   5.204   2.779 -0.0634  2.5880 -0.3963
  640TIP3    H2 1927   4.311   5.293   2.860  1.3579  0.0242  0.9477
  641TIP3   OH2 1928   0.792   2.215   3.857  0.2627  0.5859 -0.4793
  641TIP3    H1 1929   0.709   2.172   3.839  1.0919 -0.8042 -1.1152
  641TIP3    H2 1930   0.859   2.152   3.829  1.5483  1.2582  0.9275
  642TIP3   OH2 1931   4.752   0.269   4.433  0.3667  0.2755 -0.3509
  642TIP3    H1 1932   4.846   0.255   4.441  0.5682  2.1016  1.2169
  642TIP3    H2 1933   4.716   0.185   4.406  2.1860 -1.0730  1.2302
  643TIP3   OH2 1934   0.774   5.263   2.342  0.6205 -0.2267  0.5174
  643TIP3    H1 1935   0.709   5.282   2.410 -1.2128 -1.7063 -0.7070
  643TIP3    H2 1936   0.802   5.348   2.310 -2.0966  0.5064 -0.1161
  644TIP3   OH2 1937   1.561   4.480   3.704  0.2748 -0.2696  0.0186
  644TIP3    H1 1938   1.600   4.438   3.628 -0.1898 -2.5389  0.9655
  644TIP3    H2 1939   1.625   4.465   3.774  0.4528  1.3271  0.2302
  645TIP3   OH2 1940   0.059   4.225   1.514  0.1453  0.1707 -0.2063
  645TIP3    H1 1941   0.026   4.178   1.438  0.6080 -1.5707  0.6077
  645TIP3    H2 1942   0.088   4.156   1.574 -1.2119  1.4196  2.0400
  646TIP3   OH2 1943   2.940  -0.006   0.540  0.1956 -0.1183 -0.5588
  646TIP3    H1 1944   2.918   0.026   0.627 -1.3115 -0.1983 -0.8805
  646TIP3    H2 1945   2.992   0.064   0.501  0.6942  0.0073  0.3209
  647TIP3   OH2 1946   4.722   5.741   4.859 -0.3680  0.1089 -0.6170
  647TIP3    H1 1947   4.696   5.692   4.781 -1.0668  2.0261 -1.6705
  647TIP3    H2 1948   4.667   5.819   4.858 -1.0233 -0.1878  2.3090
  648TIP3   OH2 1949   3.480   0.466   1.935  0.7597 -0.0794  0.1303
  648TIP3    H1 1950   3.396   0.470   1.982 -0.2865  2.9537 -1.7413
  648TIP3    H2 1951   3.543   0.440   2.002 -1.2417  0.1191  2.2375
  649TIP3   OH2 1952   1.471   1.426   1.428  0.3342 -0.3139  0.0057
  649TIP3    H1 1953   1.395   1.389   1.384 -0.8227  1.2732  0.5558
  649TIP3    H2 1954   1.546   1.382   1.388 -0.7749 -0.6282 -1.8468
  650TIP3   OH2 1955   2.972   0.187   3.323 -0.1727 -0.5738 -0.0708
  650TIP3    H1 1956   3.022   0.115   3.284 -1.2761  0.1499 -3.1511
  650TIP3    H2 1957   2.960   0.249   3.251 -0.9554  1.7812  1.9573
  651TIP3   OH2 1958   4.184   3.138   1.409 -0.6141  0.6314  0.5245
  651TIP3    H1 1959   4.175   3.175   1.497  2.8062 -0.6561  1.5589
  651TIP3    H2 1960   4.137   3.055   1.413 -0.5976  0.6423  1.0751
  652TIP3   OH2 1961   5.370   3.126   3.906 -0.0653 -0.1470  0.1131
  652TIP3    H1 1962   5.312   3.169   3.970  0.8763  0.7144  0.3967
  652TIP3    H2 1963   5.370   3.034   3.934 -1.1778 -0.1405  0.1942
  653TIP3   OH2 1964   0.496   2.032   2.436  0.5916  0.1313 -0.0691
  653TIP3    H1 1965   0.516   1.958   2.379 -1.0311  0.6075 -1.3507
  653TIP3    H2 1966   0.452   1.993   2.511 -0.2262 -0.2517 -0.7216
  654TIP3   OH2 1967   4.490   0.102   2.623  0.4317  0.1349  0.5704
  654TIP3    H1 1968   4.488   0.110   2.527  0.9429 -0.2727  0.5250
  654TIP3    H2 1969   4.428   0.032   2.642  2.1776 -1.5294  0.3398
  655TIP3   OH2 1970   2.086   3.180   4.677 -0.9856  0.1197 -0.1621
  655TIP3    H1 1971   2.139   3.115   4.723 -1.1031  0.0185 -0.1693
  655TIP3    H2 1972   2.149   3.232   4.628 -0.7946  0.6517  0.6384
  656TIP3   OH2 1973   5.842   1.503   3.758  0.5889 -0.2806  0.0443
  656TIP3    H1 1974   5.842   1.589   3.717 -0.0182  0.1385  0.8957
  656TIP3    H2 1975   5.842   1.521   3.852  1.0883 -1.2158  0.2384
  657TIP3   OH2 1976   1.218   0.894   4.245 -0.2851  0.2715  0.0675
  657TIP3    H1 1977   1.263   0.815   4.216 -1.9954 -0.7586  0.0859
  657TIP3    H2 1978   1.205   0.881   4.339 -0.1178  0.8049  0.1668
  658TIP3   OH2 1979   0.247   4.355   2.483 -0.6254 -0.2207  0.2066
  658TIP3    H1 1980   0.295   4.429   2.521  1.8635 -1.4862 -0.2834
  658TIP3    H2 1981   0.247   4.289   2.553 -0.0559 -0.8908 -0.4193
  659TIP3   OH2 1982   3.306   1.503   3.697  1.2741  0.0832 -0.4078
  659TIP3    H1 1983   3.320   1.595   3.676  1.6835 -0.2021 -1.4513
  659TIP3    H2 1984   3.304   1.500   3.793  0.3460  1.2916 -0.3795
  660TIP3   OH2 1985   4.828   4.440   0.629 -0.3911 -0.0448 -0.4481
  660TIP3    H1 1986   4.805   4.499   0.557 -1.2858 -2.0707 -1.9020
  660TIP3    H2 1987   4.919   4.461   0.649  0.0136  0.2970 -2.4673
  661TIP3   OH2 1988   5.621   5.896   0.580  0.4086  0.2171 -0.4881
  661TIP3    H1 1989   5.607   5.827   0.515 -1.1054  1.4008 -1.5056
  661TIP3    H2 1990   5.549   5.886   0.642  1.4926 -0.5136  0.6899
  662TIP3   OH2 1991   4.799   2.762   5.188 -0.4169  0.2388 -0.1164
  662TIP3    H1 1992   4.774   2.728   5.102  1.6816  0.6431 -0.9526
  662TIP3    H2 1993   4.760   2.849   5.192  1.0724  1.0316 -1.5665
  663TIP3   OH2 1994   6.041   3.508   4.887  0.2943 -0.7912  0.0567
  663TIP3    H1 1995   6.126   3.466   4.869  0.1893 -1.0827  0.2413
  663TIP3    H2 1996   5.982   3.473   4.820 -0.4653 -2.9866  1.7644
  664TIP3   OH2 1997   2.157   4.385   0.205 -0.1534  0.3450  0.3052
  664TIP3    H1 1998   2.193   4.303   0.238 -0.3595 -0.2487 -0.8691
  664TIP3    H2 1999   2.193   4.393   0.117  1.4220  2.5416  1.0922
  665TIP3   OH2 2000   3.766   5.251   0.547 -0.1256  0.2491 -0.4778
  665TIP3    H1 2001   3.861   5.237   0.542 -0.1876 -0.2369 -0.2758
  665TIP3    H2 2002   3.758   5.344   0.571  0.2819  0.5101 -1.3059
  666TIP3   OH2 2003   5.168   2.069   0.658 -0.2611  0.0538 -0.0073
  666TIP3    H1 2004   5.248   2.085   0.607  0.6050 -0.2936  1.1847
  666TIP3    H2 2005   5.103   2.043   0.593  1.4728 -3.0016 -0.7395
  667TIP3   OH2 2006   2.460   3.766   3.308 -0.4065 -0.0137  0.0515
  667TIP3    H1 2007   2.374   3.789   3.273  0.6398 -0.8442 -3.4127
  667TIP3    H2 2008   2.517   3.838   3.282 -0.0521  0.8775  2.9234
  668TIP3   OH2 2009   5.555   3.684   2.168 -0.2025 -0.4765  0.2364
  668TIP3    H1 2010   5.506   3.658   2.246 -0.8473 -1.6833 -0.5307
  668TIP3    H2 2011   5.615   3.611   2.153  0.5088  0.1355  0.0828
  669TIP3   OH2 2012   3.631   5.086   3.383 -0.7118 -0.2245  0.5430
  669TIP3    H1 2013   3.545   5.117   3.357  0.0786  0.7237 -1.0400
  669TIP3    H2 2014   3.690   5.159   3.365  0.4867 -0.9588  1.3249
  670TIP3   OH2 2015   1.869   3.533   2.309 -0.1519  0.2839  0.3462
  670TIP3    H1 2016   1.830   3.490   2.385 -0.4848 -1.5159 -0.7617
  670TIP3    H2 2017   1.855   3.471   2.237  0.0069  1.9698 -1.2261
  671TIP3   OH2 2018   3.832   3.849   4.125 -0.2065  0.3929  0.4047
  671TIP3    H1 2019   3.759   3.906   4.149  0.8858  1.6489  0.8312
  671TIP3    H2 2020   3.888   3.848   4.202 -0.6112 -2.0174  0.7625
  672TIP3   OH2 2021   5.941   0.140   3.271  0.5678  0.4131  0.6491
  672TIP3    H1 2022   5.847   0.120   3.272  0.9658 -1.7327 -0.0309
  672TIP3    H2 2023   5.983   0.057   3.247  2.6993  1.1301  1.6528
  673TIP3   OH2 2024   3.304   4.652   1.253  0.6203  0.0118  0.3008
  673TIP3    H1 2025   3.241   4.722   1.233  0.8152  0.3217  0.7870
  673TIP3    H2 2026   3.383   4.697   1.280  0.3399 -0.3995  1.8900
  674TIP3   OH2 2027   4.186   4.829   4.701 -0.3938 -0.2829  0.0608
  674TIP3    H1 2028   4.091   4.821   4.695 -0.3077 -1.2335 -0.2012
  674TIP3    H2 2029   4.212   4.871   4.620 -1.0340  4.9803  2.2024
  675TIP3   OH2 2030   1.123   0.197   1.764  0.4767  0.5612  0.1311
  675TIP3    H1 2031   1.211   0.228   1.746  0.8387 -0.9797 -0.9444
  675TIP3    H2 2032   1.107   0.220   1.855  1.3076  2.3852 -0.1498
  676TIP3   OH2 2033   2.984   3.117   3.760 -0.2969 -0.2666  0.1072
  676TIP3    H1 2034   2.911   3.056   3.749 -0.5458  0.1735 -0.7317
  676TIP3    H2 2035   2.972   3.182   3.691  1.4804 -0.7625 -0.7265
  677TIP3   OH2 2036   1.617   0.538   3.299 -0.0583 -0.2748 -0.1389
  677TIP3    H1 2037   1.604   0.475   3.229 -1.7188  1.1721 -1.2037
  677TIP3    H2 2038   1.710   0.562   3.293 -0.0782 -0.4942 -1.5600
  678TIP3   OH2 2039   1.010   1.191   3.187 -0.2735 -0.0342  0.3237
  678TIP3    H1 2040   0.952   1.230   3.253 -0.0234 -0.4912  0.8167
  678TIP3    H2 2041   0.972   1.105   3.169  0.0704 -0.2038  0.4066
  679TIP3   OH2 2042   6.163   5.675   0.499  0.4851 -0.2207  0.2454
  679TIP3    H1 2043   6.202   5.687   0.412 -0.4013 -1.4084 -0.3481
  679TIP3    H2 2044   6.148   5.581   0.506  1.6941 -0.3175  2.2280
  680TIP3   OH2 2045   1.889   5.440   1.130 -0.6186 -0.7082  0.2171
  680TIP3    H1 2046   1.820   5.425   1.066  0.9831 -0.0382 -1.7788
  680TIP3    H2 2047   1.952   5.371   1.114  0.2722  0.0498  0.3779
  681TIP3   OH2 2048   0.725   5.006   3.971  0.0962 -0.2184  0.1535
  681TIP3    H1 2049   0.655   5.005   4.036  0.3165 -0.2248  0.3929
  681TIP3    H2 2050   0.763   5.094   3.978  1.7308 -0.9785  1.7796
  682TIP3   OH2 2051   2.566   2.077   0.499 -0.1540  0.2647 -0.2384
  682TIP3    H1 2052   2.591   2.108   0.586 -0.7388  0.0016  0.0245
  682TIP3    H2 2053   2.566   1.981   0.506  0.6263  0.2071 -0.7661
  683TIP3   OH2 2054   5.557   1.304   4.040 -0.6025 -0.6655 -0.0008
  683TIP3    H1 2055   5.506   1.374   4.083 -1.4131 -0.4708 -1.2388
  683TIP3    H2 2056   5.492   1.236   4.022 -0.2831 -0.7162 -0.9678
  684TIP3   OH2 2057   1.120   4.258   1.880  0.7252  0.5863  0.2001
  684TIP3    H1 2058   1.114   4.203   1.958 -0.0285  1.2283  0.6129
  684TIP3    H2 2059   1.117   4.347   1.914 -2.2204  0.9238 -0.6747
  685TIP3   OH2 2060   6.033   0.432   4.597  0.4506  0.1792 -0.2366
  685TIP3    H1 2061   6.114   0.436   4.545  1.0175  0.3622  0.6431
  685TIP3    H2 2062   6.015   0.523   4.620 -1.4257  0.4888 -2.5123
  686TIP3   OH2 2063   1.071   0.369   4.510 -0.2533  0.0632  0.1804
  686TIP3    H1 2064   1.082   0.294   4.569 -0.9706  0.8022  1.3050
  686TIP3    H2 2065   0.984   0.403   4.531 -0.2298  0.7897 -0.8202
  687TIP3   OH2 2066   4.573   3.925   3.276  0.1054 -0.1156 -0.2745
  687TIP3    H1 2067   4.590   4.019   3.270  2.1066 -0.4593 -0.4648
  687TIP3    H2 2068   4.534   3.903   3.191 -1.5038  0.7098  0.1988
  688TIP3   OH2 2069   1.226   1.601   3.895 -0.5863 -0.3330 -0.3149
  688TIP3    H1 2070   1.170   1.582   3.819  0.3314  0.2038 -1.1418
  688TIP3    H2 2071   1.301   1.543   3.885 -0.1931  0.1349 -0.1289
  689TIP3   OH2 2072   5.552   3.461   0.886  0.3687  0.2563 -0.0899
  689TIP3    H1 2073   5.620   3.431   0.825 -0.3285  0.3574 -0.9290
  689TIP3    H2 2074   5.599   3.521   0.945  1.1522 -0.2104 -0.2231
  690TIP3   OH2 2075   1.971   2.773   1.197 -0.2518  0.2914 -0.0267
  690TIP3    H1 2076   2.016   2.813   1.272 -2.1671  2.0703  0.2761
  690TIP3    H2 2077   1.895   2.730   1.235 -4.1484  5.3830 -1.0336
  691TIP3   OH2 2078   0.623   4.312   0.715 -0.1197 -0.6091  0.3917
  691TIP3    H1 2079   0.643   4.225   0.682  0.2042  0.3295 -2.1118
  691TIP3    H2 2080   0.537   4.303   0.757 -0.8343 -1.8371 -1.2366
  692TIP3   OH2 2081   2.925   2.034   3.000  0.0931  0.2362  0.3616
  692TIP3    H1 2082   3.014   2.011   3.026 -0.1218 -0.3759  0.5767
  692TIP3    H2 2083   2.904   1.973   2.929 -1.0107 -1.2708  1.9021
  693TIP3   OH2 2084   1.114   0.681   2.839 -0.0297  0.0503 -0.8015
  693TIP3    H1 2085   1.110   0.658   2.932  0.3677 -1.6201 -1.1733
  693TIP3    H2 2086   1.023   0.677   2.810 -0.0728 -0.0928 -0.6461
  694TIP3   OH2 2087   1.088   2.634   2.953 -0.1017  0.1348 -0.1114
  694TIP3    H1 2088   1.110   2.540   2.950 -0.2433  0.0880 -2.8731
  694TIP3    H2 2089   0.993   2.636   2.948 -0.0730  0.4192 -0.5914
  695TIP3   OH2 2090   0.917   4.603   0.986 -0.1059  0.2524 -0.4620
  695TIP3    H1 2091   0.867   4.611   1.067  0.3469 -1.6397  0.0559
  695TIP3    H2 2092   0.947   4.692   0.968 -0.2930  0.7477  1.4066
  696TIP3   OH2 2093   1.092   1.268   3.937 -0.5067  0.4283 -0.4649
  696TIP3    H1 2094   1.036   1.246   3.863 -2.1184 -0.0398  0.8309
  696TIP3    H2 2095   1.132   1.185   3.963  0.7122  0.7308 -1.2745
  697TIP3   OH2 2096   4.621   2.789   2.350 -0.1219 -0.3821 -0.2357
  697TIP3    H1 2097   4.692   2.772   2.412  1.4904  1.8017 -1.3448
  697TIP3    H2 2098   4.560   2.845   2.398  0.5925  0.4431 -0.2715
  698TIP3   OH2 2099   1.735   1.052   0.684  0.0723 -0.2082  0.1865
  698TIP3    H1 2100   1.648   1.037   0.647 -0.3226  0.0310  1.0020
  698TIP3    H2 2101   1.793   1.053   0.608 -0.2543 -2.9803 -0.1820
  699TIP3   OH2 2102   4.277   2.148   1.601 -0.0092  0.2368  0.3645
  699TIP3    H1 2103   4.224   2.093   1.543  0.6660  0.5457 -0.5676
  699TIP3    H2 2104   4.215   2.211   1.637 -0.6737 -0.7257  0.9519
  700TIP3   OH2 2105   1.986   3.502   0.740 -0.0485 -0.0662 -0.2376
  700TIP3    H1 2106   1.981   3.597   0.752 -0.7623 -0.0322 -0.6987
  700TIP3    H2 2107   2.060   3.489   0.681 -1.0923  0.3885 -1.7134
  701TIP3   OH2 2108   3.594   4.105   2.428  0.3506 -0.7763  0.3594
  701TIP3    H1 2109   3.609   4.144   2.343  1.8435 -0.7774  0.5915
  701TIP3    H2 2110   3.516   4.051   2.417  0.6575 -0.9552 -1.0690
  702TIP3   OH2 2111   4.780   0.909   3.281 -0.7162  0.1202 -0.2581
  702TIP3    H1 2112   4.739   0.975   3.337 -1.2110  0.3491 -0.8808
  702TIP3    H2 2113   4.749   0.929   3.193  0.4147  0.0445 -0.6956
  703TIP3   OH2 2114   5.738   2.524   1.965 -0.1474  0.2424  0.3525
  703TIP3    H1 2115   5.772   2.479   2.043 -1.2668  0.0016  0.7272
  703TIP3    H2 2116   5.761   2.467   1.892  0.1290  0.0276  0.6028
  704TIP3   OH2 2117   4.581   3.406   0.655  0.1500  0.1796 -0.0047
  704TIP3    H1 2118   4.569   3.499   0.637  0.2403  0.0378 -0.8466
  704TIP3    H2 2119   4.494   3.375   0.681 -0.3762  0.0787 -1.7582
  705TIP3   OH2 2120   2.205   4.318   2.042 -0.0946 -0.1249  0.7430
  705TIP3    H1 2121   2.128   4.309   1.985  2.2721  0.0702 -2.7701
  705TIP3    H2 2122   2.240   4.229   2.049 -0.2427 -0.1161  1.8133
  706TIP3   OH2 2123   2.118   1.053   0.443  0.0939 -0.6687  0.3701
  706TIP3    H1 2124   2.087   1.144   0.442  0.5012 -0.5295 -0.7481
  706TIP3    H2 2125   2.039   1.002   0.462 -0.7826 -0.2733 -1.8675
  707TIP3   OH2 2126   6.219   0.257   2.576 -0.2583 -0.1993 -0.5199
  707TIP3    H1 2127   6.229   0.164   2.599 -0.5391 -0.1117 -0.0180
  707TIP3    H2 2128   6.133   0.280   2.610  0.5335  0.7038  0.9948
  708TIP3   OH2 2129   5.270   4.126   3.856 -0.0853  0.2537 -0.2746
  708TIP3    H1 2130   5.280   4.220   3.873  0.0490  0.4339 -1.2973
  708TIP3    H2 2131   5.213   4.122   3.779 -0.5101 -0.5233  0.0665
  709TIP3   OH2 2132   0.683   0.441   3.004  0.0818 -0.1801  0.0899
  709TIP3    H1 2133   0.589   0.456   3.000 -0.3101 -1.9681  1.1976
  709TIP3    H2 2134   0.713   0.451   2.914 -1.0821  0.8089 -0.2126
  710TIP3   OH2 2135   3.973   2.796   3.637  0.0137  0.5372 -0.1644
  710TIP3    H1 2136   3.956   2.706   3.664  0.0728  0.6648  0.3252
  710TIP3    H2 2137   3.910   2.813   3.567  0.9329 -0.3302 -1.2388
  711TIP3   OH2 2138   1.677   5.626   3.746 -1.0951 -0.5990 -0.3130
  711TIP3    H1 2139   1.769   5.601   3.738 -0.9209  0.3673 -1.7841
  711TIP3    H2 2140   1.630   5.560   3.694 -1.3431 -1.4931  0.9906
  712TIP3   OH2 2141   2.323   4.770   4.237  0.1485  0.0825  0.1881
  712TIP3    H1 2142   2.368   4.850   4.264 -0.9605  0.8210 -0.0498
  712TIP3    H2 2143   2.258   4.755   4.306 -0.2157 -0.1273 -0.1949
  713TIP3   OH2 2144   4.837   4.772   2.201 -0.0882  0.3729 -0.6760
  713TIP3    H1 2145   4.886   4.744   2.125  1.3964 -0.8577  0.6594
  713TIP3    H2 2146   4.841   4.868   2.199  1.7274  0.3071 -1.0203
  714TIP3   OH2 2147   3.461   1.219   1.526 -0.5914 -0.0309 -0.3743
  714TIP3    H1 2148   3.371   1.250   1.529 -0.5333  0.0598  0.9359
  714TIP3    H2 2149   3.512   1.295   1.499 -0.9267 -0.1812 -1.4983
  715TIP3   OH2 2150   5.867   1.087   4.089 -0.4949  0.3635 -0.3362
  715TIP3    H1 2151   5.817   1.146   4.033 -0.7876  0.5166  0.0784
  715TIP3    H2 2152   5.901   1.143   4.159 -0.7989  0.0425  0.0766
  716TIP3   OH2 2153   1.597   3.558   1.654  0.5151  0.5730 -0.7757
  716TIP3    H1 2154   1.588   3.569   1.748  0.2746  0.2159 -0.7534
  716TIP3    H2 2155   1.591   3.647   1.618 -3.0267  0.4745 -0.7553
  717TIP3   OH2 2156   2.015   1.006   0.119 -0.3378 -0.0996 -0.6815
  717TIP3    H1 2157   1.935   0.957   0.137  0.4013 -1.8880 -1.9509
  717TIP3    H2 2158   2.068   0.946   0.066  1.0313  1.7457 -1.5012
  718TIP3   OH2 2159   1.797   2.728   4.041 -0.0119  0.0608  0.0309
  718TIP3    H1 2160   1.723   2.758   3.989  0.7047  0.7831 -0.5974
  718TIP3    H2 2161   1.792   2.781   4.121 -1.1884 -1.1419  0.7829
  719TIP3   OH2 2162   2.158   3.684   3.505  0.3901 -0.4435  0.0064
  719TIP3    H1 2163   2.171   3.653   3.594 -2.1967  0.5898  0.8407
  719TIP3    H2 2164   2.245   3.682   3.465  1.4375 -1.9148  2.1965
  720TIP3   OH2 2165   4.711   0.147   0.481  0.3778 -0.0017 -0.0700
  720TIP3    H1 2166   4.679   0.164   0.392 -3.2951 -2.2729  0.6287
  720TIP3    H2 2167   4.711   0.052   0.489  0.4108  0.1454  2.4463
  721TIP3   OH2 2168   1.315   3.651   1.884  0.3157  0.3386 -0.1256
  721TIP3    H1 2169   1.382   3.615   1.942  0.5739 -0.1771 -0.7329
  721TIP3    H2 2170   1.235   3.649   1.937  0.3972 -0.8083 -0.0148
  722TIP3   OH2 2171   5.499   0.492   2.083  0.5846 -0.1363  0.0827
  722TIP3    H1 2172   5.482   0.399   2.068  1.0533 -0.3524  0.8508
  722TIP3    H2 2173   5.418   0.536   2.059 -0.0393 -0.8561  0.8262
  723TIP3   OH2 2174   2.081   2.862   1.814  0.0259 -0.8194 -0.1339
  723TIP3    H1 2175   2.120   2.940   1.776  1.0048 -1.0114  0.4074
  723TIP3    H2 2176   2.074   2.882   1.908  0.4540 -1.4231  0.0397
  724TIP3   OH2 2177   2.970   1.988   0.176 -0.3956  0.2959  0.3306
  724TIP3    H1 2178   2.961   1.893   0.169  0.9452  0.1307  0.5130
  724TIP3    H2 2179   2.920   2.011   0.254 -0.7385 -0.2573  0.2810
  725TIP3   OH2 2180   3.674   2.909   4.253  0.0180 -0.3896 -0.2633
  725TIP3    H1 2181   3.748   2.888   4.310  0.7317 -0.8277 -1.3388
  725TIP3    H2 2182   3.657   2.829   4.205 -1.4457 -0.4241  0.2555
  726TIP3   OH2 2183   1.184   4.543   1.944  0.3679 -0.3884  0.2779
  726TIP3    H1 2184   1.262   4.583   1.982 -0.7401  0.1539  2.0668
  726TIP3    H2 2185   1.158   4.603   1.874  0.8219  0.0794  0.5072
  727TIP3   OH2 2186   0.737   5.422   4.753  0.1320 -0.4261  0.1688
  727TIP3    H1 2187   0.772   5.509   4.771  0.5446 -0.2814 -1.2623
  727TIP3    H2 2188   0.704   5.392   4.838  2.5602 -0.0504  1.3280
  728TIP3   OH2 2189   0.135   0.816   2.814  0.5253  0.1652 -0.0341
  728TIP3    H1 2190   0.217   0.832   2.862  0.4757  0.0283  0.0994
  728TIP3    H2 2191   0.103   0.733   2.849 -0.4180  0.9198  0.9561
  729TIP3   OH2 2192   2.050   3.355   1.470  0.7039 -0.5752  0.2246
  729TIP3    H1 2193   2.086   3.331   1.556 -0.1318  1.0420  1.0590
  729TIP3    H2 2194   1.969   3.305   1.463  1.4311 -1.7333 -0.2393
  730TIP3   OH2 2195   5.651   1.110   0.715  0.4823  0.0031  0.0887
  730TIP3    H1 2196   5.565   1.074   0.695 -0.2615  0.1422  2.6549
  730TIP3    H2 2197   5.633   1.196   0.753  1.8240  0.3568 -0.0010
  731TIP3   OH2 2198   6.075   3.177   2.569 -0.5854 -0.0763 -0.0353
  731TIP3    H1 2199   6.001   3.236   2.557 -0.3725 -0.0360 -1.2983
  731TIP3    H2 2200   6.042   3.092   2.541  0.0375  0.0813 -1.3223
  732TIP3   OH2 2201   1.154   4.535   1.114  0.0932  0.6822  0.0208
  732TIP3    H1 2202   1.153   4.608   1.177 -0.4005  1.3002 -0.6837
  732TIP3    H2 2203   1.065   4.532   1.080 -0.1269 -0.8149  0.6509
  733TIP3   OH2 2204   2.705   2.947   1.006 -0.4347  0.3988  0.2711
  733TIP3    H1 2205   2.710   3.040   1.027 -0.3513  0.1426  1.5061
  733TIP3    H2 2206   2.619   2.920   1.038 -0.4958  0.0693 -0.1617
  734TIP3   OH2 2207   0.377   0.952   0.078  0.1270 -0.6340 -0.0567
  734TIP3    H1 2208   0.332   1.020   0.028 -0.4130 -1.5123 -0.8056
  734TIP3    H2 2209   0.460   0.940   0.032  0.8534  0.4836  0.9054
  735TIP3   OH2 2210   1.119   1.428   3.075 -0.0272 -0.2191 -0.5354
  735TIP3    H1 2211   1.107   1.377   2.995 -0.7086 -0.9072 -0.0153
  735TIP3    H2 2212   1.093   1.368   3.145  2.7692 -0.4844  0.4253
  736TIP3   OH2 2213   4.981   5.210   0.055 -0.3962  0.2342 -0.5263
  736TIP3    H1 2214   5.057   5.156   0.080  0.1068  0.8239 -0.7477
  736TIP3    H2 2215   5.012   5.259  -0.021 -0.8954  0.7346 -0.4084
  737TIP3   OH2 2216   4.186   2.608   4.239  0.4618  0.4826 -0.5439
  737TIP3    H1 2217   4.244   2.540   4.206  0.9049  0.6281 -0.0898
  737TIP3    H2 2218   4.235   2.689   4.226  0.6576  0.5385  0.4687
  738TIP3   OH2 2219   1.045   1.419   4.448  0.5549 -0.4687 -0.0737
  738TIP3    H1 2220   1.007   1.408   4.361 -0.3410  3.2905 -0.3250
  738TIP3    H2 2221   0.991   1.365   4.505 -0.8689 -0.5566 -1.4282
  739TIP3   OH2 2222   6.055   3.459   2.001 -0.2911 -0.6192  0.2121
  739TIP3    H1 2223   6.074   3.470   2.094 -1.7459 -1.1648  0.6025
  739TIP3    H2 2224   6.072   3.366   1.984  0.7840 -0.3414 -0.2818
  740TIP3   OH2 2225   2.814   0.357   1.076 -0.5308 -0.0433  0.4089
  740TIP3    H1 2226   2.821   0.450   1.097  1.7846 -0.4110  1.5626
  740TIP3    H2 2227   2.885   0.341   1.015  1.4262 -1.6539  2.9026
  741TIP3   OH2 2228   0.621   5.389   0.304 -0.3286  0.0299 -0.3758
  741TIP3    H1 2229   0.543   5.429   0.266 -0.9423 -2.4010 -1.8644
  741TIP3    H2 2230   0.675   5.364   0.229  0.9618 -0.1127  0.5603
  742TIP3   OH2 2231   2.299   5.476   0.529 -0.1111  0.2434  0.1700
  742TIP3    H1 2232   2.270   5.405   0.471 -0.5603  0.6037 -0.0612
  742TIP3    H2 2233   2.218   5.524   0.549 -0.1302 -0.4775  1.9420
  743TIP3   OH2 2234   4.871   4.795   1.673  0.3538 -0.3395  0.2820
  743TIP3    H1 2235   4.826   4.810   1.590 -0.8702  0.2264  1.0293
  743TIP3    H2 2236   4.906   4.706   1.665  0.3464 -0.2568 -0.8685
  744TIP3   OH2 2237   3.964   1.673   3.013  0.1776  0.1795  0.1665
  744TIP3    H1 2238   4.023   1.622   3.068  0.6979  0.5565 -0.0314
  744TIP3    H2 2239   4.021   1.711   2.946 -0.1826  1.0825  0.3554
  745TIP3   OH2 2240   3.566   3.916   4.221 -0.5637  0.1465  0.4435
  745TIP3    H1 2241   3.541   3.975   4.292  0.2574  0.9210  0.1102
  745TIP3    H2 2242   3.504   3.843   4.227 -0.1730 -0.0700  2.2917
  746TIP3   OH2 2243   3.444   2.137   3.783 -0.8827  0.3070 -0.0519
  746TIP3    H1 2244   3.350   2.122   3.781 -0.7716 -0.4646  0.0166
  746TIP3    H2 2245   3.454   2.224   3.823 -1.5249 -0.0125  0.8441
  747TIP3   OH2 2246   5.175   4.171   0.500  0.4600 -0.3720 -0.2822
  747TIP3    H1 2247   5.160   4.106   0.431  0.1950 -0.1666 -0.4231
  747TIP3    H2 2248   5.205   4.249   0.453 -0.0015 -0.1390 -0.1993
  748TIP3   OH2 2249   4.466   5.025   2.727 -0.3709 -0.6447  0.1276
  748TIP3    H1 2250   4.454   4.941   2.772  1.7741 -1.2926 -0.4219
  748TIP3    H2 2251   4.517   5.078   2.788 -0.6051 -0.1936 -0.0641
  749TIP3   OH2 2252   4.196   2.024   1.369 -0.2371 -0.1997 -0.4241
  749TIP3    H1 2253   4.233   2.025   1.281 -1.1665  0.3067 -0.8207
  749TIP3    H2 2254   4.106   1.994   1.357 -0.6700  0.8004  0.2307
  750TIP3   OH2 2255   0.104   2.085   0.676 -0.1064  0.3105 -0.1898
  750TIP3    H1 2256   0.179   2.142   0.694 -1.7158  2.1587  1.1009
  750TIP3    H2 2257   0.090   2.038   0.759  0.3791 -1.0007 -0.8279
  751TIP3   OH2 2258   6.023   5.026   0.897 -0.1825 -0.6786  0.6296
  751TIP3    H1 2259   5.981   4.969   0.961  0.8842 -0.7068  1.3173
  751TIP3    H2 2260   6.112   5.038   0.929 -0.0058  0.3478 -0.1744
  752TIP3   OH2 2261   0.805   0.733   2.989  0.1684  0.1054  0.2492
  752TIP3    H1 2262   0.793   0.648   3.031 -0.8273  0.2146  0.2150
  752TIP3    H2 2263   0.862   0.782   3.048 -1.1591  0.2362  1.4657
  753TIP3   OH2 2264   0.916   1.659   1.177  0.2262 -0.0281 -0.4691
  753TIP3    H1 2265   0.852   1.668   1.106  0.0830  1.4197 -0.1815
  753TIP3    H2 2266   0.935   1.566   1.179 -1.5383 -0.4450 -0.8623
  754TIP3   OH2 2267   1.710   3.509   0.987  0.0202 -0.0289  0.2437
  754TIP3    H1 2268   1.689   3.597   0.955  0.3484 -0.1274 -0.2405
  754TIP3    H2 2269   1.772   3.524   1.058 -1.2318  0.2353  1.3334
  755TIP3   OH2 2270   2.870   3.311   1.518  0.3706 -0.8515 -0.9766
  755TIP3    H1 2271   2.850   3.372   1.589 -0.0762 -0.7147 -1.2189
  755TIP3    H2 2272   2.929   3.247   1.558  1.0849 -0.0994 -0.7936
  756TIP3   OH2 2273   2.084   1.943   2.485  0.2362  0.5081  0.0161
  756TIP3    H1 2274   2.108   2.010   2.549  0.2774  1.2074 -0.7184
  756TIP3    H2 2275   2.087   1.988   2.401  0.8346 -0.5579 -0.5546
  757TIP3   OH2 2276   0.508   3.873   1.204 -0.2069 -0.3221 -0.6077
  757TIP3    H1 2277   0.469   3.788   1.183 -1.5490 -0.0148  0.4946
  757TIP3    H2 2278   0.433   3.931   1.216  0.4385  0.0460  2.6548
  758TIP3   OH2 2279   3.114   1.088   3.309 -0.5616  0.0119  0.0641
  758TIP3    H1 2280   3.153   1.041   3.382 -0.4977  0.1406  0.1139
  758TIP3    H2 2281   3.185   1.143   3.276 -0.5642 -0.1097 -0.1493
  759TIP3   OH2 2282   0.931   4.136   1.729  0.5114 -0.1135  0.5635
  759TIP3    H1 2283   0.981   4.214   1.752 -0.1705  0.2698  0.7674
  759TIP3    H2 2284   0.866   4.128   1.798  1.3789 -1.6080  1.2652
  760TIP3   OH2 2285   4.223   4.000   0.650  0.0333 -0.2127  0.0093
  760TIP3    H1 2286   4.138   4.039   0.668 -0.2870 -0.6118 -0.5931
  760TIP3    H2 2287   4.205   3.907   0.637  0.4948 -0.2339 -0.5399
  761TIP3   OH2 2288   4.506   4.966   1.646  0.1898 -0.0470 -0.2370
  761TIP3    H1 2289   4.506   5.054   1.608  1.5334 -0.9385 -2.5115
  761TIP3    H2 2290   4.438   4.919   1.598  0.3384 -0.6012  0.0844
  762TIP3   OH2 2291   2.231   4.214   3.865 -0.0762  0.0854  0.7978
  762TIP3    H1 2292   2.203   4.172   3.784  0.6826  1.0976 -0.0072
  762TIP3    H2 2293   2.310   4.168   3.891 -0.1721 -0.0642  0.8262
  763TIP3   OH2 2294   5.947   1.949   0.552  0.3154  0.3024 -0.2824
  763TIP3    H1 2295   5.926   1.886   0.483  2.2852 -0.9258  0.1475
  763TIP3    H2 2296   6.009   1.902   0.609  0.3470  1.9869  1.1557
  764TIP3   OH2 2297   6.204   4.206   0.157  0.4763  0.2132  0.1185
  764TIP3    H1 2298   6.230   4.190   0.066 -1.6307  1.1371 -0.7233
  764TIP3    H2 2299   6.229   4.297   0.172  0.1952  0.2717  0.2259
  765TIP3   OH2 2300   0.928   4.627   4.669 -0.5040 -0.1968  0.5548
  765TIP3    H1 2301   0.895   4.659   4.752  1.2989 -0.0624  1.2515
  765TIP3    H2 2302   1.020   4.650   4.668 -0.5957  0.3574 -1.7685
  766TIP3   OH2 2303   3.157   5.762   4.143 -0.0445  0.2405 -0.4655
  766TIP3    H1 2304   3.132   5.675   4.112 -2.5674  1.2075 -1.3726
  766TIP3    H2 2305   3.206   5.801   4.070  1.3634 -0.4641  0.0585
  767TIP3   OH2 2306   2.511   4.983   2.409  0.0793  0.0937  0.3382
  767TIP3    H1 2307   2.427   4.938   2.401 -0.2816  0.7351  0.4525
  767TIP3    H2 2308   2.520   5.001   2.502  0.6462 -0.5293  0.4124
  768TIP3   OH2 2309   0.154   2.076   2.512 -0.2384  1.2074 -0.2235
  768TIP3    H1 2310   0.090   2.005   2.504 -0.2442  1.2882 -0.9806
  768TIP3    H2 2311   0.103   2.150   2.545 -1.2169  2.1085 -3.4406
  769TIP3   OH2 2312   4.631   0.135   1.619 -0.0738  0.3393  0.1772
  769TIP3    H1 2313   4.575   0.137   1.541  0.9529 -0.2084 -0.6025
  769TIP3    H2 2314   4.575   0.167   1.689 -1.5709 -0.8062 -0.4269
  770TIP3   OH2 2315   5.125   4.839   2.098 -0.0227 -0.0081  0.2086
  770TIP3    H1 2316   5.204   4.843   2.153 -1.0631 -1.1559  1.8980
  770TIP3    H2 2317   5.073   4.914   2.126  0.0897  0.2462 -0.2697
  771TIP3   OH2 2318   2.831   4.389   4.200 -0.2233  0.3571  0.5391
  771TIP3    H1 2319   2.771   4.436   4.142  0.4356  0.4505 -0.0801
  771TIP3    H2 2320   2.913   4.384   4.151 -0.4719 -2.0704  0.2742
  772TIP3   OH2 2321   6.094   2.760   2.848 -0.3068  0.0215 -0.4733
  772TIP3    H1 2322   6.187   2.762   2.825  0.0203  1.1001  0.8700
  772TIP3    H2 2323   6.092   2.774   2.942 -1.8971  1.3348 -0.6667
  773TIP3   OH2 2324   1.270   2.707   1.922 -0.3847  0.5089 -0.4166
  773TIP3    H1 2325   1.337   2.695   1.989 -0.4993  0.6638 -0.2745
  773TIP3    H2 2326   1.216   2.779   1.954 -1.5911 -0.6444  0.2502
  774TIP3   OH2 2327   2.324   3.804   1.335  0.2183  0.1810 -0.1198
  774TIP3    H1 2328   2.338   3.850   1.418 -0.1508  2.0248 -1.0324
  774TIP3    H2 2329   2.256   3.740   1.354 -1.7631  2.3303  0.4531
  775TIP3   OH2 2330   2.202   3.408   5.022  0.0043 -0.3222 -0.2359
  775TIP3    H1 2331   2.247   3.411   4.937  1.3413  0.9052  0.4725
  775TIP3    H2 2332   2.197   3.315   5.043  1.8018 -0.5336 -0.5912
  776TIP3   OH2 2333   2.117   1.511   3.342 -0.7210 -0.0161  0.5205
  776TIP3    H1 2334   2.203   1.503   3.383 -0.5257 -0.0479  0.1086
  776TIP3    H2 2335   2.132   1.488   3.250 -0.2637  3.9242 -0.5956
  777TIP3   OH2 2336   2.211   0.678   4.004  0.3922 -0.7502 -0.5305
  777TIP3    H1 2337   2.279   0.668   4.071 -0.6418 -0.0643  0.6726
  777TIP3    H2 2338   2.177   0.590   3.990  0.1271 -0.8051  0.3963
  778TIP3   OH2 2339   1.360   0.418   3.034 -0.5246  0.4543  0.2393
  778TIP3    H1 2340   1.448   0.423   2.995 -1.2287 -0.9916 -1.7088
  778TIP3    H2 2341   1.373   0.371   3.116  1.1508  4.3527  2.4661
  779TIP3   OH2 2342   1.519   1.935   0.428 -0.5458  0.5435 -0.3314
  779TIP3    H1 2343   1.506   2.024   0.396  1.7334  1.6318  1.5353
  779TIP3    H2 2344   1.451   1.923   0.494 -0.1318  1.3894  0.2680
  780TIP3   OH2 2345   5.565   5.823   1.171 -0.1470  0.4377  0.1892
  780TIP3    H1 2346   5.509   5.853   1.242  1.0686 -2.4425  2.5784
  780TIP3    H2 2347   5.584   5.731   1.193  3.9278  0.6972 -1.4788
  781TIP3   OH2 2348   1.261   0.205   1.137  0.5823  0.2666  0.1769
  781TIP3    H1 2349   1.255   0.183   1.044 -1.6434  1.8810 -0.1470
  781TIP3    H2 2350   1.348   0.175   1.163  1.2683 -0.2418 -2.4092
  782TIP3   OH2 2351   2.078   0.158   1.858  0.0120  0.3531 -0.0595
  782TIP3    H1 2352   2.018   0.232   1.866 -1.2055 -0.6955  1.0671
  782TIP3    H2 2353   2.076   0.116   1.944  2.3908  0.2584  0.0386
  783TIP3   OH2 2354   2.866   3.494   1.939 -0.1952  0.4587  0.3637
  783TIP3    H1 2355   2.953   3.480   1.900 -0.7998 -1.7642 -0.3418
  783TIP3    H2 2356   2.864   3.435   2.014 -0.9196  0.8879  0.6936
  784TIP3   OH2 2357   2.560   1.523   2.559 -0.1538 -0.1005 -0.8593
  784TIP3    H1 2358   2.483   1.579   2.570 -1.1429 -1.6215  0.3116
  784TIP3    H2 2359   2.604   1.526   2.644  1.0589  0.6614 -1.4809
  785TIP3   OH2 2360   4.682   3.127   2.869  0.0694  0.1312 -0.4751
  785TIP3    H1 2361   4.621   3.055   2.850 -0.1313 -0.4425  1.9069
  785TIP3    H2 2362   4.630   3.188   2.922  1.3685 -0.1574  1.2298
  786TIP3   OH2 2363   4.159   1.131   0.740 -0.2380 -0.0366 -0.4694
  786TIP3    H1 2364   4.219   1.201   0.766  0.4864 -0.3334 -1.3279
  786TIP3    H2 2365   4.125   1.097   0.823  1.7434 -0.7171  0.1058
  787TIP3   OH2 2366   1.990   6.009   4.232  0.0184 -0.1169 -0.8695
  787TIP3    H1 2367   2.077   6.006   4.272 -0.3132  0.0249 -0.1161
  787TIP3    H2 2368   1.949   5.926   4.256 -0.0859 -0.1520 -1.1616
  788TIP3   OH2 2369   2.223   1.460   3.096  0.3280 -0.8762  0.3557
  788TIP3    H1 2370   2.233   1.536   3.040  0.4719  0.3928  2.0221
  788TIP3    H2 2371   2.311   1.423   3.104  0.0042 -2.2628 -1.7734
  789TIP3   OH2 2372   3.891   4.834   5.006  0.0418 -0.5114 -0.0641
  789TIP3    H1 2373   3.867   4.918   4.968  0.9308 -0.1303  0.1906
  789TIP3    H2 2374   3.807   4.794   5.030 -0.3697  0.7017  0.6433
  790TIP3   OH2 2375   0.230   2.010   2.239 -0.1726 -0.3952  0.1230
  790TIP3    H1 2376   0.223   2.097   2.200  2.5808 -1.1819 -2.5498
  790TIP3    H2 2377   0.218   2.024   2.332 -1.3071  2.5843 -0.3674
  791TIP3   OH2 2378   2.218   1.604   1.177 -0.5352 -0.1706  0.1534
  791TIP3    H1 2379   2.245   1.683   1.224 -0.8629  0.6809 -1.0575
  791TIP3    H2 2380   2.192   1.543   1.247  3.0106 -0.5467  1.3388
  792TIP3   OH2 2381   2.847   4.595   2.620  0.0437  0.1570  0.9236
  792TIP3    H1 2382   2.764   4.587   2.573  1.3108 -2.0503 -1.1582
  792TIP3    H2 2383   2.822   4.597   2.712 -2.3456 -0.2635  0.3543
  793TIP3   OH2 2384   1.845   0.321   1.789 -0.4564 -0.0196 -0.1569
  793TIP3    H1 2385   1.861   0.363   1.704 -1.5627  0.4711 -0.1466
  793TIP3    H2 2386   1.813   0.392   1.845 -2.7858 -0.8995 -0.2511
  794TIP3   OH2 2387   1.944   2.324   1.254 -0.0871 -1.0098  0.2701
  794TIP3    H1 2388   1.951   2.290   1.343 -1.8024 -1.7232  0.1692
  794TIP3    H2 2389   2.027   2.370   1.240 -0.1151 -0.1098  2.5476
  795TIP3   OH2 2390   4.614   4.972   3.752  0.1771  0.0218  0.0975
  795TIP3    H1 2391   4.572   4.952   3.836  1.7996 -0.4373  0.8324
  795TIP3    H2 2392   4.672   5.045   3.771  0.6354 -0.1553 -0.6103
  796TIP3   OH2 2393   1.025   0.282   2.845 -0.0302 -0.4753  0.1549
  796TIP3    H1 2394   1.039   0.283   2.939  0.7282  4.6556  0.2573
  796TIP3    H2 2395   1.110   0.255   2.808  0.5559  0.2147  0.9624
  797TIP3   OH2 2396   1.453   5.602   4.681 -0.6432  0.2285  0.0230
  797TIP3    H1 2397   1.407   5.643   4.754 -1.9919 -1.2608  0.0638
  797TIP3    H2 2398   1.438   5.508   4.693  2.2519 -0.3368 -0.1053
  798TIP3   OH2 2399   3.598   4.339   3.585 -0.2549 -0.3788  0.4448
  798TIP3    H1 2400   3.589   4.406   3.653  0.5660  0.1817  0.0187
  798TIP3    H2 2401   3.688   4.349   3.553  0.4547 -2.7868  1.4856
  799TIP3   OH2 2402   3.635   0.765   1.883 -0.0022  0.0753  0.1447
  799TIP3    H1 2403   3.596   0.851   1.893  3.0098  1.9156 -2.1608
  799TIP3    H2 2404   3.567   0.711   1.844 -1.5710  1.7933  0.3995
  800TIP3   OH2 2405   5.167   4.288   5.101  0.0442 -0.1212 -0.4403
  800TIP3    H1 2406   5.256   4.283   5.067  0.7032  0.8314  1.0373
  800TIP3    H2 2407   5.112   4.299   5.024  1.1210 -1.4357 -1.4316
  801TIP3   OH2 2408   3.985   4.337   2.678  0.4207  0.3436 -0.3299
  801TIP3    H1 2409   3.894   4.316   2.655 -0.0179  1.3361  0.4276
  801TIP3    H2 2410   4.019   4.382   2.600 -0.1046  0.9785 -0.2095
  802TIP3   OH2 2411   5.147   4.226   0.934  0.0475  0.5900 -0.5986
  802TIP3    H1 2412   5.074   4.286   0.922  0.1497  0.8501  0.0430
  802TIP3    H2 2413   5.161   4.188   0.847 -1.9934 -0.8209 -0.3739
  803TIP3   OH2 2414   6.365   0.365   3.249  0.4766 -0.5384  0.4883
  803TIP3    H1 2415   6.389   0.453   3.277  3.0032 -1.3530  1.1478
  803TIP3    H2 2416   6.311   0.379   3.171  2.4621  1.5894 -0.6452
  804TIP3   OH2 2417   4.230   5.992   4.961  0.5377 -0.5137 -0.1554
  804TIP3    H1 2418   4.207   5.899   4.963  1.7601 -0.8120  1.2925
  804TIP3    H2 2419   4.288   6.005   5.036  0.1194  1.5045 -0.1211
  805TIP3   OH2 2420   4.853   3.711   0.762 -0.1613 -0.1387  0.1973
  805TIP3    H1 2421   4.926   3.681   0.817  0.1916  0.7329  0.2195
  805TIP3    H2 2422   4.783   3.731   0.823  1.3299  4.1570  0.8127
  806TIP3   OH2 2423   4.141   5.195   2.201  0.8244 -0.4346  0.5586
  806TIP3    H1 2424   4.209   5.135   2.170  0.9373 -0.2366  0.4194
  806TIP3    H2 2425   4.139   5.265   2.136 -0.3114 -1.0001 -0.0514
  807TIP3   OH2 2426   4.521   1.225   2.213 -0.6376  0.1705  0.7515
  807TIP3    H1 2427   4.508   1.136   2.180 -1.6227  1.2561 -2.0450
  807TIP3    H2 2428   4.432   1.257   2.231 -0.4665  1.2340 -0.1964
  808TIP3   OH2 2429   2.115   0.122   2.828  0.6893  0.5567  0.1558
  808TIP3    H1 2430   2.183   0.087   2.885  0.8920  1.5173  0.5118
  808TIP3    H2 2431   2.034   0.115   2.879  0.1741 -2.0432 -0.8241
  809TIP3   OH2 2432   5.327   3.855   3.845  0.2042 -0.4773  0.4706
  809TIP3    H1 2433   5.413   3.832   3.811  0.8791  2.0096  0.2653
  809TIP3    H2 2434   5.337   3.945   3.878 -2.0235 -0.5222  1.5184
  810TIP3   OH2 2435   5.274   0.490   1.067 -0.1209 -0.6549 -0.1040
  810TIP3    H1 2436   5.362   0.458   1.085  0.4096  0.3592 -0.7551
  810TIP3    H2 2437   5.267   0.572   1.117 -1.6486 -1.9599  1.9909
  811TIP3   OH2 2438   5.882   5.974   0.860  0.1158  0.3817  0.1236
  811TIP3    H1 2439   5.872   5.920   0.782 -2.4323  0.8117  0.0694
  811TIP3    H2 2440   5.903   5.912   0.930  1.2287 -0.1467 -0.6559
  812TIP3   OH2 2441   5.450   2.441   0.610 -0.6729  0.2054 -0.2787
  812TIP3    H1 2442   5.369   2.404   0.646  0.8642 -3.0268  0.2383
  812TIP3    H2 2443   5.468   2.388   0.532  1.0739  0.6044 -0.1952
  813TIP3   OH2 2444   4.041   5.075   4.538 -0.3236 -0.6671 -0.0777
  813TIP3    H1 2445   3.987   5.107   4.466 -2.1411 -0.5046  1.2970
  813TIP3    H2 2446   4.074   5.154   4.580  1.4139 -0.7591 -1.1267
  814TIP3   OH2 2447   6.315   4.219   5.065  0.4994  0.0385  0.7103
  814TIP3    H1 2448   6.227   4.247   5.037  0.0128 -1.1677  0.9461
  814TIP3    H2 2449   6.298   4.149   5.128  1.6344  0.3934  1.4284
  815TIP3   OH2 2450   5.831   0.685   0.081  0.2132  0.7222 -0.1200
  815TIP3    H1 2451   5.798   0.775   0.088 -2.8166 -0.2847  0.1505
  815TIP3    H2 2452   5.852   0.660   0.171 -0.2022  0.7719 -0.0031
  816TIP3   OH2 2453   4.423   4.364   4.677 -0.0543  0.3070 -0.2248
  816TIP3    H1 2454   4.507   4.396   4.712 -0.9265  0.5607  1.7521
  816TIP3    H2 2455   4.404   4.286   4.729 -1.1033  0.3198 -0.5738
  817TIP3   OH2 2456   0.714   4.280   1.585  0.0570  0.5448 -0.0655
  817TIP3    H1 2457   0.786   4.319   1.537 -0.0275 -1.3099 -1.8380
  817TIP3    H2 2458   0.746   4.193   1.610 -0.4898  0.8528  1.8528
  818TIP3   OH2 2459   0.397   2.561   0.284 -0.6379  0.3127  0.0897
  818TIP3    H1 2460   0.318   2.568   0.230 -0.6276 -2.3180 -0.4412
  818TIP3    H2 2461   0.456   2.628   0.250 -1.7554  0.7198 -1.1339
  819TIP3   OH2 2462   1.756   1.303   1.175  0.5660 -0.4306  0.3556
  819TIP3    H1 2463   1.838   1.254   1.167  0.6163 -0.3620  0.4583
  819TIP3    H2 2464   1.784   1.393   1.190  0.6029  0.4164 -3.5812
  820TIP3   OH2 2465   2.541   1.347   0.186 -0.1512  0.2182 -0.0801
  820TIP3    H1 2466   2.511   1.437   0.173 -3.5596 -0.8713 -0.7535
  820TIP3    H2 2467   2.507   1.322   0.272  3.5830  0.4257  1.6941
  821TIP3   OH2 2468   5.440   4.800   1.818 -0.2448 -0.3782 -0.0031
  821TIP3    H1 2469   5.465   4.764   1.903 -0.9664 -2.5817 -0.6535
  821TIP3    H2 2470   5.351   4.766   1.802 -0.1106 -0.0704 -1.6531
  822TIP3   OH2 2471   2.501   1.593   5.122  0.5015  0.1863 -0.8675
  822TIP3    H1 2472   2.596   1.579   5.117  0.8036  2.2019 -2.0570
  822TIP3    H2 2473   2.490   1.685   5.096 -1.5044  0.9406  2.1730
  823TIP3   OH2 2474   2.750   3.775   5.022  0.1309  0.5746 -0.1336
  823TIP3    H1 2475   2.747   3.862   4.981  2.6482 -0.7773 -3.6484
  823TIP3    H2 2476   2.660   3.742   5.015 -0.6925  2.5228  0.5891
  824TIP3   OH2 2477   4.342   0.054   4.364 -0.1321  0.2603  0.2537
  824TIP3    H1 2478   4.308   0.032   4.451  0.8353  1.8965  1.0872
  824TIP3    H2 2479   4.433   0.024   4.366 -0.0206  0.5708 -0.0912
  825TIP3   OH2 2480   3.106   4.341   1.580  0.0107 -0.7449 -0.1843
  825TIP3    H1 2481   3.106   4.415   1.519  0.5856 -0.3521  0.2724
  825TIP3    H2 2482   3.041   4.365   1.646  1.9295  0.5704  1.3436
  826TIP3   OH2 2483   5.468   3.249   1.889  0.0839  0.5756 -0.2668
  826TIP3    H1 2484   5.498   3.334   1.856 -0.9286  0.9969 -0.1206
  826TIP3    H2 2485   5.373   3.252   1.881 -0.0121 -0.2664  0.4051
  827TIP3   OH2 2486   1.878   0.993   4.838  0.0875  0.2091 -0.8479
  827TIP3    H1 2487   1.797   1.005   4.788 -0.0358  0.8288 -0.5124
  827TIP3    H2 2488   1.903   0.902   4.822 -0.2173  0.2537 -1.6418
  828TIP3   OH2 2489   4.638   4.503   3.685 -0.0727 -0.6655  0.3162
  828TIP3    H1 2490   4.548   4.535   3.687  0.2051  0.1947 -0.1738
  828TIP3    H2 2491   4.686   4.559   3.746  0.3064 -0.5161 -0.1075
  829TIP3   OH2 2492   2.303   2.063   0.734  0.0994  0.1501 -0.1106
  829TIP3    H1 2493   2.354   2.142   0.719  0.0549  0.1638 -0.1852
  829TIP3    H2 2494   2.360   1.992   0.705  0.1260  0.1559 -0.0743
  830TIP3   OH2 2495   6.057   3.761   4.798 -0.0925 -0.0302 -0.5403
  830TIP3    H1 2496   5.974   3.779   4.755 -0.8315 -0.4669  0.6485
  830TIP3    H2 2497   6.045   3.676   4.840  0.9069 -0.0394 -0.2296
  831TIP3   OH2 2498   1.109   5.607   2.061  0.3409 -0.3056  0.4789
  831TIP3    H1 2499   1.036   5.548   2.042 -0.6854 -0.0961  3.3815
  831TIP3    H2 2500   1.068   5.684   2.101  2.1352 -0.4235  2.7241
  832TIP3   OH2 2501   3.498   1.316   4.601  0.2533 -0.5167  0.4598
  832TIP3    H1 2502   3.490   1.412   4.607  0.9708 -0.3834 -0.4846
  832TIP3    H2 2503   3.580   1.296   4.647 -0.4391 -0.8222  1.6212
  833TIP3   OH2 2504   1.992   1.182   1.439 -0.8299  0.4962 -0.1602
  833TIP3    H1 2505   2.001   1.163   1.345 -1.0237 -1.7344  0.2095
  833TIP3    H2 2506   1.918   1.242   1.444  1.0415  3.1164 -1.6265
  834TIP3   OH2 2507   5.511   0.983   5.193  0.5929 -0.3129 -0.2913
  834TIP3    H1 2508   5.565   0.956   5.118 -1.6837 -1.2049 -1.7361
  834TIP3    H2 2509   5.448   1.044   5.156 -1.3592 -1.6896  0.5679
  835TIP3   OH2 2510   5.384   5.294   0.064  0.1251  0.3371 -0.1217
  835TIP3    H1 2511   5.424   5.267   0.146  0.7256  1.8875  0.1382
  835TIP3    H2 2512   5.337   5.374   0.085  1.5597  1.6497 -1.5410
  836TIP3   OH2 2513   4.074   3.469   2.597  0.4306 -0.0706  0.8658
  836TIP3    H1 2514   4.056   3.524   2.674 -0.5348  0.5134  0.2446
  836TIP3    H2 2515   4.153   3.507   2.559  0.1325  0.5148  0.8067
  837TIP3   OH2 2516   1.806   3.149   5.015 -0.1950 -0.1980 -0.0670
  837TIP3    H1 2517   1.743   3.202   4.966  0.4025  0.2949 -0.3119
  837TIP3    H2 2518   1.756   3.116   5.090  0.0751  3.0704  1.7501
  838TIP3   OH2 2519   4.654   1.730   2.240 -0.2435  0.0919 -0.0741
  838TIP3    H1 2520   4.694   1.645   2.261  2.2056  1.5976  1.9305
  838TIP3    H2 2521   4.724   1.780   2.199 -0.5229  2.3043  1.9829
  839TIP3   OH2 2522   1.110   2.913   0.377 -0.1168 -0.4065  0.1141
  839TIP3    H1 2523   1.155   2.844   0.327 -0.9648  0.1023 -1.3900
  839TIP3    H2 2524   1.021   2.879   0.390 -0.3990  0.1957 -0.2219
  840TIP3   OH2 2525   1.225   4.205   5.093 -0.1987 -0.0221  0.1987
  840TIP3    H1 2526   1.263   4.249   5.169 -1.2501  0.3197  0.5313
  840TIP3    H2 2527   1.154   4.262   5.065 -0.8229 -0.9285 -0.0841
  841TIP3   OH2 2528   6.196   0.312   1.700 -0.2393  0.4283 -0.2325
  841TIP3    H1 2529   6.171   0.263   1.621  0.0528 -1.0094  0.5467
  841TIP3    H2 2530   6.278   0.355   1.675 -0.2130  0.0911 -0.7645
  842TIP3   OH2 2531   1.355   1.879   0.653  0.3234  0.0539 -0.3685
  842TIP3    H1 2532   1.443   1.892   0.688 -0.1870  0.5845  0.7620
  842TIP3    H2 2533   1.334   1.788   0.672  1.2779 -0.6019 -2.2109
  843TIP3   OH2 2534   5.315   2.760   1.736 -0.3457 -0.3442 -0.2715
  843TIP3    H1 2535   5.283   2.679   1.696 -0.5917 -0.4734  0.1771
  843TIP3    H2 2536   5.257   2.828   1.703 -1.1604 -0.5932  0.6217
  844TIP3   OH2 2537   3.152   1.125   2.896  0.1243  0.3919  0.5696
  844TIP3    H1 2538   3.071   1.075   2.892 -0.3778  0.8842  3.1160
  844TIP3    H2 2539   3.207   1.087   2.827 -1.6109 -1.1032 -0.0669
  845TIP3   OH2 2540   1.082   3.668   1.510 -0.1437  0.0111  0.4624
  845TIP3    H1 2541   1.108   3.723   1.584  0.0385  3.3208 -1.7885
  845TIP3    H2 2542   0.986   3.674   1.508 -0.1442 -0.0186  0.3940
  846TIP3   OH2 2543   1.658   4.058   3.692  0.4063 -0.0965 -0.0604
  846TIP3    H1 2544   1.581   4.028   3.643  0.6951  1.1369 -1.3162
  846TIP3    H2 2545   1.702   4.119   3.633  2.8921 -1.4626  0.2271
  847TIP3   OH2 2546   5.966   2.284   0.814 -0.1898  0.2868 -0.4705
  847TIP3    H1 2547   5.874   2.291   0.789 -0.1591  1.2784 -0.3524
  847TIP3    H2 2548   5.970   2.324   0.901  0.2866 -0.0932 -0.3167
  848TIP3   OH2 2549   2.386   5.378   3.923  0.0018 -0.4248 -0.1179
  848TIP3    H1 2550   2.333   5.337   3.991 -0.4394  1.8080  0.9963
  848TIP3    H2 2551   2.324   5.400   3.853  0.1628 -1.1894 -0.5166
  849TIP3   OH2 2552   4.675   3.578   5.173  0.2234  0.5837  0.5373
  849TIP3    H1 2553   4.608   3.600   5.108  0.9372  0.3428 -0.2903
  849TIP3    H2 2554   4.632   3.595   5.258 -1.5268 -1.2975  0.1083
  850TIP3   OH2 2555   4.985   4.529   2.088  0.9874 -0.0891 -0.4069
  850TIP3    H1 2556   5.055   4.478   2.047  1.5119  1.5302 -1.6346
  850TIP3    H2 2557   4.904   4.497   2.046  1.1333 -0.9671 -0.0315
  851TIP3   OH2 2558   1.128   1.076   1.042  0.2709 -0.1205  0.5922
  851TIP3    H1 2559   1.074   1.039   1.112 -0.8135  0.3964  0.0590
  851TIP3    H2 2560   1.174   1.149   1.083 -1.0061  0.7157  0.5961
  852TIP3   OH2 2561   5.936   1.239   3.403  0.2744 -0.0969 -0.6005
  852TIP3    H1 2562   5.942   1.158   3.352  0.8290  0.4412 -1.4257
  852TIP3    H2 2563   6.024   1.277   3.397  0.4324 -0.1690  1.0251
  853TIP3   OH2 2564   2.845   2.215   1.913 -0.1418 -0.0729  0.0116
  853TIP3    H1 2565   2.878   2.250   1.995 -0.3478  0.9482 -0.3306
  853TIP3    H2 2566   2.870   2.280   1.847 -1.5928  0.0344 -0.4675
  854TIP3   OH2 2567   3.045   3.901   1.384  0.3281 -0.2198 -0.2578
  854TIP3    H1 2568   2.967   3.868   1.339 -1.3730 -1.7309  3.4724
  854TIP3    H2 2569   3.013   3.974   1.437  1.6492 -0.2293  0.5865
  855TIP3   OH2 2570   0.173   1.907   1.315 -0.0068  0.0676 -0.3011
  855TIP3    H1 2571   0.169   1.996   1.349 -1.0628  0.2062 -0.7708
  855TIP3    H2 2572   0.092   1.866   1.343  0.5327 -0.8064  0.0318
  856TIP3   OH2 2573   5.864   2.653   3.070  0.5430 -0.2929 -0.1238
  856TIP3    H1 2574   5.871   2.720   3.002  0.8163 -1.0332 -0.8507
  856TIP3    H2 2575   5.824   2.579   3.025 -1.0958 -0.1353  1.0307
  857TIP3   OH2 2576   4.474   2.809   0.018  0.2122  0.0248  0.4537
  857TIP3    H1 2577   4.438   2.721   0.009  1.5618 -0.5486  0.4895
  857TIP3    H2 2578   4.405   2.867  -0.015 -0.2911 -1.0988 -0.5071
  858TIP3   OH2 2579   3.839   0.792   4.222  0.1010  0.0164  0.1425
  858TIP3    H1 2580   3.859   0.858   4.289  0.6497 -0.6715  0.6723
  858TIP3    H2 2581   3.872   0.830   4.140  1.0424  0.1195  0.5502
  859TIP3   OH2 2582   2.978   0.947   0.377 -0.4792  0.0982 -0.6678
  859TIP3    H1 2583   2.901   0.979   0.425  1.7162  1.2651  2.4362
  859TIP3    H2 2584   3.008   0.871   0.427  0.0369 -0.7681 -2.2169
  860TIP3   OH2 2585   3.033   4.369   4.967  0.2061 -0.4180  0.3492
  860TIP3    H1 2586   2.953   4.327   4.999 -0.8697  1.7288  0.6125
  860TIP3    H2 2587   3.009   4.406   4.882  1.4181 -1.0998 -0.3352
  861TIP3   OH2 2588   5.814   1.584   4.953  0.0489 -0.5321  0.2923
  861TIP3    H1 2589   5.891   1.570   5.007  0.0688 -0.2688  0.3345
  861TIP3    H2 2590   5.749   1.620   5.013  0.5005  1.0607 -0.1106
  862TIP3   OH2 2591   2.977   5.672   0.770 -0.5026 -0.3833 -0.3895
  862TIP3    H1 2592   3.026   5.748   0.800 -0.7854 -0.7676  1.1454
  862TIP3    H2 2593   2.955   5.692   0.679 -0.8750  1.5311  0.0760
  863TIP3   OH2 2594   5.882   2.215   3.643 -0.2369  0.2353 -0.2543
  863TIP3    H1 2595   5.811   2.155   3.664  1.2141 -1.3750  0.2117
  863TIP3    H2 2596   5.893   2.268   3.722  0.9119 -1.4524  0.7963
  864TIP3   OH2 2597   6.098   2.618   4.780 -0.5813 -0.3176  0.6312
  864TIP3    H1 2598   6.105   2.710   4.754 -0.0714 -0.9135 -1.4968
  864TIP3    H2 2599   6.107   2.569   4.699 -1.6092 -2.2515  1.6145
  865TIP3   OH2 2600   3.383   0.414   3.534  0.1946  0.4507 -0.0599
  865TIP3    H1 2601   3.352   0.349   3.472  2.0497 -0.3427 -0.2120
  865TIP3    H2 2602   3.396   0.493   3.483 -0.3340  0.4209 -0.2411
  866TIP3   OH2 2603   5.786   3.840   0.802 -0.1997  0.5450 -0.4354
  866TIP3    H1 2604   5.845   3.913   0.779  1.1588 -0.0823  0.8805
  866TIP3    H2 2605   5.816   3.768   0.746  2.1598 -0.5582  2.0117
  867TIP3   OH2 2606   5.363   4.673   0.537  0.0512  0.0522  0.0454
  867TIP3    H1 2607   5.297   4.699   0.601 -1.6745 -1.3401 -1.0608
  867TIP3    H2 2608   5.338   4.584   0.513  2.1619 -0.3974 -0.6942
  868TIP3   OH2 2609   4.170   4.890   0.601 -0.0768  0.1760 -0.4886
  868TIP3    H1 2610   4.234   4.929   0.661  0.9309 -1.2688 -0.5825
  868TIP3    H2 2611   4.085   4.920   0.633  0.5159  0.3971  0.9367
  869TIP3   OH2 2612   3.560   0.471   0.524 -0.6545 -0.0209 -0.3645
  869TIP3    H1 2613   3.584   0.544   0.467  0.9761  0.5491  0.9736
  869TIP3    H2 2614   3.564   0.507   0.612 -0.0455 -1.6438  0.3189
  870TIP3   OH2 2615   5.610   0.513   3.787 -0.7038  0.7910  0.1133
  870TIP3    H1 2616   5.647   0.451   3.849  1.2077  0.0419 -1.6391
  870TIP3    H2 2617   5.686   0.546   3.738 -2.0410  1.8960 -1.3230
  871TIP3   OH2 2618   2.548   4.291   1.692  0.0053  0.0036  0.7492
  871TIP3    H1 2619   2.605   4.215   1.696  0.7896  0.5534  0.3205
  871TIP3    H2 2620   2.594   4.359   1.740 -0.6196  0.2539  1.0065
  872TIP3   OH2 2621   0.627   4.587   0.002  0.0878 -0.1170 -0.2939
  872TIP3    H1 2622   0.562   4.532  -0.042 -0.8677 -0.5235  1.5098
  872TIP3    H2 2623   0.678   4.527   0.056  0.6376  0.4574 -0.1605
  873TIP3   OH2 2624   5.049   4.771   2.649  0.1515 -0.6090 -0.1297
  873TIP3    H1 2625   4.963   4.756   2.687 -0.4999 -0.2384 -1.4084
  873TIP3    H2 2626   5.086   4.843   2.701  0.9406 -2.6125  2.2989
  874TIP3   OH2 2627   0.028   4.318   3.835 -0.1195 -0.1678  0.0585
  874TIP3    H1 2628   0.044   4.366   3.755  0.9721 -1.1431 -0.3379
  874TIP3    H2 2629   0.035   4.383   3.905  1.3400  0.2584 -0.4559
  875TIP3   OH2 2630   5.680   4.074   0.303 -0.1714  0.0291 -0.4156
  875TIP3    H1 2631   5.766   4.113   0.288 -0.1470  0.2983  0.4235
  875TIP3    H2 2632   5.697   3.980   0.311  0.2641  0.2211  1.2867
  876TIP3   OH2 2633   1.373   5.516   2.134 -0.1357 -0.0121  0.1321
  876TIP3    H1 2634   1.312   5.578   2.094 -0.1601  0.0747  0.3004
  876TIP3    H2 2635   1.318   5.461   2.190 -0.1986 -0.5582 -0.4516
  877TIP3   OH2 2636   5.850   4.073   4.177 -0.5377 -0.0418  0.6424
  877TIP3    H1 2637   5.927   4.016   4.174 -0.7654 -0.3236  0.0642
  877TIP3    H2 2638   5.824   4.074   4.269  0.2882  0.2307  0.8809
  878TIP3   OH2 2639   0.335   3.154   1.772  0.0051 -0.1823  0.1057
  878TIP3    H1 2640   0.375   3.067   1.779  3.0013  1.2010  1.7511
  878TIP3    H2 2641   0.384   3.198   1.703  0.8686  1.3037  1.6060
  879TIP3   OH2 2642   1.019   3.334   4.225 -0.3918 -0.0560 -0.5795
  879TIP3    H1 2643   1.009   3.419   4.269  3.7760  0.1040  0.5092
  879TIP3    H2 2644   0.980   3.272   4.286  2.6017  0.5034  2.2180
  880TIP3   OH2 2645   3.124   1.108   2.600  0.1367  0.4279  0.1056
  880TIP3    H1 2646   3.064   1.109   2.526 -1.2421  0.5250  1.1938
  880TIP3    H2 2647   3.209   1.082   2.562 -0.2019  1.8229 -1.7226
  881TIP3   OH2 2648   1.618   5.176   1.739  0.0388 -0.3201  0.4735
  881TIP3    H1 2649   1.654   5.262   1.717  1.2541 -1.1140 -0.7572
  881TIP3    H2 2650   1.555   5.194   1.810 -1.6997  1.9197 -1.4880
  882TIP3   OH2 2651   0.326   5.230   2.063  0.5374 -0.5125  0.2762
  882TIP3    H1 2652   0.254   5.184   2.021  0.1573  0.2789  0.0329
  882TIP3    H2 2653   0.359   5.170   2.130 -0.1303 -1.0058  0.1609
  883TIP3   OH2 2654   3.865   4.572   2.318  1.1285  0.7260  0.3650
  883TIP3    H1 2655   3.838   4.606   2.403  1.1415  0.0010  0.6695
  883TIP3    H2 2656   3.795   4.596   2.258  0.2351 -0.3469  0.9587
  884TIP3   OH2 2657   5.793   4.494   1.027 -0.3051  0.1510  0.8425
  884TIP3    H1 2658   5.710   4.479   0.982 -0.5247  2.3946  0.3788
  884TIP3    H2 2659   5.816   4.584   1.006  2.1133 -0.3033  1.2225
  885TIP3   OH2 2660   5.879   3.616   3.416  0.2524 -0.3570  0.3934
  885TIP3    H1 2661   5.963   3.659   3.435  0.1101 -0.0047  0.2324
  885TIP3    H2 2662   5.813   3.680   3.442  0.0331 -0.5671  0.3602
  886TIP3   OH2 2663   3.389   4.088   4.775  0.0100 -0.1569 -0.7078
  886TIP3    H1 2664   3.417   4.170   4.816 -1.2272  0.4657 -1.0550
  886TIP3    H2 2665   3.466   4.059   4.725  1.3931 -0.6783  1.5527
  887TIP3   OH2 2666   5.564   0.212   2.693  0.3158 -0.2419 -0.1560
  887TIP3    H1 2667   5.545   0.293   2.646 -0.0668  0.0802  0.5431
  887TIP3    H2 2668   5.481   0.187   2.733  0.2246 -1.4212 -1.0075
  888TIP3   OH2 2669   5.598   5.905   2.621 -0.1280 -0.3417 -0.2466
  888TIP3    H1 2670   5.645   5.907   2.538 -1.1760 -0.3899 -0.8603
  888TIP3    H2 2671   5.591   5.997   2.648  0.3940 -0.3426 -0.0967
  889TIP3   OH2 2672   5.723   5.039   3.868 -0.2538  0.1877 -0.1357
  889TIP3    H1 2673   5.687   5.014   3.783 -0.7247 -0.9995  0.3901
  889TIP3    H2 2674   5.770   4.961   3.898 -1.5464 -0.0482  1.4400
  890TIP3   OH2 2675   4.078   5.046   3.035  0.0332  0.2943  0.1786
  890TIP3    H1 2676   4.095   5.085   2.949  1.6663 -1.1185 -0.2059
  890TIP3    H2 2677   4.146   4.979   3.044 -1.9231 -1.6719  1.2670
  891TIP3   OH2 2678   4.370   3.504   0.362  0.8084  0.0179  0.5235
  891TIP3    H1 2679   4.443   3.537   0.312  0.1438  2.3594  0.9668
  891TIP3    H2 2680   4.363   3.563   0.437 -0.5555 -1.0809  1.3295
  892TIP3   OH2 2681   4.282   5.747   0.132  0.8878  0.4410  0.1703
  892TIP3    H1 2682   4.361   5.709   0.094  1.9280  0.6735  1.9900
  892TIP3    H2 2683   4.226   5.672   0.152  1.4134  0.1303  0.4998
  893TIP3   OH2 2684   0.873   0.470   3.192  0.3842  0.0886  0.0658
  893TIP3    H1 2685   0.819   0.449   3.115 -0.3879  0.0575  0.6158
  893TIP3    H2 2686   0.812   0.507   3.255  1.3690  2.0133 -0.0653
  894TIP3   OH2 2687   1.540   2.394   4.268  0.2539 -0.0489 -0.5728
  894TIP3    H1 2688   1.542   2.388   4.364  1.6486  1.0815 -0.5173
  894TIP3    H2 2689   1.512   2.483   4.250 -2.0879 -0.8368 -1.2885
  895TIP3   OH2 2690   4.102   1.397   4.310  0.6102  0.0263  0.0044
  895TIP3    H1 2691   4.147   1.448   4.242 -1.0160 -0.0960 -1.2315
  895TIP3    H2 2692   4.021   1.445   4.327  0.2959 -0.7473  0.7706
  896TIP3   OH2 2693   6.217   0.612   2.961 -0.0011 -0.0334  0.2754
  896TIP3    H1 2694   6.189   0.608   2.870 -0.3140  0.4040  0.3484
  896TIP3    H2 2695   6.264   0.530   2.976 -0.8858 -0.5977  0.0295
  897TIP3   OH2 2696   3.297   2.778   3.450  0.0101 -0.5981  0.0110
  897TIP3    H1 2697   3.227   2.727   3.492  1.1540 -1.9946  0.2911
  897TIP3    H2 2698   3.306   2.856   3.505 -1.9848  0.1111 -0.5993
  898TIP3   OH2 2699   6.109   4.054   1.569 -0.0652  0.0989  0.5092
  898TIP3    H1 2700   6.155   3.992   1.625 -0.7746 -0.1728  0.7944
  898TIP3    H2 2701   6.103   4.134   1.621  0.2950  0.2146  0.3776
  899TIP3   OH2 2702   2.242   3.698   0.825  0.1798  0.3841  0.0092
  899TIP3    H1 2703   2.185   3.737   0.759  0.5957  1.2140  0.1339
  899TIP3    H2 2704   2.213   3.736   0.908 -0.2087 -0.5020  0.3011
  900TIP3   OH2 2705   3.391   4.924   1.616  0.2945  0.1374  0.2581
  900TIP3    H1 2706   3.457   4.984   1.650  0.0518 -0.4264  1.7683
  900TIP3    H2 2707   3.313   4.942   1.668 -0.7376  0.6760 -1.3836
  901TIP3   OH2 2708   0.578   2.636   0.650 -0.4499  0.6194  0.5001
  901TIP3    H1 2709   0.599   2.554   0.695 -0.9965 -0.7245 -1.5810
  901TIP3    H2 2710   0.663   2.680   0.640  0.0205 -0.2533  0.5888
  902TIP3   OH2 2711   2.213   1.727   1.891 -0.4332  0.2128 -0.1047
  902TIP3    H1 2712   2.212   1.715   1.796 -2.0839 -3.6519  0.1987
  902TIP3    H2 2713   2.121   1.746   1.913 -0.3912 -0.5831  0.8163
  903TIP3   OH2 2714   1.018   2.924   1.752  0.2671 -0.2134 -0.1410
  903TIP3    H1 2715   1.062   2.924   1.837  0.5532 -0.0103 -0.2836
  903TIP3    H2 2716   1.059   2.996   1.704  1.0412 -1.1534 -0.9329
  904TIP3   OH2 2717   5.616   0.786   0.531 -0.2643 -0.2709  0.1806
  904TIP3    H1 2718   5.703   0.820   0.547  0.3356 -1.9809  0.8015
  904TIP3    H2 2719   5.560   0.830   0.595  0.5116 -0.5874  1.0948
  905TIP3   OH2 2720   0.153   2.727   0.822 -0.1766  0.4614  0.1004
  905TIP3    H1 2721   0.091   2.713   0.750  0.8129  0.1590 -0.7072
  905TIP3    H2 2722   0.235   2.749   0.780  0.1741  1.3247  1.1787
  906TIP3   OH2 2723   4.244   1.654   3.392 -0.1617  0.0348  0.0153
  906TIP3    H1 2724   4.287   1.592   3.451 -0.0682  0.4346  0.3710
  906TIP3    H2 2725   4.257   1.739   3.433  1.5233  0.5643 -1.4821
  907TIP3   OH2 2726   5.676   0.678   1.551  0.4884 -0.0576 -0.4684
  907TIP3    H1 2727   5.595   0.653   1.595 -0.1273  0.8511 -1.0546
  907TIP3    H2 2728   5.689   0.609   1.486 -0.8008  0.6775 -1.5721
  908TIP3   OH2 2729   3.999   1.669   1.738  0.0036  0.4431 -0.5902
  908TIP3    H1 2730   3.953   1.749   1.764 -1.9376 -0.7410 -0.1539
  908TIP3    H2 2731   3.966   1.650   1.650 -0.3155 -0.3762 -0.3084
  909TIP3   OH2 2732   2.242   4.141   4.294 -0.4802 -0.5318  0.1347
  909TIP3    H1 2733   2.226   4.063   4.347 -0.5504  0.5533  1.7596
  909TIP3    H2 2734   2.333   4.133   4.266 -0.3129 -0.9211  0.7817
  910TIP3   OH2 2735   6.271   4.232   1.899 -0.3937 -0.2149 -0.1432
  910TIP3    H1 2736   6.182   4.245   1.931 -0.0616 -0.9707  1.1237
  910TIP3    H2 2737   6.306   4.160   1.951  0.7519 -0.3548 -1.0600
  911TIP3   OH2 2738   6.247   5.662   2.360  0.5335  0.2027  0.3232
  911TIP3    H1 2739   6.276   5.665   2.451  0.6330  0.0331  0.2981
  911TIP3    H2 2740   6.328   5.672   2.310  0.7673 -1.7176  0.2367
  912TIP3   OH2 2741   2.274   5.098   2.574  0.0174  0.0171  0.1226
  912TIP3    H1 2742   2.347   5.046   2.610  0.4056  0.8054  0.4966
  912TIP3    H2 2743   2.260   5.166   2.639  1.4653  2.1809 -1.6831
  913TIP3   OH2 2744   5.289   0.232   1.527  0.2881 -0.3896  0.2155
  913TIP3    H1 2745   5.213   0.175   1.538 -0.0998 -0.1564 -1.1016
  913TIP3    H2 2746   5.297   0.278   1.610 -1.3514 -0.0099  0.1893
  914TIP3   OH2 2747   3.508   5.369   2.637 -0.3202  0.7556 -0.8625
  914TIP3    H1 2748   3.469   5.311   2.571 -0.4923  0.6092 -0.6344
  914TIP3    H2 2749   3.451   5.360   2.713 -0.0454  0.8220 -0.6485
  915TIP3   OH2 2750   3.145   5.430   4.065  0.3388 -0.2271  0.0215
  915TIP3    H1 2751   3.154   5.335   4.060 -1.2377 -0.4379  0.6850
  915TIP3    H2 2752   3.126   5.447   4.157 -2.2886  0.4155 -0.5743
  916TIP3   OH2 2753   5.426   0.757   2.539  0.1501  0.4362  0.2422
  916TIP3    H1 2754   5.496   0.821   2.552  0.0956  0.4935  0.2599
  916TIP3    H2 2755   5.380   0.755   2.623 -0.8051  1.5399 -0.2327
  917TIP3   OH2 2756   2.562   1.067   2.104 -0.2031 -0.2359 -0.1428
  917TIP3    H1 2757   2.539   0.977   2.130 -0.0463 -0.5762 -1.1425
  917TIP3    H2 2758   2.494   1.092   2.041 -0.6258  0.6104  0.6242
  918TIP3   OH2 2759   2.618   5.931   2.901  0.3162 -0.0789 -0.1586
  918TIP3    H1 2760   2.629   5.999   2.835 -0.7574 -0.6802 -0.9886
  918TIP3    H2 2761   2.658   5.968   2.980 -0.5209  1.6634 -0.4873
  919TIP3   OH2 2762   2.357   4.354   2.583 -0.5154  0.1679 -0.1748
  919TIP3    H1 2763   2.361   4.434   2.530 -0.0765 -0.2577 -0.7952
  919TIP3    H2 2764   2.299   4.377   2.655 -0.6044  0.9691 -0.4831
  920TIP3   OH2 2765   5.630   2.904   5.006  0.1371 -0.3645 -0.3859
  920TIP3    H1 2766   5.659   2.832   5.062  0.9314  0.2395  0.0201
  920TIP3    H2 2767   5.689   2.900   4.930  0.3532 -0.0042 -0.2422
  921TIP3   OH2 2768   5.487   1.397   3.054 -0.0460 -0.4000 -0.2424
  921TIP3    H1 2769   5.512   1.308   3.031 -0.4869 -0.5903  0.0186
  921TIP3    H2 2770   5.522   1.450   2.982 -1.5037 -0.9971 -1.4464
  922TIP3   OH2 2771   1.971   0.642   1.860  1.0534  0.4719  0.3015
  922TIP3    H1 2772   2.006   0.622   1.773  0.9358  1.1434  0.0887
  922TIP3    H2 2773   2.042   0.687   1.905  0.5778  1.6219 -0.0470
  923TIP3   OH2 2774   1.817   3.333   4.120 -0.0577  0.1401 -0.0607
  923TIP3    H1 2775   1.777   3.367   4.041 -0.3100 -1.1156 -0.5020
  923TIP3    H2 2776   1.878   3.401   4.148  0.2213  0.4961 -1.4684
  924TIP3   OH2 2777   0.456   0.550   1.831 -0.1271 -0.3988 -0.6974
  924TIP3    H1 2778   0.518   0.479   1.814  0.3271 -0.3722  0.6673
  924TIP3    H2 2779   0.379   0.506   1.867  0.1789 -0.2216  0.2082
  925TIP3   OH2 2780   4.952   4.973   0.317  0.7990 -0.2640  0.6626
  925TIP3    H1 2781   5.016   4.985   0.247  1.2740 -0.8028  0.9893
  925TIP3    H2 2782   4.895   4.902   0.286 -1.3480  1.9599 -0.8054
  926TIP3   OH2 2783   5.682   0.553   4.176 -0.3407 -0.0601  0.1673
  926TIP3    H1 2784   5.616   0.570   4.109 -2.0277 -0.6590  1.6158
  926TIP3    H2 2785   5.649   0.477   4.224  0.6812  0.5136  1.8688
  927TIP3   OH2 2786   3.756   4.369   4.684 -0.5254  0.4556 -0.4084
  927TIP3    H1 2787   3.823   4.305   4.709  1.5550  2.6753  0.1537
  927TIP3    H2 2788   3.676   4.337   4.725  0.0683 -2.4428 -1.2879
  928TIP3   OH2 2789   5.685   1.338   5.113  0.8820  0.4923  0.6347
  928TIP3    H1 2790   5.710   1.323   5.204  2.8753 -1.6376 -0.1503
  928TIP3    H2 2791   5.768   1.350   5.067  0.0957 -0.5657 -1.2059
  929TIP3   OH2 2792   5.755   2.547   0.461  0.4725 -0.1839 -0.3514
  929TIP3    H1 2793   5.762   2.608   0.534 -0.7659  0.2396 -0.5762
  929TIP3    H2 2794   5.768   2.600   0.383  0.1506 -0.3389 -0.5136
  930TIP3   OH2 2795   5.008   0.601   2.726  0.1509 -0.2736  0.2348
  930TIP3    H1 2796   4.947   0.650   2.781  1.8958 -1.0008  3.0284
  930TIP3    H2 2797   5.060   0.668   2.682 -1.1420  0.3313 -0.4176
  931TIP3   OH2 2798   2.482   2.590   3.342 -0.5742  0.3655 -0.1615
  931TIP3    H1 2799   2.456   2.577   3.433  0.5666 -0.6114  0.0458
  931TIP3    H2 2800   2.544   2.519   3.324  1.2401  2.0453 -0.9035
  932TIP3   OH2 2801   2.266   0.032   1.290  0.1861 -0.7676  0.5573
  932TIP3    H1 2802   2.229   0.119   1.279  0.2642 -0.6403  1.2185
  932TIP3    H2 2803   2.198  -0.018   1.335  0.2613 -0.9523  0.4694
  933TIP3   OH2 2804   5.736   5.009   2.564 -0.1062 -0.0452  0.0056
  933TIP3    H1 2805   5.765   5.028   2.653 -0.9667 -0.6034  0.4197
  933TIP3    H2 2806   5.644   4.982   2.574 -0.2288 -0.0633 -1.0551
  934TIP3   OH2 2807   3.885   0.929   0.268 -0.1843 -0.3180  0.1368
  934TIP3    H1 2808   3.841   0.919   0.183 -0.9107 -2.2891  0.6842
  934TIP3    H2 2809   3.978   0.915   0.248 -0.5273 -2.6328 -0.1253
  935TIP3   OH2 2810   5.906   3.636   2.710  0.4500  0.0769 -0.3704
  935TIP3    H1 2811   5.847   3.632   2.786 -0.4947  0.5221 -1.0620
  935TIP3    H2 2812   5.966   3.562   2.722  0.5350  0.3259  0.9737
  936TIP3   OH2 2813   3.043   4.394   2.598 -0.2376  0.5574 -0.2352
  936TIP3    H1 2814   2.959   4.439   2.595 -0.2950  0.6560  1.5012
  936TIP3    H2 2815   3.103   4.457   2.637  0.8120  0.6755 -1.9380
  937TIP3   OH2 2816   3.834   0.907   5.123  0.3248  0.0277 -0.0711
  937TIP3    H1 2817   3.852   0.992   5.164 -0.3514  0.8839 -1.4466
  937TIP3    H2 2818   3.761   0.871   5.172 -1.3834  1.6571 -1.2532
  938TIP3   OH2 2819   1.515   3.572   3.573 -0.3862 -0.1198  0.4948
  938TIP3    H1 2820   1.559   3.492   3.601 -1.4822 -0.7456  0.4772
  938TIP3    H2 2821   1.422   3.552   3.580 -0.6830  1.1587  0.4934
  939TIP3   OH2 2822   5.468   1.067   2.609  0.5093 -0.2009  0.1233
  939TIP3    H1 2823   5.547   1.013   2.606  0.0216 -0.8939 -1.2355
  939TIP3    H2 2824   5.498   1.155   2.584  1.1453 -0.0124  1.4485
  940TIP3   OH2 2825   4.881   5.553   4.344  0.3146  0.7444  0.1816
  940TIP3    H1 2826   4.932   5.491   4.395  0.5051  0.6217 -0.1568
  940TIP3    H2 2827   4.928   5.561   4.261 -0.5240  0.1953 -0.3517
  941TIP3   OH2 2828   4.837   1.339   1.592 -0.0547  0.3821  0.3157
  941TIP3    H1 2829   4.903   1.274   1.618 -1.1878 -0.8987  0.1256
  941TIP3    H2 2830   4.841   1.340   1.497 -0.1896  0.4227  0.3104
  942TIP3   OH2 2831   2.804   5.414   2.494 -0.3176 -0.7270  0.2213
  942TIP3    H1 2832   2.882   5.449   2.451 -1.1313  1.6462  0.4995
  942TIP3    H2 2833   2.838   5.356   2.562  1.2732  0.7843  0.7937
  943TIP3   OH2 2834   4.994   5.796   2.359  0.0712  0.1683  0.6985
  943TIP3    H1 2835   5.083   5.828   2.372 -0.2788  1.2335  0.6004
  943TIP3    H2 2836   4.993   5.709   2.398  1.1150  0.2042  0.8164
  944TIP3   OH2 2837   1.291   2.766   3.066  0.5185 -0.5657 -0.3298
  944TIP3    H1 2838   1.287   2.846   3.012  2.5642  0.3340  0.7106
  944TIP3    H2 2839   1.223   2.710   3.030 -0.9787  1.6126 -1.1520
  945TIP3   OH2 2840   0.823   1.604   4.101  0.1276 -0.2030  0.6799
  945TIP3    H1 2841   0.854   1.682   4.147  1.7720  0.3636 -1.2691
  945TIP3    H2 2842   0.862   1.531   4.148  1.6980  0.3604  0.3094
  946TIP3   OH2 2843   3.764   2.582   3.571 -0.0709 -0.6600  0.1790
  946TIP3    H1 2844   3.743   2.537   3.489  1.7408 -0.5790 -0.3586
  946TIP3    H2 2845   3.784   2.512   3.633  1.3560 -0.6580 -0.2613
  947TIP3   OH2 2846   5.630   4.919   2.327  0.3052  0.5112 -0.5000
  947TIP3    H1 2847   5.710   4.921   2.274 -0.1031  3.9034 -1.2598
  947TIP3    H2 2848   5.655   4.964   2.408  0.1131 -1.9444  1.0177
  948TIP3   OH2 2849   0.044   2.396   0.724  0.0141  0.1917  0.0175
  948TIP3    H1 2850   0.025   2.418   0.815  1.0779 -0.0133  0.2953
  948TIP3    H2 2851  -0.031   2.344   0.696  1.1032 -2.4722  1.7597
  949TIP3   OH2 2852   1.784   2.708   4.663 -0.0438  0.0702 -0.2319
  949TIP3    H1 2853   1.811   2.774   4.727 -0.1030  1.2021 -1.3390
  949TIP3    H2 2854   1.692   2.727   4.646  0.1745  0.3006 -1.2290
  950TIP3   OH2 2855   0.543   1.473   1.782 -0.0098 -0.0852 -0.2543
  950TIP3    H1 2856   0.512   1.514   1.863 -1.5237 -1.5517 -0.0333
  950TIP3    H2 2857   0.617   1.526   1.755  0.0823  0.8633  1.7083
  951TIP3   OH2 2858   3.404   1.613   3.944  0.6237  0.0694  0.0045
  951TIP3    H1 2859   3.491   1.572   3.946  0.3888 -0.4317  1.4279
  951TIP3    H2 2860   3.397   1.658   4.028 -0.3359  0.4654 -0.2723
  952TIP3   OH2 2861   2.913   5.187   4.936  0.3091 -0.8579  0.6961
  952TIP3    H1 2862   2.990   5.130   4.943  1.1801 -0.2075 -2.1957
  952TIP3    H2 2863   2.939   5.268   4.981  0.9988 -0.9507  0.4743
  953TIP3   OH2 2864   4.530   1.472   4.885 -0.2750 -0.5628  0.2378
  953TIP3    H1 2865   4.535   1.503   4.975 -0.6317 -0.9789  0.3996
  953TIP3    H2 2866   4.467   1.400   4.887  1.3178 -2.0118  0.0551
  954TIP3   OH2 2867   5.955   3.625   4.400  0.3821  0.1575  0.3600
  954TIP3    H1 2868   6.031   3.616   4.458  0.6491 -1.7571 -0.2214
  954TIP3    H2 2869   5.889   3.567   4.439  0.1735 -0.2612 -0.6033
  955TIP3   OH2 2870   0.341   2.666   0.535 -0.0406 -0.5946  0.2541
  955TIP3    H1 2871   0.433   2.658   0.559 -0.0533  1.6299  1.2061
  955TIP3    H2 2872   0.333   2.616   0.453  1.5072 -2.5718  1.2216
  956TIP3   OH2 2873   3.775   3.340   3.523 -0.7534  0.0763  0.0424
  956TIP3    H1 2874   3.766   3.287   3.602  1.0356 -0.7930 -0.2875
  956TIP3    H2 2875   3.799   3.278   3.455 -1.8220  0.8840 -1.1159
  957TIP3   OH2 2876   6.185   1.807   3.677 -0.1970  0.0563  0.3278
  957TIP3    H1 2877   6.218   1.836   3.762 -0.3029  1.2932 -0.0265
  957TIP3    H2 2878   6.216   1.717   3.669  1.3469  0.4868  0.9049
  958TIP3   OH2 2879   4.962   5.684   0.732 -0.1897  0.3549  0.2938
  958TIP3    H1 2880   4.933   5.662   0.643  0.9576  0.4911 -0.1320
  958TIP3    H2 2881   4.932   5.774   0.744  0.8449  0.8393 -0.5182
  959TIP3   OH2 2882   5.827   1.467   1.970  0.0295 -0.4210  0.0166
  959TIP3    H1 2883   5.804   1.376   1.990  0.0920 -0.3035  0.6572
  959TIP3    H2 2884   5.785   1.518   2.040 -0.7194  0.1324 -0.8196
  960TIP3   OH2 2885   4.418   4.800   3.585  0.1743 -0.1965  0.3361
  960TIP3    H1 2886   4.461   4.774   3.504 -0.9753  1.9578 -1.0972
  960TIP3    H2 2887   4.483   4.853   3.631 -0.4517  2.2165 -1.3446
  961TIP3   OH2 2888   5.739   3.787   4.390 -0.4333  0.1954 -0.1381
  961TIP3    H1 2889   5.825   3.746   4.385  0.1435  1.3933 -0.3201
  961TIP3    H2 2890   5.701   3.754   4.472  0.8215  0.8379  0.7238
  962TIP3   OH2 2891   2.643   4.786   0.307  0.2692  0.0088  0.1436
  962TIP3    H1 2892   2.568   4.726   0.300 -0.1225  0.2806  1.5643
  962TIP3    H2 2893   2.688   4.778   0.223  0.2985 -2.3848  0.2933
  963TIP3   OH2 2894   3.623   2.339   1.472  1.0843  0.0743  0.4310
  963TIP3    H1 2895   3.573   2.284   1.531  0.9219  0.2675  0.4748
  963TIP3    H2 2896   3.559   2.401   1.437  1.3693  0.5720  0.7854
  964TIP3   OH2 2897   0.999   0.273   2.181  0.2147 -0.0071 -0.5387
  964TIP3    H1 2898   1.081   0.281   2.131 -0.2495 -0.5553 -1.4018
  964TIP3    H2 2899   1.027   0.237   2.266  1.2921  2.8917  0.4593
  965TIP3   OH2 2900   2.187   4.597   2.885  0.1589  0.1362 -0.1167
  965TIP3    H1 2901   2.195   4.619   2.977  1.0224 -0.3820 -0.0591
  965TIP3    H2 2902   2.184   4.501   2.883 -2.3300  0.1510 -0.4496
  966TIP3   OH2 2903   4.839   3.031   0.035 -0.1097 -0.0774  0.4086
  966TIP3    H1 2904   4.776   3.028   0.107 -1.0060 -2.5030 -0.3885
  966TIP3    H2 2905   4.791   3.000  -0.041  1.2052  1.0928 -0.9808
  967TIP3   OH2 2906   3.724   2.776   3.923 -0.1485 -0.0433 -0.5836
  967TIP3    H1 2907   3.680   2.760   4.006 -1.3620 -0.8177 -1.3332
  967TIP3    H2 2908   3.810   2.737   3.933 -0.7190 -1.2163 -0.0820
  968TIP3   OH2 2909   5.284   5.427   0.274  0.1442  0.3568  0.2922
  968TIP3    H1 2910   5.365   5.427   0.325  0.5057 -1.4897 -0.1955
  968TIP3    H2 2911   5.214   5.420   0.339  0.5988 -1.9938  0.6248
  969TIP3   OH2 2912   6.113   2.934   4.753 -0.5468  1.1127  0.0098
  969TIP3    H1 2913   6.173   2.998   4.791  2.6570 -1.4521 -0.3451
  969TIP3    H2 2914   6.095   2.968   4.665 -0.2405  2.3002  0.3874
  970TIP3   OH2 2915   4.039   0.275   2.684  0.0111 -0.2196  0.2963
  970TIP3    H1 2916   4.048   0.184   2.715 -0.1633 -0.5096 -0.4760
  970TIP3    H2 2917   3.961   0.307   2.728  1.3338  0.3438  2.3882
  971TIP3   OH2 2918   2.917   0.209   4.994  0.0154  0.2966  0.2488
  971TIP3    H1 2919   2.981   0.277   5.014  0.4056 -0.3119  1.1314
  971TIP3    H2 2920   2.869   0.196   5.076  0.1969 -0.7502  0.2002
  972TIP3   OH2 2921   0.642   5.156   3.324 -0.2382  0.2125  0.3921
  972TIP3    H1 2922   0.615   5.107   3.402  0.4680 -0.4602  0.2269
  972TIP3    H2 2923   0.720   5.110   3.292 -0.7464  0.2260 -0.9512
  973TIP3   OH2 2924   5.544   1.275   1.703 -0.3520  0.2310 -0.1360
  973TIP3    H1 2925   5.540   1.181   1.687 -0.0394  0.1355  0.3331
  973TIP3    H2 2926   5.459   1.297   1.742 -0.6953  0.2725 -0.8888
  974TIP3   OH2 2927   2.868   1.746   0.114  0.1736  0.2250  0.2626
  974TIP3    H1 2928   2.856   1.651   0.122 -2.0774  0.4021 -0.2095
  974TIP3    H2 2929   2.890   1.760   0.022 -0.1143  0.2024  0.1894
  975TIP3   OH2 2930   6.152   4.015   3.919 -0.3521 -0.1139  0.7011
  975TIP3    H1 2931   6.221   3.948   3.918  0.1227  0.3457  1.3072
  975TIP3    H2 2932   6.074   3.968   3.948 -0.2989 -0.6484 -0.0048
  976TIP3   OH2 2933   6.297   1.256   1.653 -0.2341  0.1982  0.5129
  976TIP3    H1 2934   6.346   1.321   1.604 -1.1984  0.0056 -0.7483
  976TIP3    H2 2935   6.206   1.284   1.647 -0.3963  0.1509  2.1932
  977TIP3   OH2 2936   2.097   5.107   0.673  0.0599 -0.1948 -0.5956
  977TIP3    H1 2937   2.061   5.018   0.669  0.9202 -0.6849  1.2025
  977TIP3    H2 2938   2.185   5.098   0.636  0.7802 -0.5223  1.0707
  978TIP3   OH2 2939   1.553   4.227   0.184 -0.4623  0.3386  0.4995
  978TIP3    H1 2940   1.500   4.154   0.216  0.6710 -0.6903  0.1097
  978TIP3    H2 2941   1.594   4.194   0.104  0.8613  1.0306  0.8495
  979TIP3   OH2 2942   4.097   0.769   4.567  0.2688 -0.3790  0.2587
  979TIP3    H1 2943   4.106   0.705   4.496  0.0950 -1.6362  1.3386
  979TIP3    H2 2944   4.038   0.727   4.629 -0.8189  1.3465  0.4506
  980TIP3   OH2 2945   4.604   5.089   2.491  0.0754 -0.0155  0.6154
  980TIP3    H1 2946   4.566   5.023   2.434  0.1864  0.7556 -0.3974
  980TIP3    H2 2947   4.557   5.081   2.574 -2.2967  0.8566 -0.5439
  981TIP3   OH2 2948   3.871   3.971   4.401 -0.7507  0.3127  0.4453
  981TIP3    H1 2949   3.796   3.932   4.446 -0.5906 -0.1609  0.3050
  981TIP3    H2 2950   3.932   3.993   4.472  0.4774 -2.4726  0.3748
  982TIP3   OH2 2951   0.051   2.759   0.559 -0.3206  0.3540  0.0403
  982TIP3    H1 2952   0.014   2.750   0.472  0.3284 -2.1543 -0.0601
  982TIP3    H2 2953   0.142   2.728   0.551  0.0110  0.8544  1.4303
  983TIP3   OH2 2954   1.880   1.288   3.278  0.2562 -0.3786  0.1524
  983TIP3    H1 2955   1.953   1.280   3.340 -0.8914  2.0941  2.0096
  983TIP3    H2 2956   1.833   1.366   3.307 -2.4021 -1.1369 -1.7741
  984TIP3   OH2 2957   4.143   2.132   4.280 -0.4843 -0.2785 -0.3920
  984TIP3    H1 2958   4.067   2.079   4.304 -0.9488  1.0321  1.3029
  984TIP3    H2 2959   4.106   2.216   4.253  0.3127  0.0577 -0.4723
  985TIP3   OH2 2960   1.209   5.539   4.524 -0.0126 -0.0370 -0.4349
  985TIP3    H1 2961   1.287   5.533   4.468  0.5981 -0.6674  0.4458
  985TIP3    H2 2962   1.217   5.464   4.583 -0.6949  0.5391  0.4143
  986TIP3   OH2 2963   0.243   4.783   1.100  0.7160 -0.0048 -0.1471
  986TIP3    H1 2964   0.187   4.835   1.042 -2.5357 -2.4994  0.4933
  986TIP3    H2 2965   0.218   4.810   1.189  1.4099 -0.3380  0.1630
  987TIP3   OH2 2966   5.470   2.225   4.584  0.2807 -0.0140  0.2178
  987TIP3    H1 2967   5.424   2.142   4.592 -2.2046  1.0718 -1.5319
  987TIP3    H2 2968   5.447   2.273   4.663  1.1614 -0.6964  0.9062
  988TIP3   OH2 2969   4.952   5.176   4.572  0.2079 -0.3445 -0.9324
  988TIP3    H1 2970   4.988   5.094   4.539  1.0376 -0.6935  0.7219
  988TIP3    H2 2971   5.023   5.214   4.624 -1.1761 -0.1338  0.9039
  989TIP3   OH2 2972   2.885   1.960   4.538 -0.2905 -0.2071 -0.6027
  989TIP3    H1 2973   2.901   1.964   4.444 -2.1835  1.0429 -0.9300
  989TIP3    H2 2974   2.943   2.027   4.575 -0.1639 -0.1013 -0.9866
  990TIP3   OH2 2975   1.790   1.951   5.001 -0.1740  0.4202  0.3310
  990TIP3    H1 2976   1.798   1.972   4.908  1.0823  1.6420  0.6625
  990TIP3    H2 2977   1.708   1.904   5.009  0.1736 -0.5830 -1.5392
  991TIP3   OH2 2978   2.834   5.350   1.289 -0.0750  0.5073  0.3397
  991TIP3    H1 2979   2.884   5.275   1.257 -1.9087 -0.8349  0.4604
  991TIP3    H2 2980   2.867   5.425   1.239  0.2511 -0.7628 -1.4222
  992TIP3   OH2 2981   2.674   5.661   0.002 -0.3094  0.1424 -0.3395
  992TIP3    H1 2982   2.701   5.581  -0.045  0.7225  0.3496 -0.1287
  992TIP3    H2 2983   2.595   5.636   0.048  1.3779 -1.5901  1.8317
  993TIP3   OH2 2984   3.974   4.096   5.017  0.5279  0.0163  0.6689
  993TIP3    H1 2985   4.051   4.040   5.021  0.3230 -0.3615 -0.3771
  993TIP3    H2 2986   4.001   4.171   4.964  0.1117 -0.2208  0.1196
  994TIP3   OH2 2987   4.589   0.670   1.955 -0.5541  0.4149  0.1154
  994TIP3    H1 2988   4.577   0.620   2.036 -1.5909 -0.5970 -0.6443
  994TIP3    H2 2989   4.505   0.714   1.941 -0.7099 -0.1825 -0.9041
  995TIP3   OH2 2990   2.163   1.267   1.723  0.2198  0.0587  0.0525
  995TIP3    H1 2991   2.094   1.301   1.781  0.3386  2.5309 -1.1200
  995TIP3    H2 2992   2.116   1.229   1.649  0.1127 -0.6461  0.4710
  996TIP3   OH2 2993   4.179   2.350   3.999  0.0118  0.5274 -0.2608
  996TIP3    H1 2994   4.233   2.428   3.989  0.6928 -0.0794 -1.5777
  996TIP3    H2 2995   4.211   2.290   3.932  0.9782 -1.7509  2.0927
  997TIP3   OH2 2996   3.386   2.510   0.928 -0.4755 -0.3457 -0.5298
  997TIP3    H1 2997   3.377   2.431   0.981 -1.1255 -0.2798 -0.5351
  997TIP3    H2 2998   3.296   2.541   0.915 -0.2095  0.5505 -0.2956
  998TIP3   OH2 2999   5.871   4.925   2.168 -0.4785  0.3374  0.2451
  998TIP3    H1 3000   5.886   4.934   2.074 -1.3405  0.1217  0.0804
  998TIP3    H2 3001   5.941   4.868   2.198 -0.4768  0.0189 -0.3529
  999TIP3   OH2 3002   5.380   3.094   3.299  0.1089  0.8126 -0.4851
  999TIP3    H1 3003   5.422   3.178   3.318  0.4500  0.4486  0.4670
  999TIP3    H2 3004   5.338   3.107   3.214 -0.4089  2.1600 -0.0599
 1000TIP3   OH2 3005   6.151   1.273   0.083  0.3557 -0.1732 -0.7744
 1000TIP3    H1 3006   6.109   1.208   0.027  1.4588 -1.0802 -0.6014
 1000TIP3    H2 3007   6.207   1.323   0.023 -0.5794  0.7265 -0.9276
 1001TIP3   OH2 3008   0.313   0.476   2.100 -0.3334  0.0367  0.0340
 1001TIP3    H1 3009   0.357   0.460   2.184 -0.8524  0.2921  0.3572
 1001TIP3    H2 3010   0.310   0.571   2.092 -1.3121  0.0391  0.2810
 1002TIP3   OH2 3011   2.799   2.952   0.387  0.4695 -0.1047 -0.4249
 1002TIP3    H1 3012   2.735   2.882   0.370 -0.4713  1.0090 -1.6711
 1002TIP3    H2 3013   2.826   2.938   0.477 -0.3171 -1.5878 -0.3876
 1003TIP3   OH2 3014   3.123   3.503   1.763 -0.5510  0.5451 -0.3388
 1003TIP3    H1 3015   3.189   3.549   1.815 -1.3743  0.0730  1.2069
 1003TIP3    H2 3016   3.171   3.468   1.688  2.1426 -3.6792  2.8828
 1004TIP3   OH2 3017   6.274   5.015   2.274  0.1777  0.0330 -0.1108
 1004TIP3    H1 3018   6.192   5.043   2.314  0.7286  0.4441  0.7612
 1004TIP3    H2 3019   6.275   4.920   2.286  0.1075  0.0978  0.4190
 1005TIP3   OH2 3020   0.139   3.720   2.997  0.2090 -0.1939  0.7118
 1005TIP3    H1 3021   0.221   3.686   3.031  1.2444 -0.2874 -1.6747
 1005TIP3    H2 3022   0.131   3.681   2.910 -0.4026  2.7008 -0.6502
 1006TIP3   OH2 3023   3.626   1.641   4.947  0.3444  0.1985  0.0587
 1006TIP3    H1 3024   3.561   1.697   4.988  1.4574  1.0996  0.6435
 1006TIP3    H2 3025   3.707   1.658   4.994  1.1416 -0.4972 -0.9864
 1007TIP3   OH2 3026   1.040   4.885   4.419 -0.1769  0.0072  0.1212
 1007TIP3    H1 3027   1.119   4.929   4.451  0.0151  0.0780 -0.4276
 1007TIP3    H2 3028   0.975   4.955   4.411 -0.1844  0.0121  0.2283
 1008TIP3   OH2 3029   4.306   1.531   4.073  0.1755  0.0808 -0.2723
 1008TIP3    H1 3030   4.255   1.591   4.019 -0.0362  1.9213  1.8196
 1008TIP3    H2 3031   4.397   1.560   4.062  0.1338  0.4520  0.2916
 1009TIP3   OH2 3032   6.115   3.872   1.080 -0.2672  0.8571  0.1363
 1009TIP3    H1 3033   6.198   3.874   1.032  0.1365 -0.5231  0.7176
 1009TIP3    H2 3034   6.132   3.926   1.157 -0.7523  2.6502 -0.9627
 1010TIP3   OH2 3035   0.932   2.854   4.287  0.4444 -0.2779 -0.2163
 1010TIP3    H1 3036   0.947   2.940   4.247  0.1308 -0.4232 -0.6489
 1010TIP3    H2 3037   0.924   2.874   4.381  0.0801  0.2090 -0.3435
 1011TIP3   OH2 3038   0.421   4.177   3.833 -0.3209  0.1237  0.0087
 1011TIP3    H1 3039   0.339   4.167   3.881 -1.0382  0.9578 -0.9858
 1011TIP3    H2 3040   0.394   4.181   3.741  0.9542 -0.7954 -0.4300
 1012TIP3   OH2 3041   5.184   4.493   0.055 -0.1485  0.0913 -0.3908
 1012TIP3    H1 3042   5.239   4.415   0.049 -1.0087 -0.7862  2.0046
 1012TIP3    H2 3043   5.154   4.508  -0.035  0.7400 -1.8050 -1.0518
 1013TIP3   OH2 3044   5.234   0.404   2.428 -0.6667  0.0451  0.2254
 1013TIP3    H1 3045   5.152   0.370   2.465 -1.4278  0.6415 -0.8453
 1013TIP3    H2 3046   5.206   0.452   2.350  0.4743  2.1127  1.0081
 1014TIP3   OH2 3047   4.516   0.408   4.366  0.0812  0.3133  0.0496
 1014TIP3    H1 3048   4.573   0.360   4.426  1.4671  0.7791 -0.8395
 1014TIP3    H2 3049   4.563   0.405   4.282 -1.7748 -0.2878 -1.0141
 1015TIP3   OH2 3050   0.256   4.934   1.338  0.0109  0.2578  0.2230
 1015TIP3    H1 3051   0.219   4.878   1.406  1.3782 -1.3172 -0.2498
 1015TIP3    H2 3052   0.247   5.023   1.372 -1.8429 -0.2577  1.1990
 1016TIP3   OH2 3053   1.289   1.867   1.745 -0.2708 -0.4681  0.4180
 1016TIP3    H1 3054   1.266   1.955   1.714  2.5814 -0.3102 -1.6082
 1016TIP3    H2 3055   1.383   1.872   1.764 -0.8249 -1.9680  4.6744
 1017TIP3   OH2 3056   1.059   0.826   3.746  0.0044  0.5485  0.3750
 1017TIP3    H1 3057   1.097   0.744   3.714 -2.7595 -0.1256 -1.5598
 1017TIP3    H2 3058   1.032   0.806   3.836 -0.1041 -0.4739  0.1257
 1018TIP3   OH2 3059   5.653   0.474   0.120 -0.2454 -0.5667  0.0414
 1018TIP3    H1 3060   5.696   0.558   0.107 -0.2241 -0.5847 -0.0065
 1018TIP3    H2 3061   5.572   0.495   0.166 -0.7129 -0.4103 -0.8258
 1019TIP3   OH2 3062   1.096   3.579   2.542 -0.6709  0.2284  0.1679
 1019TIP3    H1 3063   1.081   3.556   2.633 -0.2569  1.4425  0.5568
 1019TIP3    H2 3064   1.017   3.625   2.515 -0.6928  0.0853 -0.0217
 1020TIP3   OH2 3065   1.972   1.502   3.791  1.1481 -0.2072  0.1116
 1020TIP3    H1 3066   1.926   1.450   3.857 -0.0599 -1.0307 -1.3185
 1020TIP3    H2 3067   2.015   1.438   3.735  0.4731  0.3408 -1.0799
 1021TIP3   OH2 3068   0.694   3.783   1.865  0.1615 -0.0419  0.1200
 1021TIP3    H1 3069   0.646   3.702   1.848  0.8771 -0.4689  0.0954
 1021TIP3    H2 3070   0.642   3.851   1.822 -0.7016 -0.4133  0.5467
 1022TIP3   OH2 3071   2.169   3.530   4.573  0.0384  0.3476 -0.6306
 1022TIP3    H1 3072   2.092   3.578   4.546 -0.2142  0.0737 -0.4078
 1022TIP3    H2 3073   2.184   3.557   4.664 -1.1022 -1.2264  0.0771
 1023TIP3   OH2 3074   0.911   0.976   4.289  0.2411 -0.1040  0.2452
 1023TIP3    H1 3075   0.857   0.910   4.246  0.7188 -0.3326 -0.0119
 1023TIP3    H2 3076   1.000   0.958   4.259  0.8654 -1.2704  2.5326
 1024TIP3   OH2 3077   2.435   1.906   1.182 -0.4352  0.7608  0.0933
 1024TIP3    H1 3078   2.515   1.879   1.136 -0.6081 -1.2819  0.8806
 1024TIP3    H2 3079   2.427   1.999   1.163  2.7187  1.3141  0.8293
 1025TIP3   OH2 3080   3.307   2.885   3.018 -0.6106  0.3708  0.1854
 1025TIP3    H1 3081   3.284   2.848   2.933  0.2276  1.3387 -0.4855
 1025TIP3    H2 3082   3.378   2.830   3.050 -1.8679 -0.8836  0.9633
 1026TIP3   OH2 3083   3.783   1.165   1.070 -0.1593  0.3006  0.0136
 1026TIP3    H1 3084   3.775   1.074   1.043 -2.0140  0.3290  0.3598
 1026TIP3    H2 3085   3.800   1.213   0.990  0.7356 -0.3218 -0.1844
 1027TIP3   OH2 3086   1.844   4.973   0.582  0.1325 -0.0948 -0.0627
 1027TIP3    H1 3087   1.772   5.021   0.541  0.9931 -0.0581 -1.6320
 1027TIP3    H2 3088   1.868   4.907   0.517  2.5080  0.8912 -0.2927
 1028TIP3   OH2 3089   4.165   5.870   2.413 -0.2251 -0.3837  0.1073
 1028TIP3    H1 3090   4.088   5.895   2.464  0.2154  0.7389  0.2348
 1028TIP3    H2 3091   4.199   5.952   2.378  0.1772 -1.0156 -1.0167
 1029TIP3   OH2 3092   0.364   2.662   4.455 -0.3492  0.3736 -0.1800
 1029TIP3    H1 3093   0.407   2.642   4.538  1.0681 -0.6774 -1.1090
 1029TIP3    H2 3094   0.314   2.584   4.434 -0.3972  0.4857 -0.4857
 1030TIP3   OH2 3095   5.220   4.437   2.481 -0.4333  0.3170  0.7577
 1030TIP3    H1 3096   5.164   4.513   2.469 -0.3629  0.2415 -0.1105
 1030TIP3    H2 3097   5.307   4.466   2.456 -0.1224  0.3567  1.8469
 1031TIP3   OH2 3098   2.302   2.417   1.832 -0.8910 -0.2762 -0.9159
 1031TIP3    H1 3099   2.252   2.346   1.872  1.2941 -1.1872  0.3892
 1031TIP3    H2 3100   2.248   2.495   1.846 -2.4315 -1.3472 -0.5871
 1032TIP3   OH2 3101   1.545   3.952   0.337 -0.4776 -0.6831 -0.6761
 1032TIP3    H1 3102   1.576   3.999   0.415  0.9977 -2.3008 -0.2220
 1032TIP3    H2 3103   1.458   3.988   0.321  0.5028  2.1404 -0.3556
 1033TIP3   OH2 3104   4.010   0.752   2.900  0.6768 -0.0437  0.1732
 1033TIP3    H1 3105   4.095   0.715   2.876  0.6870  1.0173 -1.5934
 1033TIP3    H2 3106   4.032   0.828   2.955  0.9501  0.7532 -1.0007
 1034TIP3   OH2 3107   5.187   5.667   0.002  0.6761  0.9330 -0.2374
 1034TIP3    H1 3108   5.229   5.697   0.082  0.4363  1.4947 -0.3178
 1034TIP3    H2 3109   5.259   5.645  -0.057  0.8904  2.5557 -0.6275
 1035TIP3   OH2 3110   4.713   4.997   3.140 -0.3038  0.2796 -0.1205
 1035TIP3    H1 3111   4.757   4.957   3.216 -0.7923 -0.0776 -0.0161
 1035TIP3    H2 3112   4.620   4.989   3.160 -0.4109  2.0613  0.1869
 1036TIP3   OH2 3113   4.470   0.570   3.394  0.3584  0.3827  0.6811
 1036TIP3    H1 3114   4.483   0.480   3.423 -0.0508  1.1098  3.3491
 1036TIP3    H2 3115   4.545   0.588   3.338  3.5588  0.0339  4.4292
 1037TIP3   OH2 3116   0.346   1.158   0.623  0.2779 -0.0353  0.3382
 1037TIP3    H1 3117   0.360   1.169   0.529 -1.0819 -1.3785 -0.0487
 1037TIP3    H2 3118   0.255   1.181   0.637  0.6720  0.9011  1.4777
 1038TIP3   OH2 3119   2.937   4.433   0.633 -0.2039  0.3922 -0.8516
 1038TIP3    H1 3120   2.948   4.348   0.676  0.4764  0.7735 -0.2604
 1038TIP3    H2 3121   2.845   4.454   0.646  0.4416  1.6363  2.6346
 1039TIP3   OH2 3122   1.236   1.912   2.328  0.0201  0.2033 -0.4632
 1039TIP3    H1 3123   1.223   1.924   2.422  0.2565 -3.9644  0.3099
 1039TIP3    H2 3124   1.156   1.946   2.289 -0.2908  1.6107  1.2526
 1040TIP3   OH2 3125   4.634   2.848   2.069  0.4782 -0.0086  0.0846
 1040TIP3    H1 3126   4.639   2.850   2.165 -0.9205  1.2344  0.1739
 1040TIP3    H2 3127   4.541   2.863   2.050  0.8125  0.2056 -1.4852
 1041TIP3   OH2 3128   2.328   1.237   2.801 -0.2107 -0.0838 -0.1376
 1041TIP3    H1 3129   2.373   1.251   2.884  0.0210  1.3957 -0.4838
 1041TIP3    H2 3130   2.235   1.241   2.823 -0.1497  0.0044  0.1023
 1042TIP3   OH2 3131   0.348   5.742   3.287  0.2218 -0.3845  0.2788
 1042TIP3    H1 3132   0.288   5.815   3.276  2.1853  0.9688 -2.2663
 1042TIP3    H2 3133   0.299   5.666   3.256 -0.1400  0.7225 -2.0031
 1043TIP3   OH2 3134   3.900   3.330   2.445 -0.3710 -0.2541  0.0310
 1043TIP3    H1 3135   3.959   3.382   2.500 -0.9502 -0.3553  0.7617
 1043TIP3    H2 3136   3.951   3.312   2.366 -0.1779  1.4866 -0.2904
 1044TIP3   OH2 3137   4.515   3.534   4.928  0.4550 -0.3290 -0.1108
 1044TIP3    H1 3138   4.424   3.521   4.956  0.9683 -1.7465  1.0404
 1044TIP3    H2 3139   4.523   3.629   4.916 -1.1200 -0.1595 -0.0813
 1045TIP3   OH2 3140   1.056   5.767   3.562 -0.1645  0.2085 -0.8098
 1045TIP3    H1 3141   1.114   5.789   3.489 -0.4828 -0.5823 -1.3215
 1045TIP3    H2 3142   1.113   5.723   3.625  0.1642  1.1218 -0.4545
 1046TIP3   OH2 3143   0.532   5.017   1.573 -0.3788  0.3715  0.0924
 1046TIP3    H1 3144   0.573   5.039   1.657 -0.6282 -0.7825  0.5400
 1046TIP3    H2 3145   0.605   4.997   1.515 -0.1855  1.6479 -0.1127
 1047TIP3   OH2 3146   2.414   2.067   2.873  0.4582 -0.4958 -0.1330
 1047TIP3    H1 3147   2.352   2.132   2.908  0.1758 -0.5256 -0.5738
 1047TIP3    H2 3148   2.361   1.989   2.861  0.9057 -0.9694  0.8735
 1048TIP3   OH2 3149   5.369   5.308   3.318  0.1084  0.2124  0.5462
 1048TIP3    H1 3150   5.361   5.216   3.292 -0.5681  0.7492 -1.2995
 1048TIP3    H2 3151   5.452   5.312   3.365  1.6389 -0.8513 -1.8485
 1049TIP3   OH2 3152   4.527   3.706   3.649 -0.1293  0.6378  0.6138
 1049TIP3    H1 3153   4.493   3.665   3.570  1.0531  0.5021  0.1470
 1049TIP3    H2 3154   4.505   3.799   3.639  0.6645  0.7466 -0.2512
 1050TIP3   OH2 3155   3.567   5.635   2.044 -0.0208  0.3731 -0.3813
 1050TIP3    H1 3156   3.586   5.541   2.046  2.5706  0.8347  0.8683
 1050TIP3    H2 3157   3.473   5.640   2.025  0.1255 -2.3881 -2.3891
 1051TIP3   OH2 3158   0.561   5.667   4.873  0.8546 -0.0139  0.3584
 1051TIP3    H1 3159   0.641   5.721   4.867  0.6996  0.0515 -1.6307
 1051TIP3    H2 3160   0.511   5.708   4.943  2.6385 -0.1862  1.8240
 1052TIP3   OH2 3161   5.430   1.033   0.141  0.2314  0.0326  0.2767
 1052TIP3    H1 3162   5.364   0.969   0.114  0.5978  0.2521 -1.2642
 1052TIP3    H2 3163   5.461   1.071   0.059  0.8708  1.3467  1.0860
 1053TIP3   OH2 3164   0.444   1.001   1.823  0.2259 -0.2382 -0.1131
 1053TIP3    H1 3165   0.439   0.974   1.914  2.0245 -0.7564 -0.1247
 1053TIP3    H2 3166   0.436   0.919   1.773  0.8458 -0.1790 -0.3316
 1054TIP3   OH2 3167   3.242   5.382   2.468 -0.0207  0.2301 -0.3151
 1054TIP3    H1 3168   3.163   5.378   2.412  0.3142 -2.1924 -0.7134
 1054TIP3    H2 3169   3.227   5.316   2.535  1.2350  0.4627  0.2147
 1055TIP3   OH2 3170   4.196   3.608   4.933  0.2508  0.2551 -0.5654
 1055TIP3    H1 3171   4.211   3.559   4.852  0.5449 -0.5352 -0.0391
 1055TIP3    H2 3172   4.124   3.562   4.977  0.5395  0.2803 -0.0581
 1056TIP3   OH2 3173   1.497   1.157   2.825  0.2984 -0.0288  0.0642
 1056TIP3    H1 3174   1.406   1.154   2.854  0.2662 -2.6459 -0.0628
 1056TIP3    H2 3175   1.497   1.115   2.740  1.3854  1.7105 -0.8586
 1057TIP3   OH2 3176   3.531   2.582   5.048 -0.4515  0.0787  0.3692
 1057TIP3    H1 3177   3.452   2.554   5.003 -1.6676  2.3779  0.9081
 1057TIP3    H2 3178   3.539   2.522   5.123 -2.1312  0.2596  0.7315
 1058TIP3   OH2 3179   3.543   0.553   4.033  0.0462 -0.3332  0.7043
 1058TIP3    H1 3180   3.569   0.510   4.114 -1.7049 -0.5376  1.2058
 1058TIP3    H2 3181   3.517   0.482   3.975 -0.2239 -0.1126  0.5478
 1059TIP3   OH2 3182   3.957   2.580   5.158 -0.8285  0.1125  0.1988
 1059TIP3    H1 3183   4.008   2.506   5.192 -0.7105 -0.2829 -0.7853
 1059TIP3    H2 3184   4.024   2.642   5.129 -0.7946 -1.0116 -2.4177
 1060TIP3   OH2 3185   2.135   0.530   4.674 -0.1492 -0.0800 -0.1055
 1060TIP3    H1 3186   2.127   0.446   4.719  0.0553 -0.5904 -1.0033
 1060TIP3    H2 3187   2.080   0.522   4.597  1.7655 -0.3233 -1.5312
 1061TIP3   OH2 3188   2.237   0.168   3.568  0.0079  0.0234  0.4832
 1061TIP3    H1 3189   2.238   0.078   3.600 -3.1149  0.5165  2.3934
 1061TIP3    H2 3190   2.267   0.220   3.642 -0.9704  0.7162  0.4133
 1062TIP3   OH2 3191   5.105   2.441   1.983 -0.2307  0.4021 -0.2788
 1062TIP3    H1 3192   5.183   2.387   1.976  0.9666  1.9073  0.7257
 1062TIP3    H2 3193   5.097   2.483   1.898  1.1625  1.6119  0.1386
 1063TIP3   OH2 3194   4.412   0.417   2.405 -0.1636 -0.3122  0.0543
 1063TIP3    H1 3195   4.493   0.413   2.456  0.9608 -1.2702 -1.6952
 1063TIP3    H2 3196   4.396   0.327   2.379 -0.7061  0.1292 -1.2318
 1064TIP3   OH2 3197   1.302   4.979   4.487 -0.1097 -0.2914  0.0224
 1064TIP3    H1 3198   1.352   5.000   4.408  0.1711 -0.9507  0.0124
 1064TIP3    H2 3199   1.363   4.929   4.541 -0.4323 -0.2050  0.4720
 1065TIP3   OH2 3200   6.003   2.964   0.941  0.5189 -0.7652 -0.2211
 1065TIP3    H1 3201   5.942   2.954   0.868 -2.9902  0.7505  2.2455
 1065TIP3    H2 3202   6.032   2.875   0.960 -0.8529 -1.5452 -1.5733
 1066TIP3   OH2 3203   1.048   4.015   1.461 -0.1431  0.5413 -0.0088
 1066TIP3    H1 3204   1.028   4.049   1.549 -2.5940  0.4605 -0.4609
 1066TIP3    H2 3205   1.108   3.942   1.477 -1.2810 -0.0990  1.7489
 1067TIP3   OH2 3206   1.985   2.794   3.639 -0.2661  0.1698 -0.5091
 1067TIP3    H1 3207   1.890   2.807   3.633 -0.5693  0.0347  2.5817
 1067TIP3    H2 3208   1.999   2.757   3.726  2.7054  0.7216 -0.6411
 1068TIP3   OH2 3209   6.127   4.867   4.756  0.0489  0.1654  0.2439
 1068TIP3    H1 3210   6.123   4.943   4.697 -0.7412  0.1984  0.3209
 1068TIP3    H2 3211   6.180   4.803   4.708  1.7933  1.1954  0.7160
 1069TIP3   OH2 3212   5.688   1.821   2.049  0.3406  0.0786  0.2751
 1069TIP3    H1 3213   5.709   1.729   2.033  0.6106  0.2971 -0.6801
 1069TIP3    H2 3214   5.652   1.823   2.138 -1.8143 -1.2828 -0.5164
 1070TIP3   OH2 3215   2.786   2.623   4.175 -0.5308 -0.0012 -0.3167
 1070TIP3    H1 3216   2.800   2.564   4.249 -1.8886 -0.7625 -0.6319
 1070TIP3    H2 3217   2.697   2.603   4.145 -0.5375  1.3058 -1.2510
 1071TIP3   OH2 3218   1.919   3.223   3.192  0.7486 -0.4091 -0.3988
 1071TIP3    H1 3219   1.968   3.261   3.265 -0.4897 -0.8293  0.6976
 1071TIP3    H2 3220   1.872   3.297   3.153 -1.8926 -0.6995  1.9167
 1072TIP3   OH2 3221   5.867   1.530   0.393  0.1333  0.1241 -0.3841
 1072TIP3    H1 3222   5.794   1.507   0.335 -0.9761 -1.0845  1.4134
 1072TIP3    H2 3223   5.877   1.625   0.383 -1.0149  0.1564 -1.4054
 1073TIP3   OH2 3224   6.016   3.474   0.863 -0.4690  0.2631 -0.1563
 1073TIP3    H1 3225   6.057   3.560   0.855 -0.1419 -0.0002 -1.6428
 1073TIP3    H2 3226   5.993   3.467   0.956  3.9620 -0.0514  1.1671
 1074TIP3   OH2 3227   2.599   0.480   4.768  0.5158  0.5266 -0.1793
 1074TIP3    H1 3228   2.547   0.560   4.770  0.9983  0.8344  1.4521
 1074TIP3    H2 3229   2.556   0.421   4.829  1.8969  0.7078  1.0301
 1075TIP3   OH2 3230   5.934   1.903   3.886  0.3851  0.1918  0.2676
 1075TIP3    H1 3231   5.968   1.983   3.925  2.0690 -0.3899  0.0959
 1075TIP3    H2 3232   5.986   1.833   3.927  1.4269 -0.5256 -2.0826
 1076TIP3   OH2 3233   5.851   1.022   5.154  0.2617  1.0868  0.3095
 1076TIP3    H1 3234   5.761   0.993   5.139  0.5429  0.4442 -0.1817
 1076TIP3    H2 3235   5.882   1.051   5.068  0.0483  2.7354  0.7530
 1077TIP3   OH2 3236   3.847   0.623   3.401  0.2804 -0.3034  0.4148
 1077TIP3    H1 3237   3.904   0.700   3.394 -0.4413  0.1167 -1.2823
 1077TIP3    H2 3238   3.860   0.592   3.490  0.3069  2.0224  1.2911
 1078TIP3   OH2 3239   6.253   5.045   0.082  0.1152 -0.0261 -0.1097
 1078TIP3    H1 3240   6.158   5.051   0.086  0.0374 -1.0582 -0.1871
 1078TIP3    H2 3241   6.270   4.960   0.042  1.0671  0.4391 -0.7216
 1079TIP3   OH2 3242   2.683   5.608   1.037 -0.2638  0.4557 -0.5288
 1079TIP3    H1 3243   2.744   5.541   1.007  0.0036 -0.4391  1.8105
 1079TIP3    H2 3244   2.598   5.564   1.040  0.1084 -0.2472  2.1365
 1080TIP3   OH2 3245   5.942   1.791   4.559 -0.3284 -0.0240  0.0816
 1080TIP3    H1 3246   5.937   1.884   4.538 -1.6362 -0.2299 -0.6433
 1080TIP3    H2 3247   5.895   1.748   4.488 -1.7042 -1.0600  1.5282
 1081TIP3   OH2 3248   4.133   3.945   2.222  0.6028 -0.3714  0.3344
 1081TIP3    H1 3249   4.176   3.945   2.136  2.2107  1.6749  1.0439
 1081TIP3    H2 3250   4.043   3.972   2.204  1.0558  0.5337 -0.6805
 1082TIP3   OH2 3251   1.468   2.754   2.130  0.4126 -0.5568 -0.0633
 1082TIP3    H1 3252   1.535   2.804   2.176 -0.2588 -0.5081  0.8894
 1082TIP3    H2 3253   1.449   2.680   2.189  0.7595 -1.4469 -1.0433
 1083TIP3   OH2 3254   5.268   2.878   3.472  0.4690 -0.0914  0.1752
 1083TIP3    H1 3255   5.315   2.943   3.421 -1.4189  0.8484 -0.4448
 1083TIP3    H2 3256   5.242   2.924   3.552 -0.3264 -0.2512  0.0170
 1084TIP3   OH2 3257   4.994   0.578   3.613  0.2793  0.0084  0.4372
 1084TIP3    H1 3258   5.015   0.661   3.570  2.6481  0.0413  1.4932
 1084TIP3    H2 3259   4.916   0.597   3.664 -1.7103  0.3834 -2.5060
 1085TIP3   OH2 3260   1.112   2.724   2.216 -0.2419  0.0466  0.2324
 1085TIP3    H1 3261   1.090   2.631   2.216 -0.1763  0.0120 -0.8001
 1085TIP3    H2 3262   1.204   2.727   2.240 -0.6306 -0.0165  1.8475
 1086TIP3   OH2 3263   1.969   1.309   0.405 -0.5477  0.0397  0.4589
 1086TIP3    H1 3264   1.976   1.280   0.496  3.8612 -0.2613  0.2561
 1086TIP3    H2 3265   1.972   1.405   0.410  3.1584  0.0776  0.7714
 1087TIP3   OH2 3266   0.334   0.402   3.378  0.6862  0.0071 -0.0585
 1087TIP3    H1 3267   0.347   0.324   3.325 -0.9577  0.6097 -1.4652
 1087TIP3    H2 3268   0.378   0.472   3.329  0.2093  0.3489 -0.0152
 1088TIP3   OH2 3269   1.119   2.523   2.530  0.6674  0.2376 -0.0930
 1088TIP3    H1 3270   1.058   2.526   2.457  0.2801 -0.6756  0.1820
 1088TIP3    H2 3271   1.134   2.430   2.546  1.4094  0.4349  0.4444
 1089TIP3   OH2 3272   3.855   0.395   1.489 -0.1649 -0.3803 -0.2115
 1089TIP3    H1 3273   3.800   0.331   1.533 -0.0442 -0.0671  0.4080
 1089TIP3    H2 3274   3.932   0.403   1.546  0.1596 -0.2292 -0.6629
 1090TIP3   OH2 3275   5.148   3.324   3.321 -0.2262 -0.0096 -0.0103
 1090TIP3    H1 3276   5.142   3.252   3.383  2.8428  1.0269  1.6954
 1090TIP3    H2 3277   5.100   3.396   3.363  3.6061  1.3703  2.5026
 1091TIP3   OH2 3278   2.311   0.948   2.785  0.1378 -0.1869 -0.0999
 1091TIP3    H1 3279   2.360   0.969   2.865  1.2041 -0.4531 -0.6642
 1091TIP3    H2 3280   2.253   1.023   2.772 -0.1357 -0.1834  0.9733
 1092TIP3   OH2 3281   0.062   3.500   2.740 -0.4143  0.3384  0.1361
 1092TIP3    H1 3282   0.013   3.580   2.759 -1.0255  0.0888 -0.3734
 1092TIP3    H2 3283   0.029   3.471   2.655 -0.2497 -0.5009  0.3515
 1093TIP3   OH2 3284   3.370   1.041   4.680 -0.2508 -0.3590 -0.1307
 1093TIP3    H1 3285   3.408   1.118   4.637  1.0135 -1.6456 -1.4282
 1093TIP3    H2 3286   3.436   0.973   4.670 -1.9235 -2.0373 -0.3556
 1094TIP3   OH2 3287   4.627   0.849   1.261  0.5402 -0.0063  0.1918
 1094TIP3    H1 3288   4.618   0.755   1.243  0.2711  0.3374 -1.7009
 1094TIP3    H2 3289   4.718   0.860   1.288  0.1331 -1.0263  2.2224
 1095TIP3   OH2 3290   2.098   1.334   5.038  0.0514  0.1720  0.2534
 1095TIP3    H1 3291   2.118   1.333   5.132 -0.0778 -2.5620  0.3123
 1095TIP3    H2 3292   2.180   1.363   4.998  1.3522 -2.1957  1.0380
 1096TIP3   OH2 3293   0.996   0.351   5.058 -0.1460 -0.0451  0.2045
 1096TIP3    H1 3294   0.979   0.395   5.142  0.3235 -0.8190  0.7181
 1096TIP3    H2 3295   1.070   0.399   5.021 -1.6713  1.6556 -0.8024
 1097TIP3   OH2 3296   3.538   1.999   4.572 -0.2487  0.5189 -0.6068
 1097TIP3    H1 3297   3.623   2.026   4.608  0.4923 -0.9737 -1.1531
 1097TIP3    H2 3298   3.535   2.039   4.485 -0.8319  1.8672  0.0018
 1098TIP3   OH2 3299   2.493   2.618   1.089 -0.5703 -0.3652 -0.1468
 1098TIP3    H1 3300   2.496   2.550   1.156  0.3350  2.6055  3.1238
 1098TIP3    H2 3301   2.404   2.651   1.091 -0.7237 -0.7002 -0.9571
 1099TIP3   OH2 3302   0.336   2.664   3.645  0.1896  0.1455  0.1379
 1099TIP3    H1 3303   0.361   2.623   3.728 -0.1905  0.6295  0.4983
 1099TIP3    H2 3304   0.363   2.755   3.653  0.4356  0.1234 -0.3995
 1100TIP3   OH2 3305   2.726   0.930   1.188  0.1085 -0.2385  0.0644
 1100TIP3    H1 3306   2.820   0.916   1.204 -0.0866  0.2353  1.8824
 1100TIP3    H2 3307   2.688   0.939   1.275 -2.2041 -3.6782 -0.4068
 1101TIP3   OH2 3308   0.815   3.113   3.148  0.1029  0.3683  0.2213
 1101TIP3    H1 3309   0.755   3.174   3.105 -2.4513 -2.3624 -0.4144
 1101TIP3    H2 3310   0.768   3.083   3.226  1.1843 -0.9009  0.4384
 1102TIP3   OH2 3311   0.516   4.801   3.495  0.7364 -0.3561 -0.0798
 1102TIP3    H1 3312   0.530   4.738   3.566 -0.6860  0.1180  0.6525
 1102TIP3    H2 3313   0.532   4.886   3.535  2.1149 -0.1850 -0.9266
 1103TIP3   OH2 3314   4.814   3.860   1.720 -0.3480  0.4182 -0.0348
 1103TIP3    H1 3315   4.749   3.929   1.734 -1.5951 -0.5423 -0.9364
 1103TIP3    H2 3316   4.845   3.838   1.808 -2.3272 -0.1102  0.5879
 1104TIP3   OH2 3317   5.023   5.790   1.053 -0.3145 -0.5625  0.1750
 1104TIP3    H1 3318   5.090   5.803   1.120  2.1683  1.0383 -2.4034
 1104TIP3    H2 3319   5.041   5.858   0.987 -2.4424 -2.1237 -2.2099
 1105TIP3   OH2 3320   5.099   4.658   3.488  1.1738 -0.0745  0.6917
 1105TIP3    H1 3321   5.043   4.682   3.413  0.9544  0.2172  0.9461
 1105TIP3    H2 3322   5.168   4.604   3.450  0.3882 -0.9406  0.4530
 1106TIP3   OH2 3323   5.386   1.536   2.768 -0.0846 -0.2069  0.0707
 1106TIP3    H1 3324   5.329   1.546   2.844 -0.0852  2.9457 -0.1937
 1106TIP3    H2 3325   5.474   1.551   2.802  0.3486 -2.1726 -0.0375
 1107TIP3   OH2 3326   4.345   5.962   3.936  0.3375  0.5115  0.1096
 1107TIP3    H1 3327   4.422   5.914   3.906  0.2412  0.8164 -0.6514
 1107TIP3    H2 3328   4.315   6.009   3.858  0.7732  2.2793  0.9548
 1108TIP3   OH2 3329   3.603   3.131   2.862 -0.9035  0.0621  0.5007
 1108TIP3    H1 3330   3.510   3.154   2.867 -0.8894  0.5206 -0.8271
 1108TIP3    H2 3331   3.604   3.037   2.847 -1.1696  0.1219  0.1120
 1109TIP3   OH2 3332   2.932   0.452   1.691 -0.5775 -0.2743  0.1049
 1109TIP3    H1 3333   2.859   0.481   1.636 -1.0128 -0.3408  0.6334
 1109TIP3    H2 3334   3.000   0.426   1.629 -1.5429 -1.6156 -0.4626
 1110TIP3   OH2 3335   0.792   0.418   4.570  0.3913  0.1080  0.1912
 1110TIP3    H1 3336   0.783   0.341   4.627 -0.6371  1.3857  1.8544
 1110TIP3    H2 3337   0.734   0.399   4.496 -0.8437 -0.2165  1.1942
 1111TIP3   OH2 3338   3.625   5.241   3.681 -0.3570 -0.0862 -0.1708
 1111TIP3    H1 3339   3.547   5.296   3.693  0.6673  1.9387 -2.1180
 1111TIP3    H2 3340   3.590   5.153   3.668 -2.1348  0.2654  1.6148
 1112TIP3   OH2 3341   3.531   3.740   2.599  0.1853 -0.1564  0.0168
 1112TIP3    H1 3342   3.470   3.667   2.599 -0.5858  0.4437  1.4026
 1112TIP3    H2 3343   3.613   3.702   2.633 -0.3470 -0.3010  1.1941
 1113TIP3   OH2 3344   6.317   2.125   2.819  0.4099  0.2201 -0.0848
 1113TIP3    H1 3345   6.286   2.135   2.729 -2.4902 -1.0173  0.6604
 1113TIP3    H2 3346   6.378   2.198   2.831 -2.0703  2.8264 -1.8509
 1114TIP3   OH2 3347   3.155   4.396   0.483  0.1103 -0.1135  0.5286
 1114TIP3    H1 3348   3.095   4.435   0.546 -1.3165  0.0191 -0.8433
 1114TIP3    H2 3349   3.118   4.310   0.465  0.9993 -0.5038  0.5248
 1115TIP3   OH2 3350   3.198   5.056   2.123 -0.6285 -0.3796  0.4402
 1115TIP3    H1 3351   3.121   5.055   2.181 -0.4710 -0.4337  0.6509
 1115TIP3    H2 3352   3.170   5.104   2.046 -0.3874  1.0156  1.1956
 1116TIP3   OH2 3353   3.604   0.616   0.790  0.1866 -0.2896  0.3457
 1116TIP3    H1 3354   3.549   0.645   0.862 -0.6932 -1.4359  0.1707
 1116TIP3    H2 3355   3.589   0.681   0.721 -2.9017 -1.7813 -0.5780
 1117TIP3   OH2 3356   2.937   4.152   1.483 -0.1403  0.1479  0.1996
 1117TIP3    H1 3357   3.004   4.205   1.527  0.6100 -0.1663 -0.5448
 1117TIP3    H2 3358   2.897   4.211   1.419 -1.5021  0.7235  1.4974
 1118TIP3   OH2 3359   5.750   3.175   1.928  0.3866  0.0944 -0.2301
 1118TIP3    H1 3360   5.785   3.217   2.006 -0.4918 -0.6752  0.6020
 1118TIP3    H2 3361   5.655   3.178   1.940  0.1766  0.8912 -1.7667
 1119TIP3   OH2 3362   2.614   3.822   3.975  0.2867 -0.0302 -0.2534
 1119TIP3    H1 3363   2.526   3.791   3.952 -1.0205  3.1745 -0.0519
 1119TIP3    H2 3364   2.631   3.783   4.061 -1.5764  0.3822  0.3492
 1120TIP3   OH2 3365   1.969   2.760   3.230 -0.0409 -1.0027 -0.0513
 1120TIP3    H1 3366   1.917   2.695   3.277  0.4775 -1.2090  0.2538
 1120TIP3    H2 3367   2.057   2.721   3.226 -0.1644 -1.1696 -1.5442
 1121TIP3   OH2 3368   1.136   0.483   3.442  0.4019 -0.1963  0.1292
 1121TIP3    H1 3369   1.047   0.518   3.445 -0.1831 -1.6492  0.4244
 1121TIP3    H2 3370   1.125   0.388   3.433  1.8998 -0.5507  1.5260
 1122TIP3   OH2 3371   4.839   5.584   1.085 -0.0132 -0.1677 -0.5907
 1122TIP3    H1 3372   4.902   5.649   1.055  0.7388 -0.2956  0.6475
 1122TIP3    H2 3373   4.780   5.572   1.011  0.2517  1.3965 -1.0871
 1123TIP3   OH2 3374   2.183   0.897   4.257 -0.8406 -0.2642 -0.7973
 1123TIP3    H1 3375   2.115   0.956   4.223  0.6551  0.1471 -3.3498
 1123TIP3    H2 3376   2.146   0.862   4.338 -2.3825  3.0984  0.1360
 1124TIP3   OH2 3377   2.394   4.088   4.970 -0.2948  0.3933 -0.4387
 1124TIP3    H1 3378   2.328   4.057   5.033 -0.0434  1.9893  0.6438
 1124TIP3    H2 3379   2.365   4.176   4.946  0.6678  0.5388 -1.1028
 1125TIP3   OH2 3380   3.633   4.095   0.359 -0.4695 -0.0720  0.1814
 1125TIP3    H1 3381   3.603   4.183   0.336 -0.6575 -0.3517 -0.6582
 1125TIP3    H2 3382   3.636   4.095   0.455 -0.1563  0.9473  0.1748
 1126TIP3   OH2 3383   5.836   3.676   0.596  0.1523 -0.2529  0.0263
 1126TIP3    H1 3384   5.930   3.664   0.603  0.1034  0.3240  2.1161
 1126TIP3    H2 3385   5.806   3.600   0.545  1.5060 -1.5606  1.0924
 1127TIP3   OH2 3386   3.020   2.706   2.072 -0.0561  0.2771  0.1500
 1127TIP3    H1 3387   2.972   2.670   2.146 -0.9740 -1.8640 -1.3682
 1127TIP3    H2 3388   2.958   2.765   2.030  0.1223  0.7342  0.5224
 1128TIP3   OH2 3389   1.898   0.006   5.077  0.8113  0.7869 -0.1505
 1128TIP3    H1 3390   1.955  -0.020   5.150 -1.2095  0.1461  1.3025
 1128TIP3    H2 3391   1.815   0.027   5.119 -0.0977  1.5051 -2.2071
 1129TIP3   OH2 3392   2.345   5.049   4.787  0.1340 -0.0615 -0.1739
 1129TIP3    H1 3393   2.258   5.048   4.748 -0.2093 -0.9793  0.5634
 1129TIP3    H2 3394   2.401   5.088   4.720 -0.7389 -0.0036 -0.8899
 1130TIP3   OH2 3395   2.630   5.112   1.685 -0.2383 -0.5705  0.0204
 1130TIP3    H1 3396   2.611   5.029   1.728 -0.1761 -0.7358 -0.2671
 1130TIP3    H2 3397   2.700   5.091   1.623 -2.7346 -1.1643 -2.7966
 1131TIP3   OH2 3398   2.423   2.734   1.778 -0.5149  0.3036  0.1824
 1131TIP3    H1 3399   2.411   2.754   1.685 -0.1338 -0.0266  0.0599
 1131TIP3    H2 3400   2.469   2.650   1.779 -0.5720  0.2741  0.6714
 1132TIP3   OH2 3401   4.566   1.259   1.107 -0.4624  0.5231 -0.1043
 1132TIP3    H1 3402   4.524   1.173   1.121 -1.0356  0.6807 -0.8077
 1132TIP3    H2 3403   4.499   1.322   1.135 -0.4873  0.7627 -0.6862
 1133TIP3   OH2 3404   2.772   4.849   4.256 -0.0637 -0.4306  0.4936
 1133TIP3    H1 3405   2.719   4.811   4.326 -0.1930 -0.9321  0.1298
 1133TIP3    H2 3406   2.713   4.854   4.181  0.5210 -1.4270 -0.0541
 1134TIP3   OH2 3407   3.330   4.595   1.654  0.3032 -0.0882  0.3757
 1134TIP3    H1 3408   3.374   4.657   1.596  0.5403  0.1986  0.8557
 1134TIP3    H2 3409   3.392   4.523   1.665 -0.7944 -1.5450 -1.9546
 1135TIP3   OH2 3410   2.438   5.558   4.965 -0.0115 -0.1911  0.0735
 1135TIP3    H1 3411   2.365   5.588   4.910 -0.0527  0.1416  0.3018
 1135TIP3    H2 3412   2.434   5.463   4.961 -0.3055 -0.1728 -0.1165
 1136TIP3   OH2 3413   1.295   1.192   3.248  0.3531  0.6096  0.0935
 1136TIP3    H1 3414   1.276   1.144   3.329  0.7893 -1.3630 -0.9236
 1136TIP3    H2 3415   1.228   1.163   3.186 -0.5950  2.8480 -0.0442
 1137TIP3   OH2 3416   3.708   0.313   3.446  0.8119  0.2622  0.0095
 1137TIP3    H1 3417   3.737   0.382   3.506  1.0189  0.7456 -0.6383
 1137TIP3    H2 3418   3.650   0.358   3.385 -1.2616 -0.6461  1.1976
 1138TIP3   OH2 3419   4.179   3.135   3.120  0.1959  0.0028 -0.0431
 1138TIP3    H1 3420   4.121   3.163   3.050 -0.7669 -0.3294  0.5975
 1138TIP3    H2 3421   4.128   3.069   3.168  0.0591  1.5717  2.1196
 1139TIP3   OH2 3422   2.632   1.549   4.189  0.3668 -0.1034  0.5882
 1139TIP3    H1 3423   2.717   1.537   4.146  1.1366  1.4858  1.5701
 1139TIP3    H2 3424   2.595   1.460   4.194  1.0211 -0.5628 -1.6858
 1140TIP3   OH2 3425   5.221   4.043   4.444 -0.2802  0.0616  0.1915
 1140TIP3    H1 3426   5.257   3.983   4.379 -0.7336  0.8022 -0.7684
 1140TIP3    H2 3427   5.150   4.089   4.399 -1.8155 -0.6670  1.7391
 1141TIP3   OH2 3428   1.097   4.009   4.942 -0.5291 -0.5096 -0.1435
 1141TIP3    H1 3429   1.154   4.086   4.937  0.6717 -1.3475  0.1725
 1141TIP3    H2 3430   1.010   4.041   4.916  0.2882  0.5996 -1.6925
 1142TIP3   OH2 3431   5.827   3.020   3.997 -0.2085  0.3610  0.1168
 1142TIP3    H1 3432   5.897   3.024   4.062 -0.2988 -1.6512  0.4005
 1142TIP3    H2 3433   5.872   3.023   3.913  0.3918 -1.9665  0.2799
 1143TIP3   OH2 3434   2.990   3.724   1.674  0.1555  0.3576 -0.0105
 1143TIP3    H1 3435   2.934   3.693   1.603 -1.5946  1.2438  0.9111
 1143TIP3    H2 3436   3.042   3.648   1.699 -0.8629 -0.5974 -0.7099
 1144TIP3   OH2 3437   1.602   1.862   0.782  0.0284  0.1737 -0.5147
 1144TIP3    H1 3438   1.639   1.844   0.869 -1.0439 -1.9311 -0.4185
 1144TIP3    H2 3439   1.678   1.883   0.728  0.9264 -0.2481  0.5222
 1145TIP3   OH2 3440   5.267   3.463   4.661 -0.4405 -0.0264  0.1033
 1145TIP3    H1 3441   5.195   3.442   4.603 -1.1749  0.0468  0.9639
 1145TIP3    H2 3442   5.342   3.415   4.626 -0.3665  1.5179 -2.0024
 1146TIP3   OH2 3443   5.491   0.803   3.037 -0.4410 -0.2251  0.1662
 1146TIP3    H1 3444   5.527   0.787   2.950 -0.4511  0.4164  0.0387
 1146TIP3    H2 3445   5.422   0.868   3.024 -1.3679 -1.1094  0.4706
 1147TIP3   OH2 3446   3.777   5.914   1.442  0.1627  0.5560 -0.0171
 1147TIP3    H1 3447   3.689   5.923   1.478 -0.8418 -3.3124 -1.0204
 1147TIP3    H2 3448   3.834   5.918   1.519 -1.0380  1.3864  0.8796
 1148TIP3   OH2 3449   2.197   4.110   0.260  0.5316  0.1438  0.5026
 1148TIP3    H1 3450   2.106   4.112   0.292  0.9149  1.0014  1.5847
 1148TIP3    H2 3451   2.226   4.021   0.277 -0.6377 -0.6838 -1.4722
 1149TIP3   OH2 3452   3.672   3.218   4.093 -0.2487  0.1903  0.0947
 1149TIP3    H1 3453   3.734   3.160   4.137 -0.0532  0.8537  0.7045
 1149TIP3    H2 3454   3.632   3.163   4.025  0.3518 -0.4904  0.2824
 1150TIP3   OH2 3455   2.040   5.859   0.053 -0.0693  0.4312  0.1720
 1150TIP3    H1 3456   2.080   5.945   0.037  0.1246  0.2225 -0.5008
 1150TIP3    H2 3457   2.112   5.797   0.045 -0.4291  0.0983 -0.5564
 1151TIP3   OH2 3458   5.406   0.419   1.351  0.2209  0.0385  0.1579
 1151TIP3    H1 3459   5.382   0.505   1.385 -0.1325  0.7045 -1.6429
 1151TIP3    H2 3460   5.331   0.363   1.372  0.0287  0.4125  0.4869
 1152TIP3   OH2 3461   4.412   1.962   3.967  0.0680  0.3705 -0.3265
 1152TIP3    H1 3462   4.448   1.920   4.045 -0.1226  0.2544 -0.2999
 1152TIP3    H2 3463   4.449   2.050   3.968 -2.2225  1.4101  1.5359
 1153TIP3   OH2 3464   0.774   1.611   2.153 -0.1645 -0.0851  0.0161
 1153TIP3    H1 3465   0.707   1.656   2.205 -0.3946  1.6522 -1.6747
 1153TIP3    H2 3466   0.758   1.517   2.169 -1.3401  0.3491  1.6283
 1154TIP3   OH2 3467   4.500   3.037   2.362 -0.0073  0.4022 -0.2509
 1154TIP3    H1 3468   4.544   3.101   2.306 -0.4701  0.2772 -0.7564
 1154TIP3    H2 3469   4.502   3.077   2.449 -1.0178  1.4928 -0.6954
 1155TIP3   OH2 3470   4.324   5.927   2.742 -0.0931 -0.1149  0.1050
 1155TIP3    H1 3471   4.345   5.984   2.816  0.4652 -0.3852  0.1635
 1155TIP3    H2 3472   4.254   5.870   2.776 -0.7149  0.5847  0.0135
 1156TIP3   OH2 3473   3.622   4.655   1.409 -0.2081  0.5966  0.1184
 1156TIP3    H1 3474   3.595   4.596   1.480  0.9078 -0.4852 -0.3049
 1156TIP3    H2 3475   3.686   4.713   1.449 -0.8967  1.1612  0.4073
 1157TIP3   OH2 3476   6.308   3.011   1.589  0.0653 -0.1554 -0.0747
 1157TIP3    H1 3477   6.234   2.965   1.627 -0.0826  0.1010 -0.0509
 1157TIP3    H2 3478   6.384   2.959   1.613 -0.2301 -1.2127 -1.3220
 1158TIP3   OH2 3479   4.436   2.677   0.670  0.1769  0.0231 -0.8173
 1158TIP3    H1 3480   4.421   2.621   0.594  0.0520  1.0866 -1.5909
 1158TIP3    H2 3481   4.467   2.617   0.738  0.6549 -0.8884 -1.8132
 1159TIP3   OH2 3482   2.957   0.820   4.393  0.0606  0.0925  0.3156
 1159TIP3    H1 3483   2.941   0.728   4.370  0.0994 -0.1439  1.2031
 1159TIP3    H2 3484   2.882   0.866   4.357 -0.3057 -0.3871  0.4461
 1160TIP3   OH2 3485   4.008   4.353   0.242 -0.1352 -0.1734 -0.2904
 1160TIP3    H1 3486   3.959   4.314   0.170 -0.0099  0.3077 -0.6369
 1160TIP3    H2 3487   4.050   4.430   0.204  2.4069 -1.5669 -0.4951
 1161TIP3   OH2 3488   0.501   4.192   4.400 -0.2678  0.3609 -0.0645
 1161TIP3    H1 3489   0.456   4.200   4.316 -0.5412  0.4559  0.0897
 1161TIP3    H2 3490   0.525   4.282   4.423 -1.8208  0.5725  0.8399
 1162TIP3   OH2 3491   4.998   4.537   1.644 -0.4460 -0.3717  0.3101
 1162TIP3    H1 3492   5.042   4.455   1.666 -0.1226 -0.5546 -0.9474
 1162TIP3    H2 3493   5.017   4.550   1.551 -0.2303  1.2859  0.5527
 1163TIP3   OH2 3494   3.714   1.875   0.623 -0.4742 -0.2647 -0.3825
 1163TIP3    H1 3495   3.711   1.831   0.539 -1.7094  0.1156 -0.5450
 1163TIP3    H2 3496   3.806   1.903   0.632 -0.2846 -0.5124 -1.4737
 1164TIP3   OH2 3497   6.117   5.861   3.461 -0.0945  0.7192 -0.0543
 1164TIP3    H1 3498   6.099   5.817   3.544  1.8979  1.6482  0.9353
 1164TIP3    H2 3499   6.098   5.795   3.394 -2.1976  0.1036  1.0593
 1165TIP3   OH2 3500   3.884   4.870   1.537  0.4637 -0.0004 -0.0250
 1165TIP3    H1 3501   3.905   4.945   1.592  1.5508 -0.5896  0.3987
 1165TIP3    H2 3502   3.936   4.883   1.458 -0.8009  0.6456 -0.7877
 1166TIP3   OH2 3503   2.524   2.355   4.699 -0.0021 -0.3905 -0.1740
 1166TIP3    H1 3504   2.456   2.331   4.763 -2.3805  1.6507 -1.7519
 1166TIP3    H2 3505   2.603   2.368   4.751 -1.4145 -0.4899  2.1141
 1167TIP3   OH2 3506   0.384   0.886   0.333 -0.4194  0.5497 -0.2001
 1167TIP3    H1 3507   0.384   0.926   0.246 -0.8815 -0.0432 -0.4835
 1167TIP3    H2 3508   0.291   0.868   0.351 -0.4463  1.6834  0.8987
 1168TIP3   OH2 3509   3.976   3.269   4.581  0.3509  0.2134  0.0128
 1168TIP3    H1 3510   3.906   3.244   4.521  0.2661 -0.3242  0.3232
 1168TIP3    H2 3511   4.041   3.199   4.572  0.6134  0.4441  0.1020
 1169TIP3   OH2 3512   4.986   5.223   1.982 -0.3538  0.0982 -0.1491
 1169TIP3    H1 3513   4.913   5.253   1.927 -2.0237 -1.0417  1.3441
 1169TIP3    H2 3514   5.015   5.142   1.939 -0.3109  0.2705 -0.4515
 1170TIP3   OH2 3515   0.498   5.788   3.653  0.1541 -0.2734 -0.2687
 1170TIP3    H1 3516   0.522   5.761   3.742  0.4225 -2.3281 -0.9168
 1170TIP3    H2 3517   0.578   5.779   3.602 -0.0405  0.7273 -0.7783
 1171TIP3   OH2 3518   6.070   3.410   4.001 -0.6315  0.0251  0.3468
 1171TIP3    H1 3519   6.100   3.500   3.987 -1.6148  0.0156 -2.7253
 1171TIP3    H2 3520   6.147   3.356   3.982 -1.0029  0.1845 -1.9693
 1172TIP3   OH2 3521   3.790   5.713   5.063 -0.4890  0.2131 -0.4240
 1172TIP3    H1 3522   3.801   5.767   4.985 -0.9515  0.8151 -0.0886
 1172TIP3    H2 3523   3.698   5.685   5.059 -0.4622  0.0943 -0.1922
 1173TIP3   OH2 3524   5.891   4.866   2.900 -0.3454  0.0665 -0.1726
 1173TIP3    H1 3525   5.803   4.860   2.937  0.6038 -1.1071  2.0732
 1173TIP3    H2 3526   5.885   4.819   2.816 -1.4675 -1.6771  0.8200
 1174TIP3   OH2 3527   0.692   1.997   0.301  0.3891 -0.5478  0.3675
 1174TIP3    H1 3528   0.757   1.981   0.369 -0.0237 -2.6179  0.3190
 1174TIP3    H2 3529   0.608   1.975   0.342 -0.3688  2.0488  0.4240
 1175TIP3   OH2 3530   0.895   0.713   0.474  0.8816  0.0815 -0.2507
 1175TIP3    H1 3531   0.847   0.769   0.414  1.6560  0.1385 -0.8243
 1175TIP3    H2 3532   0.961   0.770   0.514 -0.3624  0.3509  1.5791
 1176TIP3   OH2 3533   3.626   3.909   0.873  0.0979  0.2770 -0.0388
 1176TIP3    H1 3534   3.647   3.943   0.960 -0.1616 -1.2077  0.6545
 1176TIP3    H2 3535   3.530   3.908   0.870  0.0922 -0.4103  0.0014
 1177TIP3   OH2 3536   1.650   0.287   3.166  0.3433 -0.2262 -0.3766
 1177TIP3    H1 3537   1.670   0.208   3.218  1.0017 -0.7536 -1.4017
 1177TIP3    H2 3538   1.688   0.269   3.080 -1.1041  0.4563 -1.1832
 1178TIP3   OH2 3539   1.455   2.927   0.292  0.4911  0.5839  0.3143
 1178TIP3    H1 3540   1.508   2.983   0.235  1.0094  1.3564  1.5068
 1178TIP3    H2 3541   1.443   2.978   0.372  1.7782 -1.3080  1.8414
 1179TIP3   OH2 3542   3.045   2.079   4.909  0.4047  0.3487  0.0609
 1179TIP3    H1 3543   2.967   2.054   4.860  0.8567  0.1270 -0.5565
 1179TIP3    H2 3544   3.056   2.172   4.891  0.7425  0.2018 -0.5125
 1180TIP3   OH2 3545   4.478   5.948   0.261 -0.3405 -0.2200  0.2316
 1180TIP3    H1 3546   4.509   6.004   0.332  1.4445 -1.4952  0.5318
 1180TIP3    H2 3547   4.436   5.874   0.305  0.4705 -0.8463 -0.0155
 1181TIP3   OH2 3548   0.986   4.922   3.971 -0.3690 -0.1602 -1.1112
 1181TIP3    H1 3549   1.025   5.003   4.005 -1.2106  0.2953 -1.2047
 1181TIP3    H2 3550   0.893   4.930   3.991 -0.2972 -1.6595 -0.0641
 1182TIP3   OH2 3551   3.682   1.241   3.375 -0.0109  0.0334  0.2771
 1182TIP3    H1 3552   3.632   1.192   3.440  1.9294 -1.8396  0.4769
 1182TIP3    H2 3553   3.698   1.326   3.416 -1.1040 -0.1338  1.0955
 1183TIP3   OH2 3554   0.158   5.186   3.985 -0.2128 -0.4649  0.1973
 1183TIP3    H1 3555   0.068   5.213   4.003  1.0444  2.8911  2.6212
 1183TIP3    H2 3556   0.176   5.218   3.896 -0.6138  1.5681  0.8032
 1184TIP3   OH2 3557   0.156   0.467   2.527 -0.3569  0.7128  0.0282
 1184TIP3    H1 3558   0.091   0.483   2.458 -0.9458  1.5836  0.7567
 1184TIP3    H2 3559   0.166   0.551   2.570  2.1310  0.8903 -0.7644
 1185TIP3   OH2 3560   6.310   5.572   0.286 -0.0462 -0.5423  0.0470
 1185TIP3    H1 3561   6.391   5.578   0.236  0.6384  0.4413  1.2158
 1185TIP3    H2 3562   6.299   5.479   0.303  1.3349 -0.6190  0.6322
 1186TIP3   OH2 3563   3.571   2.103   0.375  0.4382  0.6827 -0.0643
 1186TIP3    H1 3564   3.483   2.139   0.380 -0.4295 -1.2753 -0.0791
 1186TIP3    H2 3565   3.559   2.015   0.340  2.3814  0.2729  0.1535
 1187TIP3   OH2 3566   4.429   3.951   3.600  0.0036  0.0248  0.4762
 1187TIP3    H1 3567   4.459   4.042   3.602 -1.1313  0.4448 -0.3971
 1187TIP3    H2 3568   4.382   3.943   3.517 -2.6209 -0.4703  1.9035
 1188TIP3   OH2 3569   2.078   3.253   2.412  0.0888  0.1309 -0.5818
 1188TIP3    H1 3570   2.052   3.173   2.366  0.0813  0.4902 -1.2171
 1188TIP3    H2 3571   2.156   3.283   2.366 -0.4403  0.9939 -0.9584
 1189TIP3   OH2 3572   1.249   2.972   1.120 -0.5271 -0.1211  0.0049
 1189TIP3    H1 3573   1.301   2.950   1.042 -0.3429  0.8769 -0.1683
 1189TIP3    H2 3574   1.174   3.021   1.086 -1.2680 -0.9959  0.3199
 1190TIP3   OH2 3575   3.518   4.324   4.837 -0.2087 -0.2212  0.3085
 1190TIP3    H1 3576   3.440   4.375   4.860  1.1966  2.0611  0.3952
 1190TIP3    H2 3577   3.588   4.366   4.887  1.1998 -1.7524 -0.3158
 1191TIP3   OH2 3578   1.932   3.459   1.163  0.0175 -0.4290 -0.1400
 1191TIP3    H1 3579   1.861   3.402   1.193  0.2430 -0.8681 -0.4314
 1191TIP3    H2 3580   2.003   3.444   1.226 -0.2237  0.1887  0.2911
 1192TIP3   OH2 3581   2.537   4.735   5.155 -0.3423  0.5104  0.1882
 1192TIP3    H1 3582   2.551   4.667   5.221  0.4202  0.7507  0.2791
 1192TIP3    H2 3583   2.581   4.813   5.190 -0.3716  0.7813 -0.3608
 1193TIP3   OH2 3584   4.143   5.038   5.032  0.4847 -0.0681  0.2002
 1193TIP3    H1 3585   4.222   4.994   5.001 -0.8965 -0.9504 -2.4991
 1193TIP3    H2 3586   4.081   4.966   5.048 -1.2618  0.6174 -2.6123
 1194TIP3   OH2 3587   0.862   1.885   2.369 -0.1480  0.1128  0.2378
 1194TIP3    H1 3588   0.932   1.897   2.305 -1.2002  0.4389 -0.8894
 1194TIP3    H2 3589   0.879   1.799   2.407  0.1636 -0.3589 -0.9223
 1195TIP3   OH2 3590   4.363   5.059   2.145  0.7248 -0.2299 -0.3188
 1195TIP3    H1 3591   4.427   5.124   2.115  1.3670 -0.9267 -0.4875
 1195TIP3    H2 3592   4.389   4.978   2.102 -0.6767 -0.3906 -0.9241
 1196TIP3   OH2 3593   1.234   5.232   4.556 -0.1768 -0.1506 -0.2491
 1196TIP3    H1 3594   1.264   5.162   4.497  0.6867 -0.6717  0.7788
 1196TIP3    H2 3595   1.143   5.208   4.576  0.1204 -1.0142  0.1224
 1197TIP3   OH2 3596   1.484   2.512   4.777 -0.4474  0.3158 -0.5284
 1197TIP3    H1 3597   1.566   2.504   4.825 -0.2566 -2.6870 -1.2003
 1197TIP3    H2 3598   1.488   2.600   4.737  2.3916  0.2798 -0.4924
 1198TIP3   OH2 3599   2.914   0.235   0.320 -0.0162  0.3006  0.8537
 1198TIP3    H1 3600   2.869   0.152   0.305  0.2515  0.0466  1.4385
 1198TIP3    H2 3601   2.985   0.235   0.256  0.1231 -0.0264  1.0051
 1199TIP3   OH2 3602   4.336   2.430   3.245  0.4938 -0.4364 -0.3671
 1199TIP3    H1 3603   4.331   2.511   3.194  1.7657  0.0889  0.3115
 1199TIP3    H2 3604   4.368   2.365   3.183 -0.0049 -0.3018 -0.7749
 1200TIP3   OH2 3605   4.800   1.856   1.806  0.0134  0.5184 -0.2367
 1200TIP3    H1 3606   4.837   1.771   1.828 -0.5647  0.6351  1.2803
 1200TIP3    H2 3607   4.724   1.836   1.750 -1.4074 -0.1400  1.8298
 1201TIP3   OH2 3608   1.848   1.600   1.617 -0.2125 -0.4285  0.3689
 1201TIP3    H1 3609   1.943   1.601   1.632  0.0985  0.0590 -1.3605
 1201TIP3    H2 3610   1.821   1.691   1.626 -0.0137 -0.1120 -1.6578
 1202TIP3   OH2 3611   1.494   5.939   5.140 -0.2922  0.4984  0.1387
 1202TIP3    H1 3612   1.561   5.887   5.095 -0.5349  0.7535 -0.5357
 1202TIP3    H2 3613   1.456   5.993   5.071 -0.3759  1.2214  0.7433
 1203TIP3   OH2 3614   0.585   5.780   3.135 -0.6511  0.2562  0.1894
 1203TIP3    H1 3615   0.551   5.864   3.103  0.1595  0.0739 -1.2443
 1203TIP3    H2 3616   0.523   5.754   3.203 -0.6920  2.2047  0.9815
 1204TIP3   OH2 3617   4.157   1.652   2.111 -0.1310  0.7618 -0.2888
 1204TIP3    H1 3618   4.164   1.614   2.023 -0.3156  0.5393 -0.2085
 1204TIP3    H2 3619   4.063   1.664   2.124 -0.0166  3.3753 -1.2077
 1205TIP3   OH2 3620   5.476   0.162   4.608 -0.3433 -0.0525  0.2513
 1205TIP3    H1 3621   5.567   0.142   4.630  0.3970  1.9336 -0.6927
 1205TIP3    H2 3622   5.462   0.119   4.523 -0.2969 -0.3586  0.3971
 1206TIP3   OH2 3623   4.796   0.224   4.872 -0.0167 -0.1065  0.7343
 1206TIP3    H1 3624   4.737   0.293   4.904 -1.3054 -0.1742 -1.3197
 1206TIP3    H2 3625   4.844   0.196   4.950 -0.7898  1.8093  1.9815
 1207TIP3   OH2 3626   4.194   3.855   5.072  0.3168 -0.1027  0.4757
 1207TIP3    H1 3627   4.224   3.776   5.027  0.2002  0.3555 -0.4369
 1207TIP3    H2 3628   4.099   3.844   5.077  0.2217  0.2674 -0.2640
 1208TIP3   OH2 3629   3.475   2.595   1.267 -0.4343 -0.5108  0.3526
 1208TIP3    H1 3630   3.415   2.642   1.209 -0.2582 -0.9754 -0.2145
 1208TIP3    H2 3631   3.548   2.656   1.279 -0.1451 -0.6713 -0.4882
 1209TIP3   OH2 3632   0.411   1.354   4.233  0.9098  0.3064  0.0056
 1209TIP3    H1 3633   0.429   1.291   4.164 -0.7870  1.4408 -1.5855
 1209TIP3    H2 3634   0.347   1.311   4.289 -0.3471  0.5906 -1.1545
 1210TIP3   OH2 3635   4.388   3.016   3.290  0.3496  0.0151  0.1683
 1210TIP3    H1 3636   4.392   3.083   3.358  4.8139  0.3310 -0.1207
 1210TIP3    H2 3637   4.341   2.943   3.330  0.0502  1.3698  2.4235
 1211TIP3   OH2 3638   4.429   4.913   3.165  0.6381  0.4641  0.0255
 1211TIP3    H1 3639   4.433   4.998   3.122  0.2468  1.1443  1.2861
 1211TIP3    H2 3640   4.353   4.870   3.126 -0.2472  1.4297  0.6338
 1212TIP3   OH2 3641   4.223   3.639   0.745 -0.1623 -0.8097 -0.0049
 1212TIP3    H1 3642   4.187   3.657   0.658 -0.5821 -2.3900 -0.1791
 1212TIP3    H2 3643   4.199   3.549   0.763  1.1290 -0.9518  1.1704
 1213TIP3   OH2 3644   4.304   1.381   2.285 -0.3389 -0.6150  0.1184
 1213TIP3    H1 3645   4.322   1.471   2.258  1.3824 -0.6765  0.9228
 1213TIP3    H2 3646   4.281   1.388   2.377 -0.9297 -0.9457  0.0013
 1214TIP3   OH2 3647   1.106   5.226   0.328  0.1400  0.0622 -0.0519
 1214TIP3    H1 3648   1.043   5.266   0.388 -0.7321  1.4962 -1.8349
 1214TIP3    H2 3649   1.151   5.300   0.287  2.4130 -0.9166  0.5156
 1215TIP3   OH2 3650   2.176   2.944   4.037  0.0549  0.0206 -0.3111
 1215TIP3    H1 3651   2.185   3.010   3.968 -0.4381  0.5941  0.1554
 1215TIP3    H2 3652   2.082   2.939   4.052  0.2400  1.5821  1.8673
 1216TIP3   OH2 3653   0.171   3.898   1.210 -0.1781 -0.6360 -0.1803
 1216TIP3    H1 3654   0.171   3.994   1.213 -1.0273 -0.6452  1.8020
 1216TIP3    H2 3655   0.113   3.877   1.137  1.2835  0.3230 -1.6825
 1217TIP3   OH2 3656   2.076   0.274   2.295 -0.0051  0.1329 -0.3434
 1217TIP3    H1 3657   2.043   0.202   2.240  0.1135  0.0409 -0.2941
 1217TIP3    H2 3658   2.117   0.230   2.369 -1.9509  0.2680  0.8800
 1218TIP3   OH2 3659   1.242   0.418   4.943  0.4429 -0.4938  0.9466
 1218TIP3    H1 3660   1.273   0.489   4.887 -0.6950 -1.0618 -0.4570
 1218TIP3    H2 3661   1.279   0.339   4.906 -1.2399 -0.9985  0.2570
 1219TIP3   OH2 3662   2.155   1.803   0.444 -1.1491 -0.2190 -0.5279
 1219TIP3    H1 3663   2.248   1.823   0.455 -0.9880  0.2721 -2.4325
 1219TIP3    H2 3664   2.125   1.864   0.376 -2.8503 -0.4066  0.0102
 1220TIP3   OH2 3665   5.092   5.015   2.751 -0.5121 -0.3749 -0.6620
 1220TIP3    H1 3666   5.080   5.078   2.681 -1.7600  0.3946  0.2113
 1220TIP3    H2 3667   5.020   5.031   2.812  2.3214  1.4375  2.6473
 1221TIP3   OH2 3668   4.808   2.447   5.150  0.2020  0.7886  0.0075
 1221TIP3    H1 3669   4.764   2.391   5.086  0.1445  2.0208 -1.0646
 1221TIP3    H2 3670   4.891   2.402   5.168 -0.9172 -0.9644  1.1778
 1222TIP3   OH2 3671   5.026   5.002   1.839  0.3285  0.1875  0.0067
 1222TIP3    H1 3672   4.983   4.966   1.762  2.0625  0.2394 -1.0527
 1222TIP3    H2 3673   5.109   4.953   1.845 -0.1428 -0.4663  2.3923
 1223TIP3   OH2 3674   4.190   3.977   0.064 -0.6187 -0.0901 -0.0809
 1223TIP3    H1 3675   4.219   4.042  -0.000  2.5066 -1.5579 -0.3159
 1223TIP3    H2 3676   4.171   4.029   0.143  0.2116  1.2720 -0.7353
 1224TIP3   OH2 3677   2.879   2.876   1.903 -0.0615  0.1054 -0.1801
 1224TIP3    H1 3678   2.865   2.902   1.812 -0.8772  1.0809  0.2065
 1224TIP3    H2 3679   2.836   2.944   1.954  1.1909  0.0721  0.9715
 1225TIP3   OH2 3680   2.247   0.036   0.315  0.9016  0.0259 -0.1871
 1225TIP3    H1 3681   2.309  -0.029   0.349  0.1111 -0.5811  0.1110
 1225TIP3    H2 3682   2.232   0.095   0.388  1.7994  0.7053 -0.5270
 1226TIP3   OH2 3683   2.262   5.009   4.068  0.0576 -0.0911  0.4402
 1226TIP3    H1 3684   2.335   4.947   4.076  0.3815  0.0717 -0.9551
 1226TIP3    H2 3685   2.200   4.966   4.009  0.1220  0.7435 -0.2553
 1227TIP3   OH2 3686   3.580   3.764   1.733 -0.2843 -0.2109 -0.0128
 1227TIP3    H1 3687   3.614   3.681   1.698  2.4403  0.0553  1.6918
 1227TIP3    H2 3688   3.486   3.752   1.738 -0.0487 -2.8430 -0.7569
 1228TIP3   OH2 3689   1.327   3.470   4.406  0.4382 -0.4427  0.2060
 1228TIP3    H1 3690   1.320   3.442   4.315  1.9380 -0.4887  0.0725
 1228TIP3    H2 3691   1.301   3.562   4.404  1.6966 -0.0626 -0.5475
 1229TIP3   OH2 3692   5.043   1.447   2.258 -0.0708 -0.5796 -0.1424
 1229TIP3    H1 3693   5.060   1.486   2.343 -1.5983 -0.0474 -0.0535
 1229TIP3    H2 3694   4.986   1.373   2.276 -1.5215  0.3367 -0.7899
 1230TIP3   OH2 3695   2.155   5.040   4.350 -0.4965 -0.0891 -0.3098
 1230TIP3    H1 3696   2.240   5.000   4.366 -0.1325 -0.2481 -2.3258
 1230TIP3    H2 3697   2.147   5.041   4.255 -2.0497  1.4007 -0.2128
 1231TIP3   OH2 3698   2.240   5.137   0.351 -0.6348 -0.6392 -0.0948
 1231TIP3    H1 3699   2.152   5.107   0.328 -1.0265 -0.3982  1.0182
 1231TIP3    H2 3700   2.259   5.093   0.433 -0.9317  1.5284  1.2175
 1232TIP3   OH2 3701   2.432   1.225   5.069 -0.4700 -0.0914 -0.2150
 1232TIP3    H1 3702   2.515   1.202   5.111  1.6292  2.7972 -2.3824
 1232TIP3    H2 3703   2.379   1.261   5.140  0.3447 -1.3760  1.1055
 1233TIP3   OH2 3704   6.084   3.251   2.253  0.0309 -0.5819  0.2850
 1233TIP3    H1 3705   6.125   3.333   2.282  1.5837 -0.1651 -2.6017
 1233TIP3    H2 3706   6.144   3.183   2.282  0.9253 -0.2792 -0.7616
 1234TIP3   OH2 3707   1.306   0.694   0.926  0.2843 -0.3627 -0.0631
 1234TIP3    H1 3708   1.330   0.665   0.838 -2.7760 -1.7494 -0.5853
 1234TIP3    H2 3709   1.291   0.613   0.975  0.8654  0.3982  1.4185
 1235TIP3   OH2 3710   1.917   2.666   2.243 -0.5469  0.4399  0.0007
 1235TIP3    H1 3711   2.006   2.651   2.275 -0.9640 -2.4917  0.0590
 1235TIP3    H2 3712   1.914   2.624   2.158 -1.6398  1.3812 -0.4594
 1236TIP3   OH2 3713   5.623  -0.009   1.497  0.0634 -0.4798  0.2235
 1236TIP3    H1 3714   5.624   0.081   1.530  1.6111 -1.1423  2.2227
 1236TIP3    H2 3715   5.542  -0.015   1.446  0.8849  2.5953 -1.7456
 1237TIP3   OH2 3716   4.707   2.228   1.759  0.1926 -0.5901 -0.2597
 1237TIP3    H1 3717   4.678   2.137   1.750 -1.5053 -0.0194 -1.0331
 1237TIP3    H2 3718   4.631   2.279   1.731 -0.4448  1.1915  3.9307
 1238TIP3   OH2 3719   1.032   1.958   2.920 -0.1298 -0.0146  0.3415
 1238TIP3    H1 3720   1.029   1.898   2.994  1.8291  0.6251  0.9945
 1238TIP3    H2 3721   0.945   1.997   2.917 -1.8648 -3.5626 -0.7525
 1239TIP3   OH2 3722   4.268   2.304   4.473 -0.1046  0.4079 -0.1084
 1239TIP3    H1 3723   4.186   2.336   4.511 -0.5739  3.0800 -2.9628
 1239TIP3    H2 3724   4.241   2.260   4.392  1.2426  1.3394 -1.0944
 1240TIP3   OH2 3725   1.168   2.378   2.913  0.5205  0.4506  0.2689
 1240TIP3    H1 3726   1.209   2.382   3.000  0.4291 -1.5730  0.4668
 1240TIP3    H2 3727   1.241   2.373   2.852  0.5755  0.7443  0.3075
 1241TIP3   OH2 3728   1.773   2.186   2.674  0.4597 -0.0853  0.3583
 1241TIP3    H1 3729   1.719   2.126   2.623  1.7344 -1.0882  0.1373
 1241TIP3    H2 3730   1.710   2.232   2.730 -0.4973 -2.3407  1.2865
 1242TIP3   OH2 3731   4.982   0.816   4.651  0.1534  0.6048 -0.1204
 1242TIP3    H1 3732   4.994   0.911   4.646 -2.2204  0.9019 -1.2567
 1242TIP3    H2 3733   4.919   0.796   4.582  0.7123 -1.8441 -0.0079
 1243TIP3   OH2 3734   1.031   3.213   0.282  0.2941  0.1837 -0.3239
 1243TIP3    H1 3735   1.083   3.132   0.289 -2.3627 -1.7260 -0.9842
 1243TIP3    H2 3736   1.067   3.258   0.206 -0.0708 -1.9516 -1.8368
 1244TIP3   OH2 3737   3.886   3.612   2.204  0.2936 -0.4732 -0.8077
 1244TIP3    H1 3738   3.876   3.657   2.120 -0.4513 -1.7983 -1.4752
 1244TIP3    H2 3739   3.909   3.522   2.180  1.0870 -0.6334  0.4522
 1245TIP3   OH2 3740   5.470   4.102   0.469  0.4714  0.3327  0.0250
 1245TIP3    H1 3741   5.418   4.030   0.434  0.0548 -0.5196  2.2384
 1245TIP3    H2 3742   5.551   4.100   0.420  0.4566 -1.6578  0.0159
 1246TIP3   OH2 3743   3.249   5.713   4.740 -0.3043  0.0393 -0.1498
 1246TIP3    H1 3744   3.197   5.732   4.662  1.3227 -0.5480 -1.4390
 1246TIP3    H2 3745   3.327   5.767   4.730  0.1603 -0.4368  0.8197
 1247TIP3   OH2 3746   4.954   3.420   4.091  0.3267  0.0517 -0.1765
 1247TIP3    H1 3747   5.033   3.400   4.040 -0.2538 -1.2240 -0.6335
 1247TIP3    H2 3748   4.884   3.372   4.046 -0.6660  0.9297  0.3834
 1248TIP3   OH2 3749   2.713   4.805   3.629 -0.0560 -0.4131 -0.2747
 1248TIP3    H1 3750   2.796   4.850   3.613 -0.2439 -0.4600 -1.4549
 1248TIP3    H2 3751   2.738   4.719   3.663  0.3529 -0.1435  0.1185
 1249TIP3   OH2 3752   5.845   0.547   1.375  0.2087  0.1120  0.5595
 1249TIP3    H1 3753   5.859   0.464   1.421  0.9218  0.5510  1.1510
 1249TIP3    H2 3754   5.933   0.579   1.356  0.0574  1.9435  2.5346
 1250TIP3   OH2 3755   6.325   2.800   1.913 -0.9216  0.5882  0.2414
 1250TIP3    H1 3756   6.391   2.754   1.861 -0.3742  1.0037  0.5468
 1250TIP3    H2 3757   6.263   2.834   1.850  0.1509  1.7481 -0.2223
 1251TIP3   OH2 3758   2.257   4.849   2.423 -0.0968 -0.0784  0.0528
 1251TIP3    H1 3759   2.172   4.857   2.379 -0.1725 -0.6149  0.1028
 1251TIP3    H2 3760   2.251   4.910   2.496 -0.7384 -0.6809  0.5179
 1252TIP3   OH2 3761   4.424   5.531   1.442 -0.3679  0.4490 -0.2229
 1252TIP3    H1 3762   4.409   5.444   1.405 -0.2708  0.6987 -0.8651
 1252TIP3    H2 3763   4.517   5.533   1.464 -0.1548  0.7104 -1.0929
 1253TIP3   OH2 3764   0.327   4.365   3.202 -0.1850  0.8711 -0.5871
 1253TIP3    H1 3765   0.318   4.447   3.251  0.0704 -0.9494  2.8150
 1253TIP3    H2 3766   0.405   4.378   3.148  0.6942  2.4150  0.9490
 1254TIP3   OH2 3767   5.764   4.551   1.336 -0.2307 -0.1830  0.1151
 1254TIP3    H1 3768   5.768   4.516   1.247 -0.0442  0.0576  0.0261
 1254TIP3    H2 3769   5.828   4.500   1.385 -1.4146 -1.3644  0.4951
 1255TIP3   OH2 3770   5.567   4.737   4.756 -0.6481  0.2107  0.1306
 1255TIP3    H1 3771   5.484   4.690   4.766  0.7781 -2.7740 -0.6851
 1255TIP3    H2 3772   5.610   4.693   4.683  2.1475  0.8655  1.2645
 1256TIP3   OH2 3773   2.627   0.212   3.304  0.0379  0.2372 -0.6482
 1256TIP3    H1 3774   2.636   0.148   3.375  1.0155  0.8492 -0.1928
 1256TIP3    H2 3775   2.536   0.240   3.309 -0.5013 -1.3469 -1.0735
 1257TIP3   OH2 3776   2.002   4.021   1.749  0.0988 -0.3088  0.1887
 1257TIP3    H1 3777   1.913   3.985   1.741 -0.4508  0.7685  1.1868
 1257TIP3    H2 3778   2.037   3.980   1.829  0.9785 -1.6479 -0.8382
 1258TIP3   OH2 3779   5.576   4.970   5.184  0.4922  0.1872  0.2040
 1258TIP3    H1 3780   5.508   5.037   5.197  0.1008  0.1296 -1.3665
 1258TIP3    H2 3781   5.565   4.941   5.093  0.1120 -2.6248  1.0514
 1259TIP3   OH2 3782   0.531   4.651   1.235 -0.0012  0.0637 -0.3488
 1259TIP3    H1 3783   0.544   4.572   1.288  2.3755  0.5558 -0.0503
 1259TIP3    H2 3784   0.620   4.684   1.221 -0.8206  1.7625 -1.8990
 1260TIP3   OH2 3785   6.247   2.064   3.583 -0.2393 -0.2215  0.1564
 1260TIP3    H1 3786   6.219   1.989   3.636 -1.8058 -0.1833 -0.5570
 1260TIP3    H2 3787   6.331   2.037   3.547 -0.8445 -1.7408 -0.2218
 1261TIP3   OH2 3788   6.236   1.815   4.366  0.3290 -0.4503  0.1336
 1261TIP3    H1 3789   6.287   1.754   4.419  1.7306  1.0350  0.5651
 1261TIP3    H2 3790   6.206   1.763   4.292  0.2881 -1.9892  1.1944
 1262TIP3   OH2 3791   5.121   5.209   3.894 -0.1083  0.1989 -0.1325
 1262TIP3    H1 3792   5.134   5.215   3.799 -0.8173  1.3160 -0.1709
 1262TIP3    H2 3793   5.062   5.282   3.915 -0.8343 -0.6878  1.0103
 1263TIP3   OH2 3794   6.184   3.054   0.301 -0.2760 -0.2483 -0.3047
 1263TIP3    H1 3795   6.152   2.980   0.353 -0.7622  0.4524  0.3945
 1263TIP3    H2 3796   6.267   3.023   0.265 -0.1040 -0.8649  0.5961
 1264TIP3   OH2 3797   5.448   0.890   0.721 -0.4766 -0.0513 -0.1701
 1264TIP3    H1 3798   5.366   0.922   0.758  0.2454  1.5972  0.0602
 1264TIP3    H2 3799   5.472   0.816   0.777  0.0446  1.7148  2.0759
 1265TIP3   OH2 3800   5.228   2.345   4.510  0.0969 -0.4463 -0.1269
 1265TIP3    H1 3801   5.171   2.414   4.477 -0.3850 -0.4852  0.5984
 1265TIP3    H2 3802   5.306   2.349   4.455  0.3998  1.1930  0.3869
 1266TIP3   OH2 3803   0.169   2.153   4.052  0.0572  0.1066 -0.0777
 1266TIP3    H1 3804   0.169   2.139   3.957  0.4430  1.5463 -0.3289
 1266TIP3    H2 3805   0.235   2.092   4.085  0.2784 -0.0655 -0.8081
 1267TIP3   OH2 3806   3.426   3.167   4.260  0.4779 -0.0740  0.0315
 1267TIP3    H1 3807   3.466   3.191   4.176  0.1495  0.4547  0.0252
 1267TIP3    H2 3808   3.411   3.072   4.252  1.1770 -0.1736 -0.1929
 1268TIP3   OH2 3809   1.564   0.979   3.472  0.2737  0.3891 -0.4343
 1268TIP3    H1 3810   1.474   0.964   3.503 -0.0756  0.8454 -1.1982
 1268TIP3    H2 3811   1.556   1.054   3.412  1.2065  0.5874 -0.3176
 1269TIP3   OH2 3812   4.698   3.458   4.745  0.6093  0.0837  0.2298
 1269TIP3    H1 3813   4.769   3.512   4.779  1.2604 -0.2409 -0.5862
 1269TIP3    H2 3814   4.622   3.483   4.798  1.2751  0.5783  0.9789
 1270TIP3   OH2 3815   3.487   1.650   1.581 -0.2759  0.0987  0.3692
 1270TIP3    H1 3816   3.418   1.639   1.646 -0.4519 -0.2354  0.1268
 1270TIP3    H2 3817   3.441   1.662   1.498 -0.0435 -0.6316  0.1242
 1271TIP3   OH2 3818   5.898   1.148   2.189 -0.3970 -0.4164 -0.3230
 1271TIP3    H1 3819   5.891   1.065   2.141  0.3300  0.3099 -1.7483
 1271TIP3    H2 3820   5.872   1.215   2.125  0.6233  0.5843  0.2700
 1272TIP3   OH2 3821   1.860   4.974   4.182  0.2086 -0.1754 -0.3771
 1272TIP3    H1 3822   1.884   5.059   4.219  1.4851 -0.6882  0.0187
 1272TIP3    H2 3823   1.765   4.968   4.197  0.2341  0.8099  0.3317
 1273TIP3   OH2 3824   2.349   0.974   4.775  0.6668  0.4536 -0.1950
 1273TIP3    H1 3825   2.359   1.068   4.761 -1.3478  0.5810 -1.2216
 1273TIP3    H2 3826   2.280   0.967   4.842 -1.5105 -0.2041 -2.3350
 1274TIP3   OH2 3827   2.037   2.459   2.852 -0.0219 -0.3832 -0.0435
 1274TIP3    H1 3828   2.000   2.537   2.894  1.2560 -0.5326  1.4840
 1274TIP3    H2 3829   1.993   2.386   2.894  0.9677 -0.5234  0.8033
 1275TIP3   OH2 3830   5.585   0.433   4.671  0.4070 -0.1698 -0.0578
 1275TIP3    H1 3831   5.677   0.409   4.672  0.4068 -0.6023 -2.5750
 1275TIP3    H2 3832   5.540   0.358   4.710  1.0307 -0.4869  0.0602
 1276TIP3   OH2 3833   3.438   4.989   4.721  0.0455 -0.2088 -0.0229
 1276TIP3    H1 3834   3.489   4.908   4.723  1.2645  0.5047 -0.9296
 1276TIP3    H2 3835   3.428   5.009   4.628 -0.0575  0.7859  0.1878
 1277TIP3   OH2 3836   0.571   5.344   2.516  0.1815 -0.8454 -0.2937
 1277TIP3    H1 3837   0.503   5.278   2.529  0.4348 -1.1556 -0.5201
 1277TIP3    H2 3838   0.591   5.376   2.604  0.1937 -1.2129 -0.1589
 1278TIP3   OH2 3839   1.396   0.212   4.809 -0.1851 -0.1151  0.8726
 1278TIP3    H1 3840   1.477   0.196   4.859  0.4536 -0.2446 -0.1611
 1278TIP3    H2 3841   1.426   0.259   4.731 -1.2495  0.6760  0.9278
 1279TIP3   OH2 3842   3.102   5.684   1.324  0.2951  0.5008 -0.0895
 1279TIP3    H1 3843   3.017   5.706   1.286  0.4786  1.0844 -0.1768
 1279TIP3    H2 3844   3.133   5.609   1.274  0.6285  1.3772 -1.2456
 1280TIP3   OH2 3845   5.280   5.051   0.442 -0.3974  0.0658 -0.1883
 1280TIP3    H1 3846   5.244   5.118   0.501 -2.0622  0.8078 -1.9444
 1280TIP3    H2 3847   5.305   4.979   0.500  0.5935  1.8112  1.6766
 1281TIP3   OH2 3848   5.013   5.970   0.297  0.0611  0.6437  0.3758
 1281TIP3    H1 3849   4.923   5.938   0.296  0.3775 -0.4646 -2.4110
 1281TIP3    H2 3850   5.066   5.891   0.311  0.6299  1.1911  1.3654
 1282TIP3   OH2 3851   4.947   2.200   1.579  0.1380 -0.1011  0.6927
 1282TIP3    H1 3852   4.991   2.283   1.600  0.3793 -0.4845  1.7688
 1282TIP3    H2 3853   4.870   2.199   1.636 -0.8653  0.2101 -0.6291
 1283TIP3   OH2 3854   3.644   0.019   1.061 -0.7586  0.2495  0.0672
 1283TIP3    H1 3855   3.736   0.046   1.053 -0.5926 -0.1624  0.5153
 1283TIP3    H2 3856   3.603   0.086   1.115 -0.0960 -0.8923  2.1129
 1284TIP3   OH2 3857   0.465   0.409   0.499  0.3003  0.2592 -0.7900
 1284TIP3    H1 3858   0.478   0.496   0.461  0.4823 -0.0137 -1.3595
 1284TIP3    H2 3859   0.372   0.407   0.522  0.2364  0.5073 -1.0235
 1285TIP3   OH2 3860   5.420   1.398   0.158 -0.1057 -0.4237 -0.2749
 1285TIP3    H1 3861   5.353   1.330   0.168  0.1093 -0.6270 -0.2102
 1285TIP3    H2 3862   5.375   1.469   0.112  0.5277 -1.9510 -3.5446
 1286TIP3   OH2 3863   2.489   1.515   3.263  0.1444  0.6898  0.1347
 1286TIP3    H1 3864   2.565   1.543   3.211 -1.1847  2.4739 -0.9527
 1286TIP3    H2 3865   2.481   1.581   3.332  0.5426 -0.4289  1.3039
 1287TIP3   OH2 3866   0.392   4.265   2.242 -0.1963  0.1761  0.1444
 1287TIP3    H1 3867   0.426   4.348   2.208 -0.5348 -0.4941 -1.9350
 1287TIP3    H2 3868   0.318   4.291   2.298  0.5192  1.3260  0.6002
 1288TIP3   OH2 3869   0.894   3.215   4.859  0.0019 -0.2562 -0.5933
 1288TIP3    H1 3870   0.914   3.295   4.811 -2.3990  0.7462 -0.0537
 1288TIP3    H2 3871   0.967   3.206   4.920  1.2173  0.4964 -1.8601
 1289TIP3   OH2 3872   3.732   1.072   2.230 -0.0217  0.0394 -0.2003
 1289TIP3    H1 3873   3.692   0.989   2.204 -2.9620  0.8889  1.1515
 1289TIP3    H2 3874   3.728   1.126   2.151 -1.9380  0.1586 -0.0884
 1290TIP3   OH2 3875   1.791   0.262   2.094  0.0499 -0.0138  0.0687
 1290TIP3    H1 3876   1.779   0.344   2.047  1.3870  0.7814  1.0285
 1290TIP3    H2 3877   1.752   0.278   2.180  0.1385 -0.4561  0.1954
 1291TIP3   OH2 3878   6.083   4.965   2.474  0.1745  0.2925 -0.5271
 1291TIP3    H1 3879   6.017   5.032   2.491  0.3461  0.3086  0.1255
 1291TIP3    H2 3880   6.154   4.985   2.535  1.4331  1.1270 -2.2014
 1292TIP3   OH2 3881   0.201   3.020   3.860  0.6561 -0.3531 -0.1227
 1292TIP3    H1 3882   0.106   3.006   3.856  0.5393  0.4488 -0.2044
 1292TIP3    H2 3883   0.228   2.979   3.943  0.1955 -0.3386  0.0362
 1293TIP3   OH2 3884   5.635   3.815   1.356 -0.0087  0.4380 -0.0853
 1293TIP3    H1 3885   5.719   3.839   1.317  0.3163  0.9258  0.8867
 1293TIP3    H2 3886   5.571   3.868   1.308  0.4803  1.7180  0.6257
 1294TIP3   OH2 3887   2.258   1.833   2.810 -0.3478 -0.0244 -0.2618
 1294TIP3    H1 3888   2.245   1.754   2.863 -2.4873 -0.1267 -0.8548
 1294TIP3    H2 3889   2.178   1.883   2.822  1.0797  2.2416  0.3049
 1295TIP3   OH2 3890   1.418   3.997   3.586 -0.0342  0.4421  0.0975
 1295TIP3    H1 3891   1.375   3.960   3.509  2.1785  0.5424 -1.2830
 1295TIP3    H2 3892   1.389   3.941   3.658  0.2009 -1.6167 -1.3171
 1296TIP3   OH2 3893   5.492   1.056   4.736  0.3021  0.1642 -0.2407
 1296TIP3    H1 3894   5.486   0.966   4.706  1.7259 -0.2301  0.5679
 1296TIP3    H2 3895   5.450   1.107   4.667 -0.9091 -1.1415 -0.5003
 1297TIP3   OH2 3896   0.180   5.636   0.140  0.6088 -0.1817 -0.1749
 1297TIP3    H1 3897   0.268   5.611   0.168  0.8188 -0.2506 -0.8715
 1297TIP3    H2 3898   0.191   5.669   0.051 -0.2079 -1.1104 -0.6459
 1298TIP3   OH2 3899   3.594   0.309   0.299  0.9091 -0.4122  0.0170
 1298TIP3    H1 3900   3.633   0.361   0.229  2.2860  0.3998  1.3307
 1298TIP3    H2 3901   3.656   0.237   0.313  1.5957  0.4380  1.5764
 1299TIP3   OH2 3902   5.198   4.705   5.121 -0.1985  0.4003  0.2103
 1299TIP3    H1 3903   5.276   4.706   5.064  0.1098  0.4508  0.6262
 1299TIP3    H2 3904   5.124   4.711   5.061  0.1544  2.1458 -0.0939
 1300TIP3   OH2 3905   4.286   1.861   4.317  0.2721 -0.7507  0.2675
 1300TIP3    H1 3906   4.280   1.941   4.264  0.2369 -0.7091  0.3348
 1300TIP3    H2 3907   4.370   1.823   4.293 -0.0572 -1.1145 -0.3670
 1301TIP3   OH2 3908   0.539   0.769   1.975 -0.4384 -0.0118 -0.1598
 1301TIP3    H1 3909   0.519   0.702   1.910  1.3139 -2.1382  1.3264
 1301TIP3    H2 3910   0.469   0.763   2.039 -0.8080  0.2858 -0.5337
 1302TIP3   OH2 3911   3.968   5.289   0.231  0.0209 -0.1778 -0.1559
 1302TIP3    H1 3912   3.992   5.370   0.186 -2.3597  1.5748  1.5026
 1302TIP3    H2 3913   3.933   5.233   0.162  2.9224 -0.4241 -1.5593
 1303TIP3   OH2 3914   6.153   1.824   3.342  1.1125  0.3687  0.2994
 1303TIP3    H1 3915   6.091   1.892   3.365  0.3459 -0.2036 -0.0349
 1303TIP3    H2 3916   6.156   1.767   3.419 -1.2759 -1.4151 -0.7970
 1304TIP3   OH2 3917   6.074   5.934   2.859  0.4261 -0.2257  0.2384
 1304TIP3    H1 3918   6.042   5.846   2.840 -0.0245 -0.3617  1.5797
 1304TIP3    H2 3919   6.147   5.922   2.920  2.4849  0.1515 -1.9825
 1305TIP3   OH2 3920   5.863   2.834   2.254 -0.1691  0.3587 -0.2074
 1305TIP3    H1 3921   5.883   2.767   2.320 -1.6249  0.7318  0.6656
 1305TIP3    H2 3922   5.876   2.790   2.170  4.3444  0.5897  0.1348
 1306TIP3   OH2 3923   1.106   2.918   2.008  0.2543 -0.6017 -0.1211
 1306TIP3    H1 3924   1.146   3.002   2.030 -1.5204  0.5748 -1.1136
 1306TIP3    H2 3925   1.099   2.871   2.091 -0.8026  1.2018  0.8690
 1307TIP3   OH2 3926   4.257   5.060   3.410 -0.4418 -0.2519  0.2854
 1307TIP3    H1 3927   4.241   4.976   3.366 -0.5826 -0.0275 -0.0927
 1307TIP3    H2 3928   4.345   5.051   3.447  0.2447  0.0495 -1.2060
 1308TIP3   OH2 3929   5.016   5.117   1.312  0.1296 -0.1250  0.1866
 1308TIP3    H1 3930   5.048   5.064   1.239 -3.1900  0.2859 -1.7748
 1308TIP3    H2 3931   5.062   5.201   1.302 -0.8972  0.2430 -2.1004
 1309TIP3   OH2 3932   5.414   0.700   4.067  0.6422  0.6034 -0.1338
 1309TIP3    H1 3933   5.417   0.681   3.973  2.8116 -3.1616  0.4983
 1309TIP3    H2 3934   5.492   0.753   4.083  0.0836  1.5480 -0.4558
 1310TIP3   OH2 3935   1.970   4.619   4.489  0.2501 -0.0820 -0.0412
 1310TIP3    H1 3936   1.961   4.658   4.402  0.0549  1.2750  0.5591
 1310TIP3    H2 3937   1.880   4.603   4.518  0.3157 -0.5685 -0.1002
 1311TIP3   OH2 3938   5.570   1.120   3.347  0.2546 -0.0117  0.3801
 1311TIP3    H1 3939   5.639   1.154   3.404 -1.0144  0.9019  1.4233
 1311TIP3    H2 3940   5.576   1.025   3.357 -0.9279  0.1187  3.3726
 1312TIP3   OH2 3941   2.123   4.506   0.668 -0.3431 -0.0922  0.1328
 1312TIP3    H1 3942   2.204   4.523   0.716 -0.5346 -1.9997  1.2508
 1312TIP3    H2 3943   2.136   4.420   0.629 -2.3127 -1.1096  1.5209
 1313TIP3   OH2 3944   4.808   0.376   2.876 -0.8545 -0.3852 -0.0186
 1313TIP3    H1 3945   4.782   0.290   2.842 -0.6128 -1.1265  1.5689
 1313TIP3    H2 3946   4.902   0.382   2.856 -0.8943 -0.4464 -0.2268
 1314TIP3   OH2 3947   3.647   1.483   2.076 -0.3387 -0.1953  0.1288
 1314TIP3    H1 3948   3.580   1.523   2.132 -0.5192  0.1407 -0.3222
 1314TIP3    H2 3949   3.645   1.534   1.996 -0.3815 -0.9406 -0.3555
 1315TIP3   OH2 3950   0.579   5.211   4.846 -0.6756  0.2576  0.6279
 1315TIP3    H1 3951   0.576   5.148   4.918  0.4219 -0.6670 -0.1022
 1315TIP3    H2 3952   0.510   5.274   4.866  0.1633  0.5370  2.9722
 1316TIP3   OH2 3953   5.987   1.834   1.243 -0.3142 -0.5535  0.2732
 1316TIP3    H1 3954   6.006   1.834   1.337  0.3984 -1.2865  0.1460
 1316TIP3    H2 3955   6.052   1.774   1.206 -0.0649  0.3438 -0.7961
 1317TIP3   OH2 3956   2.162   5.948   2.906  0.4624 -0.2900  0.1759
 1317TIP3    H1 3957   2.072   5.979   2.902  0.6152  0.4519  1.7773
 1317TIP3    H2 3958   2.188   5.940   2.814 -0.5981  1.3735 -0.3258
 1318TIP3   OH2 3959   3.882   4.576   1.590  0.1145 -0.5554 -0.2907
 1318TIP3    H1 3960   3.800   4.539   1.624  1.2255 -0.4667  2.7962
 1318TIP3    H2 3961   3.883   4.666   1.620  1.5642 -0.7059  0.2185
 1319TIP3   OH2 3962   5.225   2.148   1.489 -0.4240  0.3720 -0.0883
 1319TIP3    H1 3963   5.138   2.138   1.528  0.2980  0.4826  1.6077
 1319TIP3    H2 3964   5.215   2.218   1.425 -1.1938  1.5981  1.3307
 1320TIP3   OH2 3965   1.893   3.784   0.012 -0.2087 -0.7699  0.2655
 1320TIP3    H1 3966   1.958   3.839   0.056  0.9880 -0.6966 -1.5196
 1320TIP3    H2 3967   1.820   3.779   0.075  1.1143 -0.0969  1.9284
 1321TIP3   OH2 3968   2.538   5.286   2.346  0.3135 -0.3022 -0.1447
 1321TIP3    H1 3969   2.520   5.193   2.333 -0.0677 -0.5337  1.7223
 1321TIP3    H2 3970   2.627   5.289   2.383 -0.5489 -0.2036  2.1269
 1322TIP3   OH2 3971   1.060   2.246   1.996  0.3635 -0.5827 -0.2183
 1322TIP3    H1 3972   1.066   2.323   1.941  2.2116  0.0714  0.8304
 1322TIP3    H2 3973   1.122   2.261   2.067 -0.5623 -2.2225  1.0277
 1323TIP3   OH2 3974   0.313   1.918   5.151  0.3747  0.2454 -0.2056
 1323TIP3    H1 3975   0.322   1.999   5.202 -0.5145  0.6128 -0.5963
 1323TIP3    H2 3976   0.322   1.946   5.060  0.2581 -0.1272 -0.3336
 1324TIP3   OH2 3977   2.387   1.844   2.346 -0.1692 -0.1606 -0.1014
 1324TIP3    H1 3978   2.419   1.933   2.361 -0.4245 -0.2082  0.7584
 1324TIP3    H2 3979   2.321   1.853   2.277  0.4830  0.1719 -0.6990
 1325TIP3   OH2 3980   1.303   1.127   3.516  0.8851 -0.2378 -0.5269
 1325TIP3    H1 3981   1.368   1.189   3.549  1.0349 -0.4064 -0.5023
 1325TIP3    H2 3982   1.219   1.165   3.542  0.9913 -0.2743 -0.1112
 1326TIP3   OH2 3983   6.334   2.962   3.242 -0.4964  0.1814 -0.5338
 1326TIP3    H1 3984   6.362   3.015   3.167  1.4143  0.2140  0.1396
 1326TIP3    H2 3985   6.306   2.879   3.204  0.9077  0.0170 -1.2707
 1327TIP3   OH2 3986   1.798   5.115   2.399  0.7208  0.3654 -0.0041
 1327TIP3    H1 3987   1.827   5.192   2.351 -2.2824 -0.1265 -2.9456
 1327TIP3    H2 3988   1.741   5.149   2.468  2.1304  0.8645  0.9682
 1328TIP3   OH2 3989   2.476   1.606   3.928 -0.1238  0.7940  0.2608
 1328TIP3    H1 3990   2.570   1.591   3.917 -0.1254 -0.9463  2.1303
 1328TIP3    H2 3991   2.468   1.642   4.016 -1.2555  0.1357  0.4422
 1329TIP3   OH2 3992   2.564   4.102   3.304 -0.6016  0.1810  0.2382
 1329TIP3    H1 3993   2.494   4.059   3.255 -0.5467  1.9747 -1.5562
 1329TIP3    H2 3994   2.634   4.114   3.240  0.2471  0.9267  1.2737
 1330TIP3   OH2 3995   2.254   2.182   3.060  0.2897  0.0850 -0.5499
 1330TIP3    H1 3996   2.302   2.151   3.137  1.0678  0.0285 -1.0476
 1330TIP3    H2 3997   2.185   2.237   3.096 -0.3743 -1.2249  0.2884
 1331TIP3   OH2 3998   4.842   5.395   4.687 -0.1192 -0.0440 -0.2445
 1331TIP3    H1 3999   4.874   5.315   4.644  2.2930  1.7899 -2.1404
 1331TIP3    H2 4000   4.767   5.422   4.634 -2.2890 -1.9963  1.6068
 1332TIP3   OH2 4001   3.676   0.589   1.190 -0.2585  0.3310  0.2318
 1332TIP3    H1 4002   3.766   0.571   1.218 -0.3230  2.2625  1.8914
 1332TIP3    H2 4003   3.633   0.623   1.268 -2.6162 -0.9901 -0.3972
 1333TIP3   OH2 4004   3.079   0.598   0.144 -0.2857 -0.0087  0.8199
 1333TIP3    H1 4005   3.040   0.555   0.220  1.2144 -2.5488  0.2829
 1333TIP3    H2 4006   3.016   0.665   0.119 -2.1209 -0.9517  2.6096
 1334TIP3   OH2 4007   6.147   0.988   2.488  0.4777  0.0533 -0.3642
 1334TIP3    H1 4008   6.202   1.022   2.558  1.7809  1.3657 -1.9320
 1334TIP3    H2 4009   6.209   0.959   2.421 -0.7222 -1.0707 -1.0344
 1335TIP3   OH2 4010   1.959   4.733   5.112 -0.1185 -0.4194  0.5092
 1335TIP3    H1 4011   1.951   4.733   5.207 -0.4477 -0.9797  0.4817
 1335TIP3    H2 4012   1.872   4.758   5.080  0.1256  0.2803  0.3591
 1336TIP3   OH2 4013   5.194   2.312   0.367 -0.2047 -0.2204 -0.4984
 1336TIP3    H1 4014   5.252   2.285   0.296 -1.2796 -1.8504 -0.7965
 1336TIP3    H2 4015   5.145   2.386   0.330  0.8454  0.4289 -0.6337
 1337TIP3   OH2 4016   5.342   5.338   2.717 -0.1251 -0.5724 -0.0201
 1337TIP3    H1 4017   5.265   5.394   2.704 -1.1165 -1.7493  0.6094
 1337TIP3    H2 4018   5.414   5.386   2.674 -0.8406  1.3583  0.8126
 1338TIP3   OH2 4019   3.867   3.764   1.110  0.2361 -0.3663  0.2608
 1338TIP3    H1 4020   3.937   3.785   1.048  1.0958 -0.1246  1.2834
 1338TIP3    H2 4021   3.815   3.697   1.066  1.5065 -1.0517 -0.2506
 1339TIP3   OH2 4022   5.958   5.504   0.749 -0.3971 -0.1815 -0.1928
 1339TIP3    H1 4023   6.004   5.421   0.738 -0.1144 -0.2674  1.4418
 1339TIP3    H2 4024   6.008   5.551   0.814 -1.1167  0.8749 -0.3725
 1340TIP3   OH2 4025   0.970   1.291   1.447  0.3550  0.2706  0.3388
 1340TIP3    H1 4026   0.955   1.378   1.485  0.2255  0.0619  0.7631
 1340TIP3    H2 4027   0.939   1.230   1.513  1.2378 -0.1211  0.4046
 1341TIP3   OH2 4028   5.187   4.260   1.212  0.2734  0.1517 -0.3010
 1341TIP3    H1 4029   5.204   4.224   1.125  0.7437 -1.8693  0.5473
 1341TIP3    H2 4030   5.249   4.332   1.221  1.3935 -0.6877 -1.0329
 1342TIP3   OH2 4031   0.333   5.434   3.226  0.3576  0.4404 -0.0189
 1342TIP3    H1 4032   0.288   5.491   3.164 -1.2805 -0.6126  0.1425
 1342TIP3    H2 4033   0.425   5.458   3.218 -0.1838  2.5847 -0.4604
 1343TIP3   OH2 4034   0.254   4.934   3.584 -0.1621 -0.4517 -0.0146
 1343TIP3    H1 4035   0.272   4.998   3.652  1.9700 -1.2903  0.3105
 1343TIP3    H2 4036   0.298   4.969   3.506 -1.0663 -0.3517 -0.4851
 1344TIP3   OH2 4037   3.346   3.355   0.735  0.0194  0.1954  0.5525
 1344TIP3    H1 4038   3.395   3.297   0.678  3.2617  2.4159  0.8213
 1344TIP3    H2 4039   3.276   3.390   0.680  0.2209 -1.1870 -0.6400
 1345TIP3   OH2 4040   2.321   5.232   2.072  0.3878 -0.2411 -0.6363
 1345TIP3    H1 4041   2.302   5.277   2.155 -0.9758 -2.1876  0.1755
 1345TIP3    H2 4042   2.235   5.213   2.035  0.9403 -1.4322 -1.3523
 1346TIP3   OH2 4043   0.600   0.138   1.306  0.1283  0.0238  0.4958
 1346TIP3    H1 4044   0.646   0.196   1.367  1.5378 -0.0534 -0.4405
 1346TIP3    H2 4045   0.628   0.050   1.332  0.5358 -0.0240 -0.0794
 1347TIP3   OH2 4046   5.559   4.576   0.829  0.4538  0.0347  0.1185
 1347TIP3    H1 4047   5.481   4.529   0.800  0.2488  0.1599  0.4602
 1347TIP3    H2 4048   5.538   4.668   0.819  0.3595  0.0834  0.6994
 1348TIP3   OH2 4049   1.484   5.559   1.658 -0.0169  0.1971  0.4453
 1348TIP3    H1 4050   1.418   5.559   1.727 -0.5066  0.6521 -0.0130
 1348TIP3    H2 4051   1.517   5.649   1.656 -0.5189  0.3770 -0.3832
 1349TIP3   OH2 4052   5.870   3.251   1.675 -0.4983 -0.0133  0.5780
 1349TIP3    H1 4053   5.837   3.240   1.764 -3.3235  0.3218 -0.3179
 1349TIP3    H2 4054   5.964   3.235   1.681 -0.9242 -2.0224  3.2359
 1350TIP3   OH2 4055   4.901   2.295   4.275 -0.0211  0.3182 -0.0670
 1350TIP3    H1 4056   4.944   2.259   4.198 -1.2646 -1.1739 -0.1091
 1350TIP3    H2 4057   4.866   2.219   4.321 -3.7232  1.4358 -0.7049
 1351TIP3   OH2 4058   5.134   5.838   1.935 -0.4604  0.0504  0.2566
 1351TIP3    H1 4059   5.180   5.790   2.004  2.0346  0.9393 -0.6726
 1351TIP3    H2 4060   5.115   5.923   1.975  1.6683  0.8467 -0.2904
 1352TIP3   OH2 4061   5.697   2.094   1.756  0.4422  0.0030  0.0142
 1352TIP3    H1 4062   5.706   2.188   1.738  1.3207  0.2517  1.6059
 1352TIP3    H2 4063   5.709   2.052   1.671  0.7721  1.2865 -0.5969
 1353TIP3   OH2 4064   3.280   4.246   3.211  0.1133  0.0347  0.1663
 1353TIP3    H1 4065   3.374   4.258   3.224  0.2599 -1.4204  0.6324
 1353TIP3    H2 4066   3.242   4.254   3.299  0.0264 -1.1000  0.2445
 1354TIP3   OH2 4067   3.058   2.756   4.238 -0.2490  0.1457 -0.1479
 1354TIP3    H1 4068   3.093   2.801   4.315 -0.8589  0.2797  0.0508
 1354TIP3    H2 4069   3.136   2.726   4.191  0.1331 -0.2655  0.7163
 1355TIP3   OH2 4070   4.909   4.113   2.788 -0.2652  0.0988  0.8845
 1355TIP3    H1 4071   4.880   4.204   2.780  2.4284  0.9659 -0.1218
 1355TIP3    H2 4072   4.828   4.062   2.788 -1.9212  2.5024  2.3679
 1356TIP3   OH2 4073   0.379   1.082   3.532 -0.0702 -0.4285  0.0186
 1356TIP3    H1 4074   0.438   1.021   3.486 -0.2239  0.4006 -1.3483
 1356TIP3    H2 4075   0.298   1.078   3.482 -0.5427 -0.1364  0.7566
 1357TIP3   OH2 4076   5.112   4.959   4.043  0.0982 -0.3342 -0.3432
 1357TIP3    H1 4077   5.029   4.913   4.031  0.4886 -0.9619 -0.6564
 1357TIP3    H2 4078   5.108   5.033   3.981  0.4953 -1.3687 -1.6488
 1358TIP3   OH2 4079   4.127   1.122   0.139  0.2382  0.3969  0.5134
 1358TIP3    H1 4080   4.141   1.216   0.150 -0.3765  0.7550 -1.4166
 1358TIP3    H2 4081   4.051   1.103   0.195  1.9497  0.4466  3.0313
 1359TIP3   OH2 4082   6.116   3.337   0.267 -0.1011 -0.4018  0.1282
 1359TIP3    H1 4083   6.143   3.364   0.180 -0.4552 -0.2503  0.0631
 1359TIP3    H2 4084   6.120   3.241   0.265 -0.8238 -0.4273 -0.2906
 1360TIP3   OH2 4085   0.876   4.340   0.474  0.1576 -0.1198 -0.2702
 1360TIP3    H1 4086   0.783   4.362   0.466 -0.1098 -0.6906  1.0444
 1360TIP3    H2 4087   0.922   4.420   0.450 -0.7292  0.9135  1.3222
 1361TIP3   OH2 4088   4.849   5.481   0.459 -0.6805 -0.3941  0.6662
 1361TIP3    H1 4089   4.754   5.486   0.471 -0.5394 -1.1956  2.5321
 1361TIP3    H2 4090   4.862   5.403   0.405 -1.0523 -0.6620  0.9608
 1362TIP3   OH2 4091   1.439   4.491   2.926 -0.1245 -0.1475  0.0603
 1362TIP3    H1 4092   1.532   4.512   2.927 -0.4086  1.2095  1.2147
 1362TIP3    H2 4093   1.424   4.440   3.006 -0.6216  0.8786  0.6331
 1363TIP3   OH2 4094   1.257   4.881   3.845 -0.3743  0.0984 -0.4002
 1363TIP3    H1 4095   1.228   4.905   3.757 -0.4642 -0.5841 -0.5611
 1363TIP3    H2 4096   1.177   4.856   3.891 -0.2912  0.1668 -0.2155
 1364TIP3   OH2 4097   2.937   3.775   1.947 -0.4349  0.4611  0.0415
 1364TIP3    H1 4098   2.966   3.772   1.856  1.2390  0.1322  0.5591
 1364TIP3    H2 4099   2.909   3.685   1.966  0.5435  0.1918  0.2506
 1365TIP3   OH2 4100   4.516   5.090   3.492  0.1029 -0.3603 -0.1244
 1365TIP3    H1 4101   4.559   5.172   3.471 -0.2666 -0.4798 -1.4367
 1365TIP3    H2 4102   4.553   5.064   3.577 -0.7855  1.8350  1.0140
 1366TIP3   OH2 4103   6.267   0.542   2.689 -0.3029  0.2774  0.2246
 1366TIP3    H1 4104   6.249   0.452   2.663 -1.2015  0.0931  1.4439
 1366TIP3    H2 4105   6.294   0.585   2.607  1.6519 -1.4309 -0.1147
 1367TIP3   OH2 4106   5.339   4.128   2.609  0.1807 -0.4927  0.1559
 1367TIP3    H1 4107   5.406   4.126   2.541 -0.5028 -0.1350 -0.5430
 1367TIP3    H2 4108   5.379   4.178   2.681  0.3753  0.4015 -0.5613
 1368TIP3   OH2 4109   3.695   3.530   1.090  0.4698 -1.1109  0.2971
 1368TIP3    H1 4110   3.614   3.516   1.042  0.1917 -0.3714  0.5412
 1368TIP3    H2 4111   3.718   3.443   1.123 -0.5420 -1.2248  0.7345
 1369TIP3   OH2 4112   0.412   4.899   2.706 -0.1634  0.4297 -0.1009
 1369TIP3    H1 4113   0.500   4.916   2.740 -0.7810 -0.6660  2.2115
 1369TIP3    H2 4114   0.410   4.945   2.622  2.3989  0.9795  0.0529
 1370TIP3   OH2 4115   2.902   4.242   3.594  0.5230  0.2061  0.6481
 1370TIP3    H1 4116   2.823   4.273   3.638 -0.7578  0.5645 -1.7463
 1370TIP3    H2 4117   2.903   4.147   3.608  0.4229  0.3660  1.8017
 1371TIP3   OH2 4118   3.778   2.359   0.694  0.1397  0.3302 -0.3459
 1371TIP3    H1 4119   3.791   2.311   0.612 -0.7543 -0.2967 -0.1451
 1371TIP3    H2 4120   3.772   2.450   0.667  2.4058  0.4337 -0.6778
 1372TIP3   OH2 4121   4.158   3.963   4.544 -0.3518 -0.1630 -0.0270
 1372TIP3    H1 4122   4.237   4.018   4.541 -0.5961  0.1716 -0.9081
 1372TIP3    H2 4123   4.148   3.939   4.636  0.3500  0.4180  0.2102
 1373TIP3   OH2 4124   1.976   2.228   1.504  0.6441  0.4914 -0.1314
 1373TIP3    H1 4125   1.949   2.136   1.496  0.4713 -0.0543  4.1799
 1373TIP3    H2 4126   2.067   2.223   1.535  0.7466  1.7870 -0.1729
 1374TIP3   OH2 4127   5.652   2.444   3.007  0.6820 -0.0435  0.0966
 1374TIP3    H1 4128   5.587   2.440   2.937  0.3743 -0.0498  0.3818
 1374TIP3    H2 4129   5.668   2.352   3.030  0.3552 -0.0182  0.4281
 1375TIP3   OH2 4130   1.385   2.590   2.567 -0.1748  0.3594 -0.7133
 1375TIP3    H1 4131   1.300   2.628   2.589 -0.7542 -0.0620 -2.1045
 1375TIP3    H2 4132   1.446   2.633   2.626 -1.0690  2.1136 -0.9958
 1376TIP3   OH2 4133   2.354   0.636   0.618  0.0311 -0.1750 -0.0452
 1376TIP3    H1 4134   2.430   0.683   0.652  1.7864 -2.3780 -0.7323
 1376TIP3    H2 4135   2.388   0.552   0.587 -2.6496 -1.1786 -0.6044
 1377TIP3   OH2 4136   2.650   2.177   3.896  0.5054  0.3865  0.2861
 1377TIP3    H1 4137   2.596   2.255   3.888 -0.7695 -0.4221  0.6444
 1377TIP3    H2 4138   2.589   2.109   3.924  1.6937 -0.6062  0.5430
 1378TIP3   OH2 4139   2.664   5.877   3.856 -0.5090  0.3830  0.0958
 1378TIP3    H1 4140   2.588   5.819   3.861  0.0081 -0.2189  1.2593
 1378TIP3    H2 4141   2.639   5.955   3.904  0.4571 -0.8544  2.8401
 1379TIP3   OH2 4142   4.468   2.022   1.761  0.1251 -0.1897 -0.1357
 1379TIP3    H1 4143   4.440   1.933   1.742  1.6293 -0.8722  0.7235
 1379TIP3    H2 4144   4.422   2.076   1.696  0.2560 -1.7209 -1.5546
 1380TIP3   OH2 4145   1.960   2.617   3.842  0.3434 -0.5859 -0.3529
 1380TIP3    H1 4146   2.019   2.566   3.898  0.9235  1.2024  0.7416
 1380TIP3    H2 4147   1.896   2.654   3.902  0.4861  0.7063 -0.9515
 1381TIP3   OH2 4148   1.539   4.887   4.693  0.0564 -0.0796 -0.7893
 1381TIP3    H1 4149   1.602   4.814   4.693  0.1875  0.0326 -0.4516
 1381TIP3    H2 4150   1.588   4.960   4.655  0.5842  0.3877  0.7325
 1382TIP3   OH2 4151   2.854   0.565   0.644 -0.1980  0.0761  0.1396
 1382TIP3    H1 4152   2.772   0.599   0.679 -1.0135 -0.6958 -0.9659
 1382TIP3    H2 4153   2.902   0.534   0.722 -0.1950  2.0351  0.9775
 1383TIP3   OH2 4154   3.668   4.902   0.375 -0.3330  0.2846  0.0915
 1383TIP3    H1 4155   3.630   4.820   0.407  0.0808  0.4453  1.0246
 1383TIP3    H2 4156   3.702   4.945   0.453  0.5979  0.7578 -0.5539
 1384TIP3   OH2 4157   2.451   5.694   1.370  0.2922 -0.3786 -0.1000
 1384TIP3    H1 4158   2.489   5.628   1.427  1.2482  1.1968  1.1832
 1384TIP3    H2 4159   2.522   5.756   1.354 -1.0213  1.2723  0.2138
 1385TIP3   OH2 4160   3.762   2.930   3.105  0.6608  0.1064 -0.9762
 1385TIP3    H1 4161   3.755   3.008   3.161 -1.8455 -0.5423 -0.2442
 1385TIP3    H2 4162   3.856   2.916   3.096  1.3079  0.1119  3.3061
 1386TIP3   OH2 4163   1.895   1.838   4.418  0.0773 -0.3643 -0.0533
 1386TIP3    H1 4164   1.829   1.907   4.408 -0.6308 -0.9396  0.5362
 1386TIP3    H2 4165   1.940   1.836   4.333  0.8944  1.5809  0.2687
 1387TIP3   OH2 4166   1.771   3.304   1.860 -0.3995 -1.3458  0.3067
 1387TIP3    H1 4167   1.697   3.329   1.805  0.4424  2.0388  0.4950
 1387TIP3    H2 4168   1.837   3.272   1.798 -0.3139  0.2345 -0.4894
 1388TIP3   OH2 4169   6.033   1.979   2.640  0.3393 -0.3240  0.1858
 1388TIP3    H1 4170   5.977   2.038   2.690  0.0528  0.1967 -0.7201
 1388TIP3    H2 4171   5.984   1.963   2.559  0.8423 -1.0480  0.0156
 1389TIP3   OH2 4172   5.508   3.704   3.689 -0.5617 -0.0843 -0.1387
 1389TIP3    H1 4173   5.456   3.751   3.624  0.8787 -0.1924 -1.4447
 1389TIP3    H2 4174   5.464   3.620   3.699 -0.9319  0.0172 -0.8202
 1390TIP3   OH2 4175   3.938   2.881   0.705  0.5201  0.4731 -0.5997
 1390TIP3    H1 4176   4.011   2.860   0.647  1.1771 -1.0567  0.6851
 1390TIP3    H2 4177   3.864   2.897   0.647  1.5642  0.7760 -1.8901
 1391TIP3   OH2 4178   1.082   2.806   3.364 -0.4456 -0.4582 -0.4906
 1391TIP3    H1 4179   1.098   2.715   3.388 -0.1848 -0.1156  0.6869
 1391TIP3    H2 4180   1.111   2.812   3.273  3.4528 -0.6226  0.5691
 1392TIP3   OH2 4181   5.865   3.823   1.182 -0.2194 -0.3867 -0.0462
 1392TIP3    H1 4182   5.938   3.828   1.121 -0.3950 -0.8459 -0.2956
 1392TIP3    H2 4183   5.901   3.779   1.259 -0.9065 -3.2071 -1.2210
 1393TIP3   OH2 4184   3.771   0.659   1.471 -0.6376  0.5526 -0.0152
 1393TIP3    H1 4185   3.801   0.692   1.556 -0.2305 -0.1291  0.1118
 1393TIP3    H2 4186   3.777   0.564   1.479 -0.9294  0.4748 -0.6915
 1394TIP3   OH2 4187   4.879   1.946   3.102  0.1462  0.2513 -0.0135
 1394TIP3    H1 4188   4.909   2.030   3.136 -0.1858  0.0879  0.7018
 1394TIP3    H2 4189   4.788   1.961   3.077 -0.1041 -0.0526  0.6992
 1395TIP3   OH2 4190   5.735   3.981   4.965  0.0159 -0.4317  0.3144
 1395TIP3    H1 4191   5.644   3.966   4.937  0.7072 -2.7633 -0.9287
 1395TIP3    H2 4192   5.760   4.063   4.923 -1.3460 -0.0158  0.2669
 1396TIP3   OH2 4193   1.737   5.643   4.785 -0.8736 -0.0812  0.1497
 1396TIP3    H1 4194   1.727   5.548   4.784  0.5835 -0.2986  1.7797
 1396TIP3    H2 4195   1.663   5.675   4.734  0.1473 -2.1820 -2.9131
 1397TIP3   OH2 4196   1.765   2.881   0.481 -0.1296 -0.2104  0.6126
 1397TIP3    H1 4197   1.674   2.886   0.511  0.6074  0.7915  3.0065
 1397TIP3    H2 4198   1.799   2.802   0.522 -0.8900 -3.0724 -3.7018
 1398TIP3   OH2 4199   4.622   2.517   0.845  0.2464 -0.0331  0.3947
 1398TIP3    H1 4200   4.644   2.424   0.853 -1.1150 -0.4999 -0.7834
 1398TIP3    H2 4201   4.615   2.548   0.935 -1.8685 -1.7746  0.9240
 1399TIP3   OH2 4202   0.620   2.730   4.891  0.1108  0.1487 -0.3362
 1399TIP3    H1 4203   0.670   2.691   4.963 -0.3688 -0.9541 -0.5668
 1399TIP3    H2 4204   0.654   2.819   4.883  2.9600 -0.9156 -1.3289
 1400TIP3   OH2 4205   5.824   0.625   1.087  0.2418  0.1572 -0.0565
 1400TIP3    H1 4206   5.849   0.638   1.179  0.0381  0.6631 -0.0671
 1400TIP3    H2 4207   5.787   0.710   1.060  0.0271 -0.0774 -0.5161
 1401TIP3   OH2 4208   2.177   2.714   2.367  0.5405  0.6285  0.1275
 1401TIP3    H1 4209   2.230   2.766   2.307  0.0901  0.5980 -0.3078
 1401TIP3    H2 4210   2.112   2.775   2.401 -0.3902  0.2440 -0.8667
 1402TIP3   OH2 4211   2.212   3.666   2.083  0.5649 -0.3812 -0.0514
 1402TIP3    H1 4212   2.305   3.658   2.100  0.2466  1.1166  3.1611
 1402TIP3    H2 4213   2.206   3.730   2.012  1.9804  0.3109  0.4252
 1403TIP3   OH2 4214   0.158   0.871   3.452  0.3145 -0.4614  0.3690
 1403TIP3    H1 4215   0.096   0.884   3.523  1.0370 -2.1032  1.3522
 1403TIP3    H2 4216   0.150   0.950   3.398 -1.1662  0.2396  1.5556
 1404TIP3   OH2 4217   2.788   4.573   3.765  0.1989 -0.4120  0.1315
 1404TIP3    H1 4218   2.743   4.500   3.723  1.1636 -1.0474  0.1724
 1404TIP3    H2 4219   2.878   4.543   3.776  0.6326  0.8090  0.0967
 1405TIP3   OH2 4220   2.582   5.769   3.371  0.0178  0.0862 -0.4307
 1405TIP3    H1 4221   2.619   5.687   3.404 -1.6812  0.0660  1.6620
 1405TIP3    H2 4222   2.627   5.837   3.421 -0.7366  0.2112  0.1050
 1406TIP3   OH2 4223   2.808   3.131   2.296 -0.1183  0.2814  0.1617
 1406TIP3    H1 4224   2.851   3.205   2.340  0.0806 -0.7693  1.8048
 1406TIP3    H2 4225   2.715   3.144   2.313 -0.1501  0.5472 -0.1999
 1407TIP3   OH2 4226   2.431   2.704   4.967 -0.3841  0.2947  0.0692
 1407TIP3    H1 4227   2.388   2.655   5.037  1.0060 -0.6392  0.3344
 1407TIP3    H2 4228   2.427   2.796   4.994 -0.6454  0.0284  0.9352
 1408TIP3   OH2 4229   3.930   5.900   3.709 -0.2011  0.6115 -0.0933
 1408TIP3    H1 4230   3.949   5.945   3.626 -2.4396 -0.0137 -1.0079
 1408TIP3    H2 4231   3.843   5.930   3.734 -0.1402 -0.2733  1.3358
 1409TIP3   OH2 4232   5.755   4.166   3.703  0.2406 -0.0113 -0.0374
 1409TIP3    H1 4233   5.702   4.123   3.637  2.2339 -0.5462 -1.3778
 1409TIP3    H2 4234   5.789   4.095   3.757 -0.1619  0.3006  0.6376
 1410TIP3   OH2 4235   1.337   0.432   0.304  0.0073  0.0964 -0.3399
 1410TIP3    H1 4236   1.416   0.438   0.358  0.0552 -0.1406 -0.3820
 1410TIP3    H2 4237   1.265   0.430   0.366  0.1534 -2.1051 -0.1907
 1411TIP3   OH2 4238   6.361   4.002   2.409  0.3033  0.0754  0.3322
 1411TIP3    H1 4239   6.403   4.066   2.467 -1.9150  2.4027 -0.3993
 1411TIP3    H2 4240   6.285   3.971   2.460 -0.5280  0.6287 -0.5307
 1412TIP3   OH2 4241   0.333   4.028   5.001 -0.1143 -0.0258 -0.5478
 1412TIP3    H1 4242   0.273   3.975   5.053 -0.4285  0.8589  0.0253
 1412TIP3    H2 4243   0.386   4.075   5.066 -0.9093  1.5416 -0.9912
 1413TIP3   OH2 4244   2.674   0.993   1.456 -0.2359 -0.1661  1.0058
 1413TIP3    H1 4245   2.761   0.963   1.483  0.0445 -1.2046 -0.8261
 1413TIP3    H2 4246   2.615   0.921   1.479 -0.0986 -0.7646 -0.3828
 1414TIP3   OH2 4247   5.528   0.378   4.361 -0.6379  0.1956  0.2574
 1414TIP3    H1 4248   5.529   0.416   4.449 -0.5568  0.8997 -0.0487
 1414TIP3    H2 4249   5.485   0.293   4.373  1.7516 -0.9700  1.5070
 1415TIP3   OH2 4250   1.360   3.036   3.300  0.2633 -0.3142 -0.3832
 1415TIP3    H1 4251   1.375   2.954   3.347  1.2985 -0.1520 -0.3942
 1415TIP3    H2 4252   1.284   3.019   3.245 -0.6091 -0.7076  0.8933
 1416TIP3   OH2 4253   3.467   4.666   3.406  0.1807  0.3803  0.2604
 1416TIP3    H1 4254   3.505   4.603   3.468 -1.0743 -1.8118 -1.0822
 1416TIP3    H2 4255   3.403   4.714   3.458  1.2534  0.6864  1.3530
 1417TIP3   OH2 4256   4.960   2.288   3.580  0.0483 -0.2302  0.4257
 1417TIP3    H1 4257   4.974   2.336   3.662  0.8496  0.2895 -0.0096
 1417TIP3    H2 4258   5.002   2.341   3.513 -2.3440  0.3880 -0.6627
 1418TIP3   OH2 4259   0.580   1.541   0.669  0.2887 -0.0432 -0.2456
 1418TIP3    H1 4260   0.561   1.594   0.746 -0.7151 -0.1123 -0.4224
 1418TIP3    H2 4261   0.675   1.546   0.658  0.3000  1.0307  0.2265
 1419TIP3   OH2 4262   4.470   5.342   5.024  0.2485 -0.2234 -0.0032
 1419TIP3    H1 4263   4.498   5.353   5.114  0.4865 -0.5382 -0.0362
 1419TIP3    H2 4264   4.551   5.336   4.973  0.1186 -0.3074 -0.2044
 1420TIP3   OH2 4265   5.838   1.585   3.049  0.0517  0.1544 -0.6490
 1420TIP3    H1 4266   5.918   1.572   2.999  0.3710  0.8076 -0.3236
 1420TIP3    H2 4267   5.860   1.557   3.138 -0.0738  0.3375 -0.5585
 1421TIP3   OH2 4268   0.910   0.302   1.897  0.9220  0.4677  0.4316
 1421TIP3    H1 4269   0.915   0.225   1.953 -1.1765 -0.7038 -0.8888
 1421TIP3    H2 4270   0.926   0.269   1.808 -2.3656  1.0205 -0.4854
 1422TIP3   OH2 4271   0.728   4.547   1.939 -0.3603  0.5479  0.1386
 1422TIP3    H1 4272   0.712   4.524   2.031 -2.6931 -0.1310 -0.3591
 1422TIP3    H2 4273   0.684   4.479   1.889 -0.9365  2.0142 -1.4573
 1423TIP3   OH2 4274   4.323   3.286   2.442 -0.1382  0.4364 -0.1354
 1423TIP3    H1 4275   4.262   3.251   2.377  0.4694 -1.0054  0.0343
 1423TIP3    H2 4276   4.373   3.353   2.394 -1.3767  1.1861 -0.4439
 1424TIP3   OH2 4277   0.442   2.854   0.810  0.5096  0.0923 -0.0860
 1424TIP3    H1 4278   0.396   2.830   0.730  0.0787 -0.6526  0.3663
 1424TIP3    H2 4279   0.531   2.822   0.798  0.4307 -0.0673 -0.2452
 1425TIP3   OH2 4280   6.099   3.751   2.541  0.5184  0.2982 -0.1049
 1425TIP3    H1 4281   6.043   3.734   2.465  2.2778 -0.4836 -1.3117
 1425TIP3    H2 4282   6.056   3.707   2.614 -1.5569  1.5984 -0.4471
 1426TIP3   OH2 4283   4.362   0.598   4.468 -0.2395 -0.3989 -0.8857
 1426TIP3    H1 4284   4.278   0.552   4.474 -0.0321 -1.0413 -2.4320
 1426TIP3    H2 4285   4.425   0.528   4.450  0.4247  0.2452 -1.0720
 1427TIP3   OH2 4286   2.476   5.837   4.905 -0.5615  0.4909  0.0923
 1427TIP3    H1 4287   2.405   5.854   4.967  0.6330  0.4037  1.5404
 1427TIP3    H2 4288   2.515   5.755   4.935 -0.2364  0.2037 -1.0632
 1428TIP3   OH2 4289   3.649   2.802   1.177  0.0195 -0.5056  0.1529
 1428TIP3    H1 4290   3.667   2.749   1.100  1.0530 -0.9855  0.6996
 1428TIP3    H2 4291   3.723   2.862   1.183 -1.0903  0.9803 -0.4011
 1429TIP3   OH2 4292   3.160   4.255   3.459 -0.2913 -0.0461 -0.2988
 1429TIP3    H1 4293   3.185   4.192   3.527  0.0181  0.5586  0.1553
 1429TIP3    H2 4294   3.067   4.271   3.474 -0.0967  0.5241  0.3595
 1430TIP3   OH2 4295   5.783   3.439   0.455  0.4027  0.2855  0.0743
 1430TIP3    H1 4296   5.833   3.473   0.381  1.0385  0.9313  0.7938
 1430TIP3    H2 4297   5.812   3.348   0.464  0.7660  0.3853 -0.0882
 1431TIP3   OH2 4298   0.362   1.692   1.372 -0.3286  0.2642 -0.4826
 1431TIP3    H1 4299   0.321   1.773   1.342  0.7710  0.9685 -0.1282
 1431TIP3    H2 4300   0.315   1.670   1.453 -0.7494  0.4508 -0.6764
 1432TIP3   OH2 4301   2.979   3.950   2.883 -0.2598 -0.2579 -0.3284
 1432TIP3    H1 4302   2.947   3.970   2.971 -0.1538 -1.5734  0.0323
 1432TIP3    H2 4303   3.063   3.995   2.878 -1.3843  1.9607 -0.7306
 1433TIP3   OH2 4304   2.722   2.233   2.484  0.3177 -0.3281  0.2632
 1433TIP3    H1 4305   2.717   2.322   2.519 -0.8464 -0.5878  0.8244
 1433TIP3    H2 4306   2.672   2.236   2.403  1.4694 -0.1608 -0.4664
 1434TIP3   OH2 4307   5.444   2.231   0.935  0.2233  0.1024 -0.2389
 1434TIP3    H1 4308   5.425   2.159   0.874 -0.3455  0.5167 -0.5655
 1434TIP3    H2 4309   5.430   2.193   1.022 -1.0747  0.0657 -0.4323
 1435TIP3   OH2 4310  -0.035   0.739   1.375  0.0826 -0.0757 -0.0303
 1435TIP3    H1 4311   0.024   0.663   1.380 -1.2195 -1.2007 -1.0159
 1435TIP3    H2 4312   0.024   0.814   1.364  1.3594 -1.1409 -0.8355
 1436TIP3   OH2 4313   3.524   5.268   4.342  0.2950 -0.4321 -0.1036
 1436TIP3    H1 4314   3.537   5.277   4.247 -2.3957 -3.1077 -0.9065
 1436TIP3    H2 4315   3.468   5.342   4.365 -2.6273 -1.9812 -1.6470
 1437TIP3   OH2 4316   2.125   3.026   3.415  0.2382  0.4843  0.4932
 1437TIP3    H1 4317   2.089   2.968   3.348 -0.8657  1.0844  0.5386
 1437TIP3    H2 4318   2.201   2.980   3.449  0.4621 -0.0990 -0.7550
 1438TIP3   OH2 4319   1.514   0.987   1.751 -0.0532  0.1182 -0.0551
 1438TIP3    H1 4320   1.449   0.991   1.821 -0.9604  0.1129 -0.8865
 1438TIP3    H2 4321   1.596   0.965   1.797 -0.2123  1.9412  1.2520
 1439TIP3   OH2 4322   1.871   3.054   1.417 -0.1399  0.3447  0.0479
 1439TIP3    H1 4323   1.818   2.992   1.466  0.3489 -0.0432  0.0973
 1439TIP3    H2 4324   1.961   3.026   1.432  0.0563  0.6950 -0.4300
 1440TIP3   OH2 4325   4.890   6.018   1.800 -0.0575  0.3883  1.0660
 1440TIP3    H1 4326   4.836   5.990   1.726  1.4647  2.0375 -0.7885
 1440TIP3    H2 4327   4.943   5.941   1.822 -0.0258  0.0869 -0.0306
 1441TIP3   OH2 4328   4.797   3.388   4.493 -0.1236  0.1065 -0.0731
 1441TIP3    H1 4329   4.765   3.378   4.582  1.9600 -0.9582  0.6258
 1441TIP3    H2 4330   4.879   3.438   4.502  0.2444 -0.2196 -1.3547
 1442TIP3   OH2 4331   2.676   5.972   3.160 -0.7195  0.1940 -0.5002
 1442TIP3    H1 4332   2.677   6.015   3.245 -4.4078 -1.2758  0.4814
 1442TIP3    H2 4333   2.723   5.890   3.173 -0.8069  0.2242  0.0001
 1443TIP3   OH2 4334   5.279   2.950   0.339  0.3826  0.6563 -0.4528
 1443TIP3    H1 4335   5.324   3.020   0.293 -2.1074  1.5995 -1.6686
 1443TIP3    H2 4336   5.287   2.973   0.432  0.3626  2.0818 -0.7833
 1444TIP3   OH2 4337   5.463   0.771   1.795 -0.1258  0.1696 -0.1792
 1444TIP3    H1 4338   5.543   0.724   1.818 -0.1204  0.0485 -0.4425
 1444TIP3    H2 4339   5.392   0.718   1.833  0.0064  1.1941  1.5829
 1445TIP3   OH2 4340   5.922   0.574   2.258 -0.1041  0.1659  0.0973
 1445TIP3    H1 4341   5.969   0.582   2.341 -1.2385 -2.4523  1.1287
 1445TIP3    H2 4342   5.945   0.487   2.225 -0.4913  0.7379 -1.8302
 1446TIP3   OH2 4343   3.344   5.566   0.651  0.0563  0.4731 -0.1462
 1446TIP3    H1 4344   3.387   5.483   0.674  1.5458  1.4205  0.6105
 1446TIP3    H2 4345   3.411   5.633   0.666 -0.4299  1.6622 -2.7040
 1447TIP3   OH2 4346   6.272   2.936   2.551 -0.5769  0.7119 -0.1639
 1447TIP3    H1 4347   6.265   2.854   2.502  0.9139  0.2795  0.2936
 1447TIP3    H2 4348   6.181   2.962   2.568 -1.0990 -1.4694  0.7154
 1448TIP3   OH2 4349   1.589   5.768   3.958 -0.0562 -0.8445  0.4675
 1448TIP3    H1 4350   1.579   5.690   4.014 -1.0631 -2.0832 -1.3393
 1448TIP3    H2 4351   1.612   5.733   3.872 -0.7776  0.8566 -0.4645
 1449TIP3   OH2 4352   3.571   5.691   0.730 -0.6173 -0.0695  0.5338
 1449TIP3    H1 4353   3.549   5.758   0.795  0.0107  0.1597  0.5124
 1449TIP3    H2 4354   3.591   5.613   0.783  0.3911  0.2566  0.6549
 1450TIP3   OH2 4355   3.227   4.718   0.054 -0.1022 -0.0565 -0.3631
 1450TIP3    H1 4356   3.199   4.675   0.135  0.0057  0.9300  0.2009
 1450TIP3    H2 4357   3.249   4.807   0.079  1.3162 -0.1294 -1.2257
 1451TIP3   OH2 4358   3.596   4.782   4.770 -0.3424  0.0723  0.2679
 1451TIP3    H1 4359   3.646   4.784   4.852 -0.6507  0.8912  0.4479
 1451TIP3    H2 4360   3.537   4.708   4.780  0.7214 -0.8156  0.1126
 1452TIP3   OH2 4361   3.557   4.481   3.935  0.4472  0.1847  0.8146
 1452TIP3    H1 4362   3.505   4.483   4.016  0.7838 -1.3146  1.1028
 1452TIP3    H2 4363   3.620   4.411   3.950  1.5839  0.9857 -0.1233
 1453TIP3   OH2 4364   3.280   3.929   1.913 -0.5532 -0.5213 -0.1951
 1453TIP3    H1 4365   3.366   3.969   1.923 -0.3554  0.2562 -3.5972
 1453TIP3    H2 4366   3.221   4.003   1.896 -1.2200 -1.2401 -1.1669
 1454TIP3   OH2 4367   4.663   3.369   2.424 -0.2231  0.1992 -0.0863
 1454TIP3    H1 4368   4.648   3.453   2.466 -1.2681  0.2131 -0.4523
 1454TIP3    H2 4369   4.686   3.390   2.334  0.7817  0.1272  0.1437
 1455TIP3   OH2 4370   6.224   2.787   4.284  0.3374  0.1237 -0.2175
 1455TIP3    H1 4371   6.251   2.740   4.205 -0.9215  0.9429 -1.1791
 1455TIP3    H2 4372   6.289   2.762   4.350 -0.6463 -3.5530 -0.4034
 1456TIP3   OH2 4373   5.224   5.519   3.428 -0.1105 -0.3043  1.0648
 1456TIP3    H1 4374   5.244   5.432   3.394  0.2304 -0.1426  0.8425
 1456TIP3    H2 4375   5.306   5.548   3.468 -0.0054  0.2123  0.4893
 1457TIP3   OH2 4376   1.250   2.388   4.827  0.2030 -0.2512 -0.4282
 1457TIP3    H1 4377   1.253   2.294   4.807 -0.5843  0.2269 -3.1963
 1457TIP3    H2 4378   1.339   2.419   4.807 -0.1887 -0.0340 -1.9708
 1458TIP3   OH2 4379   2.369   2.062   2.046 -0.1972 -0.1074  0.1729
 1458TIP3    H1 4380   2.331   1.986   2.091  1.9875 -1.0129  0.6094
 1458TIP3    H2 4381   2.440   2.091   2.104  1.6140 -0.2579 -1.8478
 1459TIP3   OH2 4382   3.784   0.621   2.260  0.2340 -0.0246  0.4489
 1459TIP3    H1 4383   3.801   0.571   2.340 -1.5307 -1.5668 -0.0556
 1459TIP3    H2 4384   3.756   0.555   2.196 -3.3120  1.6397  0.0412
 1460TIP3   OH2 4385   2.028   5.989   2.264  0.5428  0.1580 -0.0054
 1460TIP3    H1 4386   1.991   5.951   2.344 -0.6221  0.2164 -0.4928
 1460TIP3    H2 4387   2.094   5.926   2.235 -0.2968 -0.7574  0.0226
 1461TIP3   OH2 4388   3.863   0.449   0.585 -0.0682  0.1897  0.1371
 1461TIP3    H1 4389   3.922   0.489   0.521 -1.2524 -0.0863 -1.1734
 1461TIP3    H2 4390   3.778   0.448   0.542 -0.5148 -1.8096  0.9605
 1462TIP3   OH2 4391   0.914   3.551   4.361  0.0703  0.5118 -0.4048
 1462TIP3    H1 4392   0.913   3.642   4.392 -0.9468  0.1751  0.6254
 1462TIP3    H2 4393   0.856   3.505   4.421  2.2647 -1.2931  0.4685
 1463TIP3   OH2 4394   2.768   2.444   3.644  0.0636 -0.7900  0.1244
 1463TIP3    H1 4395   2.716   2.515   3.681  1.4586  0.8437 -0.9285
 1463TIP3    H2 4396   2.784   2.470   3.554  1.9151 -1.6905  0.1502
 1464TIP3   OH2 4397   0.897   0.157   4.015  0.3452 -0.4054  0.2395
 1464TIP3    H1 4398   0.955   0.233   4.018 -0.6470  0.3841 -0.0871
 1464TIP3    H2 4399   0.839   0.174   3.941 -1.5374 -0.2246  1.6751
 1465TIP3   OH2 4400   5.756   3.178   0.887  0.2147  0.7064 -0.6757
 1465TIP3    H1 4401   5.781   3.223   0.968  0.4122  0.8799 -0.8336
 1465TIP3    H2 4402   5.732   3.249   0.827 -0.1057  0.5698 -0.7122
 1466TIP3   OH2 4403   2.383   3.415   3.050 -0.0510  0.1505  0.3566
 1466TIP3    H1 4404   2.299   3.371   3.034 -1.0104  2.1464 -0.4415
 1466TIP3    H2 4405   2.448   3.357   3.011 -1.2130 -0.6673 -0.4523
 1467TIP3   OH2 4406   3.505   2.646   3.642 -0.0740 -0.3107  0.5094
 1467TIP3    H1 4407   3.459   2.585   3.584  0.2412 -0.0124 -0.0646
 1467TIP3    H2 4408   3.598   2.627   3.628  0.0143  0.0779  0.5660
 1468TIP3   OH2 4409   5.363   4.768   2.961 -0.2566  0.0792 -0.1408
 1468TIP3    H1 4410   5.339   4.728   2.878 -2.2474  0.5448  0.1476
 1468TIP3    H2 4411   5.352   4.699   3.026 -2.4168  0.6524  0.1833
 1469TIP3   OH2 4412   2.108   4.615   3.459  0.2790  0.8037  0.0124
 1469TIP3    H1 4413   2.117   4.663   3.542  1.6978 -0.9283  0.9257
 1469TIP3    H2 4414   2.092   4.524   3.486  1.2831  0.1101 -1.5996
 1470TIP3   OH2 4415   4.037   0.121   2.926  0.1312 -0.0023 -0.4266
 1470TIP3    H1 4416   3.945   0.141   2.942  0.1979  0.0887 -0.1704
 1470TIP3    H2 4417   4.085   0.177   2.986  0.4785  2.0485 -2.4598
 1471TIP3   OH2 4418   3.351   2.887   1.613  0.7343  0.0889  0.1982
 1471TIP3    H1 4419   3.421   2.942   1.577  0.8752 -1.1091 -1.5213
 1471TIP3    H2 4420   3.290   2.875   1.540 -1.3758  1.1934  1.6820
 1472TIP3   OH2 4421   5.277   3.844   1.742 -0.0045  0.1331  0.4543
 1472TIP3    H1 4422   5.316   3.920   1.700 -0.7480  0.9271  1.1679
 1472TIP3    H2 4423   5.316   3.842   1.829 -1.3985  0.8663  1.1355
 1473TIP3   OH2 4424   5.577   4.353   3.784 -0.5362 -0.6002  0.1953
 1473TIP3    H1 4425   5.636   4.289   3.743 -0.1602  0.7170 -1.4166
 1473TIP3    H2 4426   5.623   4.437   3.776 -2.1558  0.2994 -0.1579
 1474TIP3   OH2 4427   2.021   4.253   4.131 -0.2883  0.0299 -0.3601
 1474TIP3    H1 4428   2.024   4.227   4.039 -0.1287 -1.0011 -0.0764
 1474TIP3    H2 4429   1.980   4.179   4.175  1.7155 -0.5010  0.7370
 1475TIP3   OH2 4430   4.736   0.152   2.722 -0.2879 -0.1710 -0.1497
 1475TIP3    H1 4431   4.646   0.134   2.697 -0.6770 -0.4816  1.3637
 1475TIP3    H2 4432   4.776   0.192   2.644 -2.1827  1.5009 -0.3332
 1476TIP3   OH2 4433   1.823   1.646   4.788 -0.1577 -1.0138  0.3931
 1476TIP3    H1 4434   1.811   1.610   4.876 -1.7567  1.6486  1.3588
 1476TIP3    H2 4435   1.874   1.725   4.802 -0.5660 -0.4707 -1.0654
 1477TIP3   OH2 4436   2.084   3.875   3.946  0.4941  0.0976 -0.5851
 1477TIP3    H1 4437   2.007   3.926   3.922  0.2224 -0.6720 -1.3972
 1477TIP3    H2 4438   2.104   3.903   4.035 -1.0168 -0.0474 -0.1703
 1478TIP3   OH2 4439   3.278   0.587   0.766  1.0776  0.2150 -0.0006
 1478TIP3    H1 4440   3.278   0.622   0.856  0.0185  0.7915 -0.2171
 1478TIP3    H2 4441   3.293   0.493   0.778  0.1579  0.1587  0.8356
 1479TIP3   OH2 4442   2.981   0.567   3.171 -0.2810  0.3771  0.4777
 1479TIP3    H1 4443   2.936   0.646   3.200 -1.0710  0.3691 -0.6489
 1479TIP3    H2 4444   2.922   0.495   3.195 -0.2430  0.2528  0.2039
 1480TIP3   OH2 4445   5.846   1.576   0.683 -0.2013 -0.1226 -0.0793
 1480TIP3    H1 4446   5.923   1.560   0.629  0.9549  2.1266  0.7488
 1480TIP3    H2 4447   5.774   1.585   0.621  0.6294 -0.0502 -1.0585
 1481TIP3   OH2 4448   3.010   4.853   2.239  0.3911  0.5981  0.2678
 1481TIP3    H1 4449   2.920   4.871   2.212  0.4718 -1.6415 -1.9074
 1481TIP3    H2 4450   3.005   4.843   2.334 -2.0507 -1.2241  0.0578
 1482TIP3   OH2 4451   5.390   1.423   1.943  0.3878  0.5708  0.5512
 1482TIP3    H1 4452   5.397   1.510   1.983 -1.5102  0.0352  2.1777
 1482TIP3    H2 4453   5.316   1.431   1.882  0.3046  0.1342  0.5949
 1483TIP3   OH2 4454   2.202   3.448   3.976 -0.3534 -0.3443  0.3266
 1483TIP3    H1 4455   2.261   3.507   4.022 -0.3714  3.6056 -3.9530
 1483TIP3    H2 4456   2.258   3.403   3.912 -1.2616  0.3524 -1.0238
 1484TIP3   OH2 4457   6.012   1.104   1.084 -0.2076 -0.1220  0.0909
 1484TIP3    H1 4458   5.979   1.112   0.994  0.0906 -0.5431 -0.0570
 1484TIP3    H2 4459   6.036   1.194   1.108 -2.3986  0.3986  0.5782
 1485TIP3   OH2 4460   0.146   4.570   2.798  0.1731  0.2753  0.2515
 1485TIP3    H1 4461   0.142   4.508   2.871  1.6801  1.0292  1.0313
 1485TIP3    H2 4462   0.137   4.656   2.839  1.8058  0.7619 -0.3031
 1486TIP3   OH2 4463   3.046   0.909   5.075  0.8640 -0.5038  0.3327
 1486TIP3    H1 4464   3.021   0.939   4.988  0.8114  0.6544  0.7381
 1486TIP3    H2 4465   3.135   0.875   5.064  1.0589  0.1309 -0.0622
 1487TIP3   OH2 4466   0.417   1.153   4.005  0.0878 -0.0858  0.0459
 1487TIP3    H1 4467   0.375   1.067   4.003  0.6378 -0.3496 -2.5233
 1487TIP3    H2 4468   0.395   1.193   3.921  0.1481  2.1833  1.0182
 1488TIP3   OH2 4469   3.325   4.947   5.195  0.0186  0.1058 -0.0366
 1488TIP3    H1 4470   3.327   4.895   5.115 -0.4131 -1.3459  0.8608
 1488TIP3    H2 4471   3.232   4.953   5.218  0.2341 -1.5365  1.5802
 1489TIP3   OH2 4472   6.170   1.006   1.301 -0.0880  0.7283  0.6304
 1489TIP3    H1 4473   6.263   0.987   1.285 -0.3258 -1.8152  1.8969
 1489TIP3    H2 4474   6.138   1.040   1.217  1.3608 -0.9450 -0.6709
 1490TIP3   OH2 4475   4.098   4.271   3.130  0.2293 -0.2580  0.0029
 1490TIP3    H1 4476   4.126   4.189   3.170  0.2166 -0.6977 -0.8509
 1490TIP3    H2 4477   4.031   4.245   3.067  1.2814  0.2137 -1.3622
 1491TIP3   OH2 4478   5.615   3.969   4.065 -0.0789 -0.1975  0.0958
 1491TIP3    H1 4479   5.700   3.989   4.105  1.0957 -2.8686 -0.8131
 1491TIP3    H2 4480   5.628   3.884   4.023 -2.6017  0.3085 -1.9603
 1492TIP3   OH2 4481   0.622   1.859   5.092  0.6987  0.5296 -0.2014
 1492TIP3    H1 4482   0.530   1.884   5.097 -0.0627 -2.1848  1.1197
 1492TIP3    H2 4483   0.670   1.941   5.109 -1.4491  1.8883 -0.3439
 1493TIP3   OH2 4484   4.956   2.921   4.839 -0.0432 -0.1814  0.2078
 1493TIP3    H1 4485   4.993   2.974   4.909 -1.7365  2.2737 -0.6199
 1493TIP3    H2 4486   4.914   2.847   4.885 -1.0829  1.3349  1.8473
 1494TIP3   OH2 4487   4.822   5.694   1.373  0.3054 -0.3447 -0.4078
 1494TIP3    H1 4488   4.856   5.677   1.284 -0.6643  0.9111 -1.0446
 1494TIP3    H2 4489   4.881   5.760   1.409 -0.3068  0.4246 -0.7902
 1495TIP3   OH2 4490   3.541   5.462   0.944 -0.2737  0.0028  0.7513
 1495TIP3    H1 4491   3.506   5.436   1.029 -0.4006  2.1017  1.4134
 1495TIP3    H2 4492   3.501   5.401   0.881 -1.4791 -0.5630  2.0151
 1496TIP3   OH2 4493   6.298   3.890   3.668 -0.2202 -0.2686  0.1281
 1496TIP3    H1 4494   6.251   3.972   3.684  0.9873  0.3402  0.6795
 1496TIP3    H2 4495   6.390   3.915   3.663 -0.0351 -1.1219 -3.0646
 1497TIP3   OH2 4496   5.647   3.221   4.056  0.3323  0.3311  0.1472
 1497TIP3    H1 4497   5.699   3.140   4.053  0.3060  0.1161  2.9114
 1497TIP3    H2 4498   5.564   3.198   4.014  0.5282 -0.9141  0.4005
 1498TIP3   OH2 4499   4.041   5.103   1.565 -0.2895  0.2658 -0.3808
 1498TIP3    H1 4500   4.024   5.135   1.654 -1.7946 -0.6136 -0.3158
 1498TIP3    H2 4501   4.101   5.029   1.578 -0.8769 -0.1614 -0.0363
 1499TIP3   OH2 4502   3.795   0.989   3.218 -0.3180 -0.1248 -0.2045
 1499TIP3    H1 4503   3.769   0.956   3.132  0.3029 -0.8709 -0.1145
 1499TIP3    H2 4504   3.802   1.084   3.206  0.8783 -0.3198 -1.2840
 1500TIP3   OH2 4505   4.953   0.259   3.627 -0.2517  0.4886  0.0114
 1500TIP3    H1 4506   4.997   0.280   3.710 -0.3335 -0.8886  0.4153
 1500TIP3    H2 4507   4.867   0.225   3.653  1.1495 -3.8913 -0.3138
 1501TIP3   OH2 4508   3.052   3.108   4.651  0.4451  0.3898 -0.4890
 1501TIP3    H1 4509   3.005   3.026   4.663 -0.2803  0.4132 -2.7554
 1501TIP3    H2 4510   3.110   3.114   4.727  0.4196 -2.1396 -0.1973
 1502TIP3   OH2 4511   5.918   4.980   1.911  0.2660  0.5525  0.1139
 1502TIP3    H1 4512   5.882   4.917   1.849 -1.5289  0.6615  1.0068
 1502TIP3    H2 4513   5.855   5.052   1.912  0.3572  0.6510  1.8931
 1503TIP3   OH2 4514   4.447   4.658   4.215  0.1337 -0.0401  0.1047
 1503TIP3    H1 4515   4.352   4.649   4.221  0.3310 -1.5888  1.8804
 1503TIP3    H2 4516   4.476   4.662   4.306  1.6964  1.7512 -0.4166
 1504TIP3   OH2 4517   2.030   0.918   3.996  0.0590 -0.8521 -0.2824
 1504TIP3    H1 4518   1.979   0.870   4.060  0.6036 -1.4195 -0.2647
 1504TIP3    H2 4519   1.965   0.954   3.935 -0.6683  1.4354  1.6845
 1505TIP3   OH2 4520   1.037   4.402   0.216  0.5073  0.3419 -0.4680
 1505TIP3    H1 4521   1.114   4.371   0.169 -0.6607  0.4887 -2.6017
 1505TIP3    H2 4522   1.063   4.487   0.252  2.0514 -0.6725  0.9088
 1506TIP3   OH2 4523   0.859   5.486   1.597 -0.4295  0.0554  0.0670
 1506TIP3    H1 4524   0.939   5.493   1.649  0.1554 -0.2977 -0.7663
 1506TIP3    H2 4525   0.789   5.507   1.658  0.1457 -1.3918  1.2922
 1507TIP3   OH2 4526   2.927   1.361   2.245  0.8712  0.0765 -0.0972
 1507TIP3    H1 4527   2.975   1.279   2.255  0.8565  0.0986  0.1411
 1507TIP3    H2 4528   2.888   1.355   2.157  0.1341 -0.5601  0.2632
 1508TIP3   OH2 4529   3.431   2.560   3.380  0.3354  0.0335  0.5546
 1508TIP3    H1 4530   3.412   2.648   3.411 -0.3249  0.9892 -2.2506
 1508TIP3    H2 4531   3.389   2.556   3.293 -0.7397 -3.4615  1.0753
 1509TIP3   OH2 4532   2.445   1.229   0.407  0.1369 -0.0339 -0.2530
 1509TIP3    H1 4533   2.394   1.168   0.353  0.1712 -0.5984  0.3369
 1509TIP3    H2 4534   2.463   1.180   0.488 -0.2799  0.9409  0.4519
 1510TIP3   OH2 4535   3.667   1.597   3.132  0.3468 -0.2745  0.1599
 1510TIP3    H1 4536   3.753   1.583   3.092  0.7404  3.8577 -0.8513
 1510TIP3    H2 4537   3.608   1.614   3.059 -0.6924 -0.2168  0.9852
 1511TIP3   OH2 4538   2.445   4.352   0.576  0.0073 -0.3611 -0.3440
 1511TIP3    H1 4539   2.463   4.260   0.555 -0.5893 -0.6420  0.3116
 1511TIP3    H2 4540   2.369   4.375   0.523  1.0283  0.2158 -1.6081
 1512TIP3   OH2 4541   0.232   5.993   0.698 -0.4475  0.8358 -0.7543
 1512TIP3    H1 4542   0.195   5.912   0.663  0.0003 -0.0051  0.6650
 1512TIP3    H2 4543   0.224   5.985   0.793  4.6803 -0.1750 -0.1026
 1513TIP3   OH2 4544   3.880   2.139   5.107 -0.0163  0.0248 -0.2491
 1513TIP3    H1 4545   3.937   2.212   5.129  0.2825 -0.4911  0.7663
 1513TIP3    H2 4546   3.815   2.175   5.047  0.0036  1.1600  0.3967
 1514TIP3   OH2 4547   6.038   3.283   0.664 -0.7844  0.7073  0.5877
 1514TIP3    H1 4548   6.048   3.369   0.704 -1.2279  1.0420 -0.0029
 1514TIP3    H2 4549   5.962   3.292   0.606  0.9764  0.8611 -1.8728
 1515TIP3   OH2 4550   2.326   0.988   3.941  0.2320  0.6516 -0.0359
 1515TIP3    H1 4551   2.379   1.000   4.020 -0.3198  2.0035  0.1478
 1515TIP3    H2 4552   2.372   1.037   3.873 -0.3917  1.2477 -0.0422
 1516TIP3   OH2 4553   5.080   1.313   4.273  0.3714  0.0534  0.8180
 1516TIP3    H1 4554   5.121   1.228   4.257 -0.6151 -0.3149  0.1189
 1516TIP3    H2 4555   5.020   1.297   4.346 -0.5140 -0.1043  0.0711
 1517TIP3   OH2 4556   0.763   3.843   3.850 -0.5588 -0.1593 -0.3030
 1517TIP3    H1 4557   0.850   3.863   3.816  0.0948  0.2120  1.4483
 1517TIP3    H2 4558   0.749   3.751   3.828  1.2061 -0.8522  1.1771
 1518TIP3   OH2 4559   1.164   5.906   4.327  0.1980  0.2744 -0.1780
 1518TIP3    H1 4560   1.252   5.929   4.296  0.2722 -0.8405 -0.8528
 1518TIP3    H2 4561   1.120   5.870   4.250 -0.3418 -0.5551  0.4952
 1519TIP3   OH2 4562   2.041   5.063   0.154  0.2394  0.1992  0.1911
 1519TIP3    H1 4563   1.993   5.094   0.078 -1.0328 -0.3469  0.7435
 1519TIP3    H2 4564   2.077   4.979   0.127 -1.9508 -1.0060  0.7934
 1520TIP3   OH2 4565   6.163   4.362   4.596  0.0457 -0.2083  0.3768
 1520TIP3    H1 4566   6.121   4.415   4.529  1.3849  0.6520  0.1928
 1520TIP3    H2 4567   6.091   4.336   4.655 -1.2864 -1.5870 -1.7223
 1521TIP3   OH2 4568   2.432   1.386   2.324  0.6134  0.0563 -0.3886
 1521TIP3    H1 4569   2.465   1.459   2.377  1.3786 -0.2660 -0.4056
 1521TIP3    H2 4570   2.509   1.333   2.307 -0.1128 -1.3190  0.4837
 1522TIP3   OH2 4571   3.936   2.314   3.300 -0.4265  0.3758 -0.2262
 1522TIP3    H1 4572   3.959   2.347   3.214 -1.0736  1.7794  0.1178
 1522TIP3    H2 4573   3.854   2.266   3.287 -0.1973  0.0485 -0.4863
 1523TIP3   OH2 4574   2.961   4.934   3.587  0.7138 -0.1973  0.1050
 1523TIP3    H1 4575   2.997   5.012   3.629  1.5933 -1.1395  1.1455
 1523TIP3    H2 4576   2.930   4.965   3.502 -2.9173  2.2328  2.0313
 1524TIP3   OH2 4577   2.273   3.704   1.776  0.3957 -0.1744 -0.1893
 1524TIP3    H1 4578   2.301   3.614   1.795  0.6083 -0.0740 -0.0202
 1524TIP3    H2 4579   2.177   3.701   1.784  0.4799 -0.1051  1.0997
 1525TIP3   OH2 4580   3.166   2.053   4.343 -0.6458  0.0132  0.4084
 1525TIP3    H1 4581   3.103   1.993   4.303 -0.9007  0.4670  0.1216
 1525TIP3    H2 4582   3.171   2.126   4.282 -0.6460  0.4733  0.9563
 1526TIP3   OH2 4583   4.629   2.139   3.238 -0.2051  0.1188  0.1297
 1526TIP3    H1 4584   4.684   2.114   3.312 -0.6284  0.9138  0.7303
 1526TIP3    H2 4585   4.655   2.080   3.167  0.2678 -0.5888  0.8817
 1527TIP3   OH2 4586   0.525   4.953   0.269 -0.3327 -0.4510 -0.0954
 1527TIP3    H1 4587   0.485   4.876   0.309 -0.9886 -0.1112 -0.0893
 1527TIP3    H2 4588   0.580   4.918   0.198  1.7649 -1.1605  1.7682
 1528TIP3   OH2 4589   1.770   0.907   3.310  0.0248  0.2013 -0.4699
 1528TIP3    H1 4590   1.776   0.910   3.214 -2.1453 -1.4353 -0.7327
 1528TIP3    H2 4591   1.704   0.973   3.331 -0.0734  0.0132 -0.1832
 1529TIP3   OH2 4592   4.440   2.815   0.946 -0.7168  0.4096 -0.7005
 1529TIP3    H1 4593   4.509   2.858   0.895  0.9273 -0.9837  0.2430
 1529TIP3    H2 4594   4.487   2.768   1.015 -2.8089  2.3290  2.2870
 1530TIP3   OH2 4595   2.921   3.545   2.748 -0.3714  0.5085  0.1795
 1530TIP3    H1 4596   2.991   3.514   2.806 -0.2225  0.7024  0.1020
 1530TIP3    H2 4597   2.877   3.464   2.720  0.5317  0.2806 -0.6791
 1531TIP3   OH2 4598   3.942   2.776   1.915  0.1513  0.2067 -0.6936
 1531TIP3    H1 4599   3.949   2.693   1.867  0.0054 -0.7233  0.8145
 1531TIP3    H2 4600   3.915   2.840   1.849 -2.3266 -1.4642 -1.4478
 1532TIP3   OH2 4601   0.231   2.979   2.584 -0.9634  0.2428  0.7516
 1532TIP3    H1 4602   0.146   3.000   2.622 -1.1066  1.2062 -0.0602
 1532TIP3    H2 4603   0.291   3.045   2.618 -0.6107 -0.2111  1.0317
 1533TIP3   OH2 4604   1.573   1.989   3.071  0.1428  0.0023  0.4805
 1533TIP3    H1 4605   1.559   1.903   3.111  1.6133  0.0757  1.2449
 1533TIP3    H2 4606   1.667   2.006   3.085  0.0435  1.3686 -0.3785
 1534TIP3   OH2 4607   3.053   1.627   2.689 -0.1572 -0.0716  0.4992
 1534TIP3    H1 4608   3.083   1.645   2.600 -2.1053  2.5885  0.2427
 1534TIP3    H2 4609   3.048   1.532   2.694 -1.7687 -0.3077 -2.9279
 1535TIP3   OH2 4610   4.536   3.454   0.921  0.2572 -0.1031  0.1428
 1535TIP3    H1 4611   4.559   3.453   0.828  2.4407  1.0674  0.6132
 1535TIP3    H2 4612   4.577   3.375   0.957 -1.5990 -1.2255 -0.0278
 1536TIP3   OH2 4613   0.825   5.639   3.845 -0.4079 -0.2051  0.1231
 1536TIP3    H1 4614   0.898   5.684   3.887 -0.2980 -0.5074  0.2578
 1536TIP3    H2 4615   0.832   5.662   3.752 -1.8086  2.1157  0.5036
 1537TIP3   OH2 4616   4.062   4.952   3.645  0.4978  0.5021  0.0032
 1537TIP3    H1 4617   3.983   4.987   3.686  0.2142  1.5116 -1.3307
 1537TIP3    H2 4618   4.099   4.892   3.710 -1.3399  0.0393  0.6728
 1538TIP3   OH2 4619   1.957   0.884   0.995  0.3257  0.6794  0.2830
 1538TIP3    H1 4620   1.901   0.946   0.949  1.8067  0.9640 -1.2349
 1538TIP3    H2 4621   1.919   0.798   0.977  0.2843  0.8794 -0.6041
 1539TIP3   OH2 4622   5.917   2.317   3.148  0.6730 -0.5646 -0.2920
 1539TIP3    H1 4623   5.933   2.341   3.240  2.2644  0.4051 -0.7657
 1539TIP3    H2 4624   5.941   2.225   3.143  0.7283 -0.5845  0.2301
 1540TIP3   OH2 4625   6.005   2.907   3.383 -0.2572  0.2894  0.5056
 1540TIP3    H1 4626   5.976   2.996   3.401  0.2304  0.1402  2.1813
 1540TIP3    H2 4627   6.062   2.884   3.457 -1.3493 -1.8572  0.7669
 1541TIP3   OH2 4628   1.712   3.107   2.200  0.4997  0.6384  0.5551
 1541TIP3    H1 4629   1.660   3.058   2.263  1.5818  1.4347  2.1199
 1541TIP3    H2 4630   1.803   3.085   2.221  0.9023 -1.2624 -2.5497
 1542TIP3   OH2 4631   2.873   3.841   3.846  0.2033 -0.4903 -0.4382
 1542TIP3    H1 4632   2.791   3.863   3.890  2.2133  1.1411  2.9050
 1542TIP3    H2 4633   2.907   3.766   3.895  2.2533  0.9954  0.5646
 1543TIP3   OH2 4634   1.791   0.296   4.537 -0.3959 -0.3897  0.1982
 1543TIP3    H1 4635   1.750   0.219   4.576 -0.2191  0.0522  1.3013
 1543TIP3    H2 4636   1.793   0.360   4.608 -0.0528  0.4450 -0.5490
 1544TIP3   OH2 4637   1.780   4.732   3.837 -0.2633  0.2026 -1.1501
 1544TIP3    H1 4638   1.691   4.759   3.857  0.3915  1.4890  0.2256
 1544TIP3    H2 4639   1.786   4.642   3.869 -0.9335  0.2836 -0.7860
 1545TIP3   OH2 4640   4.477   3.374   3.753 -0.6998  0.3497 -0.0198
 1545TIP3    H1 4641   4.387   3.406   3.749 -0.7243  0.2119 -0.6829
 1545TIP3    H2 4642   4.528   3.440   3.706 -0.5383  0.1377 -0.1453
 1546TIP3   OH2 4643   3.539   5.548   3.925 -0.6634  0.2310 -0.2199
 1546TIP3    H1 4644   3.470   5.609   3.901  0.3432  1.5512  0.1230
 1546TIP3    H2 4645   3.595   5.544   3.847 -1.0934 -0.8356 -0.4979
 1547TIP3   OH2 4646   1.933   0.569   4.478  0.5188  0.3622  0.1506
 1547TIP3    H1 4647   1.851   0.618   4.473  1.7963  2.6719  0.1258
 1547TIP3    H2 4648   1.953   0.547   4.387 -0.2428 -0.5525  0.1966
 1548TIP3   OH2 4649   1.085   2.037   1.385 -0.0127  0.3784  0.2600
 1548TIP3    H1 4650   1.079   2.092   1.463 -0.0266 -0.0382  0.5539
 1548TIP3    H2 4651   1.036   1.958   1.407 -2.9193  1.5774 -1.3409
 1549TIP3   OH2 4652   2.090   2.460   4.295  0.6301 -0.3765 -0.1023
 1549TIP3    H1 4653   2.014   2.403   4.283  0.9849 -0.7621 -0.5589
 1549TIP3    H2 4654   2.106   2.457   4.390 -1.1951  1.4052  0.3194
 1550TIP3   OH2 4655   4.319   4.257   0.522 -0.4691 -0.0126 -0.1079
 1550TIP3    H1 4656   4.379   4.311   0.469 -2.1174 -0.1004 -2.2163
 1550TIP3    H2 4657   4.251   4.317   0.551 -1.5382 -0.6242 -1.2422
 1551TIP3   OH2 4658   2.750   5.912   2.284 -0.1934 -0.1959  0.2852
 1551TIP3    H1 4659   2.718   5.989   2.332 -0.9814  0.0677 -0.6378
 1551TIP3    H2 4660   2.672   5.861   2.266  0.2560 -0.9100  0.3402
 1552TIP3   OH2 4661   2.753   0.250   0.688 -0.6485 -0.3662  0.2107
 1552TIP3    H1 4662   2.673   0.253   0.740 -0.3234 -0.5122  0.7325
 1552TIP3    H2 4663   2.823   0.238   0.753 -0.1206  0.5980 -0.1638
 1553TIP3   OH2 4664   3.253   2.603   3.120  0.0104  0.0955  0.0122
 1553TIP3    H1 4665   3.218   2.687   3.090  0.9722  0.2913 -0.6049
 1553TIP3    H2 4666   3.284   2.561   3.040  2.9739  0.7849  0.6800
 1554TIP3   OH2 4667   2.558   3.715   1.087 -0.3381  0.3021 -0.0524
 1554TIP3    H1 4668   2.631   3.765   1.052 -1.3780  1.5315 -0.5815
 1554TIP3    H2 4669   2.560   3.632   1.038  0.8109  0.2233  0.1027
 1555TIP3   OH2 4670   1.823   0.306   2.379 -0.3561 -0.0558  0.1448
 1555TIP3    H1 4671   1.783   0.392   2.374 -2.2634 -0.9040  0.0126
 1555TIP3    H2 4672   1.915   0.321   2.358  0.0416  2.3752  2.9164
 1556TIP3   OH2 4673   5.927   4.115   3.030  0.1132 -0.3671 -0.9683
 1556TIP3    H1 4674   5.983   4.042   3.006  0.3427 -0.3363 -0.5457
 1556TIP3    H2 4675   5.866   4.078   3.095 -0.1463 -0.3228 -1.1836
 1557TIP3   OH2 4676   2.676   4.739   3.371  0.2958  0.3223 -0.2895
 1557TIP3    H1 4677   2.750   4.795   3.347  0.1929 -0.1084 -1.6992
 1557TIP3    H2 4678   2.671   4.745   3.466  0.6661  2.2071 -0.3618
 1558TIP3   OH2 4679   3.145   5.867   3.893  0.2615  0.4826  0.3104
 1558TIP3    H1 4680   3.113   5.779   3.873  2.4576 -0.5180  0.8748
 1558TIP3    H2 4681   3.080   5.925   3.855 -0.2957 -1.3660 -1.7813
 1559TIP3   OH2 4682   2.837   5.670   1.294  0.3517 -0.4357  0.3969
 1559TIP3    H1 4683   2.786   5.630   1.365 -1.6229  0.4258 -0.4467
 1559TIP3    H2 4684   2.775   5.677   1.221  1.4267  1.4914 -0.4060
 1560TIP3   OH2 4685   1.976   3.710   4.452 -0.1385 -0.2427  0.3599
 1560TIP3    H1 4686   1.910   3.778   4.433  1.1769  1.2805  0.9983
 1560TIP3    H2 4687   1.925   3.633   4.475 -1.7256  0.1221 -1.6302
 1561TIP3   OH2 4688   3.790   2.983   0.036  0.4167 -0.2063  0.1312
 1561TIP3    H1 4689   3.784   2.898  -0.009 -0.9103 -0.2491  0.3376
 1561TIP3    H2 4690   3.770   2.963   0.127 -0.4365  0.3884  0.0862
 1562TIP3   OH2 4691   1.671   4.582   4.179  0.3463  0.0953  0.2293
 1562TIP3    H1 4692   1.604   4.516   4.198  1.1231  0.0632  3.2099
 1562TIP3    H2 4693   1.719   4.545   4.105 -0.6027 -1.6504  0.4076
 1563TIP3   OH2 4694   3.795   4.883   0.633  0.4176 -0.3262  0.6451
 1563TIP3    H1 4695   3.813   4.792   0.660 -0.0483 -0.2151  1.3519
 1563TIP3    H2 4696   3.853   4.936   0.688 -0.9726 -0.0589  1.9143
 1564TIP3   OH2 4697   0.984   4.949   2.878 -0.4743 -0.1169 -0.1029
 1564TIP3    H1 4698   0.917   5.017   2.883  0.1034  0.3827  1.9989
 1564TIP3    H2 4699   0.935   4.867   2.865 -1.2610  0.5217 -1.3462
 1565TIP3   OH2 4700   5.856   4.328   3.266  0.3035  0.0623 -0.0635
 1565TIP3    H1 4701   5.886   4.333   3.357  1.9375 -0.2049 -0.5459
 1565TIP3    H2 4702   5.768   4.364   3.267  0.6805  1.0264  1.4527
 1566TIP3   OH2 4703   1.072   5.395   3.819 -0.6804  0.4280  0.5595
 1566TIP3    H1 4704   1.112   5.479   3.842  0.9020 -0.1353  0.0105
 1566TIP3    H2 4705   1.117   5.368   3.739 -0.2158 -1.5426  1.4274
 1567TIP3   OH2 4706   2.151   0.420   3.938 -0.0676 -0.7037  0.0805
 1567TIP3    H1 4707   2.105   0.459   3.864  0.1878  0.5864  0.5686
 1567TIP3    H2 4708   2.235   0.392   3.903  0.1918  0.2174 -0.0649
 1568TIP3   OH2 4709   3.621   4.012   4.641  0.8322 -0.0818 -0.1607
 1568TIP3    H1 4710   3.683   4.064   4.692  0.1312  0.0999  0.5367
 1568TIP3    H2 4711   3.659   3.924   4.639  0.6483 -0.2145  1.1186
 1569TIP3   OH2 4712   5.231   1.778   5.185 -0.6268 -0.3936  0.0597
 1569TIP3    H1 4713   5.215   1.693   5.144  0.7013 -0.5617 -0.1579
 1569TIP3    H2 4714   5.278   1.828   5.118 -1.1621  0.4299  0.2823
 1570TIP3   OH2 4715   2.731   3.630   3.613  0.0293  0.3480  0.2412
 1570TIP3    H1 4716   2.793   3.661   3.679 -0.5311 -0.3195  1.1052
 1570TIP3    H2 4717   2.754   3.679   3.534  0.8227  1.0485  0.8815
 1571TIP3   OH2 4718   5.146   4.380   2.740  0.4019 -0.1073 -0.5106
 1571TIP3    H1 4719   5.173   4.300   2.786 -0.7914  0.6670  1.6514
 1571TIP3    H2 4720   5.197   4.378   2.658 -1.0035 -4.0737 -1.5363
 1572TIP3   OH2 4721   4.942   2.846   1.818  0.0417 -0.0269  0.1152
 1572TIP3    H1 4722   4.926   2.753   1.800  2.0373 -0.2460 -0.7731
 1572TIP3    H2 4723   5.006   2.873   1.752  1.9955  1.1363  2.3203
 1573TIP3   OH2 4724   4.686   5.172   2.885 -0.2049 -0.1258 -0.0247
 1573TIP3    H1 4725   4.613   5.190   2.945  1.4024 -1.2572  2.4606
 1573TIP3    H2 4726   4.755   5.137   2.942  1.0965 -2.3367 -2.7471
 1574TIP3   OH2 4727   3.720   3.280   2.255 -0.2463  0.3971  0.1964
 1574TIP3    H1 4728   3.667   3.203   2.273  1.2560 -0.4873  1.1479
 1574TIP3    H2 4729   3.752   3.308   2.341 -1.0473  2.3368 -0.0805
 1575TIP3   OH2 4730   5.244   4.976   1.481 -0.0216  0.0389 -0.1217
 1575TIP3    H1 4731   5.264   5.031   1.557  0.0144 -0.6997  0.4164
 1575TIP3    H2 4732   5.156   5.001   1.455 -0.0127  0.3347  0.1291
 1576TIP3   OH2 4733   3.639   0.233   4.672  0.4750 -0.3708 -0.0149
 1576TIP3    H1 4734   3.565   0.261   4.618  1.3572  1.0087 -0.5828
 1576TIP3    H2 4735   3.688   0.173   4.616  0.8369  0.2655 -0.3988
 1577TIP3   OH2 4736   0.569   3.066   4.927 -0.5014  0.2500  0.1845
 1577TIP3    H1 4737   0.637   3.008   4.895 -0.0336  1.6544 -1.4965
 1577TIP3    H2 4738   0.542   3.117   4.851 -2.6145  0.5693  1.0552
 1578TIP3   OH2 4739   0.598   1.429   1.420 -0.1083 -0.1048  0.0437
 1578TIP3    H1 4740   0.630   1.503   1.471  1.5765  0.3792 -1.6155
 1578TIP3    H2 4741   0.587   1.358   1.484 -1.5681  1.4665  1.6302
 1579TIP3   OH2 4742   5.595   2.863   4.526 -0.2328 -0.5895  0.1593
 1579TIP3    H1 4743   5.624   2.803   4.594  2.1040  0.9917  0.6957
 1579TIP3    H2 4744   5.501   2.872   4.540 -0.3114 -2.6105  1.2429
 1580TIP3   OH2 4745   5.126   3.705   3.781 -0.2554  0.3342 -0.3321
 1580TIP3    H1 4746   5.204   3.758   3.798 -1.0163  1.4665 -0.2084
 1580TIP3    H2 4747   5.160   3.617   3.764  1.0409  0.7906 -0.2729
 1581TIP3   OH2 4748   3.883   5.896   4.876  0.1142  0.6079  0.3682
 1581TIP3    H1 4749   3.939   5.961   4.833 -0.5810  1.6505  0.9768
 1581TIP3    H2 4750   3.944   5.841   4.926  1.1596 -1.7592 -3.1448
 1582TIP3   OH2 4751   1.643   5.137   0.422  0.1697 -0.0800  0.1202
 1582TIP3    H1 4752   1.666   5.215   0.373  0.2829 -0.5150 -0.5337
 1582TIP3    H2 4753   1.558   5.157   0.462 -0.6275 -0.2302 -1.4320
 1583TIP3   OH2 4754   5.587   0.346   1.815  0.0676 -0.0282  0.1456
 1583TIP3    H1 4755   5.672   0.389   1.822  0.0154 -0.2498  3.3810
 1583TIP3    H2 4756   5.595   0.266   1.867 -1.4880 -1.2505 -1.3343
 1584TIP3   OH2 4757   4.615   5.693   2.246  0.6714 -0.1489  0.1273
 1584TIP3    H1 4758   4.520   5.677   2.246  1.1001 -3.2723 -0.2560
 1584TIP3    H2 4759   4.630   5.742   2.327 -1.2290  0.0469  0.4149
 1585TIP3   OH2 4760   4.549   2.493   4.470  0.6821 -0.6181  0.1330
 1585TIP3    H1 4761   4.550   2.450   4.556  2.0342 -0.2591  0.3197
 1585TIP3    H2 4762   4.634   2.536   4.464 -1.1588  3.6289  0.7707
 1586TIP3   OH2 4763   4.757   2.740   4.892  0.0863 -0.1569  0.6770
 1586TIP3    H1 4764   4.695   2.783   4.834  1.0585  2.0454  1.1517
 1586TIP3    H2 4765   4.771   2.654   4.853 -0.5234  0.6442 -1.4472
 1587TIP3   OH2 4766   3.657   5.866   1.894 -0.5267  0.2743  0.1162
 1587TIP3    H1 4767   3.625   5.787   1.938 -1.6949  0.2954 -0.6546
 1587TIP3    H2 4768   3.611   5.938   1.937 -2.0372  0.2598 -1.4139
 1588TIP3   OH2 4769   2.367   0.708   2.994  0.1226  0.7161 -0.7278
 1588TIP3    H1 4770   2.390   0.797   2.968 -0.4346  0.5670 -1.7921
 1588TIP3    H2 4771   2.426   0.652   2.943  0.7934  0.4700  0.2823
 1589TIP3   OH2 4772   4.605   4.782   4.028 -0.3645 -0.2579  0.4911
 1589TIP3    H1 4773   4.603   4.875   4.049 -0.2709 -0.0755 -0.2996
 1589TIP3    H2 4774   4.551   4.741   4.096  0.1337  0.2869  1.2249
 1590TIP3   OH2 4775   2.347   0.744   3.764  0.3449 -0.2650 -0.0565
 1590TIP3    H1 4776   2.339   0.810   3.695  1.1275  1.4439  1.4006
 1590TIP3    H2 4777   2.308   0.665   3.727  0.5920  0.6315 -2.3757
 1591TIP3   OH2 4778   1.944   0.567   0.478  0.0281  0.0062  0.4547
 1591TIP3    H1 4779   1.871   0.592   0.535 -0.7938 -1.6459  0.2001
 1591TIP3    H2 4780   1.951   0.472   0.488  2.0717  0.1069  0.3456
 1592TIP3   OH2 4781   0.341   4.026   2.431  0.0255 -0.1637 -0.0844
 1592TIP3    H1 4782   0.310   3.960   2.369  1.4707 -2.7174  1.7395
 1592TIP3    H2 4783   0.388   4.090   2.377 -0.9934 -0.8452 -1.8569
 1593TIP3   OH2 4784   4.544   3.706   2.979 -0.2838  0.1102 -0.1394
 1593TIP3    H1 4785   4.476   3.640   2.995 -0.3075  0.2744  0.4558
 1593TIP3    H2 4786   4.626   3.663   3.004 -0.1800 -0.0268 -0.6908
 1594TIP3   OH2 4787   5.406   3.740   0.149  0.1731 -0.3657 -0.2294
 1594TIP3    H1 4788   5.474   3.756   0.214 -0.0885  0.0071 -0.0455
 1594TIP3    H2 4789   5.369   3.827   0.130 -0.8329 -0.6546  0.3105
 1595TIP3   OH2 4790   3.725   3.308   4.993  0.2318 -0.1889  0.4662
 1595TIP3    H1 4791   3.808   3.285   4.952 -0.0291 -1.1164  0.4496
 1595TIP3    H2 4792   3.693   3.227   5.032 -0.7787  0.0973  0.2816
 1596TIP3   OH2 4793   2.383   0.599   4.868 -0.2612 -0.4997  0.1076
 1596TIP3    H1 4794   2.290   0.585   4.850 -0.0504 -1.4254 -0.3706
 1596TIP3    H2 4795   2.392   0.588   4.962 -0.4120 -1.9948 -0.0234
 1597TIP3   OH2 4796   0.622   4.754   0.981 -0.1928 -0.0727  0.3621
 1597TIP3    H1 4797   0.642   4.687   0.916  3.8617  0.0094  1.2623
 1597TIP3    H2 4798   0.552   4.716   1.034 -0.7075 -1.8744 -1.4700
 1598TIP3   OH2 4799   0.613   1.220   3.685 -0.3394 -0.1709 -0.2231
 1598TIP3    H1 4800   0.519   1.217   3.703 -0.4253  0.2739 -0.5987
 1598TIP3    H2 4801   0.636   1.130   3.662 -0.6076 -0.3488  0.1908
 1599TIP3   OH2 4802   1.891   0.412   5.160 -0.2849  0.9886  0.1247
 1599TIP3    H1 4803   1.804   0.450   5.172 -0.5915  0.5786 -0.6865
 1599TIP3    H2 4804   1.881   0.321   5.187 -0.3193  0.7350 -0.7120
 1600TIP3   OH2 4805   4.086   2.861   4.056  0.4834  0.3152 -0.1397
 1600TIP3    H1 4806   4.080   2.941   4.110  0.4909  0.8508 -0.9156
 1600TIP3    H2 4807   4.179   2.853   4.036  0.4994  0.0322  0.0430
 1601TIP3   OH2 4808   2.831   2.730   0.915 -0.2132 -0.6473  0.4141
 1601TIP3    H1 4809   2.857   2.706   1.004  1.2073  3.2816  1.3071
 1601TIP3    H2 4810   2.757   2.790   0.927  1.3494  1.6882 -0.7093
 1602TIP3   OH2 4811   3.635   4.260   1.872  0.3925  0.0613  0.5060
 1602TIP3    H1 4812   3.672   4.175   1.847 -0.9204 -0.3728 -0.0561
 1602TIP3    H2 4813   3.632   4.310   1.791 -3.1030 -1.0561 -0.2458
 1603TIP3   OH2 4814   5.876   2.000   1.948 -0.0224  0.4681 -0.0521
 1603TIP3    H1 4815   5.832   2.041   1.873 -1.3968  0.0673  0.5138
 1603TIP3    H2 4816   5.806   1.958   1.997  1.0798 -0.6767  0.5851
 1604TIP3   OH2 4817   3.249   5.817   3.134  0.0487  0.8132 -0.1103
 1604TIP3    H1 4818   3.224   5.906   3.159  0.3400  1.7873 -2.9427
 1604TIP3    H2 4819   3.304   5.828   3.057 -0.7040 -1.8561 -1.1599
 1605TIP3   OH2 4820   1.762   5.372   4.114  0.0662  0.0198 -0.2201
 1605TIP3    H1 4821   1.837   5.361   4.056  0.8973 -0.0985  0.8360
 1605TIP3    H2 4822   1.800   5.404   4.196 -0.8667 -1.2856  0.7757
 1606TIP3   OH2 4823   4.595   3.161   2.588 -0.8188  0.4108  0.5229
 1606TIP3    H1 4824   4.627   3.234   2.535 -0.4687 -0.9936 -1.3446
 1606TIP3    H2 4825   4.625   3.180   2.677  1.1800  1.4542 -0.3103
 1607TIP3   OH2 4826   3.110   2.265   1.418 -0.0695  0.2259  0.1484
 1607TIP3    H1 4827   3.098   2.184   1.468 -4.2537  0.5563  0.0573
 1607TIP3    H2 4828   3.112   2.236   1.327 -0.0673  0.1314  0.1784
 1608TIP3   OH2 4829   6.213   4.952   1.270  0.4344 -0.5349  0.5675
 1608TIP3    H1 4830   6.242   5.025   1.216  1.3550 -1.8566 -0.8016
 1608TIP3    H2 4831   6.226   4.982   1.360  2.4946  0.3391  0.0296
 1609TIP3   OH2 4832   2.388   3.305   0.381  0.0236  0.3744 -0.3272
 1609TIP3    H1 4833   2.392   3.215   0.351  2.0939  0.3622 -0.1210
 1609TIP3    H2 4834   2.406   3.358   0.303  2.6017  0.4321  0.2233
 1610TIP3   OH2 4835   4.976   0.701   1.784  0.1898  0.2065 -0.1021
 1610TIP3    H1 4836   4.950   0.736   1.870 -1.0072  0.7543 -0.6583
 1610TIP3    H2 4837   4.900   0.650   1.756  0.1682  0.8649 -1.2703
 1611TIP3   OH2 4838   2.810   4.734   5.050 -0.2098 -0.5505 -0.2762
 1611TIP3    H1 4839   2.738   4.784   5.088  0.1062 -0.6282  0.4432
 1611TIP3    H2 4840   2.820   4.659   5.109  0.7060 -0.3429 -0.1622
 1612TIP3   OH2 4841   1.915   0.733   0.183 -0.7848 -0.1014 -0.4536
 1612TIP3    H1 4842   1.910   0.743   0.278 -1.2061  0.7604 -0.5534
 1612TIP3    H2 4843   1.830   0.698   0.158 -0.8238  0.0681 -0.5587
 1613TIP3   OH2 4844   3.919   0.389   2.144  0.1055  0.0746  0.4509
 1613TIP3    H1 4845   3.948   0.378   2.054 -0.9325  0.2558  0.0755
 1613TIP3    H2 4846   3.932   0.303   2.185  1.1057  0.1432  0.2995
 1614TIP3   OH2 4847   2.529   1.975   3.120  0.4294 -0.1777  0.2841
 1614TIP3    H1 4848   2.580   2.033   3.176  0.2399 -0.3622  0.6525
 1614TIP3    H2 4849   2.509   2.027   3.043 -1.8158  1.0835  1.6286
 1615TIP3   OH2 4850   3.084   3.878   4.994 -0.2790  0.1750 -0.2653
 1615TIP3    H1 4851   3.058   3.934   5.067  0.4837  0.5115 -0.2374
 1615TIP3    H2 4852   3.018   3.810   4.991 -0.0062 -0.1831  1.1152
 1616TIP3   OH2 4853   1.580   1.531   4.088  0.0321  0.2696  0.0522
 1616TIP3    H1 4854   1.490   1.516   4.118  0.2870  0.7353  1.1271
 1616TIP3    H2 4855   1.622   1.575   4.162  0.8933  0.8906 -0.7844
 1617TIP3   OH2 4856   1.929   1.729   2.441 -0.6845 -0.3652 -0.1004
 1617TIP3    H1 4857   1.979   1.811   2.433 -1.4098  0.4572  2.6440
 1617TIP3    H2 4858   1.995   1.664   2.466  0.0250 -0.9173 -2.9950
 1618TIP3   OH2 4859   3.106   0.255   3.881 -0.2204  0.1599 -0.2194
 1618TIP3    H1 4860   3.090   0.261   3.975  0.2068  2.2318 -0.2381
 1618TIP3    H2 4861   3.190   0.210   3.874  0.8055  1.8585  0.5285
 1619TIP3   OH2 4862   4.774   3.797   4.410  0.4413 -0.1038  0.5073
 1619TIP3    H1 4863   4.810   3.714   4.376  1.6427 -0.4398  2.4531
 1619TIP3    H2 4864   4.793   3.861   4.341  1.3531 -1.0419 -0.1538
 1620TIP3   OH2 4865   0.291   5.598   4.588 -0.2008 -0.1068 -0.0431
 1620TIP3    H1 4866   0.278   5.597   4.683 -0.4160 -0.6618 -0.0744
 1620TIP3    H2 4867   0.383   5.622   4.577 -0.6336  1.8795  0.2450
 1621TIP3   OH2 4868   5.061   4.443   4.287  0.5764  0.1004  0.0546
 1621TIP3    H1 4869   5.031   4.511   4.226  0.7030  1.8569  1.8604
 1621TIP3    H2 4870   5.123   4.391   4.237  1.0549  1.7890 -1.1758
 1622TIP3   OH2 4871   0.862   3.201   0.810 -0.0183  0.2738 -0.0324
 1622TIP3    H1 4872   0.778   3.181   0.852  0.0917 -1.7677 -0.6424
 1622TIP3    H2 4873   0.840   3.216   0.718  0.0812  1.7883  0.1652
 1623TIP3   OH2 4874   2.969   5.970   0.018  0.7754  0.1657 -0.0157
 1623TIP3    H1 4875   3.051   5.965  -0.031  0.8725 -2.6323  0.2686
 1623TIP3    H2 4876   2.994   6.008   0.103  1.9623 -1.2303  0.3057
 1624TIP3   OH2 4877   1.465   3.823   4.412  0.3486  0.6754 -0.0898
 1624TIP3    H1 4878   1.372   3.804   4.418  0.3567  0.9374  1.2455
 1624TIP3    H2 4879   1.480   3.891   4.478  1.8065 -0.7788  1.1910
 1625TIP3   OH2 4880   0.046   2.669   3.100 -0.0344  0.6617 -0.6927
 1625TIP3    H1 4881  -0.041   2.632   3.112 -1.0393  3.3621  1.4948
 1625TIP3    H2 4882   0.106   2.602   3.135 -1.5694  0.2547  1.3312
 1626TIP3   OH2 4883   3.438   3.479   4.091 -0.3089 -0.1075 -0.5537
 1626TIP3    H1 4884   3.521   3.465   4.044  0.2925  3.6760 -0.9604
 1626TIP3    H2 4885   3.370   3.464   4.025  0.3513  1.5091 -1.6502
 1627TIP3   OH2 4886   3.518   0.083   4.932 -0.1914 -0.5500 -0.4644
 1627TIP3    H1 4887   3.473   0.168   4.934  0.1764 -0.3583 -0.3925
 1627TIP3    H2 4888   3.527   0.064   4.839 -1.3214 -1.0693 -0.4896
 1628TIP3   OH2 4889   5.038   1.370   5.016  0.3877 -0.0098  0.2974
 1628TIP3    H1 4890   4.961   1.400   4.969  0.4618 -0.1122  0.1115
 1628TIP3    H2 4891   5.031   1.274   5.017  0.3601 -0.0075  0.5372
 1629TIP3   OH2 4892   3.056   5.238   2.632 -0.6444 -0.1943 -0.1578
 1629TIP3    H1 4893   3.006   5.195   2.563 -2.4815  1.0353  0.3272
 1629TIP3    H2 4894   3.020   5.201   2.713 -1.2098  1.1137  0.2129
 1630TIP3   OH2 4895   0.604   1.702   3.558  0.2167  0.1669 -0.4730
 1630TIP3    H1 4896   0.671   1.680   3.623 -0.2460  0.7811  0.2218
 1630TIP3    H2 4897   0.593   1.621   3.507  0.5963 -0.3240  0.2062
 1631TIP3   OH2 4898   5.170   4.436   4.602 -0.5500 -0.0333  0.6944
 1631TIP3    H1 4899   5.247   4.466   4.555 -1.6771  0.5061 -0.9002
 1631TIP3    H2 4900   5.123   4.382   4.539 -1.1902 -0.8359  1.8232
 1632TIP3   OH2 4901   0.116   4.684   4.427 -0.0774 -0.1210  0.1365
 1632TIP3    H1 4902   0.162   4.605   4.456 -1.0564 -0.8319 -0.2247
 1632TIP3    H2 4903   0.148   4.699   4.338  1.8788  1.2732  0.9781
 1633TIP3   OH2 4904   5.080   5.921   5.084  0.7091 -0.0494 -0.3920
 1633TIP3    H1 4905   5.040   5.856   5.027  0.4190 -0.3263  0.1205
 1633TIP3    H2 4906   5.142   5.872   5.137  1.3981  0.3000 -0.8484
 1634TIP3   OH2 4907   2.542   1.949  -0.016 -0.2602 -0.0136 -0.4973
 1634TIP3    H1 4908   2.560   1.949   0.078 -3.0499  0.6351  0.1288
 1634TIP3    H2 4909   2.563   1.861  -0.045 -0.4476 -0.5729  0.9816
 1635TIP3   OH2 4910   1.452   5.339   1.424  0.0963 -0.5008 -0.1687
 1635TIP3    H1 4911   1.396   5.372   1.354 -1.2203  0.2835  1.1939
 1635TIP3    H2 4912   1.490   5.418   1.464  0.4623 -0.8988  0.2863
 1636TIP3   OH2 4913   2.435   1.656   3.499 -0.2596  0.3564  0.7885
 1636TIP3    H1 4914   2.374   1.603   3.549 -0.7534  0.0858 -0.0710
 1636TIP3    H2 4915   2.401   1.746   3.507  1.3739  0.8196  3.4183
 1637TIP3   OH2 4916   2.647   4.829   2.872 -0.2692 -0.5124  0.6953
 1637TIP3    H1 4917   2.650   4.735   2.852  1.0822 -0.4968  0.7550
 1637TIP3    H2 4918   2.643   4.833   2.967 -1.2021 -0.5105  0.6634
 1638TIP3   OH2 4919   5.048   1.568   4.686  0.4226 -0.7066  0.4744
 1638TIP3    H1 4920   5.091   1.555   4.770 -0.5784  1.4320  1.3725
 1638TIP3    H2 4921   5.118   1.602   4.629  0.0510  3.0080  1.9959
 1639TIP3   OH2 4922   0.190   0.456   0.549 -0.2125 -0.1881  0.3129
 1639TIP3    H1 4923   0.179   0.549   0.529  0.2248 -0.2250 -0.1083
 1639TIP3    H2 4924   0.132   0.412   0.487  1.8641 -0.3610 -1.6538
 1640TIP3   OH2 4925   1.684   3.287   0.517  0.4065 -0.5162 -0.4649
 1640TIP3    H1 4926   1.686   3.219   0.584  0.0257  0.7183  0.8625
 1640TIP3    H2 4927   1.595   3.285   0.482 -0.0649  0.2366  0.6288
 1641TIP3   OH2 4928   3.186   2.198   2.880 -0.1338  0.5164  0.2238
 1641TIP3    H1 4929   3.217   2.109   2.863 -0.5280  0.2068  1.0717
 1641TIP3    H2 4930   3.256   2.238   2.933  0.8101  1.2760 -1.5151
 1642TIP3   OH2 4931   2.305   2.959   0.009 -0.5876 -0.9552  0.1541
 1642TIP3    H1 4932   2.248   2.997   0.075  0.2012 -0.1434  0.3860
 1642TIP3    H2 4933   2.389   2.949   0.053  0.0094 -0.2060 -0.7826
 1643TIP3   OH2 4934   5.758   4.102   4.675  0.5450 -0.0508  0.8990
 1643TIP3    H1 4935   5.675   4.145   4.698  0.7604  0.3000  1.0251
 1643TIP3    H2 4936   5.824   4.170   4.684  0.4603  0.6026 -2.3495
 1644TIP3   OH2 4937   4.512   0.560   3.847 -0.2358  0.0239 -1.0971
 1644TIP3    H1 4938   4.588   0.567   3.790  0.4711 -0.9070 -0.2933
 1644TIP3    H2 4939   4.478   0.649   3.852  1.5981  0.7241 -0.4020
 1645TIP3   OH2 4940   0.559   0.137   5.192 -0.4183 -0.2586 -0.2286
 1645TIP3    H1 4941   0.493   0.186   5.142  0.4658 -0.7492 -1.9287
 1645TIP3    H2 4942   0.643   0.172   5.163  0.1331 -0.5433  0.9555
 1646TIP3   OH2 4943   2.002   1.597   2.739  0.1221 -0.4102 -0.2908
 1646TIP3    H1 4944   1.929   1.566   2.685  1.1297 -0.2293 -1.8219
 1646TIP3    H2 4945   1.975   1.578   2.829 -2.0449  0.1776 -0.7574
 1647TIP3   OH2 4946   4.053   5.075   4.204  0.3124  0.4771 -0.0640
 1647TIP3    H1 4947   4.119   5.123   4.152 -0.0606  2.3882  1.1263
 1647TIP3    H2 4948   3.997   5.144   4.239 -0.6823 -0.9323  1.1748
 1648TIP3   OH2 4949   1.574   0.122   0.011  0.2506  0.0725  1.0463
 1648TIP3    H1 4950   1.545   0.062   0.080 -0.7500 -1.5810 -0.7132
 1648TIP3    H2 4951   1.644   0.075  -0.034 -1.4215 -0.4282 -1.1864
 1649TIP3   OH2 4952   5.322   1.402   4.212  0.2503 -0.3971 -0.9204
 1649TIP3    H1 4953   5.327   1.489   4.172  0.0942  0.7652  1.4680
 1649TIP3    H2 4954   5.230   1.390   4.233  0.5544 -0.2600  0.5646
 1650TIP3   OH2 4955   1.076   4.558   1.532  0.7476 -0.3601 -0.0568
 1650TIP3    H1 4956   1.082   4.628   1.466  1.1143 -0.4326 -0.1000
 1650TIP3    H2 4957   1.039   4.602   1.609  2.7599  0.3652  0.5726
 1651TIP3   OH2 4958   0.246   5.601   4.916  0.4063  0.1173 -0.1317
 1651TIP3    H1 4959   0.247   5.696   4.903 -0.6073  0.1167 -0.2822
 1651TIP3    H2 4960   0.197   5.589   4.997  1.3345 -0.2328  0.3830
 1652TIP3   OH2 4961   5.786   4.629   3.214  0.5302 -0.0871  0.4130
 1652TIP3    H1 4962   5.712   4.661   3.267  0.0753  0.1299 -0.3357
 1652TIP3    H2 4963   5.759   4.645   3.124  0.9095 -1.2712  0.0708
 1653TIP3   OH2 4964   0.491   2.450   1.151  0.8153 -0.2765 -0.5104
 1653TIP3    H1 4965   0.433   2.466   1.076 -0.6362 -0.1423  0.5912
 1653TIP3    H2 4966   0.475   2.358   1.174 -0.4512  0.2688  0.9731
 1654TIP3   OH2 4967   4.836   1.277   1.879  0.6217 -0.7172  0.2302
 1654TIP3    H1 4968   4.790   1.324   1.948 -1.0214 -1.8728 -0.0345
 1654TIP3    H2 4969   4.810   1.322   1.798  1.4043 -0.2695  0.2134
 1655TIP3   OH2 4970   2.379   5.678   3.603  0.1196  0.0306 -0.0459
 1655TIP3    H1 4971   2.298   5.646   3.642  0.3372  1.3168  1.5782
 1655TIP3    H2 4972   2.383   5.637   3.517 -2.4300  0.2023 -0.3053
 1656TIP3   OH2 4973   1.393   0.091   0.321 -0.3981  0.0218 -0.0296
 1656TIP3    H1 4974   1.389  -0.001   0.348 -2.3420 -0.0890 -0.5398
 1656TIP3    H2 4975   1.316   0.103   0.266  0.7591  1.5349 -1.4053
 1657TIP3   OH2 4976   0.256   3.891   0.264  0.1541  0.0315  0.4082
 1657TIP3    H1 4977   0.181   3.832   0.262 -0.1300  0.4113 -1.0485
 1657TIP3    H2 4978   0.217   3.978   0.280 -0.0348  0.5901 -2.5215
 1658TIP3   OH2 4979   4.380   2.907   4.025  0.1544 -0.3855 -0.0217
 1658TIP3    H1 4980   4.426   2.848   4.084  0.8507 -1.8691 -1.9261
 1658TIP3    H2 4981   4.359   2.983   4.078 -0.4802 -2.1762  2.4866
 1659TIP3   OH2 4982   5.688   3.984   2.777 -0.3990 -0.1616  0.5606
 1659TIP3    H1 4983   5.703   4.054   2.841 -2.3096  1.0604 -0.2581
 1659TIP3    H2 4984   5.750   4.004   2.706 -1.1232  0.8971  0.2041
 1660TIP3   OH2 4985   1.981   5.533   3.768  0.3713 -0.3259 -0.1448
 1660TIP3    H1 4986   2.031   5.577   3.699  4.0517  1.3786  3.1901
 1660TIP3    H2 4987   1.951   5.452   3.728  4.9373 -0.9773 -2.9904
 1661TIP3   OH2 4988   2.888   5.627   3.486 -0.1409 -0.1949  0.0395
 1661TIP3    H1 4989   2.836   5.552   3.460  3.1257 -1.9328 -2.2631
 1661TIP3    H2 4990   2.869   5.694   3.419  1.7039 -1.4701 -1.8852
 1662TIP3   OH2 4991   2.834   2.561   3.399 -0.2325  0.5213 -0.0774
 1662TIP3    H1 4992   2.790   2.493   3.349 -1.0502  0.4656  0.6817
 1662TIP3    H2 4993   2.922   2.565   3.363 -0.4239 -0.3750 -0.6664
 1663TIP3   OH2 4994   4.046   1.615   4.926  0.5599  0.1405  0.1299
 1663TIP3    H1 4995   4.004   1.636   4.843 -0.3248 -1.8730 -0.0021
 1663TIP3    H2 4996   3.983   1.642   4.993  0.1940 -0.4324  0.0287
 1664TIP3   OH2 4997   2.717   4.567   4.029  0.0692  0.3510 -0.5780
 1664TIP3    H1 4998   2.740   4.571   3.936  0.0049  1.9060 -0.5536
 1664TIP3    H2 4999   2.625   4.594   4.031  0.0303  0.1749 -0.0860
 1665TIP3   OH2 5000   2.134   2.625   0.515  0.7563 -0.0749  0.0214
 1665TIP3    H1 5001   2.040   2.604   0.508  0.4145  1.4216 -0.1592
 1665TIP3    H2 5002   2.172   2.592   0.434  0.1430  0.4519 -0.4960
 1666TIP3   OH2 5003   2.526   6.010   4.432 -0.3792  0.4650  0.3047
 1666TIP3    H1 5004   2.567   5.992   4.517 -0.2768 -1.4136 -0.1021
 1666TIP3    H2 5005   2.550   5.935   4.377 -0.6452  1.5332 -1.3258
 1667TIP3   OH2 5006   2.023   5.218   1.423  0.8529  0.2849 -0.3635
 1667TIP3    H1 5007   2.000   5.310   1.436 -0.7615  0.1917 -2.1064
 1667TIP3    H2 5008   2.110   5.221   1.382  0.7428  1.0377 -0.5573
 1668TIP3   OH2 5009   2.329   2.735   2.061 -0.3727  0.0345 -0.1801
 1668TIP3    H1 5010   2.380   2.775   1.991  1.6306  0.2903  1.3240
 1668TIP3    H2 5011   2.323   2.804   2.128  0.6129 -1.1642  1.2270
 1669TIP3   OH2 5012   0.449   4.113   0.201  0.3784  0.2001 -0.4389
 1669TIP3    H1 5013   0.422   4.171   0.272  0.4797  0.3854 -0.5508
 1669TIP3    H2 5014   0.447   4.025   0.239  0.2404  0.2795 -0.2646
 1670TIP3   OH2 5015   5.841   5.021   0.105 -0.7683 -0.8341  0.5723
 1670TIP3    H1 5016   5.795   4.956   0.052  0.1939 -1.6091  0.6463
 1670TIP3    H2 5017   5.902   5.062   0.044 -1.6053  0.2528  0.4513
 1671TIP3   OH2 5018   4.024   5.666   1.211  0.3330  0.4111  0.2632
 1671TIP3    H1 5019   3.976   5.661   1.128 -0.4245  0.0974  0.7092
 1671TIP3    H2 5020   3.998   5.587   1.259 -0.0430  1.0847  1.2140
 1672TIP3   OH2 5021   5.115   5.842   1.663 -0.4029  0.0167  0.1106
 1672TIP3    H1 5022   5.146   5.763   1.620 -0.6213 -0.1609  0.2771
 1672TIP3    H2 5023   5.135   5.828   1.756 -2.5210 -0.8641  0.4944
 1673TIP3   OH2 5024   0.114   3.479   2.011  0.7058  0.0171  0.0992
 1673TIP3    H1 5025   0.075   3.543   1.951  0.2379 -0.3948 -0.0477
 1673TIP3    H2 5026   0.097   3.394   1.969  0.6070 -0.2557  0.6884
 1674TIP3   OH2 5027   5.076   1.330   0.522 -0.5033  1.1547  0.3428
 1674TIP3    H1 5028   5.039   1.268   0.584  2.0161  0.0072  0.8051
 1674TIP3    H2 5029   5.052   1.295   0.436 -0.8270  0.6772  0.6216
 1675TIP3   OH2 5030   6.010   0.836   4.950  0.3910  0.1164  0.1519
 1675TIP3    H1 5031   6.056   0.856   5.032  1.8617  1.1789 -0.8751
 1675TIP3    H2 5032   6.040   0.904   4.889 -0.2529 -0.9696 -1.4194
 1676TIP3   OH2 5033   3.235   5.902   1.439  0.2305 -0.1241  0.1684
 1676TIP3    H1 5034   3.174   5.923   1.368  0.3835 -0.6234 -0.1194
 1676TIP3    H2 5035   3.225   5.808   1.452  0.5765 -0.1240  0.4601
 1677TIP3   OH2 5036   0.685   1.399   0.310  0.0493  0.2075  0.1089
 1677TIP3    H1 5037   0.632   1.369   0.383 -1.0755 -0.4536 -0.9385
 1677TIP3    H2 5038   0.697   1.492   0.325  0.6946 -0.0944  1.6407
 1678TIP3   OH2 5039   3.804   4.511   2.894  0.1493  0.4209 -0.0661
 1678TIP3    H1 5040   3.727   4.459   2.912  0.8576 -0.2842  1.0135
 1678TIP3    H2 5041   3.824   4.555   2.976  0.6158  0.9790 -0.4654
 1679TIP3   OH2 5042   4.104   5.547   3.029 -0.1421  0.6996  0.0171
 1679TIP3    H1 5043   4.191   5.536   2.990  0.8700  1.4458  1.9316
 1679TIP3    H2 5044   4.106   5.496   3.109 -1.9959 -0.3872 -0.5558
 1680TIP3   OH2 5045   0.054   1.692   1.832 -0.1805 -0.2112  0.1155
 1680TIP3    H1 5046   0.107   1.642   1.895  2.2743  3.3288  1.1473
 1680TIP3    H2 5047  -0.030   1.703   1.877  0.7482  0.3011  1.8267
 1681TIP3   OH2 5048   4.956   1.503   1.040 -0.3107 -0.1982 -0.1425
 1681TIP3    H1 5049   4.887   1.495   0.975 -1.1169  1.0550  0.5280
 1681TIP3    H2 5050   4.997   1.416   1.043 -0.2440 -0.2797 -2.2854
 1682TIP3   OH2 5051   3.450   3.180   4.541  0.5558  0.4038 -0.7964
 1682TIP3    H1 5052   3.476   3.089   4.554 -3.2220 -0.7445 -0.3715
 1682TIP3    H2 5053   3.448   3.192   4.446 -2.7514 -1.3355 -1.0671
 1683TIP3   OH2 5054   0.612   3.578   2.963 -0.3019 -0.2343  0.1568
 1683TIP3    H1 5055   0.657   3.653   2.923  2.4428 -1.6998  0.2047
 1683TIP3    H2 5056   0.541   3.616   3.014  0.6503  2.2756 -0.2459
 1684TIP3   OH2 5057   5.389   3.775   2.752  0.3062 -0.1080 -0.6084
 1684TIP3    H1 5058   5.356   3.865   2.755  0.3773 -0.1003  0.3668
 1684TIP3    H2 5059   5.312   3.721   2.738  0.0577  0.0058  0.2856
 1685TIP3   OH2 5060  -0.013   4.177   1.248  0.3709 -0.3436  0.5371
 1685TIP3    H1 5061   0.081   4.186   1.232  0.4834 -2.1039  0.0382
 1685TIP3    H2 5062  -0.053   4.250   1.201  1.3062 -0.9346 -1.2285
 1686TIP3   OH2 5063   4.416   3.859   4.732 -0.0288  0.1244 -0.4243
 1686TIP3    H1 5064   4.403   3.769   4.703 -0.3846  0.6272 -1.8999
 1686TIP3    H2 5065   4.504   3.881   4.703 -0.3287  0.5854 -0.9914
 1687TIP3   OH2 5066   5.832   1.713   0.098 -0.0962  0.2750 -0.0980
 1687TIP3    H1 5067   5.744   1.703   0.062 -0.0394 -1.9295  0.2405
 1687TIP3    H2 5068   5.890   1.687   0.027  0.1906 -0.2843  0.3359
 1688TIP3   OH2 5069   1.101   2.694   0.027 -0.1229  0.1028  0.5012
 1688TIP3    H1 5070   1.015   2.685   0.068  0.0151 -1.6563  0.5039
 1688TIP3    H2 5071   1.149   2.755   0.083 -1.3330  1.0557  0.5277
 1689TIP3   OH2 5072   3.478   4.860   1.052 -0.4225 -0.6088 -0.5787
 1689TIP3    H1 5073   3.494   4.862   1.146 -0.1561 -0.1477 -0.6318
 1689TIP3    H2 5074   3.402   4.918   1.040  0.0626 -0.0075 -0.7471
 1690TIP3   OH2 5075   0.573   2.417   2.527  0.3569  0.1258  0.5770
 1690TIP3    H1 5076   0.494   2.370   2.553  0.0207  0.6260  0.4779
 1690TIP3    H2 5077   0.540   2.495   2.482  0.9033 -0.2806 -0.5885
 1691TIP3   OH2 5078   3.654   4.698   5.044  0.3751 -0.2507  0.3097
 1691TIP3    H1 5079   3.613   4.692   5.130  1.1039  0.3833  0.7111
 1691TIP3    H2 5080   3.662   4.607   5.016 -0.4351 -0.4310  0.6307
 1692TIP3   OH2 5081   5.304   4.780   3.244  0.8328 -0.0788 -0.3449
 1692TIP3    H1 5082   5.225   4.820   3.207 -0.1649  0.3844  2.0850
 1692TIP3    H2 5083   5.279   4.689   3.262 -0.7399  0.9368  4.0723
 1693TIP3   OH2 5084   4.757   2.381   3.277  0.2532 -0.8737 -0.0882
 1693TIP3    H1 5085   4.688   2.315   3.275  0.2056 -0.8609  0.8572
 1693TIP3    H2 5086   4.740   2.437   3.201 -1.1261 -0.5218  0.4561
 1694TIP3   OH2 5087   5.524   4.634   1.415 -0.2801  0.5385  0.1061
 1694TIP3    H1 5088   5.607   4.604   1.379 -0.2130  2.2836 -1.3748
 1694TIP3    H2 5089   5.542   4.652   1.507  0.5179 -0.6743  0.1978
 1695TIP3   OH2 5090   1.565   1.738   3.216  0.1363 -0.1376  0.1033
 1695TIP3    H1 5091   1.484   1.687   3.214 -1.0153  1.5776 -0.4481
 1695TIP3    H2 5092   1.570   1.772   3.305  1.2182 -1.6283  0.6419
 1696TIP3   OH2 5093   1.039   2.164   4.845 -0.1479 -0.6283 -0.3915
 1696TIP3    H1 5094   1.032   2.176   4.750 -0.2803 -1.6755 -0.5278
 1696TIP3    H2 5095   0.956   2.123   4.870 -0.0372 -0.5330  0.1444
 1697TIP3   OH2 5096   0.030   0.474   1.638  0.1600 -0.9610 -0.1550
 1697TIP3    H1 5097   0.090   0.468   1.564  1.3599 -0.4788  0.7395
 1697TIP3    H2 5098  -0.036   0.539   1.611  0.3622 -1.0754 -0.9379
 1698TIP3   OH2 5099   2.508   1.342   4.802  0.3780  0.2565 -0.4588
 1698TIP3    H1 5100   2.486   1.288   4.878 -2.8380  2.0390  0.0001
 1698TIP3    H2 5101   2.467   1.297   4.728 -0.1393  0.7612 -0.4765
 1699TIP3   OH2 5102   4.324   3.675   1.957 -0.1361  0.3172 -0.0746
 1699TIP3    H1 5103   4.336   3.638   2.045 -1.6245 -0.3163 -0.1043
 1699TIP3    H2 5104   4.378   3.754   1.957  1.7094 -0.8716  0.6136
 1700TIP3   OH2 5105   2.767   2.895   4.444 -0.0885 -0.4808 -0.4391
 1700TIP3    H1 5106   2.822   2.973   4.457  0.4671 -0.7026 -1.3533
 1700TIP3    H2 5107   2.788   2.838   4.518 -1.0657  0.5368  0.6639
 1701TIP3   OH2 5108   4.286   2.770   3.715  0.0758 -0.2810  0.2873
 1701TIP3    H1 5109   4.232   2.838   3.676 -0.6098 -1.3194 -0.6131
 1701TIP3    H2 5110   4.374   2.787   3.681  0.6788  2.1670  2.7244
 1702TIP3   OH2 5111   1.940   0.149   1.462  0.3851  0.4528  0.6082
 1702TIP3    H1 5112   2.030   0.166   1.492 -0.3820  1.7663  2.3963
 1702TIP3    H2 5113   1.902   0.236   1.452  0.1636  0.0814 -3.2707
 1703TIP3   OH2 5114   5.831   0.149   2.749  0.3465 -0.1739 -0.7492
 1703TIP3    H1 5115   5.875   0.224   2.789 -0.0981 -0.5568  0.4971
 1703TIP3    H2 5116   5.744   0.181   2.727 -0.3563 -0.6712  1.1107
 1704TIP3   OH2 5117   5.374   1.281   0.688  0.3694  0.0106  0.2551
 1704TIP3    H1 5118   5.293   1.257   0.642 -0.5759 -0.0812  1.8658
 1704TIP3    H2 5119   5.380   1.376   0.677  1.1343 -0.1985 -1.5000
 1705TIP3   OH2 5120   0.896   2.785   0.412  0.4812  0.2933 -0.2973
 1705TIP3    H1 5121   0.827   2.830   0.460 -1.0952 -1.1338 -1.1376
 1705TIP3    H2 5122   0.923   2.713   0.469  0.3584  0.0678 -0.5244
 1706TIP3   OH2 5123   0.176   4.339   2.988  0.0241 -0.1672 -0.0229
 1706TIP3    H1 5124   0.213   4.340   3.076 -0.8809  1.3333  0.3678
 1706TIP3    H2 5125   0.211   4.259   2.948  0.9715 -0.5221  1.4594
 1707TIP3   OH2 5126   3.193   1.323   1.040 -0.4866  0.0782  0.2328
 1707TIP3    H1 5127   3.174   1.239   1.083 -0.1807  0.0622  0.3388
 1707TIP3    H2 5128   3.217   1.299   0.951  0.5694 -0.0292  0.5400
 1708TIP3   OH2 5129   3.473   3.970   3.465 -0.4353 -0.3185 -0.5311
 1708TIP3    H1 5130   3.487   4.053   3.511 -2.1554  0.8950 -2.0516
 1708TIP3    H2 5131   3.446   3.910   3.535  0.8815  0.3423  0.6110
 1709TIP3   OH2 5132   0.879   4.718   2.735  0.1447 -0.3705  0.4416
 1709TIP3    H1 5133   0.891   4.678   2.822 -0.7752  0.1252  0.8129
 1709TIP3    H2 5134   0.839   4.649   2.682  0.3174 -0.5385  0.5252
 1710TIP3   OH2 5135   0.682   2.426   0.810 -0.2823  0.0073  0.1332
 1710TIP3    H1 5136   0.775   2.429   0.788 -0.0747 -0.3479  0.9333
 1710TIP3    H2 5137   0.667   2.336   0.841 -0.8163  0.1495  0.3045
 1711TIP3   OH2 5138   0.849   2.705   0.109  0.6345 -0.5742  0.1770
 1711TIP3    H1 5139   0.859   2.708   0.204  2.1808 -0.6778  0.0470
 1711TIP3    H2 5140   0.857   2.796   0.081  0.3189 -0.5603  0.1249
 1712TIP3   OH2 5141   3.548   5.173   1.305 -0.8621  0.7034  0.3400
 1712TIP3    H1 5142   3.588   5.205   1.385 -1.0434 -0.8602  1.0957
 1712TIP3    H2 5143   3.472   5.122   1.334 -1.7668  1.2698 -0.9052
 1713TIP3   OH2 5144   3.948   1.241   2.495 -0.0224  0.1354 -0.5657
 1713TIP3    H1 5145   4.005   1.238   2.572 -0.3780 -0.0487 -0.3078
 1713TIP3    H2 5146   3.860   1.241   2.531 -0.1848  1.9326 -0.9168
 1714TIP3   OH2 5147   2.347   3.032   0.305  0.2125  0.3518 -0.0107
 1714TIP3    H1 5148   2.326   3.001   0.393 -0.8232  0.6876 -0.1174
 1714TIP3    H2 5149   2.404   2.964   0.268  0.5762  0.1633  0.8786
 1715TIP3   OH2 5150   4.049   5.886   1.659 -0.1234 -0.4878  0.1205
 1715TIP3    H1 5151   4.143   5.872   1.652  0.3501  2.4087 -0.9901
 1715TIP3    H2 5152   4.038   5.933   1.742 -0.1984  1.1982 -0.7889
 1716TIP3   OH2 5153   2.525   4.223   4.198  0.0572  0.2866 -0.0619
 1716TIP3    H1 5154   2.619   4.216   4.181  0.4102  0.4346  1.6617
 1716TIP3    H2 5155   2.497   4.298   4.146  1.0305  0.6368 -0.1030
 1717TIP3   OH2 5156   1.582   3.940   1.963  0.6788 -0.0461  0.0299
 1717TIP3    H1 5157   1.562   3.848   1.950 -0.2022  0.1770 -0.2069
 1717TIP3    H2 5158   1.545   3.961   2.049 -1.5768  0.7547 -1.0609
 1718TIP3   OH2 5159   4.412   5.969   0.649 -0.0543 -0.6077 -0.1812
 1718TIP3    H1 5160   4.322   5.937   0.655  0.0899 -0.9245  0.3562
 1718TIP3    H2 5161   4.408   6.041   0.586 -0.3899 -1.6575 -1.3883
 1719TIP3   OH2 5162   5.951   1.037   1.664  0.0460 -0.1846  0.2616
 1719TIP3    H1 5163   5.928   0.947   1.642  0.5439 -0.1516 -0.4360
 1719TIP3    H2 5164   6.043   1.045   1.639 -0.6047  1.2145 -2.0633
 1720TIP3   OH2 5165   0.152   2.174   1.906  0.1229  0.7410  0.2442
 1720TIP3    H1 5166   0.245   2.184   1.926  0.4917 -0.4405 -0.7793
 1720TIP3    H2 5167   0.117   2.263   1.909  0.8997  1.0449  2.3377
 1721TIP3   OH2 5168   3.119   2.858   3.235 -0.0169 -0.6997 -0.0634
 1721TIP3    H1 5169   3.150   2.794   3.298 -0.1462 -0.0861  0.6448
 1721TIP3    H2 5170   3.186   2.861   3.168  0.1465 -1.3296  0.0668
 1722TIP3   OH2 5171   4.608   3.343   3.030  0.4168  0.1085 -0.1731
 1722TIP3    H1 5172   4.548   3.300   3.091  1.9620 -1.9075  0.0315
 1722TIP3    H2 5173   4.662   3.399   3.086  0.1694  0.2467 -0.0668
 1723TIP3   OH2 5174   3.853   0.775   1.721 -0.4726  0.8493  0.2815
 1723TIP3    H1 5175   3.778   0.761   1.779 -2.5059  0.5221 -2.2507
 1723TIP3    H2 5176   3.832   0.854   1.673  0.9298  0.8620 -0.3661
 1724TIP3   OH2 5177   1.512   4.775   3.918  0.2732 -0.1635 -0.7387
 1724TIP3    H1 5178   1.501   4.712   3.990  0.9311  1.2108  0.6203
 1724TIP3    H2 5179   1.423   4.809   3.903  0.4218  1.2714  1.1313
 1725TIP3   OH2 5180   3.754   1.520   3.427  0.1089  0.2731 -0.0827
 1725TIP3    H1 5181   3.847   1.504   3.411  0.3035  0.6809  0.5941
 1725TIP3    H2 5182   3.752   1.572   3.507 -0.7895 -1.3520  1.0282
 1726TIP3   OH2 5183   0.216   2.017   4.531  0.5715  0.3758 -0.5390
 1726TIP3    H1 5184   0.163   1.962   4.589  0.4877  0.7357 -0.2670
 1726TIP3    H2 5185   0.223   2.101   4.578  0.1152  0.8218 -1.2650
 1727TIP3   OH2 5186   2.541   5.868   0.459 -0.6863 -0.2701  0.1960
 1727TIP3    H1 5187   2.470   5.816   0.497 -1.8570 -0.1344 -1.7275
 1727TIP3    H2 5188   2.617   5.845   0.513 -1.8324 -1.5905  1.3539
 1728TIP3   OH2 5189   4.818   1.826   0.888 -0.0419  0.2499  0.2989
 1728TIP3    H1 5190   4.911   1.807   0.902  0.0651  1.3808  1.1638
 1728TIP3    H2 5191   4.813   1.850   0.795  0.2779 -1.1365 -0.1139
 1729TIP3   OH2 5192   3.461   0.173   0.583 -0.2550 -0.8538 -0.2268
 1729TIP3    H1 5193   3.498   0.087   0.563  0.8494 -0.1179 -1.4614
 1729TIP3    H2 5194   3.524   0.214   0.642  0.3514 -0.0597 -1.3871
 1730TIP3   OH2 5195   5.843   5.249   4.106  0.3485 -0.2106 -0.9141
 1730TIP3    H1 5196   5.800   5.326   4.067  0.4738 -0.2832 -1.1987
 1730TIP3    H2 5197   5.840   5.265   4.200 -0.9788 -0.5674 -0.8796
 1731TIP3   OH2 5198   2.012   1.210   1.112 -0.6026  0.6287  0.6904
 1731TIP3    H1 5199   1.974   1.198   1.025 -0.2393  1.6219  0.3845
 1731TIP3    H2 5200   2.103   1.236   1.095 -0.7396  1.5965  1.3349
 1732TIP3   OH2 5201   0.385   5.067   4.343  0.2299 -0.2747 -0.8573
 1732TIP3    H1 5202   0.381   5.084   4.437  1.4247  0.3417 -0.9001
 1732TIP3    H2 5203   0.312   5.007   4.327 -0.4613  0.1966  0.3274
 1733TIP3   OH2 5204   6.216   4.041   4.513  0.0059 -0.7705 -0.4115
 1733TIP3    H1 5205   6.122   4.029   4.499 -0.1613 -0.6755  0.5822
 1733TIP3    H2 5206   6.226   4.042   4.608  0.7126  1.5310 -0.4506
 1734TIP3   OH2 5207   4.635   1.026   0.266 -0.1298  0.3581  0.1440
 1734TIP3    H1 5208   4.673   1.100   0.313  0.5556  0.1236 -0.0405
 1734TIP3    H2 5209   4.541   1.032   0.285 -0.2024  1.7929 -0.5876
 1735TIP3   OH2 5210   0.513   0.168   2.857  0.5816 -0.0817 -0.2448
 1735TIP3    H1 5211   0.596   0.204   2.827 -0.5925  1.4958 -1.8316
 1735TIP3    H2 5212   0.447   0.229   2.824 -1.2789 -1.7190  0.2401
 1736TIP3   OH2 5213   1.226   0.640   3.684 -0.5869  0.0998  0.3612
 1736TIP3    H1 5214   1.277   0.602   3.756 -1.7619  0.2901  1.3479
 1736TIP3    H2 5215   1.213   0.568   3.623 -0.3828 -0.3431  0.8304
 1737TIP3   OH2 5216   0.144   5.061   2.437 -0.1644 -0.0502  0.6504
 1737TIP3    H1 5217   0.067   5.058   2.381  0.3636 -1.5962 -0.0323
 1737TIP3    H2 5218   0.138   5.146   2.482 -1.1403  0.7653 -0.9500
 1738TIP3   OH2 5219   5.910   4.406   2.430  0.2640  0.0863  0.2923
 1738TIP3    H1 5220   5.890   4.372   2.518  0.9563 -1.0993  0.0141
 1738TIP3    H2 5221   5.852   4.358   2.372  0.7360 -0.0900 -0.0367
 1739TIP3   OH2 5222   4.101   5.309   3.573  0.3210  0.2511 -0.2165
 1739TIP3    H1 5223   4.009   5.327   3.553  0.2454  0.2398  0.1232
 1739TIP3    H2 5224   4.110   5.214   3.559  0.6298  0.4678 -1.6443
 1740TIP3   OH2 5225   3.731   1.287   1.434 -0.1856 -0.4847 -0.1706
 1740TIP3    H1 5226   3.754   1.378   1.418 -0.9761 -0.3864 -0.8381
 1740TIP3    H2 5227   3.760   1.269   1.523  1.9804 -0.2392 -0.7656
 1741TIP3   OH2 5228   0.120   5.567   5.156 -0.4736 -0.2058 -0.6966
 1741TIP3    H1 5229   0.150   5.491   5.205 -0.5714 -0.2743 -0.7446
 1741TIP3    H2 5230   0.025   5.563   5.159 -0.5085  0.7948  0.6817
 1742TIP3   OH2 5231   1.047   3.449   2.151  0.1959  0.0001 -0.5186
 1742TIP3    H1 5232   1.043   3.542   2.128 -1.3444 -0.1249 -0.9231
 1742TIP3    H2 5233   1.028   3.404   2.069  1.0133 -0.6854 -0.3420
 1743TIP3   OH2 5234   1.467   3.166   1.131 -0.2949 -0.1194  0.1079
 1743TIP3    H1 5235   1.547   3.115   1.138 -0.2758 -0.0847  0.1485
 1743TIP3    H2 5236   1.396   3.104   1.149 -0.2563 -0.0726  0.4291
 1744TIP3   OH2 5237   3.099   5.389   0.802 -0.0116 -0.0296  0.2635
 1744TIP3    H1 5238   3.093   5.482   0.782 -1.3680 -0.5136 -2.0808
 1744TIP3    H2 5239   3.190   5.375   0.827  0.1336  1.9553  0.9941
 1745TIP3   OH2 5240   2.435   5.306   0.936 -0.0072  0.8475 -0.2776
 1745TIP3    H1 5241   2.472   5.294   1.023 -0.2768  0.6312 -0.1925
 1745TIP3    H2 5242   2.499   5.266   0.877  0.1806  1.0043 -0.1812
 1746TIP3   OH2 5243   3.083   5.965   4.534 -0.4950  0.0378 -0.7684
 1746TIP3    H1 5244   3.070   5.873   4.509 -1.3794  0.0587 -0.4379
 1746TIP3    H2 5245   3.112   5.961   4.625  4.1832 -0.1095 -2.0416
 1747TIP3   OH2 5246   2.623   4.087   3.610 -0.5420  0.2849  0.0659
 1747TIP3    H1 5247   2.575   4.005   3.615  0.3416 -0.2706 -0.4177
 1747TIP3    H2 5248   2.587   4.131   3.532 -0.2416 -0.1519 -0.3256
 1748TIP3   OH2 5249   2.226   1.793   4.343 -0.3871 -0.2577  0.3194
 1748TIP3    H1 5250   2.149   1.746   4.310 -0.0060 -1.8282  1.5363
 1748TIP3    H2 5251   2.282   1.803   4.267 -1.1095 -0.5271 -0.2652
 1749TIP3   OH2 5252   5.575   0.725   1.102  0.1210 -0.5294  0.1378
 1749TIP3    H1 5253   5.566   0.635   1.132 -0.8458  0.1862  2.1385
 1749TIP3    H2 5254   5.576   0.778   1.182  2.7691  1.1180 -0.8675
 1750TIP3   OH2 5255   2.703   2.178   3.621 -0.1335 -0.4090  0.1717
 1750TIP3    H1 5256   2.682   2.143   3.708 -0.9220 -0.8259 -0.1837
 1750TIP3    H2 5257   2.723   2.271   3.638  0.9919 -0.7708  0.9710
 1751TIP3   OH2 5258   6.350   2.312   4.887  0.3746 -0.3679 -0.5430
 1751TIP3    H1 5259   6.262   2.277   4.873  0.8657 -1.5801 -0.6988
 1751TIP3    H2 5260   6.342   2.365   4.967 -0.9867  1.3771 -1.7426
 1752TIP3   OH2 5261   3.153   1.145   0.686 -0.1603 -0.0786 -0.1370
 1752TIP3    H1 5262   3.116   1.229   0.712  1.7616  1.1834 -1.2456
 1752TIP3    H2 5263   3.155   1.148   0.591 -0.7025 -1.7128 -0.2349
 1753TIP3   OH2 5264   0.983   0.982   4.909 -0.1634 -0.1838  0.4107
 1753TIP3    H1 5265   0.975   0.902   4.858  0.5862 -1.4933  2.2494
 1753TIP3    H2 5266   1.051   1.032   4.865 -0.3985 -0.6962 -0.5631
 1754TIP3   OH2 5267   2.832   5.430   2.914  0.0024  0.0947 -0.4722
 1754TIP3    H1 5268   2.794   5.513   2.887  1.4738  0.5586 -1.2495
 1754TIP3    H2 5269   2.918   5.428   2.871  1.1055 -0.6365  1.6266
 1755TIP3   OH2 5270   6.272   1.212   3.872 -0.1796 -0.2777  0.7014
 1755TIP3    H1 5271   6.219   1.276   3.825 -0.3180 -0.6596  0.3336
 1755TIP3    H2 5272   6.211   1.141   3.893 -0.4280  0.4164  2.5587
 1756TIP3   OH2 5273   0.425   5.318   4.589 -0.0947 -0.1452  0.3045
 1756TIP3    H1 5274   0.456   5.358   4.670 -2.0025 -1.7089  1.8994
 1756TIP3    H2 5275   0.402   5.228   4.613 -3.4386  0.1607 -1.2249
 1757TIP3   OH2 5276   3.534   5.587   5.100  0.0684 -0.5767  0.2463
 1757TIP3    H1 5277   3.472   5.602   5.171  0.0868 -4.1493  1.2079
 1757TIP3    H2 5278   3.501   5.510   5.054 -0.0921  1.7144 -3.9767
 1758TIP3   OH2 5279   2.337   0.913   3.538 -0.6476 -0.1311  0.3566
 1758TIP3    H1 5280   2.402   0.860   3.492 -1.2263 -0.0995 -0.5069
 1758TIP3    H2 5281   2.351   1.002   3.505  0.9698  0.5047  2.5062
 1759TIP3   OH2 5282   3.695   1.043   3.984  0.7672  0.1537 -0.4876
 1759TIP3    H1 5283   3.609   1.005   4.004  0.9329  0.0776  0.1120
 1759TIP3    H2 5284   3.757   0.973   4.004  1.0937  0.7955  0.8648
 1760TIP3   OH2 5285   3.924   4.803   0.170 -0.1138  0.0214 -0.5901
 1760TIP3    H1 5286   3.881   4.791   0.255  2.4151  0.3050  0.7997
 1760TIP3    H2 5287   3.939   4.714   0.138  0.9242 -0.1648  0.3583
 1761TIP3   OH2 5288   5.190   3.042   1.875 -0.4317 -0.4580 -0.1388
 1761TIP3    H1 5289   5.127   2.988   1.827 -0.8615 -0.8521  0.8588
 1761TIP3    H2 5290   5.214   2.990   1.951  1.5116 -0.5371 -0.7502
 1762TIP3   OH2 5291   5.475   5.162   0.319 -0.5245  0.1376  0.4939
 1762TIP3    H1 5292   5.539   5.091   0.325 -0.2802 -0.0703 -2.6555
 1762TIP3    H2 5293   5.393   5.123   0.349  0.0647 -0.7756  0.9662
 1763TIP3   OH2 5294   2.090   1.877   3.964  0.1605 -0.4692 -0.0413
 1763TIP3    H1 5295   2.040   1.863   3.884  1.0133  2.5553 -1.2426
 1763TIP3    H2 5296   2.066   1.966   3.992  0.6913 -1.0323  2.5100
 1764TIP3   OH2 5297   2.620   5.955   4.703  0.4449 -0.1267 -0.4366
 1764TIP3    H1 5298   2.564   5.905   4.762 -0.3434  0.1779 -0.9079
 1764TIP3    H2 5299   2.635   6.038   4.748  0.1729 -0.0464 -0.4962
 1765TIP3   OH2 5300   1.308   2.950   2.494  0.4957  0.1124 -0.3865
 1765TIP3    H1 5301   1.286   2.877   2.552  1.0290  0.4862  0.3027
 1765TIP3    H2 5302   1.276   3.028   2.540  1.5974  0.4826 -0.2249
 1766TIP3   OH2 5303   3.805   1.445   5.187 -0.0622  0.4788 -0.3000
 1766TIP3    H1 5304   3.790   1.523   5.241 -1.6027  0.1942 -0.2856
 1766TIP3    H2 5305   3.738   1.449   5.119  0.0639 -0.6531 -0.5085
 1767TIP3   OH2 5306   2.286   3.597   4.199  0.6698  0.1777 -0.1203
 1767TIP3    H1 5307   2.356   3.659   4.182  2.2043 -1.3237  0.4856
 1767TIP3    H2 5308   2.322   3.536   4.264 -2.3421  1.3296  2.9436
 1768TIP3   OH2 5309   0.286   0.588   4.474 -0.4066 -0.4966  0.1712
 1768TIP3    H1 5310   0.253   0.674   4.503  0.7285 -0.5703  1.8494
 1768TIP3    H2 5311   0.232   0.566   4.398 -1.7392  1.0155  0.6084
 1769TIP3   OH2 5312   1.255   4.653   2.332  0.2979  0.0284 -0.0270
 1769TIP3    H1 5313   1.322   4.661   2.399 -0.6694  0.2542  0.9530
 1769TIP3    H2 5314   1.267   4.730   2.276  0.6376  0.2431  0.3441
 1770TIP3   OH2 5315   5.187   0.277   0.479 -0.5782 -0.3250 -0.3091
 1770TIP3    H1 5316   5.244   0.204   0.452  0.8939 -0.4589  2.7424
 1770TIP3    H2 5317   5.246   0.351   0.490 -1.6315  0.5966 -0.6794
 1771TIP3   OH2 5318   0.803   5.922   1.673  0.5175 -0.7295 -0.5990
 1771TIP3    H1 5319   0.857   5.980   1.726 -0.7260 -1.8386  2.0757
 1771TIP3    H2 5320   0.742   5.979   1.628  0.6487  0.1818  0.3513
 1772TIP3   OH2 5321   4.531   4.243   1.434 -0.0277 -0.1855 -0.8199
 1772TIP3    H1 5322   4.623   4.250   1.457  0.0208 -1.3755 -0.5724
 1772TIP3    H2 5323   4.526   4.166   1.378 -1.1455 -1.3910  0.8261
 1773TIP3   OH2 5324   0.226   2.933   4.117 -0.3518  0.1754 -0.2611
 1773TIP3    H1 5325   0.291   2.863   4.127  1.0645  1.0376 -2.6911
 1773TIP3    H2 5326   0.239   2.989   4.193  0.9685 -0.2853 -0.1276
 1774TIP3   OH2 5327   1.484   3.144   2.045  0.3571  0.0968 -0.1224
 1774TIP3    H1 5328   1.413   3.120   2.104 -1.6486  1.3218 -1.9141
 1774TIP3    H2 5329   1.562   3.105   2.086 -1.4264 -2.2735  1.3524
 1775TIP3   OH2 5330   2.006   5.699   3.979 -0.1056 -0.0680  0.0141
 1775TIP3    H1 5331   1.953   5.643   3.922  0.0580  0.1790 -0.3834
 1775TIP3    H2 5332   2.067   5.743   3.920  0.5791 -0.3798  0.4653
 1776TIP3   OH2 5333   3.432   5.947   2.228 -0.2391 -0.0764  0.2977
 1776TIP3    H1 5334   3.369   5.876   2.217 -0.4001 -0.1760  1.6776
 1776TIP3    H2 5335   3.380   6.027   2.224 -0.1399 -0.0479 -0.6643
 1777TIP3   OH2 5336   5.745   4.595   2.934  0.3873 -0.1220 -0.4458
 1777TIP3    H1 5337   5.685   4.565   2.865 -0.3233 -0.3789  0.2655
 1777TIP3    H2 5338   5.785   4.514   2.967 -1.3000 -0.3212  1.2668
 1778TIP3   OH2 5339   2.909   5.848   1.908  0.1788  0.2098  0.3641
 1778TIP3    H1 5340   3.001   5.870   1.894  0.3195 -0.3214  0.4455
 1778TIP3    H2 5341   2.862   5.906   1.849  0.6577 -0.5927 -0.8497
 1779TIP3   OH2 5342   4.837   3.362   3.233 -0.2834 -0.0458  0.6122
 1779TIP3    H1 5343   4.834   3.334   3.325 -0.0652 -2.3595 -0.0172
 1779TIP3    H2 5344   4.915   3.318   3.198 -1.6307 -1.0794 -1.2304
 1780TIP3   OH2 5345   1.993   4.882   0.793  0.0595  0.0735 -0.5365
 1780TIP3    H1 5346   1.919   4.913   0.742  1.4687  1.9366 -1.6118
 1780TIP3    H2 5347   2.040   4.823   0.735  0.1798  0.0211 -0.3872
 1781TIP3   OH2 5348   6.078   0.621   2.488 -0.2465 -0.2345  0.1363
 1781TIP3    H1 5349   6.020   0.691   2.518  0.5095  0.2096  0.5811
 1781TIP3    H2 5350   6.067   0.551   2.552 -1.0666 -0.5664 -0.3551
 1782TIP3   OH2 5351   3.421   3.704   0.671  0.5034 -0.0353  0.2196
 1782TIP3    H1 5352   3.475   3.629   0.644  2.8359  1.4095  0.5894
 1782TIP3    H2 5353   3.441   3.716   0.763 -0.2508  0.7486  0.2892
 1783TIP3   OH2 5354   1.837   1.076   2.495  1.1283  0.1110 -0.1691
 1783TIP3    H1 5355   1.849   1.079   2.400 -1.8103 -1.1189 -0.6957
 1783TIP3    H2 5356   1.860   1.163   2.525  0.7305  0.9780 -2.2243
 1784TIP3   OH2 5357   1.546   4.168   1.781  0.4373 -0.0712 -0.0666
 1784TIP3    H1 5358   1.578   4.112   1.851  2.8603  0.2796 -0.8106
 1784TIP3    H2 5359   1.500   4.239   1.826 -0.8881 -1.5139  0.9669
 1785TIP3   OH2 5360   0.298   4.535   4.763  0.3335  0.2760 -0.3127
 1785TIP3    H1 5361   0.375   4.517   4.708 -0.3998  1.0809 -1.6677
 1785TIP3    H2 5362   0.244   4.456   4.755  0.2438  0.3774 -0.7431
 1786TIP3   OH2 5363   5.968   0.820   2.647 -0.6170  0.7874  0.2439
 1786TIP3    H1 5364   6.003   0.826   2.736 -1.0927  2.4697  0.3581
 1786TIP3    H2 5365   6.018   0.884   2.597 -1.0177  0.5559 -0.4669
 1787TIP3   OH2 5366   3.116   1.127   1.630 -0.4191  0.0844 -0.5316
 1787TIP3    H1 5367   3.129   1.207   1.580  0.4074 -0.7284 -1.6604
 1787TIP3    H2 5368   3.111   1.156   1.721  1.6093  1.2670 -0.7544
 1788TIP3   OH2 5369   4.761   3.397   2.158  0.6705 -0.1156 -0.0029
 1788TIP3    H1 5370   4.728   3.479   2.194  2.4844  0.1059  1.3498
 1788TIP3    H2 5371   4.825   3.424   2.092 -1.7262 -0.5296 -2.6759
 1789TIP3   OH2 5372   5.109   1.194   1.660  0.0862  0.1613 -0.4164
 1789TIP3    H1 5373   5.144   1.155   1.740 -2.8674 -1.6895  0.1239
 1789TIP3    H2 5374   5.150   1.280   1.655  1.4975 -0.2623  2.2642
 1790TIP3   OH2 5375   2.941   0.184   1.782 -0.3244  0.4700 -0.4638
 1790TIP3    H1 5376   2.870   0.150   1.836  0.6757 -0.0373  0.5730
 1790TIP3    H2 5377   2.901   0.257   1.733 -1.7736 -0.4043 -0.6324
 1791TIP3   OH2 5378   1.082   4.218   1.286  0.1286  0.3375  0.2631
 1791TIP3    H1 5379   1.069   4.141   1.342 -2.7162 -1.6351 -2.7633
 1791TIP3    H2 5380   1.175   4.238   1.295  0.5639 -2.0738  2.8290
 1792TIP3   OH2 5381   0.948   3.160   3.475  0.2267 -0.5197 -0.1868
 1792TIP3    H1 5382   0.879   3.140   3.539  0.7960  1.0372  0.9760
 1792TIP3    H2 5383   1.029   3.131   3.516  0.6076  0.5318 -0.1590
 1793TIP3   OH2 5384   3.509   0.575   2.698 -0.2281 -0.3819  0.3711
 1793TIP3    H1 5385   3.584   0.516   2.706  0.2223  0.0426 -0.5810
 1793TIP3    H2 5386   3.496   0.610   2.786  1.4962  0.5047  0.3004
 1794TIP3   OH2 5387   3.473   5.511   3.123 -0.2546 -0.3635 -0.6104
 1794TIP3    H1 5388   3.461   5.600   3.088  0.9038  0.0146 -0.0748
 1794TIP3    H2 5389   3.532   5.522   3.197 -0.9768 -1.4516  0.1527
 1795TIP3   OH2 5390   1.614   3.777   2.787  0.2515  0.2959 -0.2888
 1795TIP3    H1 5391   1.610   3.717   2.861  0.5808  2.6024  1.7514
 1795TIP3    H2 5392   1.525   3.811   2.779 -0.0596 -0.7598 -1.7725
 1796TIP3   OH2 5393   6.192   1.318   1.011  0.3908 -0.4150 -0.6421
 1796TIP3    H1 5394   6.209   1.409   0.986 -1.3604 -0.2580 -1.4418
 1796TIP3    H2 5395   6.253   1.300   1.082 -0.5595  2.0732  0.9305
 1797TIP3   OH2 5396   3.273   0.214   3.307  0.1784  0.1194  0.4583
 1797TIP3    H1 5397   3.179   0.200   3.306 -0.0890  1.7076 -1.1640
 1797TIP3    H2 5398   3.311   0.126   3.316 -1.4055 -0.4133  3.0432
 1798TIP3   OH2 5399   3.524   3.558   4.539  0.5320 -0.1095  0.5261
 1798TIP3    H1 5400   3.544   3.487   4.479 -0.2259  0.2939 -0.2432
 1798TIP3    H2 5401   3.429   3.554   4.551  0.4960  0.6574  0.6070
 1799TIP3   OH2 5402   4.017   1.044   4.345  0.0805 -0.6329  0.4210
 1799TIP3    H1 5403   4.105   1.061   4.313  0.3167 -0.7406  1.0214
 1799TIP3    H2 5404   3.960   1.073   4.273  0.6221 -1.2055 -0.2551
 1800TIP3   OH2 5405   3.186   1.898   1.419  0.1425 -0.1883 -0.0225
 1800TIP3    H1 5406   3.249   1.961   1.384  0.4893  1.2167  2.8682
 1800TIP3    H2 5407   3.232   1.814   1.416  2.1976  0.7802  1.8941
 1801TIP3   OH2 5408   4.108   1.573   0.887  0.0035  0.3857 -0.7819
 1801TIP3    H1 5409   4.067   1.591   0.802  0.0945  1.1829 -0.6717
 1801TIP3    H2 5410   4.144   1.658   0.914  1.9801 -0.3148 -1.0136
 1802TIP3   OH2 5411   0.194   3.979   3.696 -0.3781 -0.0412  0.0897
 1802TIP3    H1 5412   0.271   3.936   3.732  0.0355 -0.7770 -1.5584
 1802TIP3    H2 5413   0.203   4.071   3.720  0.4691 -0.3084  0.8070
 1803TIP3   OH2 5414   4.942   0.389   2.539  0.4077 -0.4298 -0.0631
 1803TIP3    H1 5415   4.945   0.463   2.477  2.7537  0.3383  0.8335
 1803TIP3    H2 5416   4.917   0.429   2.623 -1.8403 -1.3074 -0.2553
 1804TIP3   OH2 5417   2.366   1.626   4.541  0.8728  0.0413  0.6439
 1804TIP3    H1 5418   2.298   1.593   4.601  0.3186 -4.1825 -1.9058
 1804TIP3    H2 5419   2.318   1.655   4.464  1.7886  0.7736  0.3334
 1805TIP3   OH2 5420   4.059   4.820   3.350 -0.0211 -0.2594 -0.0742
 1805TIP3    H1 5421   3.965   4.815   3.331 -0.1611 -1.6736  0.8693
 1805TIP3    H2 5422   4.065   4.874   3.429  0.0757  0.7520 -0.7516
 1806TIP3   OH2 5423   4.657   2.387   2.486 -0.2965  0.2019  0.5248
 1806TIP3    H1 5424   4.674   2.295   2.507  2.2638 -0.2788 -2.8391
 1806TIP3    H2 5425   4.706   2.435   2.552  0.0908 -0.8790  1.0578
 1807TIP3   OH2 5426   4.444   1.016   1.130  0.3687  0.0292 -0.1710
 1807TIP3    H1 5427   4.492   0.951   1.181 -0.8767  0.1083  1.1764
 1807TIP3    H2 5428   4.354   1.008   1.160 -0.1124  1.2458 -1.1936
 1808TIP3   OH2 5429   5.087   1.351   1.961  0.0408 -0.4151  0.1709
 1808TIP3    H1 5430   5.009   1.320   1.916 -0.3369  0.9217 -0.1651
 1808TIP3    H2 5431   5.059   1.433   2.003  1.2501  0.1006  0.0257
 1809TIP3   OH2 5432   5.621   5.367   4.748 -0.2297  0.1459 -0.0910
 1809TIP3    H1 5433   5.570   5.448   4.753  0.2716  0.4105  1.7579
 1809TIP3    H2 5434   5.694   5.382   4.809 -0.3132 -1.8189  0.5568
 1810TIP3   OH2 5435   4.821   5.826   3.560  0.3217 -0.2619  0.7160
 1810TIP3    H1 5436   4.892   5.881   3.591 -0.1341  1.1750 -0.6672
 1810TIP3    H2 5437   4.742   5.880   3.570 -0.0243 -0.2608 -1.4700
 1811TIP3   OH2 5438   2.384   5.975   0.088 -0.7035  0.0462  0.2704
 1811TIP3    H1 5439   2.417   5.900   0.137 -0.3242  0.5470  0.8091
 1811TIP3    H2 5440   2.435   5.975   0.007 -0.3882 -0.0252  0.4634
 1812TIP3   OH2 5441   3.655   0.311   3.058 -0.1083  0.1950  0.0569
 1812TIP3    H1 5442   3.718   0.382   3.048  0.3077  0.1128  1.8035
 1812TIP3    H2 5443   3.708   0.233   3.069 -0.5292 -0.0419  0.4488
 1813TIP3   OH2 5444   5.111   5.377   1.265  0.1931  0.2501  0.3891
 1813TIP3    H1 5445   5.187   5.434   1.270 -0.2377  0.8671 -0.0018
 1813TIP3    H2 5446   5.108   5.348   1.174  1.1153 -1.3958  0.8416
 1814TIP3   OH2 5447   1.581   5.754   0.850  0.1104  0.1009 -0.5947
 1814TIP3    H1 5448   1.656   5.811   0.870  0.2033 -0.0693 -0.4595
 1814TIP3    H2 5449   1.570   5.762   0.755 -1.7157  2.6372 -0.2592
 1815TIP3   OH2 5450   0.064   3.233   3.114  0.0701  0.2563 -0.0482
 1815TIP3    H1 5451  -0.008   3.256   3.173  0.1948  1.0266 -0.1928
 1815TIP3    H2 5452   0.086   3.314   3.069  1.4062  0.1744  0.3950
 1816TIP3   OH2 5453   4.727   4.617   4.310  0.0958  0.1405  0.4762
 1816TIP3    H1 5454   4.734   4.580   4.222  1.1634 -0.3567  0.7443
 1816TIP3    H2 5455   4.710   4.710   4.296 -0.4560 -0.0583 -0.2404
 1817TIP3   OH2 5456   2.823   5.014   1.301  0.0913  0.6795 -0.0340
 1817TIP3    H1 5457   2.747   5.066   1.326  0.5999  0.6416  1.7308
 1817TIP3    H2 5458   2.865   4.992   1.384  1.7895  0.3237 -0.9488
 1818TIP3   OH2 5459   2.433   0.987   3.029  0.2181 -0.2199 -0.4839
 1818TIP3    H1 5460   2.514   1.025   3.064  1.1971 -1.3572 -1.4224
 1818TIP3    H2 5461   2.367   1.054   3.044  1.7028  1.5501 -1.3643
 1819TIP3   OH2 5462   4.076   0.929   3.091 -0.6680 -0.2854 -0.2363
 1819TIP3    H1 5463   4.059   0.895   3.179 -0.4892 -0.0890 -0.1257
 1819TIP3    H2 5464   4.100   1.021   3.105 -0.0138 -0.4228 -0.4313
 1820TIP3   OH2 5465   3.932   3.779   3.891  0.0744  0.0694  0.1523
 1820TIP3    H1 5466   3.885   3.801   3.972  0.9631 -0.0800  0.7177
 1820TIP3    H2 5467   3.865   3.741   3.834 -0.6167  0.4270  0.7116
 1821TIP3   OH2 5468   3.984   0.754   2.009  0.2574 -0.4183  0.4434
 1821TIP3    H1 5469   4.009   0.682   2.068 -0.6341 -1.0289  0.0795
 1821TIP3    H2 5470   3.897   0.730   1.977  0.6183  0.0356 -0.9270
 1822TIP3   OH2 5471   0.296   2.702   1.084 -0.3807  0.0869  0.1041
 1822TIP3    H1 5472   0.298   2.663   0.996 -2.2698 -0.7782  0.3917
 1822TIP3    H2 5473   0.213   2.748   1.088 -0.0169  0.6834  1.2218
 1823TIP3   OH2 5474   1.030   1.047   0.298 -0.4577 -0.2183  0.2711
 1823TIP3    H1 5475   0.947   1.001   0.313  1.1731 -2.9011  1.9954
 1823TIP3    H2 5476   1.075   0.993   0.233  0.0617  1.0752 -0.4753
 1824TIP3   OH2 5477   5.794   4.839   1.691  0.0497  0.1845 -0.1106
 1824TIP3    H1 5478   5.844   4.826   1.611 -0.8852 -0.4221 -0.6183
 1824TIP3    H2 5479   5.739   4.915   1.673 -0.3482 -0.1079 -0.1522
 1825TIP3   OH2 5480   2.541   3.924   3.058  0.3835  0.4144 -0.1690
 1825TIP3    H1 5481   2.523   3.938   2.965 -0.8914 -1.6220 -0.2870
 1825TIP3    H2 5482   2.621   3.872   3.059  0.5346  0.6437 -0.0931
 1826TIP3   OH2 5483   5.275   1.605   3.308  0.0794  0.0063  0.4769
 1826TIP3    H1 5484   5.320   1.686   3.283 -0.1088  0.1601  0.6373
 1826TIP3    H2 5485   5.346   1.541   3.315  0.1125 -0.1095 -0.7003
 1827TIP3   OH2 5486   2.948   0.258   3.049  0.0064  0.0664 -0.5310
 1827TIP3    H1 5487   2.854   0.260   3.028 -0.0588 -0.2038 -0.2745
 1827TIP3    H2 5488   2.990   0.299   2.974 -0.2651 -0.4452 -0.9691
 1828TIP3   OH2 5489   0.415   3.174   2.642 -0.0686 -0.0305  0.1002
 1828TIP3    H1 5490   0.441   3.264   2.657  0.7923 -0.1629 -0.5184
 1828TIP3    H2 5491   0.403   3.137   2.729  2.2400 -0.0600  0.4638
 1829TIP3   OH2 5492   2.071   1.000   3.279  0.1501 -0.4927  0.5462
 1829TIP3    H1 5493   1.981   1.009   3.248 -0.3059 -2.1378  1.3025
 1829TIP3    H2 5494   2.074   0.914   3.321  2.0037 -0.3530  0.7948
 1830TIP3   OH2 5495   0.826   2.476   3.945 -0.0357  0.5617  0.0220
 1830TIP3    H1 5496   0.816   2.390   3.905 -1.0316  1.6290 -2.2002
 1830TIP3    H2 5497   0.742   2.491   3.990 -0.2460  0.7599 -0.4303
 1831TIP3   OH2 5498   2.146   1.177   3.476 -0.3253  0.3773  0.2677
 1831TIP3    H1 5499   2.117   1.101   3.427 -0.3695  1.4356 -1.4143
 1831TIP3    H2 5500   2.212   1.219   3.420  0.3415  1.1034  1.5375
 1832TIP3   OH2 5501   0.526   2.508   4.016 -0.0116 -0.3050 -0.3851
 1832TIP3    H1 5502   0.475   2.489   4.095 -0.0999  0.3482 -0.2800
 1832TIP3    H2 5503   0.478   2.464   3.946  1.0116 -2.4089  0.1414
 1833TIP3   OH2 5504   3.064   4.723   1.652 -0.9408 -0.1746  0.5716
 1833TIP3    H1 5505   3.083   4.776   1.729 -1.0274  2.1119 -0.8642
 1833TIP3    H2 5506   3.140   4.665   1.643 -1.3812 -1.1933  2.8590
 1834TIP3   OH2 5507   0.868   3.794   4.473  0.3806  0.1698 -0.3229
 1834TIP3    H1 5508   0.842   3.883   4.451  1.5025  0.4079 -0.7784
 1834TIP3    H2 5509   0.831   3.779   4.560  1.3650  1.6178  0.3823
 1835TIP3   OH2 5510   0.756   2.034   1.318  0.5984  0.1373 -0.5720
 1835TIP3    H1 5511   0.849   2.026   1.340 -0.1009 -2.0668  2.1502
 1835TIP3    H2 5512   0.730   1.945   1.294 -0.9431  0.6148 -0.7414
 1836TIP3   OH2 5513   3.543   3.103   4.855 -0.0286  0.8430  0.5067
 1836TIP3    H1 5514   3.559   3.198   4.852  0.3699  0.8071  1.2556
 1836TIP3    H2 5515   3.604   3.066   4.791 -0.7824  1.1588 -0.4150
 1837TIP3   OH2 5516   0.691   2.112   4.363  0.1017  0.6593 -0.1714
 1837TIP3    H1 5517   0.781   2.113   4.332  1.2932 -0.1628  2.9256
 1837TIP3    H2 5518   0.691   2.166   4.442 -1.5969 -1.0389  1.0921
 1838TIP3   OH2 5519   2.086   2.011   2.923 -1.0595  0.2853 -0.3684
 1838TIP3    H1 5520   2.012   2.000   2.983 -1.4748  0.4595 -0.8455
 1838TIP3    H2 5521   2.143   2.076   2.965 -1.8577  1.1769 -0.6404
 1839TIP3   OH2 5522   1.181   0.277   0.673  0.3034 -0.6341 -0.7014
 1839TIP3    H1 5523   1.135   0.361   0.674 -0.4323 -1.0270  0.1534
 1839TIP3    H2 5524   1.126   0.220   0.619  0.5921 -0.6826 -0.9492
 1840TIP3   OH2 5525   1.636   4.198   3.060 -0.0060  0.0694  0.0153
 1840TIP3    H1 5526   1.567   4.233   3.116 -1.2574 -1.0885 -0.7248
 1840TIP3    H2 5527   1.629   4.249   2.979 -0.1705 -0.2111 -0.1502
 1841TIP3   OH2 5528   1.593   1.540   3.613 -0.3422 -0.7938  0.1813
 1841TIP3    H1 5529   1.637   1.549   3.698  0.0228 -0.1749 -0.0631
 1841TIP3    H2 5530   1.601   1.627   3.573 -1.5949 -0.7347  0.0277
 1842TIP3   OH2 5531   6.080   4.776   2.265 -0.7199  0.2747  0.5507
 1842TIP3    H1 5532   6.069   4.822   2.348 -1.1053 -0.1429  0.7380
 1842TIP3    H2 5533   6.075   4.683   2.288 -0.2587  0.1424  0.1353
 1843TIP3   OH2 5534   3.789   5.434   4.776  0.2954 -0.0545 -0.0487
 1843TIP3    H1 5535   3.740   5.404   4.853 -0.1087  0.2489 -0.1846
 1843TIP3    H2 5536   3.874   5.390   4.783 -0.3970 -1.5133 -0.4180
 1844TIP3   OH2 5537   5.252   5.751   2.445 -0.1929 -0.0536  0.1745
 1844TIP3    H1 5538   5.286   5.752   2.534 -0.1110  0.3039  0.1367
 1844TIP3    H2 5539   5.306   5.687   2.399 -1.0562 -1.2096  0.7106
 1845TIP3   OH2 5540   1.044   4.243   3.881  1.1363  0.2464  0.1387
 1845TIP3    H1 5541   1.112   4.216   3.820  2.4247 -1.3564  2.1306
 1845TIP3    H2 5542   1.051   4.338   3.885  2.9531  0.1500 -0.0696
 1846TIP3   OH2 5543   3.444   0.609   2.992  0.1100 -0.5048  0.1116
 1846TIP3    H1 5544   3.357   0.643   2.971  0.1673 -1.2131 -1.4578
 1846TIP3    H2 5545   3.429   0.541   3.057 -0.5208 -0.5956 -0.1279
 1847TIP3   OH2 5546   0.069   0.625   3.248 -0.9586 -0.1540  0.6271
 1847TIP3    H1 5547   0.067   0.685   3.173 -1.0421  0.2792  0.9678
 1847TIP3    H2 5548   0.104   0.678   3.320  0.9312 -1.0811  0.4567
 1848TIP3   OH2 5549   3.349   0.798   2.637 -0.1773 -0.1819 -0.2541
 1848TIP3    H1 5550   3.397   0.716   2.626 -1.5475 -0.8113 -1.9071
 1848TIP3    H2 5551   3.258   0.772   2.649 -0.4067  1.0587  0.9587
 1849TIP3   OH2 5552   0.828   4.600   1.245 -0.1391 -0.1144  0.3539
 1849TIP3    H1 5553   0.829   4.518   1.295  1.5451 -0.2859  0.0857
 1849TIP3    H2 5554   0.800   4.666   1.309  2.1511 -0.2890  1.6473
 1850TIP3   OH2 5555   3.237   5.375   0.482 -0.3106  0.2226 -0.1083
 1850TIP3    H1 5556   3.269   5.458   0.516  1.1029  0.8084 -2.6155
 1850TIP3    H2 5557   3.316   5.332   0.447 -1.0653 -2.0345  0.7740
 1851TIP3   OH2 5558   5.636   2.986   4.276 -0.0057 -0.2042 -0.0887
 1851TIP3    H1 5559   5.682   2.919   4.227 -0.4507  0.1945 -1.0723
 1851TIP3    H2 5560   5.633   2.953   4.366 -0.4857 -1.6358 -0.6094
 1852TIP3   OH2 5561   5.087   4.764   3.065 -0.1608  0.4433 -0.8357
 1852TIP3    H1 5562   5.057   4.699   3.002  0.0347 -0.8086  0.3166
 1852TIP3    H2 5563   5.039   4.744   3.146  1.6000  0.2271  0.2169
 1853TIP3   OH2 5564   4.693   1.484   4.448  0.4877  0.5314  0.3454
 1853TIP3    H1 5565   4.756   1.428   4.494  1.1006  1.3548  0.5409
 1853TIP3    H2 5566   4.608   1.446   4.468  0.8236  0.2158  1.2414
 1854TIP3   OH2 5567   3.203   5.032   0.044  0.0737  0.1436 -0.1076
 1854TIP3    H1 5568   3.133   5.030   0.109 -0.4608 -2.1516 -0.6760
 1854TIP3    H2 5569   3.279   4.996   0.090  0.2881  0.5329 -0.1488
 1855TIP3   OH2 5570   3.550   3.426   3.250 -0.0122  0.6844  0.0688
 1855TIP3    H1 5571   3.605   3.418   3.328  1.8141  0.5023 -1.1691
 1855TIP3    H2 5572   3.612   3.425   3.177 -1.6535  0.9261 -1.3944
 1856TIP3   OH2 5573   3.065   2.281   4.237 -0.1018 -0.0124 -0.4836
 1856TIP3    H1 5574   2.977   2.263   4.204 -0.4120  0.4751  0.0558
 1856TIP3    H2 5575   3.051   2.336   4.314  0.6019 -1.4172  0.6793
 1857TIP3   OH2 5576   1.093   0.612   3.102 -0.3092  0.0349 -0.1693
 1857TIP3    H1 5577   1.033   0.558   3.152  0.0953 -0.5665 -0.3259
 1857TIP3    H2 5578   1.179   0.593   3.139  0.3756 -2.3588 -2.6635
 1858TIP3   OH2 5579   4.467   5.334   2.346  0.2529  0.0321 -0.8059
 1858TIP3    H1 5580   4.499   5.323   2.257 -0.5769 -1.7392 -0.9363
 1858TIP3    H2 5581   4.480   5.248   2.387 -1.2993  0.1815  0.0983
 1859TIP3   OH2 5582   5.110   5.924   4.454 -0.1259  0.7736 -0.5034
 1859TIP3    H1 5583   5.052   5.977   4.399 -0.4309 -0.3980 -1.3537
 1859TIP3    H2 5584   5.071   5.929   4.541 -1.4955  0.0706 -1.0457
 1860TIP3   OH2 5585   2.874   3.662   4.219 -0.1052  0.8644 -0.2860
 1860TIP3    H1 5586   2.916   3.727   4.276 -1.0200 -0.3358  1.8940
 1860TIP3    H2 5587   2.907   3.682   4.131  3.7710  0.9725  0.9951
 1861TIP3   OH2 5588   6.326   2.579   3.536  0.8278 -0.8438  0.2027
 1861TIP3    H1 5589   6.386   2.637   3.490  2.1467 -1.5002  1.0158
 1861TIP3    H2 5590   6.303   2.512   3.472 -0.9509  0.6642 -0.8404
 1862TIP3   OH2 5591   4.394   4.432   1.598  0.1928 -0.5893  0.1093
 1862TIP3    H1 5592   4.328   4.399   1.537  1.1833  0.9314 -1.8842
 1862TIP3    H2 5593   4.462   4.364   1.600  0.3204 -0.4929 -0.7751
 1863TIP3   OH2 5594   5.764   5.738   1.467 -0.4097 -0.1978  0.2863
 1863TIP3    H1 5595   5.831   5.720   1.402 -0.3422 -0.0878  0.3238
 1863TIP3    H2 5596   5.731   5.652   1.493 -0.0160 -0.2749  0.5468
 1864TIP3   OH2 5597   1.807   4.691   3.375  0.5084 -0.3988 -0.1746
 1864TIP3    H1 5598   1.898   4.682   3.403 -0.5296 -2.8468  2.9970
 1864TIP3    H2 5599   1.767   4.749   3.440 -0.6666 -1.2032 -0.1404
 1865TIP3   OH2 5600   4.582   0.799   2.278 -0.1806  0.1526 -0.2398
 1865TIP3    H1 5601   4.598   0.770   2.368 -1.7622 -1.2164 -0.3548
 1865TIP3    H2 5602   4.490   0.826   2.277  0.0480  1.0024 -1.2599
 1866TIP3   OH2 5603   4.725   4.832   3.554  0.5560 -0.0221 -0.4147
 1866TIP3    H1 5604   4.759   4.751   3.591 -1.3959 -0.9114 -0.4250
 1866TIP3    H2 5605   4.701   4.884   3.630 -1.0592 -0.7779 -0.3712
 1867TIP3   OH2 5606   2.782   4.232   2.233  0.1484 -0.4522 -0.1562
 1867TIP3    H1 5607   2.875   4.211   2.229 -0.1024 -1.5528 -0.7547
 1867TIP3    H2 5608   2.741   4.174   2.169 -0.7362  1.3639 -1.3180
 1868TIP3   OH2 5609   2.291   0.666   2.158  0.2335  0.0706  0.3423
 1868TIP3    H1 5610   2.271   0.706   2.073  0.1738 -1.3873 -0.3601
 1868TIP3    H2 5611   2.230   0.592   2.164  1.0657 -0.5700  1.1008
 1869TIP3   OH2 5612   3.419   4.108   0.815 -0.1337 -0.4554 -0.2572
 1869TIP3    H1 5613   3.481   4.178   0.793  0.6480 -0.8057  0.7213
 1869TIP3    H2 5614   3.426   4.100   0.910  0.9436 -2.8736 -0.4542
 1870TIP3   OH2 5615   3.623   1.537   0.565 -0.7447 -0.0829 -0.4602
 1870TIP3    H1 5616   3.610   1.443   0.553  0.0918 -0.2239 -0.3007
 1870TIP3    H2 5617   3.570   1.559   0.641 -0.3593 -0.5741 -0.0442
 1871TIP3   OH2 5618   1.484   2.008   2.271  0.3125  0.1861  0.2487
 1871TIP3    H1 5619   1.401   1.988   2.313  0.5679  0.0365  0.6832
 1871TIP3    H2 5620   1.460   2.032   2.181 -0.2442  0.6458  0.5103
 1872TIP3   OH2 5621   0.071   2.682   0.260  0.3312 -0.1232 -0.1646
 1872TIP3    H1 5622   0.044   2.602   0.306 -0.8918 -0.2194 -0.9894
 1872TIP3    H2 5623   0.115   2.650   0.181  0.1489  0.0234 -0.3242
 1873TIP3   OH2 5624   3.274   4.477   3.951  0.0321  0.1078 -0.0063
 1873TIP3    H1 5625   3.276   4.385   3.925  0.2592  0.5742 -1.7176
 1873TIP3    H2 5626   3.303   4.476   4.043 -0.2912 -1.5415  0.1101
 1874TIP3   OH2 5627   3.881   2.924   5.085  0.3264  0.6349  0.8630
 1874TIP3    H1 5628   3.946   2.949   5.019  0.5850  0.7844  1.1750
 1874TIP3    H2 5629   3.932   2.898   5.161  0.0068  1.9274  1.5326
 1875TIP3   OH2 5630   0.880   0.815   1.879  0.4546 -0.5739  0.1158
 1875TIP3    H1 5631   0.824   0.810   1.801 -0.5457  0.2280  0.7508
 1875TIP3    H2 5632   0.846   0.746   1.936  1.0410 -1.0123 -0.0586
 1876TIP3   OH2 5633   5.180   4.971   0.154 -0.0227 -0.0302  0.5040
 1876TIP3    H1 5634   5.211   4.904   0.215  0.1369 -0.5259 -0.0943
 1876TIP3    H2 5635   5.202   5.054   0.195 -1.1295 -0.3209  1.7382
 1877TIP3   OH2 5636   2.841   5.549   4.728  0.1867 -0.6051 -0.8737
 1877TIP3    H1 5637   2.820   5.542   4.635  1.3807 -1.4014 -1.0972
 1877TIP3    H2 5638   2.806   5.468   4.766 -3.0994  1.0356 -0.0057
 1878TIP3   OH2 5639   4.507   0.489   0.080  0.4785 -0.4525  0.0678
 1878TIP3    H1 5640   4.414   0.476   0.067  0.3974  1.4067 -1.6864
 1878TIP3    H2 5641   4.513   0.571   0.130  1.1708 -0.1880 -0.4363
 1879TIP3   OH2 5642   3.846   1.723   5.064 -0.2021  0.1549 -1.0242
 1879TIP3    H1 5643   3.843   1.719   5.159 -1.3155 -0.3750 -1.0673
 1879TIP3    H2 5644   3.890   1.807   5.045  2.5751 -0.9566 -0.0780
 1880TIP3   OH2 5645   0.178   1.684   1.594 -0.0447  0.2716 -0.5181
 1880TIP3    H1 5646   0.179   1.775   1.566 -0.5665  0.4041 -0.1147
 1880TIP3    H2 5647   0.140   1.685   1.682 -1.0952 -0.4292 -0.9264
 1881TIP3   OH2 5648   3.750   2.612   2.383 -0.5152 -0.2693  0.1309
 1881TIP3    H1 5649   3.744   2.701   2.418 -0.4815 -0.0490 -0.3991
 1881TIP3    H2 5650   3.837   2.608   2.344 -0.5216 -0.5319  0.1413
 1882TIP3   OH2 5651   2.737   3.851   0.392 -0.2371  0.4331  0.1121
 1882TIP3    H1 5652   2.771   3.813   0.311 -0.5310 -0.9813  0.6273
 1882TIP3    H2 5653   2.645   3.827   0.394  0.0739 -0.8190  1.5420
 1883TIP3   OH2 5654   3.561   2.761   2.997  0.3546  0.4205  0.0296
 1883TIP3    H1 5655   3.619   2.811   3.055  1.0303 -0.3853  0.0670
 1883TIP3    H2 5656   3.609   2.680   2.980 -1.0385 -0.5315  0.5477
 1884TIP3   OH2 5657   3.921   0.629   5.026 -0.1706  0.4957 -0.3761
 1884TIP3    H1 5658   3.845   0.575   5.004 -0.1793  1.0672 -1.8693
 1884TIP3    H2 5659   3.884   0.701   5.078 -0.3971 -0.0673  0.2584
 1885TIP3   OH2 5660   6.228   2.624   4.011 -0.1422 -0.5255  0.0529
 1885TIP3    H1 5661   6.275   2.546   4.040 -0.0878 -0.4873  0.0675
 1885TIP3    H2 5662   6.138   2.594   3.998  0.0077 -0.7401 -0.5459
 1886TIP3   OH2 5663   2.787   1.657   3.102  0.3655  0.1830 -0.2096
 1886TIP3    H1 5664   2.811   1.725   3.039  0.2725 -0.3093 -0.7840
 1886TIP3    H2 5665   2.844   1.674   3.177 -1.3826  2.4710  0.7455
 1887TIP3   OH2 5666   0.058   2.824   1.132  0.3216 -0.6205  0.0826
 1887TIP3    H1 5667   0.063   2.915   1.160 -0.9817 -0.2580 -0.7588
 1887TIP3    H2 5668   0.003   2.781   1.198 -2.1265  0.0695 -1.3529
 1888TIP3   OH2 5669   1.215   2.328   0.961  0.8052 -0.1286  0.2310
 1888TIP3    H1 5670   1.283   2.336   0.894  1.2251 -1.6415  0.4419
 1888TIP3    H2 5671   1.245   2.258   1.018 -1.3088 -1.4667 -0.1650
 1889TIP3   OH2 5672   2.698   5.303   4.830 -0.3672 -0.5624  0.3586
 1889TIP3    H1 5673   2.661   5.261   4.752 -1.5002 -0.6084  0.8997
 1889TIP3    H2 5674   2.778   5.253   4.848  0.4814  0.0933 -1.3490
 1890TIP3   OH2 5675   5.896   0.058   2.205  0.0139 -0.5612 -0.1327
 1890TIP3    H1 5676   5.992   0.061   2.195  0.0128  0.3799  0.0370
 1890TIP3    H2 5677   5.878  -0.031   2.234  0.9450 -0.4587  0.8354
 1891TIP3   OH2 5678   6.057   2.626   1.458  0.1388 -0.2013  0.0868
 1891TIP3    H1 5679   5.991   2.559   1.437  0.7765 -1.1689  1.0489
 1891TIP3    H2 5680   6.028   2.662   1.542  0.2551  0.1418 -0.0191
 1892TIP3   OH2 5681   1.574   4.639   2.255  0.3221 -0.2965 -0.3470
 1892TIP3    H1 5682   1.552   4.706   2.320 -0.9699 -1.1048  0.0768
 1892TIP3    H2 5683   1.511   4.651   2.185  0.2764 -0.8768 -0.4110
 1893TIP3   OH2 5684   3.809   3.595   3.389  0.1078  0.5776 -0.4913
 1893TIP3    H1 5685   3.853   3.552   3.316  1.0586  0.0934  0.3414
 1893TIP3    H2 5686   3.798   3.525   3.454  1.1164  1.4251  0.6350
 1894TIP3   OH2 5687   2.313   3.359   2.638  0.2658  0.1889  0.0201
 1894TIP3    H1 5688   2.233   3.324   2.676 -0.6401  0.7486 -1.2969
 1894TIP3    H2 5689   2.289   3.384   2.549  2.2533 -0.8734 -0.8724
 1895TIP3   OH2 5690   2.427   2.983   3.665  0.4569  0.0878 -0.0703
 1895TIP3    H1 5691   2.402   2.938   3.585  0.1763 -1.2764  0.7629
 1895TIP3    H2 5692   2.343   3.006   3.707  0.5884 -0.3148  0.4282
 1896TIP3   OH2 5693   5.312   5.218   0.981 -0.4594  0.7811  0.2813
 1896TIP3    H1 5694   5.218   5.218   0.999 -0.8150 -2.7320 -0.6822
 1896TIP3    H2 5695   5.353   5.226   1.067 -1.7856 -0.9731  1.1469
 1897TIP3   OH2 5696   0.316   5.392   1.210  0.0316  0.4545 -0.0073
 1897TIP3    H1 5697   0.270   5.354   1.284 -0.3279 -1.4422 -1.1336
 1897TIP3    H2 5698   0.408   5.393   1.236 -0.2364  1.1667  0.9825
 1898TIP3   OH2 5699   6.225   0.287   0.502 -0.0754 -0.1707  0.0740
 1898TIP3    H1 5700   6.294   0.320   0.444  0.8516 -0.3804  1.0254
 1898TIP3    H2 5701   6.187   0.214   0.454  0.0814  0.1993 -0.6385
 1899TIP3   OH2 5702   3.845   1.454   4.587 -0.2449 -0.2531  0.2283
 1899TIP3    H1 5703   3.888   1.531   4.624 -0.2088 -0.0197 -0.2950
 1899TIP3    H2 5704   3.822   1.479   4.498  1.2821 -1.3957 -0.5417
 1900TIP3   OH2 5705   1.606   3.744   3.378  0.0412  0.2188 -0.4969
 1900TIP3    H1 5706   1.567   3.705   3.457 -1.6770  1.1390 -0.8201
 1900TIP3    H2 5707   1.530   3.771   3.326  1.1087 -1.0392 -2.8516
 1901TIP3   OH2 5708   4.174   2.914   0.130  0.1025 -0.0188 -0.3856
 1901TIP3    H1 5709   4.211   2.886   0.214  0.5275  2.3548  0.2903
 1901TIP3    H2 5710   4.231   2.986   0.102 -1.0409  0.3383 -1.8742
 1902TIP3   OH2 5711   6.180   0.028   2.177 -0.2559 -0.0328 -0.0433
 1902TIP3    H1 5712   6.218  -0.060   2.171 -0.2919 -0.0290 -0.3295
 1902TIP3    H2 5713   6.253   0.083   2.206 -0.1905 -0.1266 -0.0292
 1903TIP3   OH2 5714   1.725   0.585   2.370 -0.0507  0.1654  0.3075
 1903TIP3    H1 5715   1.706   0.669   2.413  1.5411  1.2425 -0.9902
 1903TIP3    H2 5716   1.639   0.546   2.357 -0.6887  0.0828  3.7481
 1904TIP3   OH2 5717   2.005   1.569   0.427  0.6594  0.1565  0.0405
 1904TIP3    H1 5718   1.937   1.577   0.494  0.8770  2.5118  0.0615
 1904TIP3    H2 5719   2.058   1.648   0.437  0.2431  1.0155 -3.4312
 1905TIP3   OH2 5720   4.910   0.614   0.520  0.5512  0.1889  0.2967
 1905TIP3    H1 5721   4.930   0.520   0.525  1.3542  0.3093 -0.4597
 1905TIP3    H2 5722   4.991   0.654   0.488 -0.4515  0.8815 -1.4583
 1906TIP3   OH2 5723   3.621   5.168   3.054 -0.2518  0.3452 -0.0642
 1906TIP3    H1 5724   3.549   5.195   3.110  1.4089 -0.4367  2.6331
 1906TIP3    H2 5725   3.688   5.235   3.067  0.0530  0.3366 -1.4432
 1907TIP3   OH2 5726   4.644   3.047   0.254 -0.4026  0.1672 -0.2877
 1907TIP3    H1 5727   4.596   3.067   0.174 -0.4389  1.0420 -0.0561
 1907TIP3    H2 5728   4.632   3.124   0.309 -3.1418 -1.6480  1.9284
 1908TIP3   OH2 5729   3.151   1.199   1.887  0.4501 -0.6464  0.1750
 1908TIP3    H1 5730   3.138   1.264   1.956 -1.0375 -0.8400  0.0952
 1908TIP3    H2 5731   3.159   1.116   1.935  0.7347 -0.6184  0.1799
 1909TIP3   OH2 5732   0.032   3.980   3.037 -0.0757  0.0201  0.5006
 1909TIP3    H1 5733  -0.030   4.021   3.098 -3.1364 -1.1042 -1.6169
 1909TIP3    H2 5734   0.032   3.888   3.062  2.2681  0.2513  1.5901
 1910TIP3   OH2 5735   4.695   4.290   4.068  0.1450  0.0134  0.3502
 1910TIP3    H1 5736   4.618   4.286   4.125 -1.2585  0.7772 -1.3992
 1910TIP3    H2 5737   4.709   4.383   4.053  0.7842 -0.1587 -0.1828
 1911TIP3   OH2 5738   3.095   0.736   2.628 -0.4579 -0.2476  0.1973
 1911TIP3    H1 5739   3.011   0.714   2.670 -0.4573 -1.8257 -0.5324
 1911TIP3    H2 5740   3.071   0.797   2.559 -1.0648 -0.9028 -0.1904
 1912TIP3   OH2 5741   0.782   2.564   1.042  0.2447 -0.1841  0.4902
 1912TIP3    H1 5742   0.792   2.523   0.956  0.8648  0.8134  0.0747
 1912TIP3    H2 5743   0.852   2.628   1.047  0.3175 -0.3399  1.8186
 1913TIP3   OH2 5744   4.896   3.113   5.059 -0.1616  0.2391  0.2973
 1913TIP3    H1 5745   4.866   3.192   5.104 -3.4589 -0.6820 -0.0170
 1913TIP3    H2 5746   4.827   3.049   5.074  1.0103 -1.7058 -1.8621
 1914TIP3   OH2 5747   4.349   2.766   0.290 -0.0990 -0.1189 -0.5959
 1914TIP3    H1 5748   4.415   2.749   0.223  1.1347  0.0765  0.5297
 1914TIP3    H2 5749   4.380   2.844   0.335  0.9845 -2.0833  2.3917
 1915TIP3   OH2 5750   2.820   3.919   4.628 -0.0462 -0.0326 -0.0357
 1915TIP3    H1 5751   2.815   3.833   4.671 -0.3120 -0.8613 -1.6406
 1915TIP3    H2 5752   2.873   3.972   4.688  1.4885 -1.7900  0.2846
 1916TIP3   OH2 5753   2.085   2.169   4.447  0.3928  0.2471 -0.0506
 1916TIP3    H1 5754   1.994   2.160   4.477  0.0809  0.7939 -0.8027
 1916TIP3    H2 5755   2.105   2.262   4.460  0.3636  0.4247 -1.1850
 1917TIP3   OH2 5756   5.476   2.957   1.000  0.2717 -0.2100 -0.2718
 1917TIP3    H1 5757   5.569   2.947   1.018  0.8192  1.8815 -1.5793
 1917TIP3    H2 5758   5.464   2.919   0.913  0.0077 -0.1266 -0.2730
 1918TIP3   OH2 5759   1.440   0.703   2.205  0.3979  0.2709  0.1371
 1918TIP3    H1 5760   1.472   0.730   2.291 -0.5157 -1.8687  1.1992
 1918TIP3    H2 5761   1.500   0.746   2.143  0.5422  2.5820  1.7425
 1919TIP3   OH2 5762   0.738   5.789   3.527  0.4304  0.5378  0.1426
 1919TIP3    H1 5763   0.834   5.788   3.532  0.4852 -1.6054 -0.3274
 1919TIP3    H2 5764   0.720   5.792   3.433  0.0713 -0.2188  0.1832
 1920TIP3   OH2 5765   6.110   5.268   3.619  0.1189 -0.0546  0.5932
 1920TIP3    H1 5766   6.132   5.176   3.636  2.9631  0.2236 -0.9485
 1920TIP3    H2 5767   6.122   5.311   3.704  0.9901 -0.7467  0.8402
 1921TIP3   OH2 5768   1.015   0.033   2.671  0.5024  0.6509 -0.0979
 1921TIP3    H1 5769   1.045   0.043   2.761  0.7698  0.6882 -0.1901
 1921TIP3    H2 5770   1.048   0.110   2.625  0.3974  0.6158 -0.2360
 1922TIP3   OH2 5771   2.828   3.618   1.467 -0.1407 -0.2988  0.4994
 1922TIP3    H1 5772   2.765   3.552   1.436  3.3732 -2.9783 -1.7662
 1922TIP3    H2 5773   2.825   3.687   1.401  0.9416 -1.6772 -1.1070
 1923TIP3   OH2 5774   5.264   3.455   3.966  0.3371 -0.0457 -0.2551
 1923TIP3    H1 5775   5.302   3.463   3.878 -1.6920 -0.0939 -1.2056
 1923TIP3    H2 5776   5.242   3.362   3.974 -0.8346  0.1937 -0.3589
 1924TIP3   OH2 5777   4.815   5.902   0.813  0.0927 -0.3241 -0.4589
 1924TIP3    H1 5778   4.727   5.867   0.802  0.1710 -0.1393 -1.7999
 1924TIP3    H2 5779   4.811   5.954   0.894 -1.0648 -0.1634 -0.6127
 1925TIP3   OH2 5780   5.249   1.515   5.096  0.1973 -0.2394  0.2917
 1925TIP3    H1 5781   5.165   1.486   5.058 -0.0846  0.8870  0.0106
 1925TIP3    H2 5782   5.277   1.442   5.151  0.1583 -1.5531 -1.3681
 1926TIP3   OH2 5783   6.222   4.710   3.405  0.3485  0.0920  0.0746
 1926TIP3    H1 5784   6.255   4.787   3.452 -0.0986 -0.4486  1.3233
 1926TIP3    H2 5785   6.135   4.736   3.375  0.5164  0.3370 -0.2101
 1927TIP3   OH2 5786   1.739   1.608   1.874  0.4048  0.1351  0.1443
 1927TIP3    H1 5787   1.772   1.597   1.785 -0.0583  1.4593 -0.2141
 1927TIP3    H2 5788   1.810   1.575   1.929  0.2578 -1.7114 -0.7091
 1928TIP3   OH2 5789   3.681   3.427   3.800 -0.3408  0.5934  0.0263
 1928TIP3    H1 5790   3.698   3.335   3.783 -0.8359  0.6150 -0.6204
 1928TIP3    H2 5791   3.740   3.450   3.872  0.0685 -0.1204 -0.0771
 1929TIP3   OH2 5792   2.610   1.459   1.349 -0.0782 -0.1756  0.0256
 1929TIP3    H1 5793   2.587   1.381   1.297 -2.2199 -0.1981  0.8777
 1929TIP3    H2 5794   2.605   1.429   1.440 -1.8639  1.1263  0.4074
 1930TIP3   OH2 5795   2.158   3.961   2.814 -0.0533 -0.2091 -0.0318
 1930TIP3    H1 5796   2.235   4.005   2.779 -0.0848  0.0294  0.2006
 1930TIP3    H2 5797   2.173   3.868   2.795  0.3599 -0.1813  0.1493
 1931TIP3   OH2 5798   2.427   0.663   1.019  0.1469 -0.2056  0.1099
 1931TIP3    H1 5799   2.384   0.748   1.009 -0.9452 -0.4415  2.2734
 1931TIP3    H2 5800   2.368   0.601   0.974  0.5717  0.0516 -0.8311
 1932TIP3   OH2 5801   2.108   1.771   3.203 -0.4129  0.4116 -0.0741
 1932TIP3    H1 5802   2.095   1.687   3.249  0.2172  0.2537 -0.1798
 1932TIP3    H2 5803   2.101   1.837   3.273  1.2410  0.1285  0.3979
 1933TIP3   OH2 5804   5.047   3.085   0.852 -0.3437  0.0380 -0.1846
 1933TIP3    H1 5805   4.969   3.139   0.839 -0.5122 -0.3300 -0.7235
 1933TIP3    H2 5806   5.120   3.148   0.848 -0.6548  0.5506  1.4115
 1934TIP3   OH2 5807   2.276   0.470   0.891 -0.2644 -0.3587  0.3302
 1934TIP3    H1 5808   2.293   0.464   0.797 -1.1369  1.4619  0.0255
 1934TIP3    H2 5809   2.294   0.382   0.924  1.6623 -0.6254 -1.2559
 1935TIP3   OH2 5810   2.130   5.441   2.036  0.1684 -0.3196  0.1555
 1935TIP3    H1 5811   2.198   5.424   1.971 -1.4274 -1.4637 -1.3295
 1935TIP3    H2 5812   2.119   5.536   2.035  0.0266 -0.3195 -1.4761
 1936TIP3   OH2 5813   3.005   1.135   5.221 -0.3054  0.3251  0.3515
 1936TIP3    H1 5814   3.019   1.070   5.152 -0.1068  0.3756  0.3430
 1936TIP3    H2 5815   3.002   1.219   5.173 -1.5196  0.2380  0.2517
 1937TIP3   OH2 5816   4.427   5.629   4.818 -0.2428  0.0964  0.0577
 1937TIP3    H1 5817   4.421   5.642   4.912  1.9315  1.7439  0.0550
 1937TIP3    H2 5818   4.345   5.663   4.783 -1.5382 -1.5071  1.3809
 1938TIP3   OH2 5819   1.624   1.134   4.731  0.1694  0.3813  0.0546
 1938TIP3    H1 5820   1.591   1.120   4.820  3.7766  1.8503  1.8196
 1938TIP3    H2 5821   1.575   1.209   4.698 -0.8988  0.1086  0.9622
 1939TIP3   OH2 5822   2.872   0.554   4.304  0.0331  0.1733  0.3116
 1939TIP3    H1 5823   2.921   0.491   4.357  1.1760  0.6571 -0.1441
 1939TIP3    H2 5824   2.900   0.537   4.214 -0.3510  0.7115  0.0829
 1940TIP3   OH2 5825   3.217   4.577   5.024 -0.3238  0.0021 -0.1817
 1940TIP3    H1 5826   3.160   4.501   5.010  0.3562 -0.5507 -0.0178
 1940TIP3    H2 5827   3.271   4.553   5.099 -0.2807  0.7620  0.0369
 1941TIP3   OH2 5828   1.377   5.630   1.280 -0.3596 -0.0312 -0.6467
 1941TIP3    H1 5829   1.304   5.574   1.305 -0.2793 -0.8932 -2.2027
 1941TIP3    H2 5830   1.354   5.716   1.313 -0.3221 -0.9916  2.1226
 1942TIP3   OH2 5831   2.318   3.392   1.383 -0.1315 -0.4936 -0.0371
 1942TIP3    H1 5832   2.227   3.365   1.384  0.2881 -2.0906 -1.1017
 1942TIP3    H2 5833   2.347   3.384   1.474 -0.8121 -0.8480  0.1503
 1943TIP3   OH2 5834   4.939   3.255   0.207  0.1837 -0.5730  0.7200
 1943TIP3    H1 5835   4.977   3.266   0.295  0.1516 -2.3048  0.9824
 1943TIP3    H2 5836   4.882   3.179   0.216 -1.0816  0.2021 -0.4233
 1944TIP3   OH2 5837   5.372   1.553   0.707  0.0206 -0.2980 -0.2400
 1944TIP3    H1 5838   5.375   1.638   0.664 -0.4510 -1.1530 -2.0563
 1944TIP3    H2 5839   5.369   1.573   0.800 -1.1909  1.7033 -0.6497
 1945TIP3   OH2 5840   0.329   3.517   1.616  0.1788 -0.0935 -0.3834
 1945TIP3    H1 5841   0.388   3.445   1.639  1.4232  0.3925 -1.8807
 1945TIP3    H2 5842   0.322   3.512   1.521 -1.2755  0.6176 -0.3458
 1946TIP3   OH2 5843   4.251   3.562   3.809  0.4790 -0.1951  0.3015
 1946TIP3    H1 5844   4.296   3.646   3.812 -0.6217  0.4145 -0.0016
 1946TIP3    H2 5845   4.257   3.528   3.898 -0.5154  0.9855  0.8334
 1947TIP3   OH2 5846   2.628   0.087   0.217  0.5594  0.2522  0.7017
 1947TIP3    H1 5847   2.586   0.134   0.289 -0.3872 -1.4753  1.3106
 1947TIP3    H2 5848   2.637   0.154   0.149 -0.7695  1.3352  1.5111
 1948TIP3   OH2 5849   5.773   0.198   4.175  0.6984  0.1987  0.3570
 1948TIP3    H1 5850   5.802   0.263   4.238  3.0438  1.1673 -1.5564
 1948TIP3    H2 5851   5.839   0.129   4.178 -0.3260 -0.8186  0.4556
 1949TIP3   OH2 5852   2.835   2.675   2.285 -0.6456 -0.6459  0.7972
 1949TIP3    H1 5853   2.747   2.657   2.253 -0.6968 -1.5019  1.3872
 1949TIP3    H2 5854   2.825   2.753   2.340 -1.5230 -2.0779  2.7981
 1950TIP3   OH2 5855   3.963   3.202   2.969  0.3446  0.2868  0.2247
 1950TIP3    H1 5856   3.924   3.267   2.911  0.0041 -0.7162 -0.7086
 1950TIP3    H2 5857   3.951   3.119   2.923  2.1343 -0.2618  0.6715
 1951TIP3   OH2 5858   3.097   0.290   0.128 -0.9051 -0.5440  0.3269
 1951TIP3    H1 5859   3.187   0.310   0.102 -1.1134  0.1235  0.0928
 1951TIP3    H2 5860   3.044   0.354   0.081 -1.5362 -1.1326  0.2222
 1952TIP3   OH2 5861   1.015   4.643   4.083 -0.2292  0.1417 -0.1091
 1952TIP3    H1 5862   0.949   4.708   4.061 -1.0639 -0.0186  1.7481
 1952TIP3    H2 5863   1.082   4.691   4.131  0.1542 -0.0311 -0.4539
 1953TIP3   OH2 5864   3.283   3.903   2.905 -0.5810  0.7666  0.6497
 1953TIP3    H1 5865   3.371   3.941   2.903 -0.4328  0.5298  1.9228
 1953TIP3    H2 5866   3.279   3.847   2.827  0.7226  0.0821  1.0458
 1954TIP3   OH2 5867   3.142   0.324   1.296 -0.1740  0.6444 -0.2987
 1954TIP3    H1 5868   3.229   0.347   1.265  0.6777 -1.2645  0.5422
 1954TIP3    H2 5869   3.100   0.281   1.221  0.2929 -0.0740 -0.1578
 1955TIP3   OH2 5870   3.149   0.795   3.783  0.0881 -0.0439 -0.9002
 1955TIP3    H1 5871   3.216   0.764   3.722  0.7656 -0.1574 -0.1194
 1955TIP3    H2 5872   3.186   0.779   3.870 -0.5747  0.7184 -0.4577
 1956TIP3   OH2 5873   1.355   3.715   5.062 -0.3956  0.1802 -0.0833
 1956TIP3    H1 5874   1.417   3.665   5.009 -1.2563 -1.9254  0.7674
 1956TIP3    H2 5875   1.400   3.797   5.083  0.4405  0.5352 -2.9216
 1957TIP3   OH2 5876   1.617   1.331   2.064 -0.1297 -0.3873  0.0826
 1957TIP3    H1 5877   1.543   1.391   2.050 -0.3860 -0.3520  1.4627
 1957TIP3    H2 5878   1.657   1.323   1.977 -0.4804  1.2470 -0.2721
 1958TIP3   OH2 5879   1.656   4.806   4.326  0.0604  0.3596  0.4435
 1958TIP3    H1 5880   1.617   4.765   4.404 -0.7622  0.2087 -0.0387
 1958TIP3    H2 5881   1.666   4.734   4.264 -2.7924  1.0672 -0.9727
 1959TIP3   OH2 5882   4.410   2.208   0.887  0.5590  0.0555 -0.0599
 1959TIP3    H1 5883   4.375   2.134   0.937 -0.1211  0.2864 -0.1949
 1959TIP3    H2 5884   4.430   2.274   0.953  2.0300 -0.5600  0.1704
 1960TIP3   OH2 5885   1.573   2.372   5.111 -0.7662 -0.0354 -0.2258
 1960TIP3    H1 5886   1.628   2.295   5.103 -1.4748 -0.6179  0.3620
 1960TIP3    H2 5887   1.599   2.428   5.038  1.2295  0.1195  0.5341
 1961TIP3   OH2 5888   4.021   3.795   3.596  0.2141  0.1221  0.3653
 1961TIP3    H1 5889   3.933   3.757   3.588  0.9011 -1.4191 -0.3113
 1961TIP3    H2 5890   4.045   3.779   3.688  0.7294 -1.7033 -0.0558
 1962TIP3   OH2 5891   4.785   4.210   1.980 -0.4215 -0.5679 -0.0012
 1962TIP3    H1 5892   4.694   4.184   1.965 -0.8249  0.0823  1.1562
 1962TIP3    H2 5893   4.779   4.279   2.046  0.9203 -0.5805  0.1529
 1963TIP3   OH2 5894   1.266   5.734   0.663  0.0924 -0.5107  0.2095
 1963TIP3    H1 5895   1.237   5.645   0.682  0.4153 -0.2316  2.2069
 1963TIP3    H2 5896   1.190   5.776   0.624  0.3446 -1.9984 -2.0953
 1964TIP3   OH2 5897   3.028   1.550   0.895 -0.3045 -0.2626  0.8810
 1964TIP3    H1 5898   2.997   1.472   0.849 -0.8285 -0.0645  0.9003
 1964TIP3    H2 5899   2.974   1.621   0.862 -0.4057 -0.0504  1.4957
 1965TIP3   OH2 5900   6.086   3.660   1.825  0.3415 -0.2853 -0.0535
 1965TIP3    H1 5901   6.114   3.595   1.761 -0.6632 -0.2930 -0.4993
 1965TIP3    H2 5902   6.077   3.611   1.907  0.1656 -0.5832 -0.2505
 1966TIP3   OH2 5903   5.127   5.314   2.302  0.0837  0.7107  0.9964
 1966TIP3    H1 5904   5.120   5.232   2.351 -0.3094  0.0020 -0.2034
 1966TIP3    H2 5905   5.221   5.331   2.298  0.1419  0.5954  1.6717
 1967TIP3   OH2 5906   0.710   0.536   1.437 -0.0895 -0.5900  0.6576
 1967TIP3    H1 5907   0.735   0.548   1.345 -0.5801 -1.1466  0.4473
 1967TIP3    H2 5908   0.746   0.451   1.460 -1.0781 -1.0382  0.5917
 1968TIP3   OH2 5909   2.029   1.313   0.134  0.3979 -0.5296  0.0814
 1968TIP3    H1 5910   1.990   1.300   0.220  1.1401 -0.5109  0.4241
 1968TIP3    H2 5911   2.061   1.226   0.109  0.4521 -0.4738 -0.0437
 1969TIP3   OH2 5912   3.333   1.744   0.683 -0.0680  0.6348  0.3534
 1969TIP3    H1 5913   3.282   1.663   0.682 -0.4527  0.8108 -2.3748
 1969TIP3    H2 5914   3.390   1.736   0.760  0.1746 -2.3970 -0.0404
 1970TIP3   OH2 5915   2.835   5.269   1.890 -0.6809  0.2303 -0.3287
 1970TIP3    H1 5916   2.744   5.239   1.896  0.1696 -2.3402  1.1030
 1970TIP3    H2 5917   2.827   5.363   1.874 -3.5678 -0.0747 -1.3494
 1971TIP3   OH2 5918   3.682   0.123   2.575  0.7055  0.2927 -0.4018
 1971TIP3    H1 5919   3.704   0.084   2.660 -0.8116  0.1262 -0.0448
 1971TIP3    H2 5920   3.716   0.061   2.510  0.2160 -0.5698  0.1384
 1972TIP3   OH2 5921   5.021   4.983   4.911  0.3519  0.3392  0.3159
 1972TIP3    H1 5922   5.046   5.057   4.856  0.3257 -0.2766 -0.5527
 1972TIP3    H2 5923   4.963   5.021   4.977  1.1588  1.2570  0.5118
 1973TIP3   OH2 5924   3.986   5.465   4.250 -0.2629 -0.3486 -0.7058
 1973TIP3    H1 5925   4.076   5.432   4.252  0.6777  1.9034 -1.6501
 1973TIP3    H2 5926   3.940   5.414   4.317  1.9914 -0.8028  0.6116
 1974TIP3   OH2 5927   2.602   3.218   1.719 -0.3163  0.1067  0.0087
 1974TIP3    H1 5928   2.597   3.199   1.625 -2.5114  0.0911  0.0699
 1974TIP3    H2 5929   2.658   3.295   1.725  2.6934 -1.7924 -0.9360
 1975TIP3   OH2 5930   4.835   5.134   5.051  0.1680  0.2679  0.0566
 1975TIP3    H1 5931   4.767   5.180   5.002  0.7391 -0.6026 -1.6595
 1975TIP3    H2 5932   4.788   5.069   5.103 -0.3784  0.2198 -0.4881
 1976TIP3   OH2 5933   2.704   0.585   1.532 -0.0952 -0.3635 -0.0457
 1976TIP3    H1 5934   2.673   0.509   1.484  2.0559 -1.3914  0.0432
 1976TIP3    H2 5935   2.648   0.657   1.503 -1.1504 -1.6629 -1.3613
 1977TIP3   OH2 5936   4.649   2.218   2.803  0.0967  0.1160  0.1068
 1977TIP3    H1 5937   4.646   2.217   2.708 -2.4181 -0.4476  0.1156
 1977TIP3    H2 5938   4.578   2.276   2.829 -1.0009 -1.7684  1.5978
 1978TIP3   OH2 5939   3.908   1.101   3.480 -0.0285 -0.4276  0.2021
 1978TIP3    H1 5940   3.826   1.084   3.435 -1.1973  1.4810  1.4645
 1978TIP3    H2 5941   3.887   1.093   3.573  1.4677 -0.8234  0.5482
 1979TIP3   OH2 5942   4.322   4.223   0.114  0.0688 -0.6099 -0.0648
 1979TIP3    H1 5943   4.328   4.180   0.199  1.1492  0.6482  0.5322
 1979TIP3    H2 5944   4.385   4.295   0.119  0.1680 -0.5223 -1.9488
 1980TIP3   OH2 5945   5.909   5.181   2.253  0.7069 -0.9200 -0.2977
 1980TIP3    H1 5946   5.995   5.210   2.224  0.6737  0.1525  0.5971
 1980TIP3    H2 5947   5.904   5.089   2.227  1.9746 -0.8959 -0.6762
 1981TIP3   OH2 5948   2.949   0.955   1.471 -0.1774 -0.1944  0.2697
 1981TIP3    H1 5949   2.992   0.930   1.389 -1.0611 -0.2640 -0.1858
 1981TIP3    H2 5950   3.020   0.989   1.526  0.3350  0.4015 -0.7333
 1982TIP3   OH2 5951   0.467   3.879   2.947 -0.5837 -0.2039  0.2754
 1982TIP3    H1 5952   0.404   3.822   2.903 -1.3818  1.2548 -0.5182
 1982TIP3    H2 5953   0.549   3.865   2.899 -1.2345  0.7033 -1.1488
 1983TIP3   OH2 5954   0.088   0.894   4.943  0.7689  0.3210 -0.2060
 1983TIP3    H1 5955   0.142   0.816   4.926  1.8016  0.8742  0.4093
 1983TIP3    H2 5956   0.000   0.870   4.914  1.4991 -0.3453 -1.9901
 1984TIP3   OH2 5957   0.846   2.855   1.416 -0.5325  0.5094 -0.0925
 1984TIP3    H1 5958   0.879   2.876   1.504 -1.3423  0.2791  0.2695
 1984TIP3    H2 5959   0.924   2.861   1.360  0.5489 -1.8325  1.0180
 1985TIP3   OH2 5960   1.310   2.488   4.002  0.4029  0.1509 -0.0957
 1985TIP3    H1 5961   1.380   2.521   4.058  0.8264 -1.5056  0.4136
 1985TIP3    H2 5962   1.339   2.509   3.913  1.1469  0.2245  0.1531
 1986TIP3   OH2 5963   5.724   3.795   3.539  0.0142  0.3802  0.0491
 1986TIP3    H1 5964   5.642   3.759   3.574 -0.8116 -0.0255 -2.1543
 1986TIP3    H2 5965   5.698   3.875   3.493  1.2057  1.4261  1.1179
 1987TIP3   OH2 5966   5.293   2.935   1.376  0.0583 -0.0577 -0.3715
 1987TIP3    H1 5967   5.374   2.984   1.382  0.9114 -1.4594  0.0645
 1987TIP3    H2 5968   5.303   2.881   1.298 -1.0641  0.7580 -1.1200
 1988TIP3   OH2 5969   2.232   2.164   1.577  0.2080  0.4774 -0.0420
 1988TIP3    H1 5970   2.261   2.078   1.546  0.0082  0.3837  0.0295
 1988TIP3    H2 5971   2.269   2.172   1.665 -1.0028 -0.1747  0.5562
 1989TIP3   OH2 5972   0.597   3.092   2.189  0.4656  0.2710 -0.5756
 1989TIP3    H1 5973   0.620   3.078   2.280  1.2805  1.2544 -0.6150
 1989TIP3    H2 5974   0.602   3.005   2.149  2.2500  0.1477 -0.1444
 1990TIP3   OH2 5975   5.030   3.207   1.449 -0.2542 -0.0918 -0.3807
 1990TIP3    H1 5976   5.069   3.201   1.362 -0.4320  0.5693 -0.5162
 1990TIP3    H2 5977   5.101   3.239   1.505 -0.1168 -0.5959 -0.2614
 1991TIP3   OH2 5978   4.413   0.980   3.549  0.1808  0.2287  0.1445
 1991TIP3    H1 5979   4.389   1.021   3.632 -0.2276  0.4035 -0.0533
 1991TIP3    H2 5980   4.337   0.926   3.527  0.6316 -0.4762  0.2999
 1992TIP3   OH2 5981   2.979   2.825   3.973 -0.0356 -0.2650 -0.2680
 1992TIP3    H1 5982   3.062   2.778   3.975 -1.0993 -2.2485 -0.5520
 1992TIP3    H2 5983   2.967   2.849   3.881  1.0797  1.7343  0.0530
 1993TIP3   OH2 5984   4.744   0.723   4.519 -0.3630  0.1116 -0.2822
 1993TIP3    H1 5985   4.655   0.726   4.553 -0.2709  2.0585 -0.1399
 1993TIP3    H2 5986   4.733   0.731   4.424 -0.3607 -0.1262 -0.3027
 1994TIP3   OH2 5987   5.774   2.311   4.306 -0.2451 -0.0037  0.6130
 1994TIP3    H1 5988   5.687   2.272   4.297 -0.0686 -0.3225  0.2942
 1994TIP3    H2 5989   5.793   2.349   4.220  0.2651 -0.6294  0.4419
 1995TIP3   OH2 5990   5.421   5.957   1.387  0.4791 -0.1580  0.3057
 1995TIP3    H1 5991   5.387   6.047   1.388  1.8681  0.3971 -0.2628
 1995TIP3    H2 5992   5.501   5.961   1.438  0.2968 -1.2067  0.7035
 1996TIP3   OH2 5993   4.988   4.314   4.864  0.1559  0.4915 -0.4278
 1996TIP3    H1 5994   4.930   4.243   4.836  1.7767 -0.8240 -0.6106
 1996TIP3    H2 5995   4.956   4.390   4.816  0.1361 -0.7414 -2.5261
 1997TIP3   OH2 5996   4.004   1.459   3.740 -0.0292 -0.3891 -0.1905
 1997TIP3    H1 5997   3.913   1.478   3.717 -0.1042  0.5257  0.8009
 1997TIP3    H2 5998   3.999   1.425   3.829  0.5438 -0.9443 -0.3664
 1998TIP3   OH2 5999   5.549   1.859   0.300 -0.0642 -0.6262 -0.0769
 1998TIP3    H1 6000   5.515   1.937   0.256 -0.9282  0.2908  2.0572
 1998TIP3    H2 6001   5.472   1.819   0.341  0.8412 -0.6272  1.7289
 1999TIP3   OH2 6002   4.862   3.179   3.472 -0.2906 -0.1024  0.1544
 1999TIP3    H1 6003   4.939   3.223   3.507 -0.7136  0.1920  0.7286
 1999TIP3    H2 6004   4.821   3.138   3.548 -0.3676 -0.7708 -0.2436
 2000TIP3   OH2 6005   4.449   4.826   0.037  0.0451  0.2252  0.9417
 2000TIP3    H1 6006   4.459   4.917   0.011  2.9174  0.7825  3.3744
 2000TIP3    H2 6007   4.375   4.794  -0.014 -0.1817  3.4791 -1.0523
 2001TIP3   OH2 6008   3.305   5.606   1.994 -0.3938  0.1539 -0.1905
 2001TIP3    H1 6009   3.269   5.631   1.909  0.4148  0.6243 -0.3956
 2001TIP3    H2 6010   3.256   5.527   2.018 -1.2931  0.5563 -0.6441
 2002TIP3   OH2 6011   2.422   1.201   0.679  0.1448 -0.4114 -0.5358
 2002TIP3    H1 6012   2.344   1.248   0.707  0.6893 -0.0905  0.4639
 2002TIP3    H2 6013   2.388   1.117   0.647 -0.6431 -0.1034 -0.5391
 2003TIP3   OH2 6014   4.738   5.447   2.146  0.3084 -0.0919 -0.1778
 2003TIP3    H1 6015   4.704   5.536   2.151 -1.4922 -0.7448  0.1933
 2003TIP3    H2 6016   4.828   5.453   2.176  0.7398  1.8427 -1.6605
 2004TIP3   OH2 6017   5.039   2.521   4.354 -0.3270  0.5638  0.5138
 2004TIP3    H1 6018   4.979   2.449   4.335 -2.7777  2.5358  0.1926
 2004TIP3    H2 6019   5.097   2.526   4.278 -0.3726 -0.7932  0.3756
 2005TIP3   OH2 6020   4.654   3.986   1.422 -0.1416  0.0448 -0.2663
 2005TIP3    H1 6021   4.613   3.907   1.457  0.1307  0.2002  0.4307
 2005TIP3    H2 6022   4.747   3.975   1.441 -0.0040  0.1872 -0.8563
 2006TIP3   OH2 6023   3.606   1.411   0.238  0.0254  0.3041  0.0281
 2006TIP3    H1 6024   3.556   1.426   0.158 -1.1791  1.2839  0.9351
 2006TIP3    H2 6025   3.572   1.329   0.273  0.8082 -0.3203 -0.6159
 2007TIP3   OH2 6026   3.117   4.779   2.970  0.0240  0.6899 -0.0501
 2007TIP3    H1 6027   3.091   4.725   3.045  2.8793  0.7382  1.0996
 2007TIP3    H2 6028   3.163   4.718   2.913 -1.2035  0.8947 -1.3162
 2008TIP3   OH2 6029   0.436   2.633   1.677 -0.4917  0.3272 -0.1071
 2008TIP3    H1 6030   0.439   2.587   1.760 -0.9603  0.2339 -0.1382
 2008TIP3    H2 6031   0.427   2.564   1.611  1.2032  0.3037 -0.3545
 2009TIP3   OH2 6032   0.352   4.430   1.151  0.0553  0.2618 -0.1789
 2009TIP3    H1 6033   0.441   4.395   1.155 -0.3599 -0.8691 -0.4421
 2009TIP3    H2 6034   0.363   4.525   1.158  1.3106  0.1687 -0.6737
 2010TIP3   OH2 6035   5.182   0.783   2.362  0.5308  0.2681 -0.2028
 2010TIP3    H1 6036   5.219   0.776   2.451  0.7863  0.3085 -0.3057
 2010TIP3    H2 6037   5.243   0.839   2.315  1.2502 -0.9950 -0.8511
 2011TIP3   OH2 6038   3.974   2.213   1.051  0.4262  0.0132  0.3854
 2011TIP3    H1 6039   3.965   2.260   1.134  1.5624  0.1231  0.4679
 2011TIP3    H2 6040   3.895   2.160   1.045 -1.2168  2.3512  0.0075
 2012TIP3   OH2 6041   3.773   4.817   3.336 -0.5204 -0.2220 -0.2401
 2012TIP3    H1 6042   3.729   4.902   3.328 -0.5792 -0.3745 -1.7943
 2012TIP3    H2 6043   3.723   4.772   3.404  0.0042  1.2551  1.2017
 2013TIP3   OH2 6044   0.062   0.316   4.515  0.2659 -0.6763  0.0933
 2013TIP3    H1 6045   0.069   0.405   4.479  1.8940 -0.3157  1.2247
 2013TIP3    H2 6046  -0.031   0.295   4.506 -0.1460  1.1061 -0.2768
 2014TIP3   OH2 6047   1.930   3.007   4.094  0.3735 -0.0797 -0.4920
 2014TIP3    H1 6048   1.914   3.071   4.163 -0.7118 -0.3202 -0.5088
 2014TIP3    H2 6049   1.862   3.024   4.029  0.0752 -1.2352 -0.5028
 2015TIP3   OH2 6050   0.192   3.902   2.230  0.0444  0.0067  0.3414
 2015TIP3    H1 6051   0.127   3.907   2.301 -0.1772  0.3729  0.1175
 2015TIP3    H2 6052   0.148   3.852   2.161  0.5432 -1.0290  0.7546
 2016TIP3   OH2 6053   3.000   4.097   4.810 -0.3941  0.7705 -0.5149
 2016TIP3    H1 6054   3.067   4.042   4.850 -1.7977  0.2288  1.2349
 2016TIP3    H2 6055   3.041   4.131   4.730  1.4392 -0.6493 -0.2465
 2017TIP3   OH2 6056   3.208   3.855   3.436 -0.6919 -0.1034  0.1158
 2017TIP3    H1 6057   3.120   3.819   3.424 -1.4446 -0.0091  3.9581
 2017TIP3    H2 6058   3.197   3.922   3.503  2.5738 -1.7785  2.6074
 2018TIP3   OH2 6059   2.165   1.601   2.494  0.0072  0.3286 -0.0753
 2018TIP3    H1 6060   2.203   1.514   2.504  0.8751  0.9104  3.0865
 2018TIP3    H2 6061   2.139   1.626   2.583 -1.2375  2.8663 -1.0415
 2019TIP3   OH2 6062   4.187   3.386   3.603  0.3513  0.8084 -0.4760
 2019TIP3    H1 6063   4.118   3.324   3.621  0.4278  0.8511 -0.0309
 2019TIP3    H2 6064   4.176   3.455   3.668 -0.3660  1.7875 -1.5958
 2020TIP3   OH2 6065   2.930   2.434   1.711  0.5739 -0.3538 -0.0667
 2020TIP3    H1 6066   2.966   2.516   1.676 -0.1068 -0.1407 -0.2750
 2020TIP3    H2 6067   2.997   2.369   1.691  0.8649  0.0427 -0.4158
 2021TIP3   OH2 6068   1.265   3.759   3.373 -0.1168 -0.3882 -0.2255
 2021TIP3    H1 6069   1.285   3.712   3.292 -1.4389 -0.6856 -0.4122
 2021TIP3    H2 6070   1.219   3.694   3.427  0.5797 -0.1343  0.6846
 2022TIP3   OH2 6071   4.847   0.795   3.800 -0.1951  0.2895 -0.2968
 2022TIP3    H1 6072   4.868   0.888   3.790  2.3774 -0.2569 -0.5388
 2022TIP3    H2 6073   4.760   0.787   3.761  0.8046  2.0562 -3.2687
 2023TIP3   OH2 6074   4.072   3.751   0.171 -0.1343 -0.0531  0.3720
 2023TIP3    H1 6075   3.983   3.727   0.147 -0.6577  1.2951  0.8894
 2023TIP3    H2 6076   4.090   3.830   0.122 -0.0610  0.9364  1.9184
 2024TIP3   OH2 6077   2.710   3.544   2.240  0.6958  0.6850 -0.5527
 2024TIP3    H1 6078   2.792   3.518   2.198  0.2655  1.4615 -1.9271
 2024TIP3    H2 6079   2.701   3.483   2.313  1.8530 -0.2283 -1.1305
 2025TIP3   OH2 6080   5.874   0.701   3.025  0.0163 -0.0473  0.2844
 2025TIP3    H1 6081   5.844   0.779   2.978  0.9081  1.3428  1.9153
 2025TIP3    H2 6082   5.822   0.629   2.988  0.3413  1.0186 -2.4334
 2026TIP3   OH2 6083   3.954   1.235   1.283  0.4054 -0.3913 -0.3082
 2026TIP3    H1 6084   3.913   1.230   1.196  0.6679 -0.1810 -0.4462
 2026TIP3    H2 6085   3.883   1.259   1.342 -0.2637 -2.7420 -0.0920
 2027TIP3   OH2 6086   0.414   2.640   4.736 -0.1978 -0.2264  0.3814
 2027TIP3    H1 6087   0.495   2.681   4.766  0.6817 -0.9903 -0.8316
 2027TIP3    H2 6088   0.350   2.659   4.805  0.0213  3.4558 -0.2216
 2028TIP3   OH2 6089   4.820   4.223   0.273  0.0730  0.4434 -0.1084
 2028TIP3    H1 6090   4.807   4.231   0.367 -0.2303  2.0344 -0.2448
 2028TIP3    H2 6091   4.851   4.310   0.246  0.3805 -0.0525 -1.4378
 2029TIP3   OH2 6092   0.942   5.182   0.928 -0.1829 -0.0246  0.5090
 2029TIP3    H1 6093   0.859   5.136   0.915 -0.3647 -0.0645  1.7008
 2029TIP3    H2 6094   1.007   5.129   0.882 -1.1420  1.4192 -2.8745
 2030TIP3   OH2 6095   3.688   2.251   4.926  0.4361  0.5326 -0.0933
 2030TIP3    H1 6096   3.595   2.272   4.928  0.2943 -0.0921  0.2046
 2030TIP3    H2 6097   3.718   2.279   4.840 -0.4804 -1.0852 -0.9798
 2031TIP3   OH2 6098   3.903   0.786   3.703  0.5021  0.1461  0.2189
 2031TIP3    H1 6099   3.882   0.777   3.796  1.2011 -0.0494  0.3575
 2031TIP3    H2 6100   3.929   0.877   3.693  0.1220  0.2509  0.1465
 2032TIP3   OH2 6101   0.733   0.479   0.557 -0.3880  0.5466 -0.0164
 2032TIP3    H1 6102   0.664   0.466   0.492  0.3587 -0.0141 -0.7223
 2032TIP3    H2 6103   0.773   0.563   0.534  0.2546  0.0838 -0.6795
 2033TIP3   OH2 6104   6.325   2.344   4.328  0.3352 -0.1881 -0.1938
 2033TIP3    H1 6105   6.338   2.356   4.234 -1.1682  0.3776 -0.3634
 2033TIP3    H2 6106   6.235   2.311   4.335  0.5163 -0.4622  1.0382
 2034TIP3   OH2 6107   2.866   1.222   3.276 -0.5805  0.3635  0.2545
 2034TIP3    H1 6108   2.898   1.248   3.190 -1.8049 -2.5503 -1.2069
 2034TIP3    H2 6109   2.937   1.170   3.314 -0.8850 -0.2582 -0.0077
 2035TIP3   OH2 6110   2.972   5.028   4.162  0.3450  0.3901 -0.2439
 2035TIP3    H1 6111   2.894   4.978   4.188 -0.2584  1.5974  0.3314
 2035TIP3    H2 6112   3.036   5.009   4.230 -0.1397  0.9774  0.3911
 2036TIP3   OH2 6113   1.350   0.918   3.707  0.0057  0.4620  0.0355
 2036TIP3    H1 6114   1.311   0.835   3.680  0.6462 -0.1616  0.9906
 2036TIP3    H2 6115   1.296   0.984   3.664 -0.7393 -0.4323 -0.4468
 2037TIP3   OH2 6116   5.128   5.202   4.785 -0.2270  0.0148  0.1898
 2037TIP3    H1 6117   5.143   5.296   4.794  1.6755  0.1437 -2.9600
 2037TIP3    H2 6118   5.206   5.161   4.823 -0.4125 -0.2359  0.3051
 2038TIP3   OH2 6119   3.573   3.163   0.877 -0.1507 -0.2906 -0.2562
 2038TIP3    H1 6120   3.537   3.081   0.843 -1.3756  1.3004 -3.1548
 2038TIP3    H2 6121   3.636   3.191   0.811 -0.4290  1.5508  0.2176
 2039TIP3   OH2 6122   4.543   4.178   0.342 -0.1833  0.0765 -0.1748
 2039TIP3    H1 6123   4.636   4.164   0.324 -0.1898 -0.9476  0.5172
 2039TIP3    H2 6124   4.538   4.268   0.373  0.8341 -0.3553  1.3386
 2040TIP3   OH2 6125   3.826   1.566   0.388  0.1880  0.7547  0.1632
 2040TIP3    H1 6126   3.761   1.535   0.324  0.7709 -1.6843  0.6244
 2040TIP3    H2 6127   3.776   1.613   0.453 -0.6183  1.9984 -1.2945
 2041TIP3   OH2 6128   4.362   1.921   0.422  0.4387 -0.0529 -0.2799
 2041TIP3    H1 6129   4.299   1.993   0.418  1.9995  1.3253 -0.8163
 2041TIP3    H2 6130   4.328   1.864   0.491 -1.4052  0.6154 -0.5768
 2042TIP3   OH2 6131   1.603   1.403   4.943 -0.9285  0.2297 -0.0383
 2042TIP3    H1 6132   1.682   1.353   4.923  0.1421  2.1549 -0.8901
 2042TIP3    H2 6133   1.555   1.408   4.861 -0.7045  1.1253 -0.1212
 2043TIP3   OH2 6134   1.929   1.322   2.572  0.0959  0.0658 -0.3014
 2043TIP3    H1 6135   1.878   1.400   2.593  1.1985  0.7587 -0.1084
 2043TIP3    H2 6136   2.020   1.347   2.590  0.5478 -1.0074 -0.9760
 2044TIP3   OH2 6137   1.286   3.404   4.144 -0.0905  0.1050  0.2985
 2044TIP3    H1 6138   1.311   3.390   4.052  0.5978 -1.9735  0.7468
 2044TIP3    H2 6139   1.191   3.392   4.144 -0.0793 -0.0298 -0.1289
 2045TIP3   OH2 6140   3.840   5.360   3.509 -0.4248  0.5449 -0.3272
 2045TIP3    H1 6141   3.771   5.307   3.549 -0.2832  0.6529  0.0557
 2045TIP3    H2 6142   3.816   5.364   3.416 -0.1490 -0.6265 -0.4546
 2046TIP3   OH2 6143   2.489   3.726   0.438 -0.6314 -0.3285  0.5401
 2046TIP3    H1 6144   2.497   3.631   0.429 -0.8855 -0.2908 -0.1768
 2046TIP3    H2 6145   2.518   3.744   0.527 -0.5354 -1.0736  0.6694
 2047TIP3   OH2 6146   6.104   4.476   2.270 -0.2515  0.1741 -0.3156
 2047TIP3    H1 6147   6.049   4.421   2.326 -0.7699 -0.1095 -1.0980
 2047TIP3    H2 6148   6.193   4.457   2.299 -0.5299  0.4279  0.7684
 2048TIP3   OH2 6149   3.303   3.658   1.883 -0.2320 -0.0460  0.2316
 2048TIP3    H1 6150   3.316   3.631   1.973 -2.3211  0.8217  0.8597
 2048TIP3    H2 6151   3.282   3.752   1.889 -0.1805  0.0780 -1.1780
 2049TIP3   OH2 6152   2.953   2.263   2.770 -0.3418 -0.3810 -0.2471
 2049TIP3    H1 6153   3.031   2.248   2.823  0.0730 -0.2392 -0.8155
 2049TIP3    H2 6154   2.887   2.204   2.807 -0.7682  1.3075  1.8962
 2050TIP3   OH2 6155   2.697   5.121   4.379  0.2668  0.1512 -0.0563
 2050TIP3    H1 6156   2.753   5.043   4.383 -0.7111 -0.5574  0.5550
 2050TIP3    H2 6157   2.749   5.187   4.334  1.3368 -0.6854 -0.0760
 2051TIP3   OH2 6158   4.178   4.799   3.095  0.0595  0.1909 -0.2831
 2051TIP3    H1 6159   4.132   4.797   3.179  0.5531 -0.4154 -0.0142
 2051TIP3    H2 6160   4.115   4.762   3.033  0.2814 -0.9700  0.1452
 2052TIP3   OH2 6161   3.860   4.315   0.616  1.2291  0.0556 -0.0533
 2052TIP3    H1 6162   3.917   4.285   0.687  0.8840  1.3976  0.8398
 2052TIP3    H2 6163   3.804   4.239   0.597 -1.4282  0.6694  3.9358
 2053TIP3   OH2 6164   2.181   0.145   4.021  0.1033  0.1750 -0.4964
 2053TIP3    H1 6165   2.187   0.210   3.951 -1.5481 -0.2850 -1.1265
 2053TIP3    H2 6166   2.191   0.196   4.101 -1.3618  1.2813 -0.9703
 2054TIP3   OH2 6167   1.246   1.395   4.899 -0.4425 -0.3243  0.2784
 2054TIP3    H1 6168   1.160   1.438   4.900  0.2684  1.3008 -1.4033
 2054TIP3    H2 6169   1.309   1.466   4.914  0.6856 -1.2294  0.0215
 2055TIP3   OH2 6170   4.915   0.898  -0.003  0.4131 -0.6447  0.4949
 2055TIP3    H1 6171   4.946   0.819  -0.046  0.3797 -1.8452  2.5267
 2055TIP3    H2 6172   4.985   0.921   0.058  0.7112  1.3163 -0.5073
 2056TIP3   OH2 6173   5.070   4.362   3.109  0.5237 -0.2089  0.0566
 2056TIP3    H1 6174   5.054   4.431   3.044 -2.5550 -0.9142 -0.1132
 2056TIP3    H2 6175   5.136   4.305   3.068 -0.4191  0.0410 -1.9582
 2057TIP3   OH2 6176   0.331   1.248   3.751  0.3397  0.0003 -0.3170
 2057TIP3    H1 6177   0.302   1.193   3.678  0.8303  1.5079 -1.7141
 2057TIP3    H2 6178   0.276   1.326   3.744  0.9487  0.5041  0.4353
 2058TIP3   OH2 6179   3.151   4.238   0.198 -0.4750  0.2062 -0.0645
 2058TIP3    H1 6180   3.160   4.188   0.280  0.1613  3.4084  1.9942
 2058TIP3    H2 6181   3.239   4.272   0.182 -0.8540  0.5675 -1.4749
 2059TIP3   OH2 6182   5.471   5.547   3.523 -0.4942  0.2408 -0.0138
 2059TIP3    H1 6183   5.530   5.614   3.559  0.6564  0.1164 -1.5552
 2059TIP3    H2 6184   5.524   5.467   3.522 -0.8760 -0.0075 -0.9015
 2060TIP3   OH2 6185   2.790   2.824   0.649 -0.0029  0.5017 -0.4416
 2060TIP3    H1 6186   2.777   2.909   0.691  0.8927  0.7328 -0.5949
 2060TIP3    H2 6187   2.787   2.761   0.720  0.2546  0.7644 -0.1954
 2061TIP3   OH2 6188   6.011   2.194   2.316  0.5560  0.2753  0.2975
 2061TIP3    H1 6189   6.058   2.256   2.261 -0.7020  1.5695  0.6288
 2061TIP3    H2 6190   6.039   2.108   2.284  1.3525  0.9942 -1.0354
 2062TIP3   OH2 6191   4.622   5.512   4.582  0.1399  0.1145  0.4936
 2062TIP3    H1 6192   4.610   5.587   4.523  0.5828  0.5294  0.9233
 2062TIP3    H2 6193   4.541   5.508   4.632 -0.6996 -0.9217 -0.8915
 2063TIP3   OH2 6194   4.012   0.254   4.149  0.1191 -0.1457  0.2591
 2063TIP3    H1 6195   4.033   0.167   4.183 -1.8798 -1.1698 -0.9650
 2063TIP3    H2 6196   4.093   0.304   4.160  2.2627 -2.9125 -1.4674
 2064TIP3   OH2 6197   0.556   5.275   1.217 -0.3088  0.3690 -0.2197
 2064TIP3    H1 6198   0.606   5.260   1.298  1.6767  0.1785 -1.4091
 2064TIP3    H2 6199   0.534   5.187   1.186 -1.0805  0.4422  0.1172
 2065TIP3   OH2 6200   3.987   5.703   0.328 -0.0265 -0.2631  0.0743
 2065TIP3    H1 6201   4.006   5.620   0.284  0.6107 -0.1073  0.0423
 2065TIP3    H2 6202   3.895   5.697   0.354  0.2518 -1.3489  0.8652
 2066TIP3   OH2 6203   3.659   0.040   2.858  0.3963 -0.2692 -0.2753
 2066TIP3    H1 6204   3.666  -0.016   2.935  1.3932 -0.1392 -0.2592
 2066TIP3    H2 6205   3.646   0.128   2.892 -0.6250 -0.3908 -0.2950
 2067TIP3   OH2 6206   1.734   1.965   2.030  0.9156  0.1547  0.2504
 2067TIP3    H1 6207   1.648   1.930   2.054  0.6334 -0.0495 -0.9619
 2067TIP3    H2 6208   1.761   2.017   2.105 -0.2777  0.2351  0.6446
 2068TIP3   OH2 6209   5.494   4.458   2.378 -0.0466 -0.6682  0.3552
 2068TIP3    H1 6210   5.500   4.554   2.375 -0.5929 -0.6447 -0.2449
 2068TIP3    H2 6211   5.526   4.429   2.292 -0.6815 -0.9718  0.2178
 2069TIP3   OH2 6212   3.334   1.989   4.755  0.7176 -0.5892 -0.7783
 2069TIP3    H1 6213   3.405   2.006   4.694  0.4454 -0.7697 -1.1515
 2069TIP3    H2 6214   3.261   2.042   4.723  0.3605 -1.2173 -1.0215
 2070TIP3   OH2 6215   2.872   3.374   1.220  0.2896 -0.3058  0.2087
 2070TIP3    H1 6216   2.893   3.464   1.196 -1.9070  0.2226  0.0121
 2070TIP3    H2 6217   2.867   3.375   1.316  0.3542 -0.2276  0.2108
 2071TIP3   OH2 6218   3.017   4.067   3.188 -0.1554 -0.3180 -0.1076
 2071TIP3    H1 6219   3.090   4.127   3.204  0.6119 -0.8297 -1.5400
 2071TIP3    H2 6220   3.044   3.985   3.228 -0.0579 -0.4364 -0.4159
 2072TIP3   OH2 6221   2.554   5.184   4.607 -0.3603 -0.0995 -0.1622
 2072TIP3    H1 6222   2.611   5.157   4.535  1.2070  0.6828  0.7370
 2072TIP3    H2 6223   2.497   5.250   4.568  0.0229 -0.1608 -0.8548
 2073TIP3   OH2 6224   5.792   5.764   4.099 -0.2003  0.0277  0.5304
 2073TIP3    H1 6225   5.809   5.843   4.049  1.2765 -0.5672  0.0478
 2073TIP3    H2 6226   5.842   5.775   4.180  0.1718 -0.4791  0.3782
 2074TIP3   OH2 6227   1.265   5.844   3.989  0.1114 -0.0832  0.5931
 2074TIP3    H1 6228   1.203   5.792   4.041 -0.4564  1.5802  1.6499
 2074TIP3    H2 6229   1.337   5.863   4.050 -0.1153  1.1046  0.5104
 2075TIP3   OH2 6230   5.291   4.471   0.732 -0.0997 -0.1026  0.8984
 2075TIP3    H1 6231   5.322   4.381   0.744 -1.1838 -0.8599 -1.4706
 2075TIP3    H2 6232   5.196   4.463   0.730 -0.1812  0.8336 -0.8972
 2076TIP3   OH2 6233   2.604   5.469   0.404 -0.2293  0.0971 -0.4290
 2076TIP3    H1 6234   2.546   5.398   0.377  1.6891 -1.3501 -0.9307
 2076TIP3    H2 6235   2.601   5.468   0.499  0.4883 -1.3114 -0.4024
 2077TIP3   OH2 6236   2.370   2.849   3.429 -0.3255 -0.4038  0.2921
 2077TIP3    H1 6237   2.399   2.769   3.385 -3.5533 -0.9469 -1.0988
 2077TIP3    H2 6238   2.392   2.919   3.368 -0.2345 -0.5569  0.1486
 2078TIP3   OH2 6239   0.559   5.672   0.650 -0.0514  0.0409  0.5377
 2078TIP3    H1 6240   0.618   5.684   0.576  1.5205 -0.4321  1.6703
 2078TIP3    H2 6241   0.567   5.579   0.672 -1.4046 -0.0911  0.5954
 2079TIP3   OH2 6242   1.083   4.879   0.555 -0.2946 -0.4249  0.2479
 2079TIP3    H1 6243   1.078   4.783   0.550  1.4253 -0.4873 -1.1954
 2079TIP3    H2 6244   1.140   4.904   0.482 -2.7476  1.9400 -0.9989
 2080TIP3   OH2 6245   4.926   2.211   2.764  0.1872 -0.0818  0.0727
 2080TIP3    H1 6246   4.835   2.224   2.790 -0.1615  0.6240 -1.4203
 2080TIP3    H2 6247   4.953   2.295   2.728  1.9238  0.1713  1.8353
 2081TIP3   OH2 6248   0.518   3.651   3.398 -0.3175 -0.0344 -0.1237
 2081TIP3    H1 6249   0.582   3.611   3.339 -1.2506 -0.5153 -0.8331
 2081TIP3    H2 6250   0.466   3.708   3.342  0.8375  2.0793  0.8289
 2082TIP3   OH2 6251   3.189   2.475   2.020  0.6464 -0.2816 -0.4244
 2082TIP3    H1 6252   3.262   2.503   2.075  1.7397  2.1109 -2.8718
 2082TIP3    H2 6253   3.148   2.557   1.991 -2.7978 -1.5181  0.4348
 2083TIP3   OH2 6254   6.172   2.258   3.791 -0.0819  0.5946  0.2446
 2083TIP3    H1 6255   6.182   2.195   3.720  0.0501 -0.1793  0.9324
 2083TIP3    H2 6256   6.171   2.205   3.870 -1.3122  1.3465  0.7583
 2084TIP3   OH2 6257   3.626   4.694   4.272  1.1610 -0.5197 -0.3716
 2084TIP3    H1 6258   3.673   4.615   4.298 -0.5250 -0.7647  2.3360
 2084TIP3    H2 6259   3.651   4.759   4.339 -1.6481 -0.4608  0.7582
 2085TIP3   OH2 6260   6.108   3.957   5.024  0.0261 -0.2125  0.0822
 2085TIP3    H1 6261   6.063   3.913   4.953  0.4016 -0.1173 -0.2151
 2085TIP3    H2 6262   6.089   4.050   5.011 -0.6520 -0.2640  0.6290
 2086TIP3   OH2 6263   4.703   0.352   0.705 -0.2022  0.0755  0.3623
 2086TIP3    H1 6264   4.785   0.358   0.656  0.3979  1.1081  1.4334
 2086TIP3    H2 6265   4.646   0.299   0.650  0.8017  0.2864 -0.9386
 2087TIP3   OH2 6266   4.484   4.610   4.495 -0.0622 -0.1967  0.0565
 2087TIP3    H1 6267   4.479   4.515   4.509 -1.7756  0.0096  1.3674
 2087TIP3    H2 6268   4.566   4.636   4.536  0.3213 -1.0879 -0.1200
 2088TIP3   OH2 6269   5.762   2.152   2.457  0.3431 -0.4017  0.5215
 2088TIP3    H1 6270   5.733   2.065   2.428  0.0721 -0.5028  1.0872
 2088TIP3    H2 6271   5.845   2.166   2.411  0.9290 -1.4112  1.2405
 2089TIP3   OH2 6272   3.125   5.970   1.168 -0.6234  0.5252  0.5200
 2089TIP3    H1 6273   3.130   5.929   1.081  0.7215 -1.7591  1.5676
 2089TIP3    H2 6274   3.042   5.938   1.205 -0.8311  0.8875  0.3739
 2090TIP3   OH2 6275   1.935   3.312   0.923 -0.1193 -0.1002  0.7456
 2090TIP3    H1 6276   1.931   3.355   1.008  0.2719  1.5069 -0.0109
 2090TIP3    H2 6277   1.939   3.384   0.860 -0.3510 -1.2530 -0.6370
 2091TIP3   OH2 6278   0.165   5.288   5.019  0.1364  0.2917  0.5754
 2091TIP3    H1 6279   0.112   5.289   5.099 -0.9688  0.1712 -0.1323
 2091TIP3    H2 6280   0.220   5.210   5.028 -2.0624 -1.4562 -0.0462
 2092TIP3   OH2 6281   0.138   2.197   0.263  0.4589 -0.7782 -0.1978
 2092TIP3    H1 6282   0.167   2.246   0.187  1.1511 -0.9906 -0.0816
 2092TIP3    H2 6283   0.148   2.257   0.337 -0.3891 -0.5091 -0.2871
 2093TIP3   OH2 6284   3.796   1.252   0.630  0.0094 -0.0107  0.2998
 2093TIP3    H1 6285   3.860   1.202   0.579 -0.5986  0.3589 -0.8565
 2093TIP3    H2 6286   3.712   1.213   0.609 -0.5218  1.6600 -0.8920
 2094TIP3   OH2 6287   3.544   5.902   0.899  0.0394  0.3067  0.0516
 2094TIP3    H1 6288   3.473   5.892   0.963 -0.8101  1.8221 -0.6016
 2094TIP3    H2 6289   3.503   5.943   0.824  0.8628 -2.0751 -1.8327
 2095TIP3   OH2 6290   4.470   3.995   0.994 -0.1403 -0.7401  0.0815
 2095TIP3    H1 6291   4.442   4.070   0.941  0.7163 -1.4150 -1.3887
 2095TIP3    H2 6292   4.535   4.031   1.053  0.6592 -0.3920 -0.9765
 2096TIP3   OH2 6293   6.220   5.438   1.299  0.3605 -0.0751 -0.2977
 2096TIP3    H1 6294   6.154   5.444   1.369 -0.4678 -1.7454 -0.8984
 2096TIP3    H2 6295   6.170   5.452   1.218  1.5729  3.7204 -0.6150
 2097TIP3   OH2 6296   1.018   2.146   0.894  0.0865  0.1059  0.6084
 2097TIP3    H1 6297   0.954   2.203   0.852  0.1641  0.0753  0.4446
 2097TIP3    H2 6298   1.080   2.205   0.936  0.3272  0.1512  0.1974
 2098TIP3   OH2 6299   2.801   3.832   0.992  0.0064  0.2119 -0.0007
 2098TIP3    H1 6300   2.814   3.737   0.989  0.9535  0.1998  2.1433
 2098TIP3    H2 6301   2.794   3.858   0.900 -1.2180 -2.0189 -0.6346
 2099TIP3   OH2 6302   1.591   5.322   3.686  0.5629  0.2399 -0.5227
 2099TIP3    H1 6303   1.684   5.310   3.668  0.5718 -0.8891  0.1464
 2099TIP3    H2 6304   1.559   5.234   3.705 -0.5814  0.6534 -0.4471
 2100TIP3   OH2 6305   2.047   2.825   2.752  0.5073  0.6286  0.5600
 2100TIP3    H1 6306   2.138   2.849   2.737 -0.0665  1.1550 -2.7657
 2100TIP3    H2 6307   2.001   2.850   2.672 -2.6229  0.4815  2.1424
 2101TIP3   OH2 6308   4.168   1.558   3.153 -0.2718  0.1097  0.3012
 2101TIP3    H1 6309   4.252   1.514   3.140 -1.4870 -2.2170 -0.2473
 2101TIP3    H2 6310   4.177   1.604   3.237  1.1422 -1.0918  0.8471
 2102TIP3   OH2 6311   0.549   0.213   0.875 -0.7619 -0.1893  0.5730
 2102TIP3    H1 6312   0.557   0.153   0.949 -1.7260 -2.0826 -0.7501
 2102TIP3    H2 6313   0.623   0.191   0.818 -1.8374 -1.0890 -0.5282
 2103TIP3   OH2 6314   4.677   1.283   3.382 -0.2002 -0.4059  0.1239
 2103TIP3    H1 6315   4.605   1.223   3.360 -0.1328 -0.6906  0.6733
 2103TIP3    H2 6316   4.751   1.250   3.330 -0.3399 -0.3959 -0.0825
 2104TIP3   OH2 6317   2.791   4.481   0.315  0.0429 -0.7143 -0.1941
 2104TIP3    H1 6318   2.836   4.417   0.259  0.2174 -2.3022  1.6586
 2104TIP3    H2 6319   2.792   4.562   0.264  2.0654 -1.5372 -1.6040
 2105TIP3   OH2 6320   4.622   1.436   2.912 -0.3515 -0.5495 -0.1738
 2105TIP3    H1 6321   4.620   1.511   2.972 -1.1547  0.4016 -1.3626
 2105TIP3    H2 6322   4.530   1.414   2.898 -0.1545 -1.0149 -0.7717
 2106TIP3   OH2 6323   3.416   4.706   2.686 -0.7408  0.3612 -0.1060
 2106TIP3    H1 6324   3.462   4.789   2.698  0.2382 -0.3632  1.6812
 2106TIP3    H2 6325   3.486   4.643   2.668 -1.3653 -0.2308 -0.4806
 2107TIP3   OH2 6326   5.963   5.035   1.384  0.0308 -0.5952 -0.1733
 2107TIP3    H1 6327   5.971   4.940   1.393 -1.2102 -0.7736 -0.8037
 2107TIP3    H2 6328   5.939   5.065   1.471 -0.5787 -0.9817 -0.2021
 2108TIP3   OH2 6329   3.607   5.265   1.552  0.0299 -0.1042  0.6496
 2108TIP3    H1 6330   3.646   5.346   1.586  0.4307  0.2297 -0.5871
 2108TIP3    H2 6331   3.593   5.211   1.631 -1.0371  1.4773  1.6102
 2109TIP3   OH2 6332   3.036   0.740   0.547 -0.1784 -0.2285 -0.3397
 2109TIP3    H1 6333   2.982   0.671   0.587 -0.0756  1.4647  3.1109
 2109TIP3    H2 6334   3.124   0.722   0.579 -0.2363  1.6713  1.0556
 2110TIP3   OH2 6335   3.237   1.040   3.614  0.2227  0.0162 -0.9955
 2110TIP3    H1 6336   3.290   0.988   3.674  0.5397  2.7048  1.2435
 2110TIP3    H2 6337   3.152   1.047   3.657 -0.1375  0.5087 -1.7616
 2111TIP3   OH2 6338   0.376   2.420   4.224  0.2364 -0.1078  0.6743
 2111TIP3    H1 6339   0.296   2.388   4.265  0.2307 -0.7871  0.1603
 2111TIP3    H2 6340   0.424   2.340   4.200 -0.0320  0.2302 -1.1777
 2112TIP3   OH2 6341   2.623   2.206   0.797  0.3405  0.3083  0.7423
 2112TIP3    H1 6342   2.650   2.297   0.809  2.4071 -0.1570  0.0009
 2112TIP3    H2 6343   2.658   2.159   0.872 -1.7258  0.2568  1.7469
 2113TIP3   OH2 6344   2.028   1.594   4.460  0.0723 -0.5806 -0.6662
 2113TIP3    H1 6345   1.967   1.663   4.433 -0.9187 -1.0792  0.2359
 2113TIP3    H2 6346   2.041   1.610   4.554  0.1185 -1.3954 -0.5314
 2114TIP3   OH2 6347   1.660   2.680   3.357 -0.4887 -0.2998 -0.4035
 2114TIP3    H1 6348   1.634   2.711   3.270 -0.9445 -0.1036 -0.2016
 2114TIP3    H2 6349   1.578   2.652   3.398 -0.5684  1.3746  0.6565
 2115TIP3   OH2 6350   4.144   5.390   1.280 -0.1661  0.0453  0.2819
 2115TIP3    H1 6351   4.201   5.385   1.357  0.1055 -1.2425  0.0225
 2115TIP3    H2 6352   4.085   5.315   1.289 -0.0379 -0.2063 -0.8261
 2116TIP3   OH2 6353   0.870   2.977   0.077 -0.1643  0.3381 -0.0321
 2116TIP3    H1 6354   0.872   3.025   0.160 -1.3416 -1.4597  1.0994
 2116TIP3    H2 6355   0.960   2.982   0.045  0.4574  0.6115  1.6383
 2117TIP3   OH2 6356   6.286   0.013   3.116 -0.1286 -0.1689 -0.0959
 2117TIP3    H1 6357   6.342  -0.042   3.170  0.4993  0.4952 -0.0679
 2117TIP3    H2 6358   6.344   0.050   3.050 -0.7243 -0.2702 -0.6968
 2118TIP3   OH2 6359   1.494   4.486   1.366 -0.5307  0.3291 -0.3374
 2118TIP3    H1 6360   1.463   4.566   1.325  0.1237  1.6410  1.6144
 2118TIP3    H2 6361   1.486   4.502   1.460  0.0877 -1.7072  0.1171
 2119TIP3   OH2 6362   1.848   2.324   4.786  0.2450  0.3513 -0.4920
 2119TIP3    H1 6363   1.771   2.300   4.733  1.4960 -1.8252 -1.4265
 2119TIP3    H2 6364   1.831   2.286   4.872 -0.8680  2.1719  0.1629
 2120TIP3   OH2 6365   2.062   0.225   4.527 -0.2567 -0.2269 -0.0833
 2120TIP3    H1 6366   1.972   0.246   4.502 -0.4473 -0.9125  0.0082
 2120TIP3    H2 6367   2.053   0.177   4.609  0.1840 -0.4428 -0.1605
 2121TIP3   OH2 6368   3.253   1.695   1.044  0.2661 -0.3931  0.4373
 2121TIP3    H1 6369   3.323   1.699   0.979  0.6622  1.7461  0.9313
 2121TIP3    H2 6370   3.190   1.633   1.007  0.6224  0.5255 -1.8712
 2122TIP3   OH2 6371   3.905   1.995   4.324 -0.2284 -0.3601  0.0204
 2122TIP3    H1 6372   3.906   1.942   4.244 -2.2652  1.1589 -1.1245
 2122TIP3    H2 6373   3.828   2.051   4.315 -0.4947 -0.0535  3.0523
 2123TIP3   OH2 6374   2.345   0.308   3.348 -0.1245 -0.1152  0.3522
 2123TIP3    H1 6375   2.282   0.273   3.411 -1.8235 -1.5978 -1.9829
 2123TIP3    H2 6376   2.309   0.395   3.326 -0.0492  0.0088  0.7048
 2124TIP3   OH2 6377   5.421   5.424   1.861  0.1216 -0.0380 -0.3856
 2124TIP3    H1 6378   5.356   5.379   1.807 -1.6144  0.3653  1.2563
 2124TIP3    H2 6379   5.452   5.497   1.806 -1.8483  0.5782 -0.7466
 2125TIP3   OH2 6380   3.304   4.070   1.368 -0.2637 -0.3047 -0.9765
 2125TIP3    H1 6381   3.266   3.982   1.366 -0.1421 -0.3674 -0.5826
 2125TIP3    H2 6382   3.333   4.081   1.458 -0.8974  0.4099 -0.8525
 2126TIP3   OH2 6383   2.781   4.940   0.851  0.1963 -0.3356  0.0670
 2126TIP3    H1 6384   2.811   4.913   0.938 -0.0902 -0.7353  0.0449
 2126TIP3    H2 6385   2.802   4.865   0.795  0.8364  0.1174 -0.3088
 2127TIP3   OH2 6386   1.161   5.475   1.351 -0.2749 -0.3344 -0.2038
 2127TIP3    H1 6387   1.095   5.522   1.300 -0.8027 -0.7463  0.0878
 2127TIP3    H2 6388   1.154   5.384   1.322  0.1833 -0.3760 -0.1889
 2128TIP3   OH2 6389   0.135   4.227   4.855 -0.6980 -0.2987  0.2910
 2128TIP3    H1 6390   0.071   4.218   4.925  0.0338  0.2543  1.0431
 2128TIP3    H2 6391   0.199   4.158   4.872 -0.5873 -0.2468  0.0865
 2129TIP3   OH2 6392   0.075   0.073   1.338  0.0857 -0.5647 -0.1264
 2129TIP3    H1 6393   0.069  -0.022   1.331  0.9864 -0.8172  1.7577
 2129TIP3    H2 6394   0.160   0.088   1.380 -0.2785  1.0407  0.0950
 2130TIP3   OH2 6395   1.339   3.717   1.019 -0.1536 -0.2775 -0.4789
 2130TIP3    H1 6396   1.334   3.675   0.933 -0.2454 -0.7861 -0.2302
 2130TIP3    H2 6397   1.390   3.796   1.004  2.0368 -1.6237 -0.5376
 2131TIP3   OH2 6398   5.662   5.940   4.646  0.1210 -0.2844 -0.6580
 2131TIP3    H1 6399   5.647   5.854   4.605  0.2076 -1.6051  1.9099
 2131TIP3    H2 6400   5.604   5.941   4.722 -0.6337  2.4118 -1.1645
 2132TIP3   OH2 6401   5.800   1.875   2.978  0.4006  0.2116 -0.4491
 2132TIP3    H1 6402   5.707   1.893   2.965  1.0613  1.7703 -4.3150
 2132TIP3    H2 6403   5.808   1.781   2.963 -0.6269 -0.1685  1.1211
 2133TIP3   OH2 6404   5.635   3.029   2.994 -0.8127 -0.4974  1.0241
 2133TIP3    H1 6405   5.723   3.045   2.958 -0.7130 -0.2837  1.3530
 2133TIP3    H2 6406   5.639   3.067   3.082 -1.7417  1.0222  0.4483
 2134TIP3   OH2 6407   5.147   2.351   3.053 -0.0643 -0.4932  0.6004
 2134TIP3    H1 6408   5.096   2.403   2.991 -0.9616  0.4476  2.0658
 2134TIP3    H2 6409   5.089   2.278   3.076 -0.7617  0.5079  2.1691
 2135TIP3   OH2 6410   1.272   4.024   2.502  0.2911 -0.1732 -0.6535
 2135TIP3    H1 6411   1.231   4.104   2.532 -0.5248 -0.6654 -0.4290
 2135TIP3    H2 6412   1.327   3.996   2.575  3.6333  2.1363 -2.0208
 2136TIP3   OH2 6413   1.453   2.652   0.661 -0.1645  0.0287  0.0263
 2136TIP3    H1 6414   1.474   2.743   0.640 -1.5663  0.6282  1.0456
 2136TIP3    H2 6415   1.539   2.610   0.671  0.5078  0.9385 -1.5790
 2137TIP3   OH2 6416   5.463   0.015   0.663  0.1129 -0.4312  0.5911
 2137TIP3    H1 6417   5.476   0.092   0.718  0.0551 -0.8924  1.2655
 2137TIP3    H2 6418   5.396   0.041   0.600  1.0479  0.5016 -0.0498
 2138TIP3   OH2 6419   1.849   0.667   3.913 -0.1183  0.0866 -0.2484
 2138TIP3    H1 6420   1.781   0.602   3.928  0.6896 -0.8827 -0.6851
 2138TIP3    H2 6421   1.824   0.742   3.967 -1.7537 -0.0802 -0.7194
 2139TIP3   OH2 6422   4.545   5.774   1.652 -0.3832  0.0484 -0.0667
 2139TIP3    H1 6423   4.454   5.803   1.648  0.1050  1.5357 -1.3388
 2139TIP3    H2 6424   4.550   5.722   1.732 -1.6603  2.3995  1.6587
 2140TIP3   OH2 6425   3.058   1.335   3.547  0.2607 -0.1809  0.4706
 2140TIP3    H1 6426   2.964   1.336   3.564  0.7035  1.7985  3.7703
 2140TIP3    H2 6427   3.091   1.263   3.600  0.8489  1.1746  2.0633
 2141TIP3   OH2 6428   3.303   3.461   3.761  0.2370  0.1649  0.3924
 2141TIP3    H1 6429   3.248   3.540   3.770  0.0148  0.2502 -1.3335
 2141TIP3    H2 6430   3.244   3.389   3.780  0.1765  0.3691  0.9907
 2142TIP3   OH2 6431   2.232   1.044   5.020  0.2450  0.4129  0.5153
 2142TIP3    H1 6432   2.282   1.119   5.053 -1.6263  1.4934  1.0167
 2142TIP3    H2 6433   2.253   0.973   5.081  1.0803  0.8539  0.7608
 2143TIP3   OH2 6434   5.817   5.393   1.149  0.1392 -0.0195  0.2780
 2143TIP3    H1 6435   5.897   5.341   1.140 -0.3863 -0.6727 -0.8835
 2143TIP3    H2 6436   5.762   5.363   1.077 -1.2277  0.2927  1.1708
 2144TIP3   OH2 6437   1.665   3.193   3.355 -0.0471 -0.1174 -0.5925
 2144TIP3    H1 6438   1.681   3.264   3.293 -0.0649  0.0776 -0.3763
 2144TIP3    H2 6439   1.741   3.135   3.345 -0.5479 -0.6310 -1.5352
 2145TIP3   OH2 6440   3.114   0.399   4.973  0.1477  0.4564 -0.1741
 2145TIP3    H1 6441   3.111   0.475   5.031  0.6869  0.3092  0.0463
 2145TIP3    H2 6442   3.102   0.435   4.885 -0.2682  0.7215 -0.0127
 2146TIP3   OH2 6443   4.068   2.898   1.424  0.0397  0.3461 -0.1043
 2146TIP3    H1 6444   4.095   2.824   1.370 -0.4408  0.0111  0.1144
 2146TIP3    H2 6445   3.975   2.884   1.441  0.5701 -0.6002  2.4124
 2147TIP3   OH2 6446   4.197   0.805   5.161  0.4133 -0.7979  0.4336
 2147TIP3    H1 6447   4.121   0.857   5.136  1.0137  0.2575  0.7720
 2147TIP3    H2 6448   4.196   0.731   5.099 -0.7577 -0.6978  0.3106
 2148TIP3   OH2 6449   5.301   2.610   0.926  0.2223  0.1592  0.0831
 2148TIP3    H1 6450   5.221   2.595   0.875 -0.4306 -1.2888  1.4276
 2148TIP3    H2 6451   5.368   2.630   0.860 -0.1849 -3.2172 -1.5748
 2149TIP3   OH2 6452   5.405   2.578   4.570  0.0898 -0.2165 -0.0298
 2149TIP3    H1 6453   5.349   2.656   4.569  0.9187  0.4112 -2.0169
 2149TIP3    H2 6454   5.491   2.611   4.596  0.2927 -0.5890 -0.2268
 2150TIP3   OH2 6455   3.942   0.511   4.310  0.2517 -0.6393  0.2190
 2150TIP3    H1 6456   3.926   0.600   4.278  1.9745 -0.5932 -0.6425
 2150TIP3    H2 6457   3.859   0.465   4.296 -1.2810  1.2390  2.3462
 2151TIP3   OH2 6458   2.330   1.456   1.618  0.3027 -0.1753  0.2508
 2151TIP3    H1 6459   2.302   1.381   1.671 -0.0195  1.3832  2.3967
 2151TIP3    H2 6460   2.425   1.460   1.630  0.6744 -1.5170 -1.7122
 2152TIP3   OH2 6461   3.884   3.373   1.557 -0.9812 -0.3239  0.1637
 2152TIP3    H1 6462   3.821   3.341   1.621 -0.7125 -0.2701  0.4620
 2152TIP3    H2 6463   3.857   3.334   1.474 -0.1968 -1.9843  0.6479
 2153TIP3   OH2 6464   3.439   1.429   2.845 -0.4269 -0.0522 -0.0498
 2153TIP3    H1 6465   3.347   1.430   2.819 -0.2172 -0.7665 -0.8516
 2153TIP3    H2 6466   3.475   1.351   2.802  0.3030 -0.3827  1.1309
 2154TIP3   OH2 6467   3.989  -0.030   0.534 -0.7459  0.4726  0.1569
 2154TIP3    H1 6468   4.009   0.045   0.478 -0.2385 -0.0930 -0.4296
 2154TIP3    H2 6469   4.020  -0.005   0.620  1.1422  0.2153 -0.4155
 2155TIP3   OH2 6470   4.699   5.253   3.744 -0.0682  0.2304 -0.5376
 2155TIP3    H1 6471   4.718   5.304   3.823 -1.4612  1.5169 -0.9994
 2155TIP3    H2 6472   4.606   5.268   3.727  0.3179  0.4476 -2.7560
 2156TIP3   OH2 6473   4.282   4.532   1.840  0.2524  0.0255 -0.0490
 2156TIP3    H1 6474   4.220   4.470   1.878  0.7364 -0.7898 -0.5472
 2156TIP3    H2 6475   4.296   4.500   1.751  1.6049  0.0274  0.1471
 2157TIP3   OH2 6476   5.032   1.084   4.661 -0.3525  0.1525 -0.5944
 2157TIP3    H1 6477   5.107   1.138   4.638 -0.9410  1.3516  0.2475
 2157TIP3    H2 6478   5.012   1.106   4.752  1.5003 -3.9798  1.0966
 2158TIP3   OH2 6479   4.894   1.207   3.237  0.1853 -0.8794  0.4265
 2158TIP3    H1 6480   4.926   1.117   3.238  0.8759 -0.7360 -2.0886
 2158TIP3    H2 6481   4.881   1.227   3.144 -0.8686  1.3061  0.9759
 2159TIP3   OH2 6482   5.047   3.954   3.706 -0.2592 -0.3639  0.0444
 2159TIP3    H1 6483   4.951   3.955   3.709 -0.2371  1.2241  1.8838
 2159TIP3    H2 6484   5.070   3.861   3.714 -1.6271 -0.6574  0.8470
 2160TIP3   OH2 6485   0.255   4.182   1.224  0.2727 -0.3751 -0.2140
 2160TIP3    H1 6486   0.297   4.170   1.309  0.9716 -1.5172 -0.6986
 2160TIP3    H2 6487   0.303   4.255   1.184 -0.6075  0.7359  0.6804
 2161TIP3   OH2 6488   4.483   4.060   4.471  0.2533 -0.0822  0.1658
 2161TIP3    H1 6489   4.464   3.966   4.469  0.4993 -0.2414  2.6866
 2161TIP3    H2 6490   4.530   4.074   4.553 -1.5262  2.5368  0.8911
 2162TIP3   OH2 6491   0.325   3.559   0.130  0.4224  0.3894 -0.1185
 2162TIP3    H1 6492   0.248   3.510   0.160  0.1714 -0.5459 -2.1196
 2162TIP3    H2 6493   0.389   3.492   0.107  0.9707  1.0829 -0.6457
 2163TIP3   OH2 6494   1.664   3.347   3.596  0.1658 -0.4778  0.5707
 2163TIP3    H1 6495   1.655   3.343   3.501 -1.5914  0.1333  0.6720
 2163TIP3    H2 6496   1.741   3.294   3.615 -0.0378 -1.4490 -1.1088
 2164TIP3   OH2 6497   5.984   2.389   1.063  0.4637  0.5041  0.4959
 2164TIP3    H1 6498   5.890   2.393   1.082  0.2417 -1.0691 -0.0561
 2164TIP3    H2 6499   6.025   2.443   1.130 -0.9386  2.6931 -0.3197
 2165TIP3   OH2 6500   3.159   3.987   3.936  0.4578 -0.3402  0.4932
 2165TIP3    H1 6501   3.135   3.899   3.909  1.9379 -0.4046 -0.7422
 2165TIP3    H2 6502   3.079   4.024   3.973 -0.9013 -1.2785 -1.3733
 2166TIP3   OH2 6503   1.936   3.424   3.618 -0.0259 -0.6876 -0.2080
 2166TIP3    H1 6504   1.889   3.507   3.626 -0.2773 -0.7877 -0.6165
 2166TIP3    H2 6505   1.939   3.390   3.708  0.7946  0.1431  0.0950
 2167TIP3   OH2 6506   1.771   1.545   2.607 -0.0027 -0.0560 -0.0917
 2167TIP3    H1 6507   1.747   1.632   2.576  0.9396 -0.1748 -1.2461
 2167TIP3    H2 6508   1.693   1.513   2.652 -1.4736  0.1702 -2.3211
 2168TIP3   OH2 6509   5.441   2.856   0.083  0.0118  0.1841 -0.7945
 2168TIP3    H1 6510   5.516   2.896   0.039 -0.2313  2.5498  0.7882
 2168TIP3    H2 6511   5.388   2.929   0.113 -2.6561 -1.4178 -1.2818
 2169TIP3   OH2 6512   2.019   4.330   2.650 -0.6318  0.8973 -0.8621
 2169TIP3    H1 6513   2.014   4.335   2.745  1.8039 -0.5956 -0.5773
 2169TIP3    H2 6514   1.997   4.239   2.629  3.2167 -0.1418 -1.1850
 2170TIP3   OH2 6515   4.603   0.758   0.855 -0.6365 -0.1980  0.3740
 2170TIP3    H1 6516   4.692   0.735   0.830 -0.7445  0.9283 -1.2294
 2170TIP3    H2 6517   4.603   0.854   0.858 -1.4249 -0.2191  1.8863
 2171TIP3   OH2 6518   5.896   4.659   0.173  0.1474  0.7526 -0.5891
 2171TIP3    H1 6519   5.914   4.704   0.255 -1.4244 -0.0424  0.2387
 2171TIP3    H2 6520   5.813   4.697   0.143  0.6521  0.9604 -1.7783
 2172TIP3   OH2 6521   0.411   4.191   1.463  0.0494 -0.0150 -0.5044
 2172TIP3    H1 6522   0.379   4.275   1.496  0.6017 -0.3816  1.0843
 2172TIP3    H2 6523   0.350   4.127   1.501  1.1458 -0.5143  0.4782
 2173TIP3   OH2 6524   0.731   4.029   4.451 -0.2035  0.1976  0.1797
 2173TIP3    H1 6525   0.775   4.085   4.387 -0.8528  1.2575  0.6115
 2173TIP3    H2 6526   0.645   4.070   4.462 -1.4470 -1.9673 -0.8650
 2174TIP3   OH2 6527   0.436   0.544   2.942  0.0859 -0.0735  0.0078
 2174TIP3    H1 6528   0.465   0.625   2.900 -1.2298  0.0618 -0.6694
 2174TIP3    H2 6529   0.348   0.529   2.909  0.2521 -1.7301  0.2031
 2175TIP3   OH2 6530   1.352   2.536   2.301  0.4177  0.4094  0.0156
 2175TIP3    H1 6531   1.358   2.547   2.396  1.1462  1.2101 -0.1116
 2175TIP3    H2 6532   1.427   2.481   2.278  0.1304  0.0535 -0.0748
 2176TIP3   OH2 6533   2.761   2.880   2.627 -0.1140 -0.1085  0.6507
 2176TIP3    H1 6534   2.798   2.832   2.702  1.0781 -0.5131 -0.1672
 2176TIP3    H2 6535   2.694   2.821   2.593  1.5837 -1.4453 -0.5677
 2177TIP3   OH2 6536   5.659   4.703   5.041 -0.5155 -0.0986 -0.3912
 2177TIP3    H1 6537   5.659   4.772   5.107 -1.6390  0.6762 -1.1681
 2177TIP3    H2 6538   5.679   4.749   4.959 -2.1678 -0.5346 -1.0659
 2178TIP3   OH2 6539   0.942   3.991   3.127  0.0579 -0.1884  0.2200
 2178TIP3    H1 6540   0.917   3.905   3.160  1.1695 -1.6469 -2.4099
 2178TIP3    H2 6541   1.036   3.985   3.112  0.0391  1.2093 -0.7116
 2179TIP3   OH2 6542   5.655   3.934   1.623 -0.2083  0.0283  0.3067
 2179TIP3    H1 6543   5.691   3.878   1.691  1.9382 -1.5238 -1.9243
 2179TIP3    H2 6544   5.653   3.878   1.545 -1.4184  2.0441 -1.2167
 2180TIP3   OH2 6545   1.404   5.375   0.041  0.1206 -0.5626 -0.8816
 2180TIP3    H1 6546   1.459   5.304   0.007  1.6761 -0.1804  0.7369
 2180TIP3    H2 6547   1.464   5.447   0.056 -0.4268 -0.6829  2.5974
 2181TIP3   OH2 6548   1.805   1.280   2.916 -0.1233 -0.4998 -0.2806
 2181TIP3    H1 6549   1.748   1.315   2.848 -2.0232 -0.3870  1.2776
 2181TIP3    H2 6550   1.857   1.355   2.946 -0.7276 -0.0991 -0.2349
 2182TIP3   OH2 6551   4.455   1.325   4.208  0.1765 -0.4516  1.0042
 2182TIP3    H1 6552   4.414   1.385   4.146  0.1942 -1.2577  0.1887
 2182TIP3    H2 6553   4.421   1.352   4.294  1.8208  2.0686  0.9497
 2183TIP3   OH2 6554   5.582   3.109   4.764 -0.2732  0.3879 -0.5449
 2183TIP3    H1 6555   5.678   3.106   4.768 -0.2915  0.7171  0.5066
 2183TIP3    H2 6556   5.554   3.028   4.807 -0.4753 -0.4569 -2.1889
 2184TIP3   OH2 6557   3.912   3.739   5.067 -0.2210 -0.1471  0.2244
 2184TIP3    H1 6558   3.941   3.649   5.077 -0.8998 -0.4338 -0.3184
 2184TIP3    H2 6559   3.858   3.757   5.144 -0.2112 -0.2535  0.2549
 2185TIP3   OH2 6560   4.945   1.784   2.413  0.1123 -0.5244  0.5482
 2185TIP3    H1 6561   4.991   1.840   2.476 -0.3835 -0.8582  1.2166
 2185TIP3    H2 6562   5.002   1.782   2.336  0.9534 -0.4981  1.1626
 2186TIP3   OH2 6563   4.304   4.092   2.363 -0.0763 -0.0047 -0.0175
 2186TIP3    H1 6564   4.258   4.016   2.327 -0.9785 -0.0664  1.1665
 2186TIP3    H2 6565   4.322   4.068   2.454 -1.0957  1.4614  0.6227
 2187TIP3   OH2 6566   5.236   0.615   4.652  0.3342  0.4875 -0.4054
 2187TIP3    H1 6567   5.257   0.521   4.653 -2.4081 -0.3127  3.3929
 2187TIP3    H2 6568   5.144   0.618   4.624  0.4033  2.0546 -0.5221
 2188TIP3   OH2 6569   0.920   3.690   0.029 -0.0383 -0.2884 -0.1531
 2188TIP3    H1 6570   1.010   3.714   0.008  0.5964 -1.9760  0.4639
 2188TIP3    H2 6571   0.871   3.772   0.023  1.0084  0.2512 -3.1125
 2189TIP3   OH2 6572   1.951   1.164   2.239 -0.1472 -0.1575  0.6623
 2189TIP3    H1 6573   2.043   1.169   2.265  0.6564  1.7819 -2.1315
 2189TIP3    H2 6574   1.914   1.248   2.268 -0.9898 -0.7755  1.4387
 2190TIP3   OH2 6575   0.121   3.426   3.749 -0.3935 -0.1317  0.1550
 2190TIP3    H1 6576   0.166   3.484   3.688  2.1338 -0.5697  1.4833
 2190TIP3    H2 6577   0.068   3.485   3.803  0.1658  0.6551 -0.1405
 2191TIP3   OH2 6578   1.286   0.021   4.374  0.1877  0.2242 -0.4142
 2191TIP3    H1 6579   1.319   0.091   4.317 -1.5948  0.5805 -1.0642
 2191TIP3    H2 6580   1.343  -0.054   4.355  0.5663  0.7709 -1.5413
 2192TIP3   OH2 6581   5.914   1.239   4.978  0.6413  0.5449  0.2615
 2192TIP3    H1 6582   5.953   1.301   4.916 -1.8870 -0.3785 -2.5316
 2192TIP3    H2 6583   5.824   1.227   4.946  0.1302 -2.3506  2.3587
 2193TIP3   OH2 6584   5.660   5.237   2.379 -0.1506 -0.2668 -0.5455
 2193TIP3    H1 6585   5.668   5.179   2.454  0.0567  0.0447 -0.3250
 2193TIP3    H2 6586   5.749   5.268   2.363 -0.2865  0.1344 -0.5422
 2194TIP3   OH2 6587   4.536   0.689   2.852  0.1820  0.0844 -0.4901
 2194TIP3    H1 6588   4.505   0.703   2.763  0.1637 -0.2403 -0.5378
 2194TIP3    H2 6589   4.581   0.770   2.876 -1.2432  0.8268 -0.1954
 2195TIP3   OH2 6590   0.233   2.893   1.579 -0.0735  0.2005  0.6550
 2195TIP3    H1 6591   0.269   2.972   1.539 -0.2090 -0.3340 -0.5726
 2195TIP3    H2 6592   0.220   2.832   1.506  1.0671 -1.3733  1.6965
 2196TIP3   OH2 6593   2.578   4.608   0.857  0.3113  0.1592  0.2180
 2196TIP3    H1 6594   2.654   4.579   0.907 -0.1920 -0.7057  0.5127
 2196TIP3    H2 6595   2.596   4.580   0.767 -0.4027 -1.6805  0.5820
 2197TIP3   OH2 6596   1.718   4.565   0.022 -0.1011 -0.0691 -0.0211
 2197TIP3    H1 6597   1.802   4.606   0.001  0.7646 -1.5064  0.5298
 2197TIP3    H2 6598   1.726   4.538   0.113 -0.6670 -1.4047 -0.3488
 2198TIP3   OH2 6599   2.409   1.368   3.809 -0.0133 -0.2143 -0.3191
 2198TIP3    H1 6600   2.428   1.450   3.855 -1.4481  0.0660 -0.1845
 2198TIP3    H2 6601   2.358   1.316   3.871  0.1003 -0.8297 -0.7284
 2199TIP3   OH2 6602   2.569   0.611   3.907  0.1504  0.3136  0.2512
 2199TIP3    H1 6603   2.477   0.630   3.928 -0.1199  0.7170 -1.2005
 2199TIP3    H2 6604   2.593   0.541   3.968 -0.3707  1.8145  2.3212
 2200TIP3   OH2 6605   0.595   5.494   1.064 -0.1538 -0.5149 -0.0377
 2200TIP3    H1 6606   0.582   5.413   1.112  0.8019 -0.9081 -0.4293
 2200TIP3    H2 6607   0.601   5.561   1.132 -0.6618 -0.7989  0.2970
 2201TIP3   OH2 6608   3.759   2.649   0.572  0.7762  0.0032  1.1961
 2201TIP3    H1 6609   3.806   2.682   0.649  1.1625  0.8333  0.6265
 2201TIP3    H2 6610   3.829   2.630   0.509  0.4147  0.0312  0.7879
 2202TIP3   OH2 6611   5.758   2.590   2.740  0.1335 -0.2164  0.2403
 2202TIP3    H1 6612   5.715   2.537   2.808  1.6494 -1.0334  0.6256
 2202TIP3    H2 6613   5.852   2.572   2.752  0.4173 -1.9751 -3.3260
 2203TIP3   OH2 6614   4.134   0.965   2.053 -0.3569  0.1465  0.5470
 2203TIP3    H1 6615   4.087   1.017   2.118 -1.0515  0.3687 -0.1040
 2203TIP3    H2 6616   4.082   0.884   2.045 -0.4925  0.2803  0.0140
 2204TIP3   OH2 6617   5.990   1.116   3.752 -0.2844  0.2204  0.1321
 2204TIP3    H1 6618   5.963   1.024   3.745 -1.0658  0.5036 -0.6811
 2204TIP3    H2 6619   5.922   1.157   3.805  0.5379  0.1591  1.2807
 2205TIP3   OH2 6620   4.248   1.226   1.988  0.6145 -0.5882 -0.3461
 2205TIP3    H1 6621   4.271   1.247   2.079  1.5185 -0.4011 -0.6155
 2205TIP3    H2 6622   4.209   1.139   1.994 -1.9422  0.5185  0.5913
 2206TIP3   OH2 6623   5.145   0.643   2.993  0.4675 -0.1475  0.4080
 2206TIP3    H1 6624   5.066   0.690   2.967  1.7262  0.8732 -1.7829
 2206TIP3    H2 6625   5.171   0.683   3.076 -2.3286 -1.8583  2.2586
 2207TIP3   OH2 6626   3.707   2.938   0.551 -0.1935  0.0800  0.1230
 2207TIP3    H1 6627   3.621   2.923   0.512 -0.5680 -0.3017  1.0470
 2207TIP3    H2 6628   3.692   3.010   0.613 -0.0297 -0.4687  0.8145
 2208TIP3   OH2 6629   2.090   3.436   3.272 -0.7244  0.0995  0.5178
 2208TIP3    H1 6630   2.084   3.504   3.338  0.8836  0.1056  0.6960
 2208TIP3    H2 6631   2.055   3.476   3.192  0.5510  1.2770  0.5281
 2209TIP3   OH2 6632   5.282   2.250   0.084 -0.5762  0.1631 -0.0129
 2209TIP3    H1 6633   5.188   2.230   0.082 -0.7219  0.4255  2.0197
 2209TIP3    H2 6634   5.291   2.325   0.026 -1.2790 -1.0338 -1.7481
 2210TIP3   OH2 6635   3.672   3.613   1.457  0.2938  0.0893  0.7765
 2210TIP3    H1 6636   3.760   3.631   1.423  0.1400 -0.5270  0.0470
 2210TIP3    H2 6637   3.631   3.559   1.391 -1.4150  2.1212  0.0573
 2211TIP3   OH2 6638   5.538   2.311   0.382 -0.1675  0.0800  0.2539
 2211TIP3    H1 6639   5.533   2.397   0.342 -1.2364 -0.4183 -0.7580
 2211TIP3    H2 6640   5.629   2.284   0.371  0.1480  1.0131  0.4710
 2212TIP3   OH2 6641   2.365   3.888   1.601 -0.2079  0.5430  0.7842
 2212TIP3    H1 6642   2.455   3.889   1.633 -0.6563 -1.2636  2.2700
 2212TIP3    H2 6643   2.319   3.828   1.660 -2.7046  2.3900  0.8839
 2213TIP3   OH2 6644   2.489   3.778   0.694 -0.3687 -0.0011 -0.5064
 2213TIP3    H1 6645   2.416   3.719   0.716  0.8384 -0.7664  1.7938
 2213TIP3    H2 6646   2.500   3.832   0.772  2.9169 -1.4808  0.2296
 2214TIP3   OH2 6647   2.731   4.678   2.289 -0.2063 -0.4826  0.1326
 2214TIP3    H1 6648   2.690   4.596   2.315 -1.7590  0.0183 -0.6362
 2214TIP3    H2 6649   2.807   4.686   2.347  0.9017 -3.1892 -0.7797
 2215TIP3   OH2 6650   0.389   2.765   1.345 -0.4473 -0.1800  0.0083
 2215TIP3    H1 6651   0.364   2.691   1.400  1.6449 -0.7614  0.2501
 2215TIP3    H2 6652   0.362   2.739   1.257  0.4806 -1.3468  0.0526
 2216TIP3   OH2 6653   0.555   5.493   2.285 -0.1855 -0.0089 -0.1189
 2216TIP3    H1 6654   0.523   5.575   2.321 -0.3736  0.4077 -1.1926
 2216TIP3    H2 6655   0.540   5.428   2.354  0.1937  0.8979  0.8320
 2217TIP3   OH2 6656   4.008   2.295   4.556 -0.3451  0.2551  0.5307
 2217TIP3    H1 6657   3.963   2.298   4.472  0.2768 -0.2620  0.1755
 2217TIP3    H2 6658   3.939   2.312   4.621 -1.3229 -1.6849  0.0831
 2218TIP3   OH2 6659   3.673   4.896   4.490  0.0534 -0.4637 -0.2804
 2218TIP3    H1 6660   3.704   4.986   4.504 -2.0417  0.2184  0.3351
 2218TIP3    H2 6661   3.655   4.863   4.578 -1.8406 -0.4446 -0.6128
 2219TIP3   OH2 6662   4.810   5.388   1.763 -0.3744 -0.8619 -0.4869
 2219TIP3    H1 6663   4.830   5.475   1.798  0.8387 -1.2533 -0.1809
 2219TIP3    H2 6664   4.792   5.404   1.670 -1.3596 -0.1291 -0.1833
 2220TIP3   OH2 6665   4.037   0.184   1.110  0.2110  0.2578  0.4468
 2220TIP3    H1 6666   4.096   0.239   1.060  0.9233 -1.4904 -0.7677
 2220TIP3    H2 6667   3.950   0.223   1.096  0.4302  0.0744 -1.9153
 2221TIP3   OH2 6668   1.507   1.087   4.974 -0.3286 -0.3785 -0.1721
 2221TIP3    H1 6669   1.416   1.108   4.995 -0.1406 -0.0745  0.3589
 2221TIP3    H2 6670   1.556   1.109   5.054  0.2919  0.0155 -0.6517
 2222TIP3   OH2 6671   2.252   5.261   4.165  0.2763  0.0117 -0.7971
 2222TIP3    H1 6672   2.255   5.168   4.143 -1.0920 -0.1771 -0.2704
 2222TIP3    H2 6673   2.163   5.288   4.144 -0.0462  0.6454  1.1675
 2223TIP3   OH2 6674   2.646   5.112   1.045 -0.3603 -0.5685  0.4137
 2223TIP3    H1 6675   2.707   5.122   0.972 -1.4928  1.5161 -0.3598
 2223TIP3    H2 6676   2.598   5.032   1.025  0.0829 -0.6056 -0.5886
 2224TIP3   OH2 6677   2.867   2.897   3.086 -0.0329 -0.8335  0.3818
 2224TIP3    H1 6678   2.945   2.858   3.126 -0.0693  0.2996  1.6449
 2224TIP3    H2 6679   2.794   2.858   3.133 -0.2118 -1.4001 -0.3522
 2225TIP3   OH2 6680   4.170   0.610   4.931  0.3734  0.1434  0.5680
 2225TIP3    H1 6681   4.081   0.586   4.957 -0.8418  0.6717 -2.6159
 2225TIP3    H2 6682   4.218   0.528   4.930 -0.3192 -0.2874  1.5183
 2226TIP3   OH2 6683   0.064   3.247   1.858  0.0987 -0.0518  0.0937
 2226TIP3    H1 6684   0.139   3.186   1.860  0.1023 -0.1046 -0.8596
 2226TIP3    H2 6685   0.087   3.309   1.789 -0.6427  0.0654 -0.0493
 2227TIP3   OH2 6686   2.023   5.525   1.462 -0.5751 -0.0947  0.4457
 2227TIP3    H1 6687   2.069   5.594   1.414 -0.4408 -0.1342  0.5163
 2227TIP3    H2 6688   1.931   5.545   1.449 -0.6301 -1.6901 -2.1941
 2228TIP3   OH2 6689   4.400   2.219   3.104  0.3409  0.7503 -0.0629
 2228TIP3    H1 6690   4.348   2.138   3.098  1.5012 -0.0729  0.6081
 2228TIP3    H2 6691   4.486   2.190   3.136  1.2211  2.0805 -1.1290
 2229TIP3   OH2 6692   0.455   5.171   0.379 -0.1556 -0.3102 -0.1756
 2229TIP3    H1 6693   0.523   5.232   0.351  0.2200  0.1145  1.5619
 2229TIP3    H2 6694   0.476   5.090   0.334  2.4572 -0.6581  1.4420
 2230TIP3   OH2 6695   0.203   4.013   1.619 -0.0051  0.5263 -0.5112
 2230TIP3    H1 6696   0.209   3.946   1.551  0.0589  0.1566 -0.1437
 2230TIP3    H2 6697   0.210   3.964   1.701  0.9445  1.0721 -0.2519
 2231TIP3   OH2 6698   5.729   5.657   3.553 -0.0688  0.2531 -0.2250
 2231TIP3    H1 6699   5.761   5.683   3.639 -0.0206 -0.5408  0.0047
 2231TIP3    H2 6700   5.789   5.588   3.525  0.5987  1.2785 -1.3972
 2232TIP3   OH2 6701   1.410   5.613   0.330  0.5749  0.0113  0.1110
 2232TIP3    H1 6702   1.444   5.661   0.405 -0.3559  0.9655 -0.0577
 2232TIP3    H2 6703   1.420   5.673   0.256  0.0096 -0.3013 -0.2270
 2233TIP3   OH2 6704   0.655   1.789   1.313 -0.5612 -0.1613  0.0477
 2233TIP3    H1 6705   0.599   1.712   1.298 -0.3096 -0.1464 -1.0356
 2233TIP3    H2 6706   0.697   1.772   1.397 -2.2118 -0.1611  0.9085
 2234TIP3   OH2 6707   1.360   0.078   3.303 -0.1457  0.3754  0.4880
 2234TIP3    H1 6708   1.345   0.172   3.300  0.5196  0.4941  0.6916
 2234TIP3    H2 6709   1.420   0.060   3.231  1.0525  0.3795  1.4479
 2235TIP3   OH2 6710   5.126   2.322   4.958 -0.4429  0.1117 -0.7869
 2235TIP3    H1 6711   5.114   2.259   4.888  2.1076 -2.3343  0.7877
 2235TIP3    H2 6712   5.215   2.356   4.946 -0.1253 -0.0004  0.8957
 2236TIP3   OH2 6713   4.783   0.630   3.312 -0.7531  0.1552 -0.2018
 2236TIP3    H1 6714   4.752   0.603   3.226 -0.0138  1.4586 -0.9163
 2236TIP3    H2 6715   4.795   0.725   3.305 -0.6587  0.2946  1.3392
 2237TIP3   OH2 6716   3.622   5.385   2.203 -0.0339  0.3638 -0.0292
 2237TIP3    H1 6717   3.690   5.325   2.172 -0.4753 -0.6430  0.8991
 2237TIP3    H2 6718   3.596   5.350   2.288 -0.2030  1.9702  0.6052
 2238TIP3   OH2 6719   4.303   3.611   4.619  0.2722 -0.1623 -0.3330
 2238TIP3    H1 6720   4.219   3.566   4.634 -0.5467  0.8396 -1.6386
 2238TIP3    H2 6721   4.292   3.654   4.534  2.0556  0.1663 -0.4378
 2239TIP3   OH2 6722   6.253   0.907   3.179  0.1095  0.1710 -0.1932
 2239TIP3    H1 6723   6.328   0.961   3.154  0.4904 -0.6522 -0.9179
 2239TIP3    H2 6724   6.291   0.836   3.231 -0.2047 -0.0641 -0.2780
 2240TIP3   OH2 6725   0.421   1.569   1.986  0.5513  0.3146 -0.0830
 2240TIP3    H1 6726   0.419   1.640   2.050  0.2775  0.3960 -0.1825
 2240TIP3    H2 6727   0.336   1.526   1.995  0.9323 -0.3695  0.3878
 2241TIP3   OH2 6728   0.310   1.178   5.010 -0.4372 -0.2996 -0.0804
 2241TIP3    H1 6729   0.387   1.231   4.988 -0.8012  0.5576  0.6401
 2241TIP3    H2 6730   0.308   1.179   5.106 -1.4260 -0.1950 -0.0983
 2242TIP3   OH2 6731   1.031   1.892   4.991  0.5127 -0.3512 -0.2345
 2242TIP3    H1 6732   1.026   1.968   5.049 -2.1754 -1.0826  0.6553
 2242TIP3    H2 6733   1.093   1.833   5.033 -0.0056 -0.0851  0.9254
 2243TIP3   OH2 6734   6.342   5.110   4.717  0.1865  0.3412 -0.5807
 2243TIP3    H1 6735   6.354   5.201   4.746  0.6825 -0.1930  0.9750
 2243TIP3    H2 6736   6.248   5.101   4.705  0.2138  1.3545 -1.8152
 2244TIP3   OH2 6737   4.309   5.378   4.806 -0.5286 -0.4966  0.5154
 2244TIP3    H1 6738   4.354   5.372   4.890 -0.2249 -0.1999  0.3722
 2244TIP3    H2 6739   4.310   5.471   4.784 -0.9237 -0.5283  0.3546
 2245TIP3   OH2 6740   0.300   3.540   2.220  0.1255 -0.1824 -0.0171
 2245TIP3    H1 6741   0.233   3.554   2.154  2.4306  2.1656 -2.1046
 2245TIP3    H2 6742   0.323   3.447   2.212 -4.0726 -1.6810  2.2545
 2246TIP3   OH2 6743   5.442   1.649   0.948 -0.0183 -0.1663 -0.1283
 2246TIP3    H1 6744   5.498   1.722   0.920 -1.6362  0.7211 -1.1614
 2246TIP3    H2 6745   5.396   1.683   1.025 -0.2775 -0.3440 -0.2069
 2247TIP3   OH2 6746   5.975   4.762   1.468 -0.4783  0.1875  0.4926
 2247TIP3    H1 6747   6.063   4.725   1.479  0.0324  0.7643 -1.2759
 2247TIP3    H2 6748   5.922   4.690   1.434 -0.4489  0.0727  0.6944
 2248TIP3   OH2 6749   1.448   4.666   4.439  0.0912 -0.1013 -0.0976
 2248TIP3    H1 6750   1.468   4.578   4.408 -1.5540 -0.4827 -0.1820
 2248TIP3    H2 6751   1.383   4.653   4.508 -0.0173  1.0296  0.0321
 2249TIP3   OH2 6752   1.917   0.341   3.571 -0.0298 -0.0062 -0.3407
 2249TIP3    H1 6753   1.980   0.333   3.499  0.1142  1.2563 -0.3834
 2249TIP3    H2 6754   1.914   0.435   3.590 -2.3816  0.0846 -0.7783
 2250TIP3   OH2 6755   1.635   1.187   3.297 -0.0814  0.2486 -0.7858
 2250TIP3    H1 6756   1.561   1.241   3.270 -0.2015 -0.2644 -1.5145
 2250TIP3    H2 6757   1.710   1.223   3.251 -0.1885 -0.2880 -1.3928
 2251TIP3   OH2 6758   2.954   1.155   0.922  0.1884 -0.2484 -0.6326
 2251TIP3    H1 6759   2.972   1.200   0.840  0.9097 -0.5365 -0.6418
 2251TIP3    H2 6760   2.893   1.086   0.899  0.1394 -0.1274 -0.8692
 2252TIP3   OH2 6761   1.843   0.997   4.386  0.1721  0.3867 -0.4043
 2252TIP3    H1 6762   1.836   0.945   4.466  1.2103  0.7937 -0.0322
 2252TIP3    H2 6763   1.767   1.056   4.389 -1.6543 -1.7739 -1.3808
 2253TIP3   OH2 6764   5.345   4.187   0.695 -0.2212 -0.0261 -0.4496
 2253TIP3    H1 6765   5.285   4.173   0.622 -1.0656  0.2983  0.1640
 2253TIP3    H2 6766   5.432   4.187   0.655 -0.7405  1.5581 -1.6725
 2254TIP3   OH2 6767   0.436   2.846   1.847  0.4457  0.4155  0.0255
 2254TIP3    H1 6768   0.415   2.770   1.793 -0.1340 -0.1033  0.9550
 2254TIP3    H2 6769   0.529   2.861   1.831  0.7676 -0.9818  0.3963
 2255TIP3   OH2 6770   4.701   2.591   1.836 -0.2014  0.2539 -0.1716
 2255TIP3    H1 6771   4.648   2.540   1.897  0.0283 -0.0769 -0.2450
 2255TIP3    H2 6772   4.675   2.681   1.851 -1.3531  0.0329 -0.7560
 2256TIP3   OH2 6773   2.530   4.968   4.089  0.2468  0.4367 -0.2071
 2256TIP3    H1 6774   2.529   5.064   4.092 -0.9884  0.4578 -0.9783
 2256TIP3    H2 6775   2.545   4.947   3.997  2.9523 -0.1590  0.2644
 2257TIP3   OH2 6776   4.572   4.175   2.982 -0.0151 -0.0578 -0.0815
 2257TIP3    H1 6777   4.501   4.113   3.000 -0.5955  0.5160 -0.3518
 2257TIP3    H2 6778   4.651   4.131   3.015 -0.6830 -0.0949  1.5793
 2258TIP3   OH2 6779   5.955   3.362   3.389 -0.2974  0.8201 -0.4051
 2258TIP3    H1 6780   5.932   3.454   3.379 -0.1657  0.8587 -0.3536
 2258TIP3    H2 6781   5.957   3.348   3.483  0.6413  1.0122 -0.3812
 2259TIP3   OH2 6782   0.578   2.766   3.885  1.0085 -0.2536 -0.0642
 2259TIP3    H1 6783   0.662   2.785   3.926  1.4001 -1.9662 -0.0100
 2259TIP3    H2 6784   0.541   2.694   3.937 -0.8366  0.9234  0.3513
 2260TIP3   OH2 6785   2.315   5.593   5.212  0.1053 -0.5907  0.3904
 2260TIP3    H1 6786   2.384   5.592   5.145  0.9424 -0.7040  1.2386
 2260TIP3    H2 6787   2.237   5.622   5.165  0.7425 -0.3840 -0.5733
 2261TIP3   OH2 6788   2.508   0.364   2.657  0.3640 -1.1042 -0.3714
 2261TIP3    H1 6789   2.420   0.334   2.683  0.1723 -0.5638 -0.3778
 2261TIP3    H2 6790   2.493   0.453   2.623  1.2989  0.1778  2.3414
 2262TIP3   OH2 6791   0.538   0.597   4.666 -0.0274 -0.1441 -0.4788
 2262TIP3    H1 6792   0.560   0.689   4.674 -0.6075  0.0054 -0.5544
 2262TIP3    H2 6793   0.486   0.591   4.585 -1.6711 -0.2052  0.5415
 2263TIP3   OH2 6794   3.528   2.228   0.746 -0.1377  0.5938  0.2754
 2263TIP3    H1 6795   3.620   2.237   0.723 -0.4094 -1.7862 -2.1418
 2263TIP3    H2 6796   3.485   2.302   0.702  0.3815  0.5279 -0.3575
 2264TIP3   OH2 6797   1.627   5.492   2.212  0.0547  0.0444  0.4695
 2264TIP3    H1 6798   1.636   5.398   2.231 -0.3355 -0.7911 -2.8347
 2264TIP3    H2 6799   1.541   5.501   2.172  0.1565  1.7839  0.5582
 2265TIP3   OH2 6800   5.370   0.639   1.523  0.2928  0.5893  0.3917
 2265TIP3    H1 6801   5.322   0.721   1.535 -1.2522 -0.3246  0.8088
 2265TIP3    H2 6802   5.344   0.585   1.598  0.6460 -0.5799 -0.2984
 2266TIP3   OH2 6803   4.509   2.684   1.539 -0.1046  0.1648  0.5224
 2266TIP3    H1 6804   4.498   2.594   1.509 -0.9423  0.1259  0.9012
 2266TIP3    H2 6805   4.489   2.680   1.632  1.4430  0.4669  0.8987
 2267TIP3   OH2 6806   1.911   4.865   2.782  0.1239 -0.3082  0.1402
 2267TIP3    H1 6807   1.848   4.840   2.850  1.2881 -2.0040  0.6568
 2267TIP3    H2 6808   1.907   4.793   2.718  0.4574  0.3113 -0.5880
 2268TIP3   OH2 6809   3.506   1.663   0.900 -0.6635 -0.5546  0.6640
 2268TIP3    H1 6810   3.543   1.579   0.928 -2.0425 -1.4265 -0.0249
 2268TIP3    H2 6811   3.581   1.721   0.895  0.4921 -2.0151  0.2006
 2269TIP3   OH2 6812   0.908   1.959   3.851  0.4970 -0.7215 -0.0616
 2269TIP3    H1 6813   0.958   1.899   3.906 -0.8369 -1.4607  0.3851
 2269TIP3    H2 6814   0.939   1.940   3.762  0.9815 -1.1755  0.1945
 2270TIP3   OH2 6815   1.279   2.717   0.257  0.4462 -0.8437 -0.4976
 2270TIP3    H1 6816   1.323   2.634   0.274  1.3165 -0.4149 -0.6369
 2270TIP3    H2 6817   1.348   2.783   0.262  0.2892 -0.4039 -3.1158
 2271TIP3   OH2 6818   2.336   2.903   0.550 -0.2406  0.0147 -0.0123
 2271TIP3    H1 6819   2.297   2.817   0.560 -2.0342  0.9184  1.2303
 2271TIP3    H2 6820   2.393   2.913   0.627 -1.7915  0.7718  1.0928
 2272TIP3   OH2 6821   0.637   3.142   5.183  0.4867  0.1125  0.0154
 2272TIP3    H1 6822   0.725   3.103   5.179  0.3242 -0.2004 -2.6682
 2272TIP3    H2 6823   0.592   3.106   5.106 -2.0512  0.2030  1.3645
 2273TIP3   OH2 6824   2.433   4.746   0.613  0.1428 -0.2530  0.0627
 2273TIP3    H1 6825   2.432   4.692   0.691  2.9981  0.0705  0.3979
 2273TIP3    H2 6826   2.408   4.686   0.542 -0.2872 -1.0842  0.8935
 2274TIP3   OH2 6827   3.671   5.502   1.660  0.1423 -0.3092  0.0422
 2274TIP3    H1 6828   3.757   5.542   1.648  0.9218 -1.7595  0.4702
 2274TIP3    H2 6829   3.609   5.574   1.655  1.3515  0.6993 -0.7500
 2275TIP3   OH2 6830   5.255   0.746   4.355 -0.8363  0.1405  0.5365
 2275TIP3    H1 6831   5.312   0.685   4.308  0.5208  1.2040  0.7377
 2275TIP3    H2 6832   5.209   0.691   4.419  1.2781 -0.5551  1.5754
 2276TIP3   OH2 6833   0.478   0.216   4.160  0.5457  0.3109 -0.1008
 2276TIP3    H1 6834   0.391   0.202   4.198  1.6210  0.0866  2.4568
 2276TIP3    H2 6835   0.471   0.181   4.071 -1.5609 -1.0948  0.5354
 2277TIP3   OH2 6836   1.255   5.347   0.695 -0.0338 -0.0162 -0.5850
 2277TIP3    H1 6837   1.178   5.370   0.643 -0.5057 -1.3582 -0.5127
 2277TIP3    H2 6838   1.225   5.352   0.786  0.4749  1.1883 -0.4580
 2278TIP3   OH2 6839   4.070   0.779   0.043  0.1892  0.1503 -0.7284
 2278TIP3    H1 6840   4.138   0.749  -0.017  0.1551  1.9555 -1.7673
 2278TIP3    H2 6841   4.040   0.862   0.005 -2.0864 -0.2213  0.0856
 2279TIP3   OH2 6842   4.389   3.056   1.220 -0.0460  0.1321  0.1965
 2279TIP3    H1 6843   4.323   3.075   1.286 -0.3581  3.0449 -0.8117
 2279TIP3    H2 6844   4.348   2.989   1.164 -1.9455  1.4072 -0.0365
 2280TIP3   OH2 6845   5.373   5.738   2.698 -0.3703 -0.5023  0.1044
 2280TIP3    H1 6846   5.385   5.740   2.793 -0.1753  1.2159  0.0725
 2280TIP3    H2 6847   5.443   5.794   2.664 -2.2643  1.4659 -0.8065
 2281TIP3   OH2 6848   0.065   3.093   2.823  0.3081  0.1196 -0.1522
 2281TIP3    H1 6849   0.112   3.148   2.884 -0.6869 -0.4785  1.2052
 2281TIP3    H2 6850   0.079   3.004   2.855 -0.6764 -0.1613 -0.4543
 2282TIP3   OH2 6851   2.995   1.991   3.375  0.0088 -0.3933  0.3306
 2282TIP3    H1 6852   2.911   2.024   3.344  0.5184 -1.3780 -2.3500
 2282TIP3    H2 6853   2.985   1.896   3.375  0.5874 -0.4722  1.6944
 2283TIP3   OH2 6854   1.078   0.494   0.446  0.2089 -0.3719  0.3093
 2283TIP3    H1 6855   1.064   0.409   0.403 -1.7355 -0.9247  1.8412
 2283TIP3    H2 6856   0.990   0.532   0.451  0.5893  0.3782  2.2679
 2284TIP3   OH2 6857   2.430   0.039   3.874  0.6163  0.6436  0.1706
 2284TIP3    H1 6858   2.472  -0.025   3.817 -0.2045 -0.5165  0.8395
 2284TIP3    H2 6859   2.399  -0.011   3.949 -0.9480  1.6449  0.2372
 2285TIP3   OH2 6860   5.585   2.047   1.174 -0.0697 -0.1025  0.5306
 2285TIP3    H1 6861   5.495   2.035   1.204  1.4651 -1.7270  5.3211
 2285TIP3    H2 6862   5.614   1.958   1.152  0.3466  0.4795 -1.5230
 2286TIP3   OH2 6863   0.610   2.257   1.427 -0.1633  0.1431 -0.2189
 2286TIP3    H1 6864   0.645   2.174   1.394 -0.1696 -0.2673  0.7695
 2286TIP3    H2 6865   0.681   2.294   1.480  0.6267  1.8183 -2.3033
 2287TIP3   OH2 6866   0.518   4.621   4.974 -0.5075 -0.3750 -0.1841
 2287TIP3    H1 6867   0.426   4.612   4.947 -0.8118  2.1622 -0.2452
 2287TIP3    H2 6868   0.568   4.614   4.893 -0.6704 -1.4209 -0.1982
 2288TIP3   OH2 6869   6.280   2.143   1.623 -0.6015 -0.2767  0.3517
 2288TIP3    H1 6870   6.316   2.201   1.691 -1.7068  0.4549  0.3301
 2288TIP3    H2 6871   6.223   2.083   1.671 -1.6266  0.4375  0.0597
 2289TIP3   OH2 6872   0.196   5.167   3.271 -0.1824 -0.2354 -0.6892
 2289TIP3    H1 6873   0.192   5.209   3.357  2.5850 -1.4782  0.1938
 2289TIP3    H2 6874   0.242   5.229   3.216  1.3855 -0.8570 -0.1583
 2290TIP3   OH2 6875   2.471   3.633   2.149 -0.5787  0.3801 -0.2691
 2290TIP3    H1 6876   2.556   3.590   2.157 -0.3562  0.3351 -2.3811
 2290TIP3    H2 6877   2.492   3.727   2.148 -0.4096  0.3541 -1.7180
 2291TIP3   OH2 6878   3.385   1.353   2.517  0.3082 -0.3746 -0.1905
 2291TIP3    H1 6879   3.414   1.274   2.472  0.5575 -0.2631 -0.2282
 2291TIP3    H2 6880   3.313   1.387   2.463 -0.0228 -0.7576  0.0084
 2292TIP3   OH2 6881   1.819   1.197   0.887 -0.3321 -0.1972  0.2331
 2292TIP3    H1 6882   1.747   1.259   0.902  0.7685  1.0883  0.4137
 2292TIP3    H2 6883   1.788   1.141   0.816 -1.0949  1.0279 -0.4404
 2293TIP3   OH2 6884   3.451   3.432   1.780 -0.4730  0.1215  0.3872
 2293TIP3    H1 6885   3.378   3.375   1.756 -0.3998 -0.5766  1.7345
 2293TIP3    H2 6886   3.411   3.518   1.794 -0.6977  0.2530 -0.9116
 2294TIP3   OH2 6887   4.644   0.286   2.220 -0.0527  0.5166  0.3280
 2294TIP3    H1 6888   4.707   0.352   2.192  0.9918 -1.5057 -2.5360
 2294TIP3    H2 6889   4.561   0.316   2.183  0.6988 -0.4129 -2.3239
 2295TIP3   OH2 6890   0.794   1.593   1.822  0.3120  0.0999  0.1929
 2295TIP3    H1 6891   0.784   1.664   1.885 -0.3564 -0.2980  0.5446
 2295TIP3    H2 6892   0.834   1.522   1.872  0.0077 -0.1327  0.1100
 2296TIP3   OH2 6893   5.884   3.715   2.357  0.0416 -0.0040 -0.8519
 2296TIP3    H1 6894   5.818   3.739   2.422 -2.6314 -2.4032 -2.4543
 2296TIP3    H2 6895   5.869   3.776   2.285  0.4622  0.2476 -0.7302
 2297TIP3   OH2 6896   1.695   4.358   2.848 -0.4861 -0.6312 -0.3761
 2297TIP3    H1 6897   1.762   4.405   2.898 -0.6498 -0.1564 -0.6009
 2297TIP3    H2 6898   1.665   4.420   2.782 -1.4412 -0.6910 -0.0232
 2298TIP3   OH2 6899   2.159   5.871   2.637  0.4977 -0.2426  0.6606
 2298TIP3    H1 6900   2.197   5.784   2.655 -0.3996 -0.7101  0.3595
 2298TIP3    H2 6901   2.088   5.853   2.576  1.0064  0.8551 -0.2888
 2299TIP3   OH2 6902   2.430   4.973   4.405  0.4762 -0.4600 -1.1663
 2299TIP3    H1 6903   2.449   4.888   4.445 -0.5486 -0.0614  0.2190
 2299TIP3    H2 6904   2.512   5.022   4.412 -0.1235  0.2580  2.2191
 2300TIP3   OH2 6905  -0.008   3.642   3.829 -0.3665  0.1251  0.0973
 2300TIP3    H1 6906   0.063   3.662   3.890 -0.3831 -0.0940  0.1907
 2300TIP3    H2 6907  -0.027   3.725   3.786 -0.1638  0.2197  0.1887
 2301TIP3   OH2 6908   5.588   1.703   3.166  0.0598 -0.2157  0.3673
 2301TIP3    H1 6909   5.673   1.688   3.125  1.2782  0.3708  2.5202
 2301TIP3    H2 6910   5.566   1.620   3.209 -0.8808 -0.6197 -0.8468
 2302TIP3   OH2 6911   1.466   2.045   1.988  0.5382 -0.2010  0.1434
 2302TIP3    H1 6912   1.500   1.983   1.923 -1.2929 -1.2440  0.1038
 2302TIP3    H2 6913   1.406   2.100   1.939 -0.9802 -1.0923  0.9148
 2303TIP3   OH2 6914   3.355   5.527   0.197  0.1373  0.5997 -0.2736
 2303TIP3    H1 6915   3.394   5.555   0.115  1.8029  1.6634  0.8263
 2303TIP3    H2 6916   3.366   5.431   0.198  0.0473  0.5712 -1.2905
 2304TIP3   OH2 6917   1.277   3.186   4.797 -0.1110  1.0213 -0.0775
 2304TIP3    H1 6918   1.324   3.103   4.792 -0.6147  0.7874 -1.0672
 2304TIP3    H2 6919   1.220   3.175   4.874 -0.9616  0.0181 -0.8158
 2305TIP3   OH2 6920   4.513   2.049   1.412  0.1185 -0.2528  0.0849
 2305TIP3    H1 6921   4.439   2.066   1.471  0.2085 -1.6618  0.6531
 2305TIP3    H2 6922   4.490   2.093   1.331 -1.2914 -0.5563  0.2973
 2306TIP3   OH2 6923   2.438   5.158   0.061 -0.3719  0.0715  0.6122
 2306TIP3    H1 6924   2.472   5.224   0.001 -1.6241  0.0215 -0.1866
 2306TIP3    H2 6925   2.468   5.187   0.147  1.8985 -0.1341 -0.0322
 2307TIP3   OH2 6926   3.409   0.240   2.907 -0.0707  0.0049  0.2218
 2307TIP3    H1 6927   3.366   0.250   2.822 -1.0882  2.2328  0.9167
 2307TIP3    H2 6928   3.439   0.328   2.929  1.4355 -0.7981  1.5445
 2308TIP3   OH2 6929   3.493   4.126   3.698 -0.0687 -0.1353  0.3037
 2308TIP3    H1 6930   3.548   4.101   3.772  0.4858  1.1611  0.3715
 2308TIP3    H2 6931   3.532   4.208   3.666  0.9132 -1.6030 -2.6402
 2309TIP3   OH2 6932   4.774   0.098   0.977 -0.1433 -0.0086  0.3831
 2309TIP3    H1 6933   4.700   0.158   0.985  0.3701  0.8105 -0.7066
 2309TIP3    H2 6934   4.820   0.128   0.898  1.9788  0.2003  1.6259
 2310TIP3   OH2 6935   1.571   0.180   2.633  0.0360  0.3268  0.1809
 2310TIP3    H1 6936   1.523   0.174   2.716  1.2554 -0.7903  0.8395
 2310TIP3    H2 6937   1.660   0.203   2.658  0.1385  1.2471 -0.9405
 2311TIP3   OH2 6938   2.529   4.405   4.840 -0.4642 -0.6636 -0.5546
 2311TIP3    H1 6939   2.548   4.468   4.771 -0.1499 -0.0382  0.0829
 2311TIP3    H2 6940   2.590   4.333   4.824  1.1272  0.4312  0.2861
 2312TIP3   OH2 6941   4.652   0.883   3.597 -0.0154  0.0448 -0.0620
 2312TIP3    H1 6942   4.580   0.945   3.584 -0.9217 -1.0334 -0.2509
 2312TIP3    H2 6943   4.726   0.938   3.625 -1.1597  1.0699  1.0682
 2313TIP3   OH2 6944   2.736   4.535   4.428  0.0389  0.0158 -0.9751
 2313TIP3    H1 6945   2.662   4.542   4.368  0.2684 -0.9446 -1.3941
 2313TIP3    H2 6946   2.789   4.462   4.394  0.4686 -0.1952  0.0687
 2314TIP3   OH2 6947   0.718   3.835   1.059 -0.0468 -0.0457  0.4908
 2314TIP3    H1 6948   0.631   3.865   1.085 -0.1537  0.5708 -0.5349
 2314TIP3    H2 6949   0.714   3.739   1.069 -0.3080  0.0909  1.9760
 2315TIP3   OH2 6950   1.299   4.589   3.721  0.0623 -0.0289  0.5302
 2315TIP3    H1 6951   1.307   4.647   3.797  1.2237  0.7158 -0.1199
 2315TIP3    H2 6952   1.390   4.566   3.699 -0.2493 -0.2205 -0.6322
 2316TIP3   OH2 6953   0.330   4.793   2.397  0.1773 -0.7775  0.2805
 2316TIP3    H1 6954   0.238   4.798   2.421 -0.0586 -1.2247 -0.5234
 2316TIP3    H2 6955   0.335   4.830   2.309  1.1041  1.1976  1.1137
 2317TIP3   OH2 6956   5.106   0.041   2.348  0.2076  0.1055  0.0476
 2317TIP3    H1 6957   5.086   0.058   2.440 -1.2279  0.1010 -0.2318
 2317TIP3    H2 6958   5.036  -0.018   2.318 -0.1171  1.1426 -1.3702
 2318TIP3   OH2 6959   4.134   4.989   0.229  0.1155 -0.6330 -0.3998
 2318TIP3    H1 6960   4.082   4.925   0.180 -0.5631  0.1955 -0.7782
 2318TIP3    H2 6961   4.074   5.022   0.296  0.3057 -0.0100 -0.5397
 2319TIP3   OH2 6962   0.784   0.222   0.636 -0.2466  0.6980  0.4733
 2319TIP3    H1 6963   0.844   0.179   0.574 -1.6388 -0.1955 -0.3147
 2319TIP3    H2 6964   0.771   0.310   0.600  0.7515  0.9821  0.7811
 2320TIP3   OH2 6965   1.671   6.019   3.930 -0.5489  0.4922  0.0279
 2320TIP3    H1 6966   1.718   6.022   3.847  0.8791 -2.3364  0.6320
 2320TIP3    H2 6967   1.653   5.926   3.944 -0.9615  0.9115  2.7643
 2321TIP3   OH2 6968   6.299   0.243   1.154 -0.1329  0.0321 -0.7254
 2321TIP3    H1 6969   6.285   0.162   1.204  1.0839 -0.1411 -0.6380
 2321TIP3    H2 6970   6.235   0.304   1.189 -1.9341 -1.2365 -1.6331
 2322TIP3   OH2 6971   5.823   1.781   0.361  0.6881 -0.5662  0.2112
 2322TIP3    H1 6972   5.742   1.831   0.371 -0.5350 -2.6751  1.5543
 2322TIP3    H2 6973   5.840   1.781   0.267 -0.7650  0.0918 -0.0760
 2323TIP3   OH2 6974   0.089   4.349   4.612 -0.3480 -0.6216  0.0425
 2323TIP3    H1 6975  -0.001   4.338   4.582 -0.5094  0.5569  0.0405
 2323TIP3    H2 6976   0.093   4.301   4.695 -0.7117 -1.4537 -0.4157
 2324TIP3   OH2 6977   1.357   2.387   3.512 -0.0049  0.4943  0.6235
 2324TIP3    H1 6978   1.430   2.386   3.451  0.9417 -0.0257  1.7150
 2324TIP3    H2 6979   1.279   2.393   3.457  0.7482 -0.9772 -0.6915
 2325TIP3   OH2 6980   1.741   1.642   2.256 -0.5257  0.2732  0.3810
 2325TIP3    H1 6981   1.803   1.680   2.319  0.1242 -1.5214  0.8765
 2325TIP3    H2 6982   1.723   1.554   2.290 -1.3683 -0.1677 -1.1313
 2326TIP3   OH2 6983   5.987   0.978   3.188 -0.2818  0.1815  0.6321
 2326TIP3    H1 6984   6.074   0.956   3.154 -0.9411 -0.2274 -0.8788
 2326TIP3    H2 6985   5.993   0.962   3.282  1.4374  0.6964  0.6432
 2327TIP3   OH2 6986   2.094   0.475   3.367 -0.5194  0.3647  0.2677
 2327TIP3    H1 6987   2.063   0.407   3.306  1.4543 -0.5634  0.2107
 2327TIP3    H2 6988   2.159   0.523   3.317  0.3639  0.2715  1.3133
 2328TIP3   OH2 6989   2.356   5.974   1.175  0.1165  0.0741 -0.1332
 2328TIP3    H1 6990   2.267   5.983   1.142  0.3724  3.3737 -0.3276
 2328TIP3    H2 6991   2.353   6.013   1.262  1.4962  1.0667 -0.4971
 2329TIP3   OH2 6992   0.125   4.223   0.084 -0.2109  0.3923 -0.5300
 2329TIP3    H1 6993   0.139   4.155   0.018  2.0180  0.6883 -0.4325
 2329TIP3    H2 6994   0.106   4.175   0.164 -2.2306  0.0131 -1.1791
 2330TIP3   OH2 6995   5.237   3.896   3.493 -0.4458  0.0171  0.2747
 2330TIP3    H1 6996   5.191   3.930   3.570 -2.1109 -1.0694 -0.1800
 2330TIP3    H2 6997   5.175   3.835   3.453 -0.1246  1.4557 -2.6565
 2331TIP3   OH2 6998   0.299   0.700   0.040 -0.0933  0.4158  0.1150
 2331TIP3    H1 6999   0.331   0.780   0.082 -0.3310 -0.6257  2.4371
 2331TIP3    H2 7000   0.353   0.630   0.076 -1.3547 -0.7281 -0.1041
 2332TIP3   OH2 7001   1.830   3.389   2.537  0.5345  0.2229 -0.1558
 2332TIP3    H1 7002   1.901   3.359   2.481 -0.8207 -0.7351 -1.4351
 2332TIP3    H2 7003   1.773   3.313   2.547 -0.9222  1.2709 -0.1598
 2333TIP3   OH2 7004   0.436   2.190   4.992 -0.3078 -0.1415  0.0106
 2333TIP3    H1 7005   0.437   2.264   4.930  0.5035 -0.3336 -0.2177
 2333TIP3    H2 7006   0.373   2.129   4.954 -1.0931  0.4911  0.2746
 2334TIP3   OH2 7007   4.131   0.298   3.116  0.1813  0.0509  0.2507
 2334TIP3    H1 7008   4.063   0.362   3.095 -0.0196 -0.3370 -0.2918
 2334TIP3    H2 7009   4.161   0.323   3.204 -0.7760  0.1215  0.5650
 2335TIP3   OH2 7010   1.370   2.914   4.773 -0.6377 -0.6988  0.4284
 2335TIP3    H1 7011   1.464   2.915   4.789 -0.4697 -3.1960  0.0564
 2335TIP3    H2 7012   1.332   2.881   4.854 -1.1012 -0.6314  0.2441
 2336TIP3   OH2 7013   5.728   1.430   0.179  0.9226  0.2177 -0.0819
 2336TIP3    H1 7014   5.684   1.373   0.242 -0.1688  0.1114 -0.9129
 2336TIP3    H2 7015   5.659   1.457   0.119  1.7418  1.1505 -0.6304
 2337TIP3   OH2 7016   4.743   4.894   1.935 -0.3079  0.0661 -0.2605
 2337TIP3    H1 7017   4.755   4.982   1.971 -0.8147  0.1446 -0.2851
 2337TIP3    H2 7018   4.805   4.890   1.861 -0.0044  0.2599 -0.0183
 2338TIP3   OH2 7019   0.205   4.591   5.154  0.2985  0.0135 -0.1430
 2338TIP3    H1 7020   0.226   4.508   5.112 -0.2650  0.4139 -1.2542
 2338TIP3    H2 7021   0.112   4.604   5.136  0.9054  2.0913 -2.2503
 2339TIP3   OH2 7022   2.925   0.677   3.714 -0.2122 -0.4859 -0.2323
 2339TIP3    H1 7023   3.012   0.711   3.732  0.2059 -2.6978  2.6607
 2339TIP3    H2 7024   2.931   0.584   3.735 -3.4393 -0.5610  0.9386
 2340TIP3   OH2 7025   2.650   3.496   0.507  0.1412 -0.1318  0.0317
 2340TIP3    H1 7026   2.582   3.492   0.574  0.0196 -0.2672 -0.0994
 2340TIP3    H2 7027   2.715   3.556   0.543 -0.6548  1.0218 -0.4181
 2341TIP3   OH2 7028   5.686   0.099   4.865  0.0760 -0.0464  0.2558
 2341TIP3    H1 7029   5.690   0.018   4.813 -2.4362  0.7780 -1.4599
 2341TIP3    H2 7030   5.775   0.111   4.898  1.3025 -1.8586 -2.0282
 2342TIP3   OH2 7031   5.391   0.089   4.360  0.2577 -0.6829  0.0620
 2342TIP3    H1 7032   5.409   0.077   4.266  0.6904 -0.7649  0.1537
 2342TIP3    H2 7033   5.307   0.046   4.373  0.5656 -1.3719 -0.1367
 2343TIP3   OH2 7034   3.581   3.030   1.978  0.2123  0.0033  0.6440
 2343TIP3    H1 7035   3.518   3.092   1.942 -1.0234 -1.9694 -0.7752
 2343TIP3    H2 7036   3.661   3.081   1.991 -0.6374  1.7880 -0.7852
 2344TIP3   OH2 7037   6.204   3.399   3.650 -0.2312 -0.1903 -0.7179
 2344TIP3    H1 7038   6.280   3.406   3.708 -1.7146  0.9939  1.1859
 2344TIP3    H2 7039   6.225   3.457   3.577  0.0576  1.3834  0.5675
 2345TIP3   OH2 7040   1.259   5.974   4.689  0.0165 -0.1575 -0.1619
 2345TIP3    H1 7041   1.221   6.061   4.692 -1.2792 -0.7260  2.0897
 2345TIP3    H2 7042   1.184   5.915   4.678  0.5756 -1.1121  0.8800
 2346TIP3   OH2 7043   3.793   0.314   1.075 -0.3992  0.1763 -0.1811
 2346TIP3    H1 7044   3.710   0.357   1.096 -0.9160 -1.3057  1.0143
 2346TIP3    H2 7045   3.817   0.348   0.989 -1.5863  1.5905  0.0140
 2347TIP3   OH2 7046   2.072   1.797   5.089  0.1758  0.5515 -0.2852
 2347TIP3    H1 7047   1.981   1.826   5.079  0.5152  1.7314 -0.0108
 2347TIP3    H2 7048   2.106   1.791   5.000 -0.6352 -1.5352 -0.5260
 2348TIP3   OH2 7049   6.091   2.759   3.609  0.1769  0.4340 -0.1110
 2348TIP3    H1 7050   6.180   2.723   3.603 -0.5622 -1.3919 -1.1350
 2348TIP3    H2 7051   6.039   2.687   3.646 -0.6615  1.9293  1.7577
 2349TIP3   OH2 7052   3.612   2.664   0.219 -0.0796  0.2519  0.3487
 2349TIP3    H1 7053   3.543   2.668   0.153 -1.8206  3.2626  2.1440
 2349TIP3    H2 7054   3.593   2.585   0.269  0.3785 -1.2467 -1.6880
 2350TIP3   OH2 7055   5.037   0.240   4.426  0.9002 -0.0757 -0.2772
 2350TIP3    H1 7056   5.113   0.286   4.463  1.0862 -0.7436  0.1918
 2350TIP3    H2 7057   5.057   0.147   4.439  0.1611 -0.2687 -0.4749
 2351TIP3   OH2 7058   3.230   4.923   0.717 -0.0449 -0.5219 -0.2147
 2351TIP3    H1 7059   3.200   5.001   0.669  1.3921 -0.1394 -0.5191
 2351TIP3    H2 7060   3.325   4.933   0.723 -0.0619 -1.1722  1.6742
 2352TIP3   OH2 7061   1.852   3.569   1.541 -0.1323 -0.1453  0.3911
 2352TIP3    H1 7062   1.914   3.498   1.558  1.1438  0.8628  0.1116
 2352TIP3    H2 7063   1.770   3.539   1.579 -0.0310 -2.4115 -1.0228
 2353TIP3   OH2 7064   4.781   4.929   4.713 -0.0827 -0.2836  0.4221
 2353TIP3    H1 7065   4.844   4.940   4.642 -1.2754  0.6280 -0.5468
 2353TIP3    H2 7066   4.830   4.951   4.792  0.7420  0.7327 -0.3360
 2354TIP3   OH2 7067   2.362   0.289   3.809  0.4846 -0.1279 -0.0199
 2354TIP3    H1 7068   2.383   0.199   3.835 -0.1785  0.0325  1.1490
 2354TIP3    H2 7069   2.420   0.307   3.735 -1.1116 -2.3922 -2.0118
 2355TIP3   OH2 7070   5.455   4.508   1.790  0.3918  0.3037  0.2984
 2355TIP3    H1 7071   5.371   4.550   1.811 -0.7709 -0.4080 -2.4619
 2355TIP3    H2 7072   5.441   4.415   1.808  0.9167  0.3023  0.7149
 2356TIP3   OH2 7073   1.475   0.463   1.956  0.5500  0.4620 -0.1017
 2356TIP3    H1 7074   1.495   0.484   2.047 -0.3307 -0.6667  0.3738
 2356TIP3    H2 7075   1.532   0.389   1.935 -1.5366 -1.4557  0.6277
 2357TIP3   OH2 7076   1.403   0.707   1.829 -0.3490 -0.2126 -0.1765
 2357TIP3    H1 7077   1.379   0.765   1.901  1.6318  2.0299 -1.1564
 2357TIP3    H2 7078   1.450   0.635   1.871 -0.8273  0.0939  0.9196
 2358TIP3   OH2 7079   2.328   5.017   0.592 -0.5544 -0.1911 -0.4714
 2358TIP3    H1 7080   2.326   4.921   0.601  1.1486 -0.2407 -0.3261
 2358TIP3    H2 7081   2.387   5.046   0.661 -0.4905  0.9055 -0.9714
 2359TIP3   OH2 7082   0.519   1.909   1.060 -0.0436 -0.0739 -0.3976
 2359TIP3    H1 7083   0.453   1.857   1.016  0.9077 -2.4379  0.7995
 2359TIP3    H2 7084   0.540   1.860   1.139  1.1610  1.9992  0.6648
 2360TIP3   OH2 7085   5.220   1.078   0.428  0.1781 -0.0696  0.1726
 2360TIP3    H1 7086   5.302   1.099   0.473  0.0852  2.1588 -0.5816
 2360TIP3    H2 7087   5.152   1.104   0.490  0.0642  1.0588 -0.3946
 2361TIP3   OH2 7088   3.613   0.856   3.398  0.3765 -0.0626  0.0371
 2361TIP3    H1 7089   3.687   0.861   3.337  0.8264  1.3363  0.6596
 2361TIP3    H2 7090   3.593   0.762   3.403  0.8332 -0.2925 -1.6373
 2362TIP3   OH2 7091   2.272   4.315   3.142  0.6439 -0.2929  0.1056
 2362TIP3    H1 7092   2.365   4.312   3.124  0.3598 -1.2321 -1.3140
 2362TIP3    H2 7093   2.258   4.401   3.181  2.0882 -0.1462  0.3416
 2363TIP3   OH2 7094   2.787   0.513   3.392 -0.4019  0.2126  0.3238
 2363TIP3    H1 7095   2.713   0.480   3.342  0.7206  0.6122 -1.7181
 2363TIP3    H2 7096   2.814   0.439   3.446 -0.3209 -1.0346 -1.3254
 2364TIP3   OH2 7097   0.121   5.303   3.494 -0.1559  0.3639 -0.4033
 2364TIP3    H1 7098   0.113   5.385   3.543  1.7993  1.1106 -1.2210
 2364TIP3    H2 7099   0.051   5.308   3.428 -2.2262 -0.2442  1.6066
 2365TIP3   OH2 7100   3.551   4.932   2.751  0.1045 -0.2384 -0.0919
 2365TIP3    H1 7101   3.593   4.889   2.826  1.1942 -0.4853 -0.8237
 2365TIP3    H2 7102   3.513   5.012   2.788 -1.8202 -1.6809  1.2646
 2366TIP3   OH2 7103   4.388   3.558   3.448 -0.7731 -0.1997 -0.5937
 2366TIP3    H1 7104   4.317   3.513   3.493 -1.2238  2.8413  2.1195
 2366TIP3    H2 7105   4.350   3.640   3.417  1.2796  1.1442  0.2021
 2367TIP3   OH2 7106   6.184   0.120   1.485 -0.5747  0.0959 -0.2091
 2367TIP3    H1 7107   6.261   0.121   1.429  0.3943  0.4034  1.0657
 2367TIP3    H2 7108   6.144   0.034   1.470  0.2079 -0.2004 -0.6623
 2368TIP3   OH2 7109   3.779   5.474   3.057 -1.6366 -0.0115  0.5366
 2368TIP3    H1 7110   3.808   5.564   3.041  1.3742 -1.0158 -0.4604
 2368TIP3    H2 7111   3.723   5.454   2.981  1.9761 -0.5176 -2.2886
 2369TIP3   OH2 7112   2.592   1.560   2.038 -0.3138  0.1112 -0.1650
 2369TIP3    H1 7113   2.601   1.575   2.132 -1.5039 -2.1450  0.4016
 2369TIP3    H2 7114   2.498   1.543   2.026  0.2002 -2.5976 -1.1584
 2370TIP3   OH2 7115   2.184   3.143   1.142  0.5368  0.4480  0.5251
 2370TIP3    H1 7116   2.120   3.116   1.076  0.6447 -1.3565  1.1065
 2370TIP3    H2 7117   2.263   3.162   1.091 -0.1659  1.8310 -0.1065
 2371TIP3   OH2 7118   3.634   5.293   4.983  0.0337  0.0425 -0.2069
 2371TIP3    H1 7119   3.624   5.345   5.062  2.2727 -0.6196  0.5777
 2371TIP3    H2 7120   3.552   5.244   4.976 -0.0537 -0.1900  1.9222
 2372TIP3   OH2 7121   0.029   1.899   2.085 -0.8625  0.1965  0.2238
 2372TIP3    H1 7122   0.093   1.897   2.014  0.2694 -0.3988  1.2120
 2372TIP3    H2 7123   0.083   1.900   2.165 -2.0624 -1.6716  1.1237
 2373TIP3   OH2 7124   2.973   1.022   4.840 -0.0078 -0.0893 -0.5968
 2373TIP3    H1 7125   3.007   0.981   4.761 -0.0157 -0.0490 -0.6205
 2373TIP3    H2 7126   2.887   0.980   4.853  0.3538 -0.7105 -0.1425
 2374TIP3   OH2 7127   5.151   3.051   5.165  0.1101  0.9438 -0.0618
 2374TIP3    H1 7128   5.180   3.126   5.217  0.4783  1.1237 -0.5315
 2374TIP3    H2 7129   5.060   3.072   5.143 -1.1421 -0.4981  3.0660
 2375TIP3   OH2 7130   4.091   3.607   3.199 -0.2279 -0.2873  0.7514
 2375TIP3    H1 7131   4.019   3.666   3.179  0.3702 -0.1429 -1.2192
 2375TIP3    H2 7132   4.146   3.655   3.260 -0.4506  0.6613  0.2229
 2376TIP3   OH2 7133   5.367   2.984   4.992  0.5398  0.3372  0.0248
 2376TIP3    H1 7134   5.446   2.968   5.044  1.1413  0.5559 -0.8020
 2376TIP3    H2 7135   5.299   3.001   5.057  0.8371 -1.2375  0.8089
 2377TIP3   OH2 7136   4.787   2.479   0.441  0.1865 -0.3694  0.2310
 2377TIP3    H1 7137   4.767   2.415   0.373  1.5357 -0.7836  0.1969
 2377TIP3    H2 7138   4.848   2.434   0.500  0.2254  0.4912  0.8705
 2378TIP3   OH2 7139   4.251   5.981   4.607  0.4160 -0.1717  0.5648
 2378TIP3    H1 7140   4.310   5.915   4.643 -0.0918 -0.4613  0.8720
 2378TIP3    H2 7141   4.169   5.967   4.653 -0.1933 -0.4243 -0.5794
 2379TIP3   OH2 7142   6.229   1.609   1.622  0.3555 -0.1062  0.0116
 2379TIP3    H1 7143   6.303   1.623   1.682  0.7437 -0.3345 -0.4097
 2379TIP3    H2 7144   6.153   1.603   1.680  0.2402  2.8148  0.3187
 2380TIP3   OH2 7145   3.408   2.275   3.017  0.0790  0.3842 -0.4248
 2380TIP3    H1 7146   3.430   2.225   3.096 -1.0470 -1.2343 -1.0700
 2380TIP3    H2 7147   3.491   2.316   2.992  1.0445 -1.0009  0.2847
 2381TIP3   OH2 7148   2.147   3.502   0.535  0.3642 -0.0796 -0.5224
 2381TIP3    H1 7149   2.150   3.579   0.478 -1.7966 -0.7654 -1.6328
 2381TIP3    H2 7150   2.114   3.432   0.480  1.4242 -1.6169  0.7152
 2382TIP3   OH2 7151   2.275   3.254   3.347 -0.1311  0.1259  0.0462
 2382TIP3    H1 7152   2.216   3.182   3.370  0.0738  0.0037  0.1868
 2382TIP3    H2 7153   2.217   3.321   3.310  0.0300 -1.3180 -3.0783
 2383TIP3   OH2 7154   4.550   5.394   4.297 -0.2366  0.4586 -0.6891
 2383TIP3    H1 7155   4.565   5.385   4.391 -0.3498 -1.2742 -0.7978
 2383TIP3    H2 7156   4.559   5.488   4.280  0.2771  0.7448  0.9559
 2384TIP3   OH2 7157   4.612   2.647   1.094  0.6660  0.0450 -0.3213
 2384TIP3    H1 7158   4.563   2.593   1.157 -0.6793  1.4492 -0.0829
 2384TIP3    H2 7159   4.699   2.657   1.133  0.8296 -1.6241 -0.2052
 2385TIP3   OH2 7160   6.339   2.506   0.966  0.5888 -0.2642 -0.0148
 2385TIP3    H1 7161   6.415   2.506   1.024  0.2359  0.0585  0.4609
 2385TIP3    H2 7162   6.268   2.471   1.019  0.3625 -0.3846 -0.3944
 2386TIP3   OH2 7163   4.599   4.594   0.913 -0.2435 -0.3173  0.1824
 2386TIP3    H1 7164   4.650   4.534   0.966  0.4650 -0.6355 -0.8248
 2386TIP3    H2 7165   4.551   4.538   0.852 -0.5412  0.0724  0.0530
 2387TIP3   OH2 7166   4.666   0.716   2.565 -0.0189  0.6974 -0.0573
 2387TIP3    H1 7167   4.719   0.783   2.609  0.8738 -0.1326  0.1530
 2387TIP3    H2 7168   4.580   0.723   2.606  0.2478  1.2665  0.4250
 2388TIP3   OH2 7169   0.364   3.180   3.644  0.1602 -0.4243 -0.6122
 2388TIP3    H1 7170   0.384   3.086   3.647 -0.5406 -0.5881  2.1244
 2388TIP3    H2 7171   0.268   3.183   3.641  0.0611  0.1134  1.5683
 2389TIP3   OH2 7172   0.500   3.644   3.953  0.1050 -0.1256 -0.2701
 2389TIP3    H1 7173   0.526   3.552   3.943  2.1582  0.4199 -0.3536
 2389TIP3    H2 7174   0.545   3.674   4.031  0.9220  1.2885 -1.2439
 2390TIP3   OH2 7175   2.833   1.824   5.096 -0.2937 -0.5083 -0.1903
 2390TIP3    H1 7176   2.847   1.871   5.013  0.9044 -0.2548  0.1398
 2390TIP3    H2 7177   2.788   1.744   5.071  1.2162 -1.0500 -1.2650
 2391TIP3   OH2 7178   2.833   4.740   0.669  0.2025  0.2086 -0.2350
 2391TIP3    H1 7179   2.748   4.711   0.636 -0.0673 -0.0642  0.6725
 2391TIP3    H2 7180   2.880   4.659   0.688  0.1385  0.3571  0.5796
 2392TIP3   OH2 7181   3.136   5.662   1.024 -0.0728 -0.0210  0.2403
 2392TIP3    H1 7182   3.221   5.695   1.051  0.8419 -0.8213 -1.5463
 2392TIP3    H2 7183   3.115   5.709   0.944 -0.7221 -0.7382 -0.0240
 2393TIP3   OH2 7184   2.583   2.458   0.875 -0.0264  0.1880  0.3512
 2393TIP3    H1 7185   2.547   2.529   0.929 -2.0544 -1.0975  0.7936
 2393TIP3    H2 7186   2.535   2.380   0.903  2.0269 -1.3656 -0.2173
 2394TIP3   OH2 7187   1.564   1.714   2.075 -0.1220 -0.4068 -0.0285
 2394TIP3    H1 7188   1.602   1.679   1.995 -0.9017 -0.8940 -0.2044
 2394TIP3    H2 7189   1.633   1.705   2.141  0.5869  0.1671 -0.6778
 2395TIP3   OH2 7190   1.348   3.044   4.303 -0.0787 -0.0590 -0.0985
 2395TIP3    H1 7191   1.444   3.041   4.311 -0.1671 -0.4901  0.8778
 2395TIP3    H2 7192   1.329   3.133   4.273  0.6355 -0.0029 -0.4010
 2396TIP3   OH2 7193   3.863   2.712   2.730 -0.7050 -0.8184  0.6100
 2396TIP3    H1 7194   3.768   2.713   2.742 -0.9272  0.5893 -0.8747
 2396TIP3    H2 7195   3.882   2.624   2.698 -1.7745 -0.6181 -0.6641
 2397TIP3   OH2 7196   5.114   5.161   4.287  0.2393 -0.0254  0.1122
 2397TIP3    H1 7197   5.109   5.083   4.233 -1.2410  0.1473 -0.0415
 2397TIP3    H2 7198   5.190   5.146   4.344 -0.7272 -2.1330  0.9440
 2398TIP3   OH2 7199   0.283   0.061   4.335 -0.0279  0.2808  1.0254
 2398TIP3    H1 7200   0.207   0.116   4.354 -0.9871 -0.4356 -0.5683
 2398TIP3    H2 7201   0.294   0.008   4.415 -1.0072  0.6142  1.3981
 2399TIP3   OH2 7202   5.298   0.223   2.764 -0.1659  0.0971  0.3204
 2399TIP3    H1 7203   5.242   0.269   2.826 -0.0269 -0.9348  1.2383
 2399TIP3    H2 7204   5.240   0.160   2.721 -0.4940  1.4768 -1.3684
 2400TIP3   OH2 7205   2.225   1.165   3.113 -0.4624  0.7120  0.2995
 2400TIP3    H1 7206   2.175   1.106   3.170  1.3488 -0.7641  0.4737
 2400TIP3    H2 7207   2.161   1.197   3.049 -2.1993  1.1102  2.1045
 2401TIP3   OH2 7208   3.383   2.778   3.844 -0.3300 -0.1219 -0.2380
 2401TIP3    H1 7209   3.410   2.734   3.763 -0.2083  0.1329 -0.3381
 2401TIP3    H2 7210   3.325   2.849   3.815  0.6939  0.7527 -0.2207
 2402TIP3   OH2 7211   3.288   2.945   4.150 -0.5573  0.0667  0.0918
 2402TIP3    H1 7212   3.261   2.959   4.060  0.1913  1.0501  0.0015
 2402TIP3    H2 7213   3.320   2.855   4.152  0.9949  0.5618 -1.0441
 2403TIP3   OH2 7214   4.557   1.651   3.734  0.3729 -0.1003  0.0054
 2403TIP3    H1 7215   4.616   1.592   3.686  0.8642  0.6831 -0.3789
 2403TIP3    H2 7216   4.595   1.738   3.720 -1.5482  0.5960 -1.2767
 2404TIP3   OH2 7217   2.856   0.957   2.125  0.1787  0.1353 -0.6898
 2404TIP3    H1 7218   2.903   0.893   2.072 -0.8026 -1.2338  0.0427
 2404TIP3    H2 7219   2.773   0.971   2.078 -0.8367 -1.3285  0.5740
 2405TIP3   OH2 7220   3.076   2.336   2.507  0.5872  0.3805 -0.7663
 2405TIP3    H1 7221   3.034   2.315   2.591  2.3367  0.1088  0.0929
 2405TIP3    H2 7222   3.061   2.259   2.452 -1.8113  1.1174 -1.2767
 2406TIP3   OH2 7223   1.969   4.130   3.631  0.1983  0.5154  0.0867
 2406TIP3    H1 7224   1.926   4.055   3.671  0.7453  1.4080  2.4962
 2406TIP3    H2 7225   2.056   4.097   3.608  0.8635  0.6305  2.2093
 2407TIP3   OH2 7226   2.354   3.780   3.868 -0.0272  0.2909 -0.2765
 2407TIP3    H1 7227   2.264   3.804   3.890  0.5446 -0.1890  3.1460
 2407TIP3    H2 7228   2.346   3.694   3.826 -1.1999  0.9303 -1.4452
 2408TIP3   OH2 7229   2.737   5.685   2.859 -0.3784  0.1128  0.4481
 2408TIP3    H1 7230   2.826   5.718   2.867 -0.1172 -0.9712  2.5503
 2408TIP3    H2 7231   2.682   5.764   2.864  0.4056  0.8155 -1.1258
 2409TIP3   OH2 7232   4.855   3.788   2.909 -0.0777  0.5438 -0.5917
 2409TIP3    H1 7233   4.876   3.711   2.963 -2.5177 -0.3850 -0.8438
 2409TIP3    H2 7234   4.830   3.752   2.824 -1.9703  1.5036 -0.4948
 2410TIP3   OH2 7235   5.427   4.080   1.689 -0.2438  0.3553  0.7885
 2410TIP3    H1 7236   5.497   4.019   1.668  0.2135  1.2443 -0.3419
 2410TIP3    H2 7237   5.407   4.124   1.606 -0.5729  1.7149  1.5546
 2411TIP3   OH2 7238   3.636   4.334   0.803 -0.5694  0.2083  0.2256
 2411TIP3    H1 7239   3.658   4.391   0.729 -1.4187  0.3695  0.0811
 2411TIP3    H2 7240   3.620   4.394   0.876  0.0332  0.0626  0.4806
 2412TIP3   OH2 7241   4.704   2.464  -0.008  0.3992 -0.3733 -0.2380
 2412TIP3    H1 7242   4.701   2.370   0.011 -0.1981 -0.2125  0.5225
 2412TIP3    H2 7243   4.623   2.499   0.029  0.8989  0.5418  0.0406
 2413TIP3   OH2 7244   3.551   5.950   0.190  0.1355 -0.0324  0.2256
 2413TIP3    H1 7245   3.646   5.958   0.186  0.2364  0.1621  2.0530
 2413TIP3    H2 7246   3.533   5.923   0.280 -1.5802  0.6672  0.1356
 2414TIP3   OH2 7247   5.764   2.136   0.265  0.0627  0.2154 -0.2023
 2414TIP3    H1 7248   5.815   2.110   0.189 -0.3667 -0.1258 -0.3737
 2414TIP3    H2 7249   5.673   2.138   0.235 -0.0717  0.4356  0.2021
 2415TIP3   OH2 7250   1.497   1.381   4.654  0.2231 -0.7356 -0.5993
 2415TIP3    H1 7251   1.547   1.463   4.648  0.7640 -1.1421 -3.7232
 2415TIP3    H2 7252   1.422   1.394   4.595  0.2484 -2.3990 -1.0584
 2416TIP3   OH2 7253   4.805   1.399   4.824  0.5880 -0.0377  0.2164
 2416TIP3    H1 7254   4.711   1.419   4.825  0.4313 -0.7382  1.5720
 2416TIP3    H2 7255   4.842   1.461   4.761 -0.8187  0.0570 -0.5623
 2417TIP3   OH2 7256   4.685   3.850   4.664  0.0452  0.5815 -0.4273
 2417TIP3    H1 7257   4.734   3.814   4.591  0.2075  0.3996 -0.2305
 2417TIP3    H2 7258   4.751   3.887   4.722  0.1092 -1.1084  0.6456
 2418TIP3   OH2 7259   2.525   2.761   1.499  0.3729 -0.0917  0.0499
 2418TIP3    H1 7260   2.518   2.823   1.427 -0.3009  0.1612  0.3204
 2418TIP3    H2 7261   2.480   2.682   1.468  1.0330 -0.3719 -0.2096
 2419TIP3   OH2 7262   0.271   0.243   5.104 -0.3529  0.1653  0.8233
 2419TIP3    H1 7263   0.217   0.165   5.093  0.0344  0.1985 -2.0231
 2419TIP3    H2 7264   0.226   0.310   5.053  1.8870  0.3837 -1.0208
 2420TIP3   OH2 7265   4.388   4.980   4.162 -0.1838  0.3737  0.3027
 2420TIP3    H1 7266   4.361   5.064   4.126  1.0345 -0.4968 -2.9487
 2420TIP3    H2 7267   4.484   4.983   4.163 -0.1145 -0.0942  2.6552
 2421TIP3   OH2 7268   5.950   0.171   4.563 -0.4725  0.0599 -0.1182
 2421TIP3    H1 7269   6.006   0.127   4.626 -0.9167  0.5081  0.6067
 2421TIP3    H2 7270   5.949   0.263   4.591 -1.5940  0.0520 -0.0913
 2422TIP3   OH2 7271   1.089   5.685   1.562  0.1298 -0.0392 -0.3217
 2422TIP3    H1 7272   1.059   5.697   1.471 -0.0003  2.8044  0.0186
 2422TIP3    H2 7273   1.119   5.594   1.565  2.4102  0.3937 -3.8985
 2423TIP3   OH2 7274   1.282   5.261   2.721  0.7025 -0.1022  0.3097
 2423TIP3    H1 7275   1.350   5.216   2.771  1.5569  0.2411 -0.5205
 2423TIP3    H2 7276   1.209   5.269   2.782  0.3267 -2.9747  0.3982
 2424TIP3   OH2 7277   2.044   5.433   3.382  0.4545 -0.5841  0.4873
 2424TIP3    H1 7278   1.984   5.396   3.447 -1.2554  0.1993 -0.5450
 2424TIP3    H2 7279   2.061   5.360   3.322  1.3331 -1.0713  1.3104
 2425TIP3   OH2 7280   4.134   2.396   3.468 -0.4583  0.5460  0.3370
 2425TIP3    H1 7281   4.071   2.339   3.425 -0.1040 -1.0584  1.8282
 2425TIP3    H2 7282   4.206   2.405   3.405 -0.2768 -1.1303  0.2757
 2426TIP3   OH2 7283   0.996   5.703   0.238 -0.3331  0.0824  0.2693
 2426TIP3    H1 7284   0.929   5.652   0.193 -1.5125  1.2307  0.6788
 2426TIP3    H2 7285   1.070   5.642   0.247 -1.0328 -0.9795 -0.8364
 2427TIP3   OH2 7286   4.117   3.349   1.213  0.6528  0.5692 -0.2249
 2427TIP3    H1 7287   4.102   3.258   1.240  1.0806 -0.3022 -2.6922
 2427TIP3    H2 7288   4.108   3.399   1.294 -1.9066 -1.3770  0.8359
 2428TIP3   OH2 7289   1.137   2.491   1.822 -0.3655 -0.0193 -0.3958
 2428TIP3    H1 7290   1.066   2.542   1.784 -0.3038  0.1442 -0.2910
 2428TIP3    H2 7291   1.188   2.554   1.873 -0.5716 -0.2721  0.1373
 2429TIP3   OH2 7292   0.949   3.006   2.886 -0.5795  0.4871  0.2268
 2429TIP3    H1 7293   0.913   2.991   2.973 -2.7927  0.1637 -0.6765
 2429TIP3    H2 7294   0.874   2.997   2.827  0.8279  0.7993 -1.7130
 2430TIP3   OH2 7295   4.499   5.558   3.621 -0.3987 -0.6343 -0.1421
 2430TIP3    H1 7296   4.411   5.548   3.584 -0.5716 -0.8504  0.3208
 2430TIP3    H2 7297   4.546   5.610   3.556 -1.3404  0.8958  0.3473
 2431TIP3   OH2 7298   1.640   4.931   2.609 -0.2754 -0.3207 -0.0298
 2431TIP3    H1 7299   1.650   4.984   2.687 -0.6198 -1.5980  0.9249
 2431TIP3    H2 7300   1.727   4.895   2.592  0.7348  2.8126 -2.4778
 2432TIP3   OH2 7301   1.497   2.069   3.435  0.0005  0.1490 -0.2620
 2432TIP3    H1 7302   1.558   2.083   3.508  0.0464 -2.3072  0.2656
 2432TIP3    H2 7303   1.526   2.131   3.368  0.6280  1.7353  1.3985
 2433TIP3   OH2 7304   3.679   1.186   4.390  0.2965 -0.1741  0.0695
 2433TIP3    H1 7305   3.601   1.191   4.446  0.6220 -1.8703  0.7411
 2433TIP3    H2 7306   3.751   1.214   4.446  0.4364 -0.4858  0.0439
 2434TIP3   OH2 7307   3.200   5.831   2.122  0.2560  0.3069 -0.1271
 2434TIP3    H1 7308   3.220   5.751   2.073 -1.6363  0.3327 -1.0603
 2434TIP3    H2 7309   3.130   5.806   2.182  1.5898  0.6271  1.6532
 2435TIP3   OH2 7310   4.389   5.224   3.727  0.1730 -0.1600 -0.1080
 2435TIP3    H1 7311   4.309   5.247   3.775 -0.1726 -0.2588 -0.6345
 2435TIP3    H2 7312   4.359   5.168   3.655  0.8527 -1.2325  0.4162
 2436TIP3   OH2 7313   5.085   2.132   2.176 -0.4689  0.2040  0.0255
 2436TIP3    H1 7314   5.018   2.192   2.143 -3.4681 -2.6147  0.4423
 2436TIP3    H2 7315   5.058   2.111   2.265  0.6297 -1.4826  0.0214
 2437TIP3   OH2 7316   0.990   1.505   4.966  0.0350  0.2368 -0.6915
 2437TIP3    H1 7317   0.958   1.512   5.056 -0.3086  0.6879 -0.8456
 2437TIP3    H2 7318   0.941   1.572   4.918 -2.7000 -2.4546 -2.0559
 2438TIP3   OH2 7319   5.935   5.621   1.247 -0.0875 -0.5134  0.2419
 2438TIP3    H1 7320   5.872   5.564   1.204  1.1380 -0.3294 -1.9359
 2438TIP3    H2 7321   5.925   5.706   1.203 -0.1106  0.2629  1.6717
 2439TIP3   OH2 7322   5.900   0.109   5.044  0.0714  0.1953  0.0762
 2439TIP3    H1 7323   5.928   0.032   4.995  0.1607  0.0685  0.3246
 2439TIP3    H2 7324   5.957   0.110   5.121  0.7283  1.0507 -0.3985
 2440TIP3   OH2 7325   5.031   2.268   3.997  0.4497  0.2795 -0.1826
 2440TIP3    H1 7326   5.116   2.223   4.001  0.6379  0.7015  0.8470
 2440TIP3    H2 7327   5.052   2.358   3.972  0.2056  0.1428 -0.8946
 2441TIP3   OH2 7328   4.587   5.744   0.819 -0.3111 -0.3377 -0.0243
 2441TIP3    H1 7329   4.578   5.669   0.760  2.0457  1.3310 -2.7555
 2441TIP3    H2 7330   4.533   5.813   0.780 -0.2641  0.2247  0.8776
 2442TIP3   OH2 7331   3.556   0.933   0.590  0.0396  0.5454  0.2240
 2442TIP3    H1 7332   3.638   0.908   0.549  1.1406  0.5389  2.2942
 2442TIP3    H2 7333   3.492   0.870   0.556  0.5925  1.2193 -2.2636
 2443TIP3   OH2 7334   4.506   1.697   2.718 -0.0066  0.3570  0.0873
 2443TIP3    H1 7335   4.443   1.661   2.779  1.5131 -0.3852  1.2865
 2443TIP3    H2 7336   4.504   1.792   2.733  0.0571  0.2157  0.9998
 2444TIP3   OH2 7337   6.183   0.301   4.312  0.1131  0.0252  0.0676
 2444TIP3    H1 7338   6.191   0.220   4.362 -0.1367 -0.3645 -0.5025
 2444TIP3    H2 7339   6.181   0.272   4.221  2.7099  0.8600 -0.3269
 2445TIP3   OH2 7340   3.098   2.627   3.547  0.0637 -0.3972  0.5836
 2445TIP3    H1 7341   3.139   2.571   3.614 -0.1723 -0.1373  0.9524
 2445TIP3    H2 7342   3.077   2.568   3.475  0.7357 -0.6005  0.5507
 2446TIP3   OH2 7343   6.018   1.970   2.193  0.4937  0.5202 -0.3188
 2446TIP3    H1 7344   6.031   1.972   2.098 -0.3577  1.1358 -0.4368
 2446TIP3    H2 7345   6.088   1.913   2.226 -0.3274 -1.2390 -1.4839
 2447TIP3   OH2 7346   1.741   0.804   1.786  0.4476  0.1640  0.0953
 2447TIP3    H1 7347   1.812   0.740   1.784 -1.5316 -2.1936  0.2833
 2447TIP3    H2 7348   1.713   0.811   1.694 -0.7108 -0.9663  0.3275
 2448TIP3   OH2 7349   1.059   1.230   3.561  0.2877  0.6000 -0.4901
 2448TIP3    H1 7350   1.038   1.315   3.601  0.6702  0.8292 -0.7698
 2448TIP3    H2 7351   1.001   1.168   3.605  1.1674  0.7286  0.9147
 2449TIP3   OH2 7352   1.824   2.300   4.018  0.1483 -0.0165 -0.4753
 2449TIP3    H1 7353   1.803   2.370   4.080 -1.0001 -1.2824  0.6289
 2449TIP3    H2 7354   1.905   2.261   4.051  3.3193  3.3107 -3.3974
 2450TIP3   OH2 7355   0.573   1.212   0.089 -0.0531 -0.4725 -0.3096
 2450TIP3    H1 7356   0.605   1.235   0.177  2.2016 -0.2198 -1.1412
 2450TIP3    H2 7357   0.478   1.210   0.099  0.1364 -1.1503  2.3126
 2451TIP3   OH2 7358   0.822   2.559   2.971  0.3878 -0.5156  0.0845
 2451TIP3    H1 7359   0.845   2.480   2.923 -0.6773  0.5453 -2.3890
 2451TIP3    H2 7360   0.753   2.532   3.032 -0.7645 -1.3453 -1.5127
 2452TIP3   OH2 7361   5.128   5.078   2.445  0.2562  0.1020  0.3529
 2452TIP3    H1 7362   5.150   4.997   2.398 -0.8574 -0.1604  0.2524
 2452TIP3    H2 7363   5.050   5.055   2.496 -0.3351  1.2266 -0.0152
 2453TIP3   OH2 7364   2.377   2.578   0.086 -0.2504 -0.3122  0.2458
 2453TIP3    H1 7365   2.404   2.657   0.132 -0.5182 -1.0212  1.6928
 2453TIP3    H2 7366   2.321   2.532   0.149 -1.3212 -0.9389 -1.1027
 2454TIP3   OH2 7367   5.648   5.312   3.818 -0.7972  0.3210 -0.7402
 2454TIP3    H1 7368   5.669   5.222   3.843 -1.7159 -0.2617 -1.9529
 2454TIP3    H2 7369   5.703   5.366   3.875  0.9490 -1.0320 -1.0428
 2455TIP3   OH2 7370   2.295   2.524   2.980 -0.2620  0.4407  1.0235
 2455TIP3    H1 7371   2.236   2.450   2.964  2.0156 -1.2946  0.1953
 2455TIP3    H2 7372   2.286   2.579   2.902 -0.9534  0.3607  1.0348
 2456TIP3   OH2 7373   4.472   4.899   1.917  0.3712 -0.2636  0.1167
 2456TIP3    H1 7374   4.563   4.873   1.930  0.4166 -0.0249  0.2721
 2456TIP3    H2 7375   4.466   4.920   1.823  0.1826 -1.4141 -0.1409
 2457TIP3   OH2 7376   3.524   3.095   3.446 -0.0166 -0.2400  0.1301
 2457TIP3    H1 7377   3.434   3.089   3.477 -0.2875  1.3787 -0.2399
 2457TIP3    H2 7378   3.572   3.028   3.495 -1.3729 -0.9751  0.4765
 2458TIP3   OH2 7379   6.088   2.440   5.008  0.4155  0.3292  0.1567
 2458TIP3    H1 7380   6.137   2.476   5.081 -1.9002  1.3794  1.2913
 2458TIP3    H2 7381   6.087   2.510   4.942  1.3191 -0.1014 -0.3333
 2459TIP3   OH2 7382   0.125   5.670   1.746  1.1020 -0.1637 -0.7780
 2459TIP3    H1 7383   0.129   5.741   1.810 -1.8796 -0.1697 -0.4520
 2459TIP3    H2 7384   0.113   5.713   1.662  0.3026 -0.2388 -0.7082
 2460TIP3   OH2 7385   3.871   1.826   0.016  0.3154 -0.3703 -0.3493
 2460TIP3    H1 7386   3.810   1.893   0.049  0.2393  0.3321 -1.8484
 2460TIP3    H2 7387   3.930   1.874  -0.042  0.3108 -1.5809 -1.3866
 2461TIP3   OH2 7388   2.199   0.942   1.515  0.1572 -0.1133  0.0404
 2461TIP3    H1 7389   2.218   0.952   1.421  0.4844  1.2793  0.2297
 2461TIP3    H2 7390   2.118   0.991   1.528  0.3189  0.0197  0.5581
 2462TIP3   OH2 7391   1.167   2.337   0.298 -0.6343 -0.5611 -0.6603
 2462TIP3    H1 7392   1.136   2.330   0.388 -1.7071  0.3023 -0.9436
 2462TIP3    H2 7393   1.087   2.328   0.245 -0.2122  0.3233 -1.4661
 2463TIP3   OH2 7394   0.680   2.919   4.502 -0.1220  0.5506  0.4038
 2463TIP3    H1 7395   0.714   2.989   4.558  0.2481 -0.5485  1.5671
 2463TIP3    H2 7396   0.672   2.843   4.559  1.1442 -0.8688 -1.2197
 2464TIP3   OH2 7397   0.065   1.115   4.250 -0.6187 -0.5315 -0.1418
 2464TIP3    H1 7398   0.081   1.191   4.194 -1.5325 -0.6491 -0.5895
 2464TIP3    H2 7399   0.117   1.131   4.328 -0.3187  0.2595 -0.4950
 2465TIP3   OH2 7400   1.963   4.221   0.809  0.4669  0.7966  0.5762
 2465TIP3    H1 7401   2.045   4.176   0.827  1.7711  2.8202  0.0329
 2465TIP3    H2 7402   1.964   4.297   0.867 -1.2059  0.7047  0.7934
 2466TIP3   OH2 7403   0.401   2.255   2.298  0.3352 -0.2208 -0.1653
 2466TIP3    H1 7404   0.427   2.174   2.342  0.1193 -0.7874 -1.0352
 2466TIP3    H2 7405   0.465   2.266   2.228 -0.1878 -0.1667 -0.6436
 2467TIP3   OH2 7406   3.400   1.638   4.224  0.9440  0.4498  0.1330
 2467TIP3    H1 7407   3.335   1.579   4.262  0.7039  1.2026  0.9400
 2467TIP3    H2 7408   3.405   1.711   4.286  0.0963  2.0475 -1.5667
 2468TIP3   OH2 7409   3.670   3.352   3.027  0.3166  0.2544 -0.2584
 2468TIP3    H1 7410   3.732   3.396   2.969 -1.5187  1.6412 -1.3020
 2468TIP3    H2 7411   3.650   3.270   2.982  0.9631  0.0478 -0.1805
 2469TIP3   OH2 7412   4.272   4.926   4.422 -0.6363  0.0924  0.2118
 2469TIP3    H1 7413   4.200   4.988   4.425  0.7794  1.8638 -0.1587
 2469TIP3    H2 7414   4.320   4.949   4.343  0.6579 -0.6102  0.7511
 2470TIP3   OH2 7415   3.355   1.206   4.391 -0.3330 -0.0484  0.4027
 2470TIP3    H1 7416   3.378   1.265   4.463  0.3176  3.1448 -2.1745
 2470TIP3    H2 7417   3.287   1.253   4.343 -0.4888 -1.9016 -1.2690
 2471TIP3   OH2 7418   1.014   3.918   0.725  0.6955  0.2703  0.2396
 2471TIP3    H1 7419   1.083   3.934   0.660  0.2731  0.0724 -0.2675
 2471TIP3    H2 7420   0.983   4.006   0.748  1.2191  0.3680  0.5889
 2472TIP3   OH2 7421   3.913   0.385   3.953  0.9429  0.2397  0.1546
 2472TIP3    H1 7422   3.972   0.338   4.012  1.1275  1.2855  0.8204
 2472TIP3    H2 7423   3.846   0.421   4.011 -0.3947 -0.9579 -0.5911
 2473TIP3   OH2 7424   0.078   4.947   4.079  0.5336 -0.1329 -0.2130
 2473TIP3    H1 7425   0.116   4.958   4.166 -0.1714  3.3322 -0.1909
 2473TIP3    H2 7426   0.107   5.024   4.030 -2.1587 -0.0056 -1.8140
 2474TIP3   OH2 7427   0.198   2.263   4.689  0.0071  0.8966  0.1564
 2474TIP3    H1 7428   0.141   2.243   4.764  0.0440  0.3087  0.0363
 2474TIP3    H2 7429   0.266   2.319   4.725 -0.6831  1.6592  0.2893
 2475TIP3   OH2 7430   5.489   5.242   2.951  0.3109  0.1686 -0.3670
 2475TIP3    H1 7431   5.447   5.310   2.899  1.4010 -0.3101 -1.9157
 2475TIP3    H2 7432   5.422   5.174   2.960 -0.4721  1.0045  0.4161
 2476TIP3   OH2 7433   3.302   5.326   3.499 -0.0980  0.5057 -0.3871
 2476TIP3    H1 7434   3.231   5.388   3.485  0.0779  0.5555 -1.0630
 2476TIP3    H2 7435   3.365   5.373   3.555 -0.8750  0.2441  0.7355
 2477TIP3   OH2 7436   5.814   3.231   2.824 -0.3393 -0.4241 -0.2696
 2477TIP3    H1 7437   5.755   3.296   2.862 -1.1609 -1.0918 -0.3529
 2477TIP3    H2 7438   5.902   3.262   2.845 -0.7150  0.7411 -0.3820
 2478TIP3   OH2 7439   4.241   1.725   1.830 -0.3890  0.4854  0.6072
 2478TIP3    H1 7440   4.167   1.671   1.804 -1.4970  1.5335  1.4535
 2478TIP3    H2 7441   4.205   1.814   1.836  0.1862  0.6335  3.6962
 2479TIP3   OH2 7442   2.435   4.490   0.252 -0.0388 -0.1365 -0.5302
 2479TIP3    H1 7443   2.442   4.401   0.216 -0.9626 -0.0781 -0.8990
 2479TIP3    H2 7444   2.475   4.545   0.185 -0.0839 -0.2094 -0.6183
 2480TIP3   OH2 7445   4.758   0.752   4.833  0.1589  0.6599  0.4668
 2480TIP3    H1 7446   4.853   0.747   4.836  0.1729 -2.3991 -1.2437
 2480TIP3    H2 7447   4.739   0.839   4.798  2.4179  0.5895 -1.1003
 2481TIP3   OH2 7448   3.498   2.924   0.380 -0.3368 -0.0396 -0.7112
 2481TIP3    H1 7449   3.451   2.954   0.303 -0.4003  0.6831 -0.3979
 2481TIP3    H2 7450   3.533   2.839   0.355 -0.4628  0.1299 -1.4935
 2482TIP3   OH2 7451   6.269   1.272   4.462 -0.3573 -0.0044 -0.2009
 2482TIP3    H1 7452   6.318   1.309   4.388  0.5542  0.7512  0.7561
 2482TIP3    H2 7453   6.244   1.348   4.514 -0.7490 -0.5477  0.4148
 2483TIP3   OH2 7454   6.122   2.542   3.087  0.1749 -0.3804  0.3774
 2483TIP3    H1 7455   6.062   2.471   3.109 -1.0876  0.6777  0.5309
 2483TIP3    H2 7456   6.084   2.619   3.130  2.5644  0.0652  1.8955
 2484TIP3   OH2 7457   5.287   5.445   5.117  0.1260 -0.5876  0.1936
 2484TIP3    H1 7458   5.322   5.358   5.097 -1.5810 -1.2210 -0.2298
 2484TIP3    H2 7459   5.364   5.501   5.123  1.2909 -2.1663  0.7063
 2485TIP3   OH2 7460   2.369   4.375   3.395 -0.2039  0.2167 -0.1736
 2485TIP3    H1 7461   2.389   4.285   3.369 -1.9868  0.3583 -2.3094
 2485TIP3    H2 7462   2.417   4.429   3.332 -0.1536  0.7540  0.3144
 2486TIP3   OH2 7463   0.203   1.191   1.459 -0.4677  0.5104 -0.1227
 2486TIP3    H1 7464   0.119   1.153   1.432 -0.9845  1.4305  0.1400
 2486TIP3    H2 7465   0.186   1.285   1.465  0.7614  0.7976 -0.7134
 2487TIP3   OH2 7466   4.717   1.936   3.719 -0.1234 -0.3108 -0.1176
 2487TIP3    H1 7467   4.802   1.913   3.681 -0.3920 -0.1571 -0.8272
 2487TIP3    H2 7468   4.731   2.021   3.760  0.3765 -0.8366  0.8516
 2488TIP3   OH2 7469   3.778   3.668   2.677 -0.1727  0.2961 -0.0028
 2488TIP3    H1 7470   3.769   3.575   2.656 -2.9489 -0.0383  2.0477
 2488TIP3    H2 7471   3.846   3.699   2.618 -1.0463 -2.4212 -2.7307
 2489TIP3   OH2 7472   4.878   1.266   4.446 -0.3701  0.4305 -0.2653
 2489TIP3    H1 7473   4.791   1.247   4.410 -0.6559  0.7676  0.2429
 2489TIP3    H2 7474   4.898   1.191   4.502  1.0016 -1.1848 -2.7054
 2490TIP3   OH2 7475   3.619   0.028   3.387 -0.0902  0.1271 -0.7488
 2490TIP3    H1 7476   3.603  -0.032   3.460 -0.3060  0.3468 -0.6123
 2490TIP3    H2 7477   3.662   0.103   3.427  1.4661 -0.5227 -1.1389
 2491TIP3   OH2 7478   3.724   4.031   3.120  0.3488  0.2055  0.1384
 2491TIP3    H1 7479   3.721   4.057   3.212  1.1603 -1.1511  0.5884
 2491TIP3    H2 7480   3.747   4.110   3.073 -1.7391  1.3292  0.8848
 2492TIP3   OH2 7481   0.623   3.541   1.816 -0.4043 -0.5716 -0.1604
 2492TIP3    H1 7482   0.706   3.494   1.814 -0.1460 -0.1374 -1.9022
 2492TIP3    H2 7483   0.557   3.474   1.835  0.1083 -1.3780 -1.1443
 2493TIP3   OH2 7484   2.382   2.340   0.646 -0.2505 -0.8360 -0.4714
 2493TIP3    H1 7485   2.457   2.398   0.639 -1.0178  0.1053 -1.2087
 2493TIP3    H2 7486   2.329   2.378   0.716 -1.1166 -0.1898 -1.4479
 2494TIP3   OH2 7487   1.272   2.875   4.516  0.3710 -0.0755  0.2922
 2494TIP3    H1 7488   1.294   2.903   4.605  0.1609  1.2517 -0.0438
 2494TIP3    H2 7489   1.290   2.952   4.462  2.0064 -1.3416 -1.0633
 2495TIP3   OH2 7490   1.556   4.425   4.735 -0.2451 -0.3868  0.0033
 2495TIP3    H1 7491   1.526   4.501   4.785 -0.1152 -0.7516  0.6428
 2495TIP3    H2 7492   1.589   4.364   4.801  0.2023 -0.7556 -0.5511
 2496TIP3   OH2 7493   4.016   2.106   2.484  0.6556  0.5079 -0.1458
 2496TIP3    H1 7494   4.005   2.015   2.511  1.3596  0.8457  1.3995
 2496TIP3    H2 7495   3.926   2.139   2.474  0.3965 -0.3161 -0.6271
 2497TIP3   OH2 7496   0.890   0.632   2.243  0.0408  0.3289 -0.3982
 2497TIP3    H1 7497   0.865   0.588   2.162 -0.3359 -0.8212  0.3103
 2497TIP3    H2 7498   0.975   0.594   2.266  0.3588  0.9771 -0.4810
 2498TIP3   OH2 7499   5.373   4.007   0.178  0.5466  0.1973  0.2624
 2498TIP3    H1 7500   5.450   4.055   0.146 -0.7260  1.4887 -1.0004
 2498TIP3    H2 7501   5.298   4.058   0.147 -0.8403 -0.8075  1.7955
 2499TIP3   OH2 7502   3.979   0.476   0.299  0.0100  0.0017 -0.1782
 2499TIP3    H1 7503   3.980   0.411   0.230 -0.0889  0.6595 -0.8064
 2499TIP3    H2 7504   4.065   0.519   0.292 -0.6097  1.1593 -0.9551
 2500TIP3   OH2 7505   5.689   4.241   1.981  0.1888  0.2761  0.0239
 2500TIP3    H1 7506   5.744   4.219   1.906 -0.6041  0.2396 -0.5601
 2500TIP3    H2 7507   5.622   4.172   1.983  0.6889 -0.2161  1.2951
 2501TIP3   OH2 7508   5.519   4.783   3.893 -0.1048 -0.0094  0.4647
 2501TIP3    H1 7509   5.433   4.748   3.871 -0.8600  1.2240  1.3478
 2501TIP3    H2 7510   5.556   4.810   3.809 -1.0554  0.4772  0.1847
 2502TIP3   OH2 7511   3.818   1.451   2.783 -0.3308 -0.4404  0.0626
 2502TIP3    H1 7512   3.792   1.541   2.765 -0.0774 -0.7841 -2.4500
 2502TIP3    H2 7513   3.909   1.458   2.811 -0.6804  0.1601  1.0820
 2503TIP3   OH2 7514   0.216   5.787   0.391  0.2310 -1.0954  0.6765
 2503TIP3    H1 7515   0.206   5.736   0.310 -1.2082 -1.2210  0.9145
 2503TIP3    H2 7516   0.307   5.773   0.416  0.5233 -1.6006 -0.5565
 2504TIP3   OH2 7517   3.408   5.051   4.428  0.0073 -0.0415 -0.4662
 2504TIP3    H1 7518   3.457   4.983   4.382 -1.0294 -0.7184 -0.6021
 2504TIP3    H2 7519   3.453   5.133   4.404  1.9806 -0.7328  0.6241
 2505TIP3   OH2 7520   0.554   3.053   2.454  0.1872  0.8611  0.1104
 2505TIP3    H1 7521   0.579   2.977   2.507  1.8111  1.7438  0.7097
 2505TIP3    H2 7522   0.495   3.103   2.510 -2.0585 -0.6187 -0.8294
 2506TIP3   OH2 7523   1.133   0.911   0.075 -0.1759  0.5487 -0.0242
 2506TIP3    H1 7524   1.115   0.834   0.020 -2.2594  0.7841  0.2450
 2506TIP3    H2 7525   1.185   0.877   0.148  0.6043 -0.2091 -0.9009
 2507TIP3   OH2 7526   0.148   5.284   0.707 -0.5897  0.2574  0.0277
 2507TIP3    H1 7527   0.133   5.363   0.654 -0.3987 -1.1045 -2.1972
 2507TIP3    H2 7528   0.207   5.312   0.776  0.2976  1.8590 -1.3095
 2508TIP3   OH2 7529   1.920   5.730   0.410  0.4840 -0.2975  0.1825
 2508TIP3    H1 7530   1.958   5.668   0.472  1.3351 -0.8030 -0.7928
 2508TIP3    H2 7531   1.914   5.812   0.458 -0.4228 -1.0560  1.4238
 2509TIP3   OH2 7532   1.490   3.832   4.144  0.2306  0.0937  0.1223
 2509TIP3    H1 7533   1.521   3.749   4.109  2.7193  0.6224  0.8282
 2509TIP3    H2 7534   1.480   3.816   4.238  0.3489  0.4656  0.2019
 2510TIP3   OH2 7535   4.458   5.566  -0.006 -0.0466 -0.0317 -0.3470
 2510TIP3    H1 7536   4.401   5.490  -0.003  0.5971 -0.5789 -1.3917
 2510TIP3    H2 7537   4.519   5.554   0.066  1.2362 -1.4995 -1.6100
 2511TIP3   OH2 7538   5.025   1.590   0.631  0.3343  0.1001 -0.0747
 2511TIP3    H1 7539   5.028   1.502   0.593 -0.5571 -0.7059  1.6572
 2511TIP3    H2 7540   5.112   1.603   0.668 -0.1267 -0.8996  1.4348
 2512TIP3   OH2 7541   0.432   2.362   4.769 -0.0413 -0.2487  0.4456
 2512TIP3    H1 7542   0.432   2.451   4.735  0.2956 -0.5450 -0.3346
 2512TIP3    H2 7543   0.518   2.326   4.745 -0.4268 -1.0056  0.1568
 2513TIP3   OH2 7544   3.179   4.617   0.333 -0.0689 -0.0802  0.1721
 2513TIP3    H1 7545   3.088   4.645   0.322  0.4307  0.8814 -2.1580
 2513TIP3    H2 7546   3.173   4.525   0.357 -1.6678 -0.1306 -0.2804
 2514TIP3   OH2 7547   5.521   2.385   3.431  0.1347  0.0516  0.3568
 2514TIP3    H1 7548   5.559   2.472   3.441  0.5516 -0.1619  0.6883
 2514TIP3    H2 7549   5.456   2.394   3.362 -0.3527  0.8004  0.8988
 2515TIP3   OH2 7550   4.050   5.287   4.793  0.7220 -0.0480 -0.2353
 2515TIP3    H1 7551   4.136   5.325   4.809  2.1848 -3.0072 -0.4085
 2515TIP3    H2 7552   4.049   5.206   4.844 -2.3039  0.2369  0.3654
 2516TIP3   OH2 7553   4.410   2.504   2.509  0.0985  0.0622  0.0344
 2516TIP3    H1 7554   4.353   2.427   2.512 -0.0497  0.1957  2.2057
 2516TIP3    H2 7555   4.499   2.468   2.517  0.0999  0.0612  0.0114
 2517TIP3   OH2 7556   5.897   3.551   0.255  0.2935 -0.4494 -0.7801
 2517TIP3    H1 7557   5.948   3.499   0.193  0.4228  0.0605 -1.1049
 2517TIP3    H2 7558   5.896   3.639   0.218  2.2727  0.4240  0.9897
 2518TIP3   OH2 7559   0.201   3.168   0.428  0.3573  0.0353 -0.3700
 2518TIP3    H1 7560   0.158   3.156   0.512 -1.5079 -1.1452 -1.4147
 2518TIP3    H2 7561   0.269   3.099   0.425 -0.6960 -1.0343 -0.4760
 2519TIP3   OH2 7562   2.031   3.481   4.202  0.2283 -0.2174 -0.1591
 2519TIP3    H1 7563   2.094   3.511   4.267 -0.1322  1.9570 -0.7279
 2519TIP3    H2 7564   2.083   3.465   4.124  0.1101  1.9680 -0.7495
 2520TIP3   OH2 7565   6.070   1.212   0.436 -0.4589  0.4213 -0.0973
 2520TIP3    H1 7566   6.085   1.269   0.512  1.4993  0.8482 -0.7395
 2520TIP3    H2 7567   6.137   1.238   0.373 -0.9294 -1.1142 -1.2971
 2521TIP3   OH2 7568   3.694   3.166   3.752 -0.4499 -0.2075  0.1400
 2521TIP3    H1 7569   3.613   3.132   3.790 -1.8240  0.6379 -1.8859
 2521TIP3    H2 7570   3.736   3.090   3.713 -1.2774 -0.3270 -0.5327
 2522TIP3   OH2 7571   3.336   0.943   2.231  0.3948  0.3157  0.2479
 2522TIP3    H1 7572   3.349   0.991   2.313 -0.2694 -0.1074  0.6100
 2522TIP3    H2 7573   3.412   0.885   2.226  0.1585 -0.0558  0.8493
 2523TIP3   OH2 7574   1.642   1.780   1.517  0.0280 -0.0661 -0.0019
 2523TIP3    H1 7575   1.601   1.706   1.562  0.3326  0.4171  1.1229
 2523TIP3    H2 7576   1.620   1.855   1.573  2.2171  0.2435  0.5065
 2524TIP3   OH2 7577   4.506   3.253   1.595  0.6274  0.2452  0.0487
 2524TIP3    H1 7578   4.516   3.169   1.549  0.3578  0.6519 -0.7764
 2524TIP3    H2 7579   4.595   3.278   1.618  0.8226  0.2670 -0.6941
 2525TIP3   OH2 7580   4.951   1.166   3.924 -0.0532  0.1438 -0.0895
 2525TIP3    H1 7581   4.906   1.250   3.932  0.8438  0.5959  0.4174
 2525TIP3    H2 7582   4.929   1.119   4.004 -0.5023 -0.0840 -0.3434
 2526TIP3   OH2 7583   6.243   0.337   3.495  0.2928 -0.4849  0.2365
 2526TIP3    H1 7584   6.256   0.350   3.401  1.5292 -0.9149  0.3249
 2526TIP3    H2 7585   6.294   0.407   3.536  0.7878 -1.0401  0.5912
 2527TIP3   OH2 7586   2.130   0.241   1.158  0.4902 -0.6729 -0.2751
 2527TIP3    H1 7587   2.069   0.252   1.085 -0.7552 -4.1483  0.0433
 2527TIP3    H2 7588   2.095   0.297   1.227 -2.1722 -2.1615 -0.2733
 2528TIP3   OH2 7589   5.562   1.156   2.950  0.1161  0.1516  0.5891
 2528TIP3    H1 7590   5.488   1.096   2.939  0.6582 -0.9167  2.4156
 2528TIP3    H2 7591   5.634   1.100   2.978  1.8602  1.0704 -1.7699
 2529TIP3   OH2 7592   0.211   0.202   4.727 -0.0475 -0.0939 -0.4909
 2529TIP3    H1 7593   0.167   0.264   4.786 -0.1933 -0.1407 -0.5481
 2529TIP3    H2 7594   0.156   0.201   4.649  0.1873  0.0224 -0.6550
 2530TIP3   OH2 7595   0.031   1.432   4.284 -0.2450  0.2991  0.2482
 2530TIP3    H1 7596   0.061   1.416   4.194 -1.1290 -0.8245  0.1358
 2530TIP3    H2 7597  -0.051   1.480   4.273 -0.3716  0.1302  0.4549
 2531TIP3   OH2 7598   5.039   5.680   3.009  0.2930  0.1118 -0.4686
 2531TIP3    H1 7599   5.021   5.613   2.943 -0.1629 -0.0748 -0.1640
 2531TIP3    H2 7600   5.024   5.763   2.964 -2.0698 -0.0346 -0.0591
 2532TIP3   OH2 7601   1.276   5.666   3.742 -0.4820 -0.0431  0.2619
 2532TIP3    H1 7602   1.275   5.732   3.811  1.1281 -0.6973  0.9757
 2532TIP3    H2 7603   1.304   5.586   3.787  0.2711 -0.5637 -1.0772
 2533TIP3   OH2 7604   4.654   0.770   0.163 -0.1539 -0.1626  0.4051
 2533TIP3    H1 7605   4.656   0.849   0.217 -0.7425 -0.1842  0.4602
 2533TIP3    H2 7606   4.739   0.770   0.119  0.2992 -0.0977  1.2609
 2534TIP3   OH2 7607   4.237   5.517   1.026  0.0447  0.9495 -0.2728
 2534TIP3    H1 7608   4.173   5.458   1.065 -0.0939  1.3344  0.0873
 2534TIP3    H2 7609   4.320   5.494   1.068  0.2990 -0.0883 -1.3158
 2535TIP3   OH2 7610   2.026   5.560   0.601  0.1409  0.2689 -0.0791
 2535TIP3    H1 7611   1.970   5.482   0.609  1.8172 -1.3281 -2.6041
 2535TIP3    H2 7612   2.083   5.556   0.677 -0.5420 -0.2955  0.4192
 2536TIP3   OH2 7613   5.437   5.193   4.655  0.2054 -0.3149  0.1511
 2536TIP3    H1 7614   5.494   5.128   4.697  0.3305 -0.0877  0.3350
 2536TIP3    H2 7615   5.486   5.275   4.661 -0.4773  0.0395  0.9946
 2537TIP3   OH2 7616   5.479   4.223   4.728 -0.0768 -0.1775  0.3172
 2537TIP3    H1 7617   5.392   4.185   4.736  0.1349 -0.7531 -0.0754
 2537TIP3    H2 7618   5.486   4.249   4.636 -0.4738  1.4602  0.7037
 2538TIP3   OH2 7619   3.897   4.028   3.634  0.8869  0.1412  0.5275
 2538TIP3    H1 7620   3.959   3.956   3.643  0.5833 -0.1760  0.1301
 2538TIP3    H2 7621   3.814   3.986   3.613  0.2838  0.4797  2.0519
 2539TIP3   OH2 7622   0.457   3.260   0.045 -0.6457 -0.1757  0.3099
 2539TIP3    H1 7623   0.465   3.308  -0.037  0.7985 -0.6742  0.1278
 2539TIP3    H2 7624   0.389   3.195   0.029 -0.0481 -0.5748 -0.6567
 2540TIP3   OH2 7625   5.027   0.288   4.740  0.5532  0.0259 -0.0587
 2540TIP3    H1 7626   4.997   0.361   4.686  1.6846  0.6031  0.0684
 2540TIP3    H2 7627   4.950   0.261   4.790  0.0899  1.0311 -0.2179
 2541TIP3   OH2 7628   3.738   5.168   1.077 -0.0283  0.4159  0.0854
 2541TIP3    H1 7629   3.742   5.075   1.057 -0.9197  0.4830 -0.5012
 2541TIP3    H2 7630   3.678   5.173   1.152 -1.8603  0.6670 -1.3117
 2542TIP3   OH2 7631   0.731   5.025   0.920 -0.4127  0.1217 -0.3266
 2542TIP3    H1 7632   0.635   5.024   0.927 -0.5562  2.1084 -1.2469
 2542TIP3    H2 7633   0.750   4.962   0.851 -0.9232 -1.2291  0.7182
 2543TIP3   OH2 7634   2.846   5.439   0.889 -0.2093 -0.2873  0.9522
 2543TIP3    H1 7635   2.904   5.363   0.891 -1.5584 -2.0546 -5.3179
 2543TIP3    H2 7636   2.904   5.514   0.885  1.6694 -1.7301 -1.4350
 2544TIP3   OH2 7637   0.322   2.978   5.011  0.0672 -0.1415  0.3110
 2544TIP3    H1 7638   0.255   3.025   4.962 -0.1645 -0.7192  0.0657
 2544TIP3    H2 7639   0.404   3.020   4.986 -0.1828  0.4738  0.4971
 2545TIP3   OH2 7640   1.376   4.292   3.414  0.2480  0.0571 -0.4515
 2545TIP3    H1 7641   1.436   4.354   3.457 -1.5678  1.3477  0.3410
 2545TIP3    H2 7642   1.314   4.267   3.483 -1.8143  0.9587 -1.8947
 2546TIP3   OH2 7643   4.354   2.962   2.152  0.3543  0.1205 -0.1743
 2546TIP3    H1 7644   4.348   3.032   2.088 -1.3492 -0.5289 -0.7702
 2546TIP3    H2 7645   4.396   3.003   2.228 -3.4551  2.8348  0.7937
 2547TIP3   OH2 7646   5.773   5.689   2.716  0.5602 -0.3753  0.5882
 2547TIP3    H1 7647   5.712   5.762   2.709 -0.6144 -1.0082  2.9755
 2547TIP3    H2 7648   5.729   5.617   2.671  0.5697 -0.2461  0.3746
 2548TIP3   OH2 7649   5.703   2.044   0.641 -0.1806  0.0582  0.0301
 2548TIP3    H1 7650   5.788   2.003   0.628 -0.3401  0.5089 -3.1122
 2548TIP3    H2 7651   5.724   2.134   0.665  0.2137 -0.1005  0.2985
 2549TIP3   OH2 7652   4.145   2.099   0.501 -0.8522  0.1716 -0.1894
 2549TIP3    H1 7653   4.124   2.151   0.424 -0.1721  1.0289  0.1887
 2549TIP3    H2 7654   4.201   2.156   0.555  0.2343 -1.0641  0.0613
 2550TIP3   OH2 7655   1.641   4.137   0.557 -0.1515 -0.1109  0.6053
 2550TIP3    H1 7656   1.639   4.159   0.650 -1.3509 -0.5552  0.7066
 2550TIP3    H2 7657   1.707   4.195   0.520 -0.4310  0.8304  1.5409
 2551TIP3   OH2 7658   4.105   5.328   2.463 -0.3549 -0.3153 -0.5943
 2551TIP3    H1 7659   4.150   5.286   2.390 -1.3112 -0.8139 -0.9144
 2551TIP3    H2 7660   4.013   5.328   2.437 -0.4858  1.2968 -0.2721
 2552TIP3   OH2 7661   5.930   0.650   0.348  0.0828  0.5189 -0.2659
 2552TIP3    H1 7662   5.965   0.717   0.407  0.1323  0.0415  0.2498
 2552TIP3    H2 7663   5.891   0.585   0.406  0.1944  0.0089 -0.7574
 2553TIP3   OH2 7664   5.668   0.886   2.581 -0.2955 -0.8900 -0.2260
 2553TIP3    H1 7665   5.700   0.826   2.648  1.0974  0.0345 -0.0159
 2553TIP3    H2 7666   5.747   0.930   2.548 -1.1450 -0.0197 -1.1845
 2554TIP3   OH2 7667   0.617   0.431   4.218  0.1831  0.3787 -0.8219
 2554TIP3    H1 7668   0.589   0.364   4.156  0.9473 -1.3994  0.6632
 2554TIP3    H2 7669   0.576   0.407   4.301  2.4605  0.2206  0.3450
 2555TIP3   OH2 7670   5.043   1.228   1.065 -0.4589  0.0439  0.1199
 2555TIP3    H1 7671   5.129   1.261   1.040  0.1878 -1.5888  0.0359
 2555TIP3    H2 7672   5.054   1.198   1.155 -0.6570 -1.0421 -0.2017
 2556TIP3   OH2 7673   2.206   1.727   1.629 -0.3849 -0.3060 -0.7215
 2556TIP3    H1 7674   2.243   1.645   1.594  2.2347  0.7415 -0.6654
 2556TIP3    H2 7675   2.251   1.796   1.580  1.3064  1.1673  2.5565
 2557TIP3   OH2 7676   2.053   5.446   1.741  0.1562 -0.4573 -0.3819
 2557TIP3    H1 7677   1.961   5.450   1.769  0.5338 -0.2863  0.9272
 2557TIP3    H2 7678   2.054   5.485   1.654 -1.0955 -0.9577 -0.6306
 2558TIP3   OH2 7679   6.133   5.910   4.615 -0.0060  0.0215 -0.4239
 2558TIP3    H1 7680   6.144   5.988   4.668  2.0605  0.5896 -1.5862
 2558TIP3    H2 7681   6.038   5.901   4.605 -0.3676  1.0557  1.5912
 2559TIP3   OH2 7682   4.844   0.460   0.242  0.6716  0.8903  0.0469
 2559TIP3    H1 7683   4.846   0.429   0.333 -0.7890  0.4480 -0.0487
 2559TIP3    H2 7684   4.779   0.405   0.199  1.1295  1.2908 -1.2106
 2560TIP3   OH2 7685   0.634   2.339   2.145 -0.2226 -0.2155  0.1568
 2560TIP3    H1 7686   0.696   2.293   2.202 -0.6682  0.0749  0.8841
 2560TIP3    H2 7687   0.619   2.423   2.188  0.7521  0.7366 -1.2653
 2561TIP3   OH2 7688   0.556   0.981   0.528 -0.0650 -0.2635  0.3432
 2561TIP3    H1 7689   0.514   1.030   0.599 -0.2598  0.5746 -0.3370
 2561TIP3    H2 7690   0.487   0.966   0.464  0.6933  1.4320 -0.9476
 2562TIP3   OH2 7691   0.714   2.651   1.604 -0.3353  0.0213 -0.2683
 2562TIP3    H1 7692   0.645   2.603   1.649 -0.1367 -0.9283 -0.9568
 2562TIP3    H2 7693   0.709   2.740   1.640 -1.0890 -0.3584  0.5901
 2563TIP3   OH2 7694   5.265   1.452   1.704  0.1338 -0.2996 -0.1642
 2563TIP3    H1 7695   5.329   1.507   1.659 -1.2341 -0.6088 -2.6379
 2563TIP3    H2 7696   5.182   1.499   1.694 -0.2023 -0.1882  2.4763
 2564TIP3   OH2 7697   2.074   0.445   2.063 -0.0578  0.1164  0.5004
 2564TIP3    H1 7698   2.006   0.509   2.084  0.8773  0.8278  1.4053
 2564TIP3    H2 7699   2.071   0.382   2.135  0.6063  0.4508  0.8213
 2565TIP3   OH2 7700   2.199   3.110   3.804  0.0791 -0.2795  0.4600
 2565TIP3    H1 7701   2.115   3.149   3.779  0.5436 -0.5962 -1.8337
 2565TIP3    H2 7702   2.256   3.186   3.819 -0.6404 -0.0523  2.3864
 2566TIP3   OH2 7703   5.168   1.821   1.742 -0.9245  0.3773  0.0295
 2566TIP3    H1 7704   5.098   1.756   1.737 -0.6974  0.1424 -0.1364
 2566TIP3    H2 7705   5.169   1.850   1.833  0.5746 -1.6267  0.7051
 2567TIP3   OH2 7706   1.729   1.260   3.562  0.2370  0.1830 -0.2507
 2567TIP3    H1 7707   1.709   1.249   3.469  0.9995  1.7869 -0.6411
 2567TIP3    H2 7708   1.649   1.298   3.600  0.2429  0.3872 -0.4429
 2568TIP3   OH2 7709   5.898   5.832   1.803 -0.5949 -0.0279  0.5191
 2568TIP3    H1 7710   5.959   5.883   1.750 -0.6927 -0.9009 -0.4808
 2568TIP3    H2 7711   5.900   5.873   1.889  1.1036  0.2181  0.3985
 2569TIP3   OH2 7712   3.902   4.191   2.942  0.1842 -0.4432 -0.0126
 2569TIP3    H1 7713   3.871   4.115   2.894 -0.5697 -1.1612  1.5247
 2569TIP3    H2 7714   3.845   4.263   2.915 -1.7534 -1.3494  1.4602
 2570TIP3   OH2 7715   0.660   1.682   1.577 -0.1333 -0.7784  0.8155
 2570TIP3    H1 7716   0.575   1.700   1.617  0.3362  1.8822  0.7830
 2570TIP3    H2 7717   0.721   1.738   1.624  1.0676 -0.2651 -1.2280
 2571TIP3   OH2 7718   1.537   3.452   4.607  0.0764 -0.3365 -0.2716
 2571TIP3    H1 7719   1.477   3.443   4.533 -0.0452 -1.9001 -0.0056
 2571TIP3    H2 7720   1.507   3.531   4.652  0.0943  0.5952 -1.8148
 2572TIP3   OH2 7721   0.774   4.447   3.180 -0.2516  0.5482  0.2246
 2572TIP3    H1 7722   0.851   4.400   3.210 -0.5186  0.5751  0.9882
 2572TIP3    H2 7723   0.702   4.408   3.230 -0.9521 -0.4545 -1.4846
 2573TIP3   OH2 7724   3.991   2.427   3.057 -0.7047  0.4618 -0.9625
 2573TIP3    H1 7725   4.085   2.418   3.041 -0.3848 -0.0871  0.9651
 2573TIP3    H2 7726   3.973   2.520   3.041  0.3049  0.7080 -0.7288
 2574TIP3   OH2 7727   0.051   2.955   0.167 -0.2237 -0.2657  0.3663
 2574TIP3    H1 7728   0.112   2.937   0.096  0.6646 -0.3356  1.1245
 2574TIP3    H2 7729   0.049   2.873   0.218 -0.9662 -0.2688  0.3389
 2575TIP3   OH2 7730   4.141   1.781   2.806  0.1144 -0.2185  0.7482
 2575TIP3    H1 7731   4.222   1.828   2.789 -0.2607  0.3256  0.4166
 2575TIP3    H2 7732   4.085   1.801   2.730  0.1655 -1.7096  0.2758
 2576TIP3   OH2 7733   1.085   4.961   5.176  0.3152  0.0845  0.3912
 2576TIP3    H1 7734   1.011   4.949   5.235  0.4370 -1.2278  0.2976
 2576TIP3    H2 7735   1.050   5.014   5.105 -0.0826  0.8800  1.1571
 2577TIP3   OH2 7736   3.364   4.203   1.623  0.5536  0.4596  0.7846
 2577TIP3    H1 7737   3.289   4.253   1.593  0.8926  1.3454  1.3886
 2577TIP3    H2 7738   3.433   4.268   1.636  1.8379 -0.4547 -0.9664
 2578TIP3   OH2 7739   0.073   3.403   4.483 -0.8219 -0.1105  0.1256
 2578TIP3    H1 7740   0.115   3.476   4.438 -1.4276  1.4799  2.0080
 2578TIP3    H2 7741   0.123   3.391   4.564 -3.1951  1.1423  1.9195
 2579TIP3   OH2 7742   0.242   2.343   1.466 -0.0300 -0.1281  0.2327
 2579TIP3    H1 7743   0.171   2.292   1.427 -1.0961  1.9121 -0.6370
 2579TIP3    H2 7744   0.273   2.289   1.539 -0.8664 -2.1211 -0.8189
 2580TIP3   OH2 7745   3.319   3.692   3.150  0.2245 -0.4095  0.6824
 2580TIP3    H1 7746   3.291   3.739   3.072  0.9428 -0.7485  0.2161
 2580TIP3    H2 7747   3.252   3.626   3.164 -0.2527  0.0808  0.7463
 2581TIP3   OH2 7748   2.406   1.827   0.636 -0.0688  0.2288 -0.1518
 2581TIP3    H1 7749   2.404   1.757   0.571  0.2724 -0.5396  0.6512
 2581TIP3    H2 7750   2.499   1.836   0.658 -0.1738  0.5433  0.1691
 2582TIP3   OH2 7751   2.785   2.852   3.409 -0.1980 -0.4018 -0.0419
 2582TIP3    H1 7752   2.791   2.757   3.420  0.4489 -0.4774 -0.9657
 2582TIP3    H2 7753   2.736   2.864   3.328 -1.8113  0.0956  0.9504
 2583TIP3   OH2 7754   5.284   3.438   4.277  0.1296  0.4440 -0.1685
 2583TIP3    H1 7755   5.266   3.449   4.183 -0.6475  0.0803 -0.0706
 2583TIP3    H2 7756   5.378   3.420   4.281 -0.0702 -1.0379 -1.0286
 2584TIP3   OH2 7757   4.732   4.681   4.613 -0.3252  0.1868 -0.3736
 2584TIP3    H1 7758   4.721   4.763   4.659  0.6122  0.0448  0.1407
 2584TIP3    H2 7759   4.753   4.706   4.523  1.1364  0.5683  0.0423
 2585TIP3   OH2 7760   5.263   2.808   1.103 -0.0543 -0.7413 -0.2450
 2585TIP3    H1 7761   5.290   2.729   1.055 -0.7067 -0.4185 -1.1562
 2585TIP3    H2 7762   5.321   2.876   1.070 -0.2905 -0.5865 -0.3395
 2586TIP3   OH2 7763   2.964   1.746   1.672  0.4549 -0.3100  0.0204
 2586TIP3    H1 7764   2.906   1.740   1.749  1.4019 -0.1783  0.7646
 2586TIP3    H2 7765   2.906   1.729   1.598 -0.1517 -2.3885  0.8722
 2587TIP3   OH2 7766   0.540   1.314   4.932  0.3495  0.4185  0.1275
 2587TIP3    H1 7767   0.636   1.313   4.934  0.4596 -0.9402 -2.0137
 2587TIP3    H2 7768   0.518   1.298   4.841 -1.9566  1.8566  0.3631
 2588TIP3   OH2 7769   4.535   3.782   0.422 -0.0860  0.1992 -0.1955
 2588TIP3    H1 7770   4.471   3.832   0.372 -0.0574  1.1315  0.6899
 2588TIP3    H2 7771   4.619   3.824   0.403  0.0816 -0.1472 -0.2395
 2589TIP3   OH2 7772   4.790   5.865   5.155  0.5606 -0.3167  0.0817
 2589TIP3    H1 7773   4.786   5.954   5.191  0.2720 -0.3768  0.1939
 2589TIP3    H2 7774   4.879   5.859   5.118  0.8493 -0.2458  0.7504
 2590TIP3   OH2 7775   6.124   4.009   1.308 -0.1796  0.9958  1.0165
 2590TIP3    H1 7776   6.115   4.020   1.403 -0.3688  1.3583  0.9595
 2590TIP3    H2 7777   6.195   4.069   1.285 -1.2359  2.1696  0.6953
 2591TIP3   OH2 7778   5.864   0.267   2.411  0.3686  0.0255  0.0191
 2591TIP3    H1 7779   5.793   0.329   2.393 -0.0693 -0.6168 -0.4817
 2591TIP3    H2 7780   5.853   0.198   2.346  0.4056 -0.9684  1.0432
 2592TIP3   OH2 7781   2.216   3.836   3.205 -0.1400 -0.5956  0.8295
 2592TIP3    H1 7782   2.230   3.802   3.117 -0.4034 -1.4650  1.1142
 2592TIP3    H2 7783   2.137   3.791   3.236 -1.2450  1.1993  0.7668
 2593TIP3   OH2 7784   0.636   5.480   3.986 -0.6219 -0.2776  0.3622
 2593TIP3    H1 7785   0.700   5.532   3.937 -1.7636  0.4726 -0.3870
 2593TIP3    H2 7786   0.573   5.545   4.018 -1.8115 -1.1457 -0.1675
 2594TIP3   OH2 7787   5.546   5.322   5.046 -0.6883 -0.2397 -0.2062
 2594TIP3    H1 7788   5.610   5.329   4.975  0.0488  1.6937  0.5794
 2594TIP3    H2 7789   5.576   5.386   5.111 -3.4007  0.6809  0.2274
 2595TIP3   OH2 7790   2.788   2.956   4.162 -0.0378  0.0847  0.6841
 2595TIP3    H1 7791   2.697   2.985   4.172  0.0437 -0.2143  2.9477
 2595TIP3    H2 7792   2.839   3.034   4.182  0.2629  0.5379 -1.6252
 2596TIP3   OH2 7793   0.982   3.285   2.867 -0.2674 -0.1870 -0.6066
 2596TIP3    H1 7794   0.901   3.285   2.816  0.3142 -1.7881 -1.5922
 2596TIP3    H2 7795   0.989   3.196   2.901  0.9189  0.0313 -0.2453
 2597TIP3   OH2 7796   4.518   1.072   0.834 -0.1439 -0.4493 -0.3253
 2597TIP3    H1 7797   4.491   1.047   0.922 -0.4153 -1.1019 -0.5861
 2597TIP3    H2 7798   4.586   1.138   0.847 -1.0128  0.3402  0.3668
 2598TIP3   OH2 7799   4.447   2.116   2.299 -0.1418  0.3358 -0.1215
 2598TIP3    H1 7800   4.513   2.167   2.252 -0.0294  1.7223  1.4671
 2598TIP3    H2 7801   4.390   2.082   2.229  2.0801 -0.7571 -1.5178
 2599TIP3   OH2 7802   3.170   0.483   4.685 -0.0884 -0.4754  0.1383
 2599TIP3    H1 7803   3.186   0.564   4.733  0.6517 -1.0271  0.8505
 2599TIP3    H2 7804   3.093   0.502   4.632  0.2618  0.8019  0.0364
 2600TIP3   OH2 7805   1.606   3.354   0.012 -0.2255 -0.0247 -0.0628
 2600TIP3    H1 7806   1.625   3.363   0.105 -1.6905 -1.8623  0.4840
 2600TIP3    H2 7807   1.638   3.267  -0.011 -1.0259 -0.1043 -0.9486
 2601TIP3   OH2 7808   2.805   3.521   4.520  0.5041 -0.2500  0.2243
 2601TIP3    H1 7809   2.731   3.468   4.491  1.2655 -0.5710 -1.2254
 2601TIP3    H2 7810   2.879   3.460   4.520  1.1929  0.5635 -0.4845
 2602TIP3   OH2 7811   1.735   5.841   1.411  0.4413  0.4318  0.6648
 2602TIP3    H1 7812   1.789   5.909   1.372  0.8095  0.0317  0.4760
 2602TIP3    H2 7813   1.654   5.842   1.359  1.7568 -1.6229 -1.6795
 2603TIP3   OH2 7814   1.845   2.979   3.092  0.6646  0.5223 -0.2497
 2603TIP3    H1 7815   1.873   3.061   3.134  2.0908  0.8698 -1.7579
 2603TIP3    H2 7816   1.901   2.913   3.132 -0.4899  0.2442  0.9712
 2604TIP3   OH2 7817   6.247   0.737   4.096 -0.1512 -0.3619  0.3717
 2604TIP3    H1 7818   6.211   0.691   4.171 -0.4020 -0.2532  0.3183
 2604TIP3    H2 7819   6.305   0.802   4.134  1.4562 -1.7450  0.4139
 2605TIP3   OH2 7820   0.272   3.132   0.854 -0.1331  0.2909 -0.0939
 2605TIP3    H1 7821   0.192   3.079   0.847  0.3463 -0.6866  1.4044
 2605TIP3    H2 7822   0.331   3.080   0.908 -0.0978  2.9232  2.6304
 2606TIP3   OH2 7823   1.468   2.393   4.535  0.0693  0.3874  0.1013
 2606TIP3    H1 7824   1.390   2.423   4.489 -0.1300 -1.2867 -0.7057
 2606TIP3    H2 7825   1.455   2.423   4.625 -0.2089  2.4658 -0.5702
 2607TIP3   OH2 7826   5.980   3.626   3.743  0.1637  1.0847  0.3506
 2607TIP3    H1 7827   5.975   3.653   3.652 -1.1028  0.7022  0.2818
 2607TIP3    H2 7828   5.925   3.548   3.748  0.5981  0.8219  1.3433
 2608TIP3   OH2 7829   5.885   5.149   0.342 -0.2948 -0.1385 -0.2034
 2608TIP3    H1 7830   5.867   5.095   0.265  2.4442 -1.1496 -0.2557
 2608TIP3    H2 7831   5.856   5.096   0.416 -1.7160  0.2695 -0.4500
 2609TIP3   OH2 7832   3.832   2.545   1.398 -0.6480  0.0679  0.0629
 2609TIP3    H1 7833   3.912   2.510   1.435 -0.5722  1.2454  1.0656
 2609TIP3    H2 7834   3.762   2.497   1.442 -0.5462 -2.3041 -2.1546
 2610TIP3   OH2 7835   0.982   1.366   4.184  0.2571  0.0403  0.0540
 2610TIP3    H1 7836   0.924   1.303   4.140 -0.8385  1.7673 -1.1244
 2610TIP3    H2 7837   1.057   1.375   4.124  1.1978 -1.2638  0.9821
 2611TIP3   OH2 7838   4.387   4.896   0.309  0.0587  0.5703  0.3159
 2611TIP3    H1 7839   4.426   4.888   0.222  0.0663 -0.0459  0.3764
 2611TIP3    H2 7840   4.297   4.926   0.291  0.1341  0.6801  0.1131
 2612TIP3   OH2 7841   1.254   4.750   4.216 -0.3212  0.5971  0.0803
 2612TIP3    H1 7842   1.262   4.708   4.302  3.2168 -1.0679 -0.9034
 2612TIP3    H2 7843   1.307   4.829   4.223  0.5202  0.1105 -0.7465
 2613TIP3   OH2 7844   2.601   5.516   3.722 -0.1858 -0.5408 -0.1434
 2613TIP3    H1 7845   2.583   5.596   3.672  0.8668 -0.4699 -0.4429
 2613TIP3    H2 7846   2.594   5.543   3.814 -0.6564 -0.3088 -0.2456
 2614TIP3   OH2 7847   2.671   1.020   3.159 -0.0683  0.4136  0.2849
 2614TIP3    H1 7848   2.758   1.051   3.186 -0.7857 -0.5407  4.2494
 2614TIP3    H2 7849   2.678   0.925   3.163 -0.8627  0.2835 -1.0825
 2615TIP3   OH2 7850   3.498   3.799   1.370 -0.0988  0.1520 -0.5255
 2615TIP3    H1 7851   3.550   3.734   1.417 -0.3727  0.1833 -0.1761
 2615TIP3    H2 7852   3.501   3.877   1.426 -0.5740  0.1351 -0.4760
 2616TIP3   OH2 7853   0.284   3.795   1.424  0.0052  0.2276 -0.0891
 2616TIP3    H1 7854   0.231   3.817   1.348  0.2823 -1.4760 -0.8142
 2616TIP3    H2 7855   0.323   3.710   1.403  2.3791  1.0301  0.7590
 2617TIP3   OH2 7856   2.259   2.232   2.397 -0.0373 -0.0305 -0.1939
 2617TIP3    H1 7857   2.254   2.305   2.459  1.9413  1.0549 -1.2066
 2617TIP3    H2 7858   2.174   2.229   2.355 -0.7959  0.3980  1.2439
 2618TIP3   OH2 7859   3.074   5.117   3.930  0.1316  0.1296 -0.3790
 2618TIP3    H1 7860   3.017   5.067   3.988 -0.4593  0.5824 -0.5472
 2618TIP3    H2 7861   3.030   5.115   3.845 -0.4248  1.7088 -0.1734
 2619TIP3   OH2 7862   5.944   0.473   3.479  0.1458  0.1240 -0.2287
 2619TIP3    H1 7863   5.923   0.550   3.533  0.7992  1.7290 -2.1567
 2619TIP3    H2 7864   5.861   0.449   3.438 -0.0542 -0.2209  0.3601
 2620TIP3   OH2 7865   1.453   2.788   2.765  0.4140  0.1427  0.2888
 2620TIP3    H1 7866   1.532   2.842   2.765  0.9478 -0.5915 -0.6201
 2620TIP3    H2 7867   1.385   2.843   2.803  1.5981  0.4266  2.0957
 2621TIP3   OH2 7868   0.994   2.768   4.840  0.0999  0.4288 -0.1595
 2621TIP3    H1 7869   1.080   2.778   4.881 -0.2980  1.4281  0.4884
 2621TIP3    H2 7870   0.996   2.682   4.800  0.7806 -0.3040  1.3707
 2622TIP3   OH2 7871   5.391   4.855   1.298  0.0703 -0.2858 -0.6187
 2622TIP3    H1 7872   5.420   4.772   1.335  0.0071 -0.2455 -0.4781
 2622TIP3    H2 7873   5.347   4.900   1.370  0.6687  0.1488 -0.5168
 2623TIP3   OH2 7874   3.581   4.546   0.604 -0.0149 -0.0036 -0.4091
 2623TIP3    H1 7875   3.538   4.618   0.557 -0.1382  2.6182  3.2871
 2623TIP3    H2 7876   3.674   4.568   0.601  0.0431 -0.1958 -0.0370
 2624TIP3   OH2 7877   5.535   4.423   2.107  0.2763 -0.1510  0.0631
 2624TIP3    H1 7878   5.603   4.385   2.051 -0.7582 -0.8828 -0.7330
 2624TIP3    H2 7879   5.452   4.395   2.068 -0.5120  1.1863  0.6850
 2625TIP3   OH2 7880   2.212   4.885   2.842  0.2204 -0.3840  0.0896
 2625TIP3    H1 7881   2.121   4.869   2.817 -0.0591 -0.9216  1.4047
 2625TIP3    H2 7882   2.254   4.799   2.838  0.3370 -0.3640  0.7854
 2626TIP3   OH2 7883   0.611   2.538   4.368 -0.0247  0.0229  0.3231
 2626TIP3    H1 7884   0.599   2.621   4.413  0.0062 -0.1833  0.7192
 2626TIP3    H2 7885   0.524   2.513   4.339 -0.0757  0.0593  0.4449
 2627TIP3   OH2 7886   3.052   3.789   2.609  0.2996 -0.2760 -0.1667
 2627TIP3    H1 7887   3.143   3.815   2.590  0.0380  0.8817  0.1184
 2627TIP3    H2 7888   3.038   3.813   2.700 -0.5521  0.3007 -0.4397
 2628TIP3   OH2 7889   1.926   0.640   3.655 -0.7136 -0.1097  0.1363
 2628TIP3    H1 7890   1.834   0.639   3.629 -1.3808 -0.3352  2.3395
 2628TIP3    H2 7891   1.925   0.648   3.750  1.5674  0.1782  0.2071
 2629TIP3   OH2 7892   3.297   1.402   4.998 -0.3738  0.1242 -0.0676
 2629TIP3    H1 7893   3.313   1.321   4.951  1.1493 -0.2014  0.9208
 2629TIP3    H2 7894   3.203   1.405   5.011 -0.4882 -1.2873 -0.4597
 2630TIP3   OH2 7895   1.670   2.655   1.006 -0.5094 -0.4394  0.4658
 2630TIP3    H1 7896   1.669   2.599   0.929  0.4052 -0.1694  0.2508
 2630TIP3    H2 7897   1.726   2.728   0.982 -0.7062 -0.0481  1.1767
 2631TIP3   OH2 7898   4.809   1.389   0.033 -0.2793  0.3570 -0.5311
 2631TIP3    H1 7899   4.781   1.303   0.065 -1.2336  1.2901  1.2770
 2631TIP3    H2 7900   4.728   1.432   0.007 -0.1655  1.7056  1.1994
 2632TIP3   OH2 7901   2.494   3.954   0.880  0.0825  0.2509 -0.7241
 2632TIP3    H1 7902   2.453   4.034   0.846  0.0021  0.2956 -0.5239
 2632TIP3    H2 7903   2.485   3.962   0.975  2.7198  1.4687 -0.4734
 2633TIP3   OH2 7904   6.342   1.148   1.904 -0.0827  0.0048  0.2222
 2633TIP3    H1 7905   6.273   1.082   1.909  2.0935 -2.4669 -0.2582
 2633TIP3    H2 7906   6.356   1.161   1.810  0.7422 -0.2637  0.2994
 2634TIP3   OH2 7907   0.712   4.874   3.730 -0.9465  0.4262 -0.9970
 2634TIP3    H1 7908   0.654   4.799   3.743  1.2844 -1.4228 -1.1597
 2634TIP3    H2 7909   0.723   4.912   3.817 -0.4276 -0.7639 -0.5249
 2635TIP3   OH2 7910   0.669   1.239   0.880  0.2143  0.2114  0.0258
 2635TIP3    H1 7911   0.696   1.167   0.938  0.6349  0.7565  0.5249
 2635TIP3    H2 7912   0.751   1.280   0.853  0.0073  0.0939 -0.7969
 2636TIP3   OH2 7913   3.105   0.931   4.604  0.3757 -0.3737  0.1177
 2636TIP3    H1 7914   3.197   0.936   4.581  0.3830  1.7008  0.4114
 2636TIP3    H2 7915   3.061   0.905   4.523  0.8907  2.1312 -1.0639
 2637TIP3   OH2 7916   0.260   0.616   0.765  0.3241  0.1749  0.1622
 2637TIP3    H1 7917   0.352   0.609   0.792  0.9604  1.9119 -1.3325
 2637TIP3    H2 7918   0.231   0.701   0.797 -0.6268 -0.1700  0.2376
 2638TIP3   OH2 7919   5.260   2.710   4.913 -0.2154 -0.1376 -0.3631
 2638TIP3    H1 7920   5.324   2.655   4.960 -0.2215 -1.1873 -1.5371
 2638TIP3    H2 7921   5.306   2.793   4.899  0.2134 -0.2236  0.4158
 2639TIP3   OH2 7922   1.913   3.064   4.500 -0.0694 -0.0901  0.0604
 2639TIP3    H1 7923   1.964   3.088   4.423 -1.6563 -1.5214 -1.5514
 2639TIP3    H2 7924   1.951   3.114   4.572  0.8381  2.0985 -1.8373
 2640TIP3   OH2 7925   3.302   0.765   4.000  0.7617 -0.2282 -0.1090
 2640TIP3    H1 7926   3.371   0.831   4.006  1.4621 -1.0334  1.1049
 2640TIP3    H2 7927   3.346   0.682   4.018  0.4309 -1.4485 -3.9384
 2641TIP3   OH2 7928   0.662   4.123   2.711  0.4525  0.3420 -0.3193
 2641TIP3    H1 7929   0.568   4.135   2.725  0.5242  0.8303 -0.2376
 2641TIP3    H2 7930   0.694   4.085   2.793  0.2986  0.0030 -0.4139
 2642TIP3   OH2 7931   5.715   1.187   4.804 -0.2910  1.0709  0.2111
 2642TIP3    H1 7932   5.640   1.134   4.777  0.3188 -0.4950  1.4195
 2642TIP3    H2 7933   5.781   1.170   4.738 -0.3742  0.9476  0.1578
 2643TIP3   OH2 7934   4.379   5.695   4.478 -0.5498  0.3042 -0.2719
 2643TIP3    H1 7935   4.460   5.739   4.453  0.2500 -0.8595  0.2245
 2643TIP3    H2 7936   4.336   5.676   4.395 -0.2408  0.7744 -0.5464
 2644TIP3   OH2 7937   5.309   5.712   3.733 -0.1608 -0.3431  0.1270
 2644TIP3    H1 7938   5.361   5.728   3.655  0.9540 -0.5794  0.7963
 2644TIP3    H2 7939   5.323   5.619   3.752  0.9740  0.0898  1.5672
 2645TIP3   OH2 7940   1.804   3.132   0.086 -0.9150 -0.4880  0.6791
 2645TIP3    H1 7941   1.811   3.046   0.126 -1.0647 -1.0764 -0.5116
 2645TIP3    H2 7942   1.895   3.156   0.065 -0.8033 -0.0354  1.6292
 2646TIP3   OH2 7943   6.045   1.670   4.021  0.2559 -0.7461  0.1329
 2646TIP3    H1 7944   6.111   1.612   3.983  0.6802  0.6317 -1.3494
 2646TIP3    H2 7945   5.963   1.620   4.015  0.9655 -2.1198  1.1804
 2647TIP3   OH2 7946   4.714   1.519   0.886 -0.1263 -0.5490 -0.0422
 2647TIP3    H1 7947   4.634   1.494   0.933 -0.0572  0.0907  0.4344
 2647TIP3    H2 7948   4.713   1.614   0.887  1.5371 -0.4869  1.5731
 2648TIP3   OH2 7949   1.521   3.980   0.815 -0.0291  0.5077 -0.5468
 2648TIP3    H1 7950   1.464   4.050   0.785 -1.9041 -0.1472  1.2577
 2648TIP3    H2 7951   1.597   4.025   0.853 -1.0354  1.5855  0.2453
 2649TIP3   OH2 7952   2.504   2.604   4.061 -0.0602 -1.2114  0.7694
 2649TIP3    H1 7953   2.508   2.676   3.998  0.3112 -1.2513  0.7453
 2649TIP3    H2 7954   2.444   2.634   4.129 -0.9674 -1.4122  0.0833
 2650TIP3   OH2 7955   5.428   3.107   2.842  0.0605  0.7032 -0.1763
 2650TIP3    H1 7956   5.503   3.074   2.891  0.7112  2.3300 -0.0174
 2650TIP3    H2 7957   5.429   3.202   2.857 -1.2783  0.9141 -1.2071
 2651TIP3   OH2 7958   2.807   4.290   0.088 -0.0008  0.7784 -0.7899
 2651TIP3    H1 7959   2.837   4.212   0.042  1.5900 -0.5043  2.1453
 2651TIP3    H2 7960   2.745   4.257   0.153  0.4130  2.0038  0.2514
 2652TIP3   OH2 7961   4.201   5.722   0.535  0.3544  0.8125  0.5749
 2652TIP3    H1 7962   4.142   5.685   0.600  0.8073 -0.9801  0.0242
 2652TIP3    H2 7963   4.147   5.733   0.456  0.3504  0.8131  0.5778
 2653TIP3   OH2 7964   3.413   2.673   4.678 -0.0830  0.2216 -0.3148
 2653TIP3    H1 7965   3.336   2.629   4.642 -0.1143  0.0382 -0.0234
 2653TIP3    H2 7966   3.476   2.603   4.694  0.5503  0.4785 -1.5225
 2654TIP3   OH2 7967   3.754   1.298   3.136  0.3501  0.1570 -0.0319
 2654TIP3    H1 7968   3.666   1.293   3.098  0.3363  0.0367  0.0159
 2654TIP3    H2 7969   3.739   1.312   3.229  0.3827  1.8009 -0.2351
 2655TIP3   OH2 7970   4.393   0.210   3.597 -0.7553 -0.4473  0.1595
 2655TIP3    H1 7971   4.443   0.129   3.598  1.8284  1.0508  0.6976
 2655TIP3    H2 7972   4.394   0.237   3.505 -0.7699 -0.5150  0.1392
 2656TIP3   OH2 7973   2.056   2.165   2.692  0.6384  0.0713 -0.2326
 2656TIP3    H1 7974   2.050   2.105   2.766 -1.1716  1.5308  0.9032
 2656TIP3    H2 7975   1.968   2.166   2.654  1.2832  0.1222 -1.8089
 2657TIP3   OH2 7976   3.784   2.876   0.294  0.6801 -0.5520  0.4301
 2657TIP3    H1 7977   3.762   2.900   0.385  1.0301 -1.6297  0.8093
 2657TIP3    H2 7978   3.725   2.804   0.274  0.0772  0.1771 -0.4802
 2658TIP3   OH2 7979   4.327   3.526   3.067 -0.0949  0.0848  0.3882
 2658TIP3    H1 7980   4.360   3.448   3.112 -0.2261 -1.7881 -2.5035
 2658TIP3    H2 7981   4.245   3.547   3.113  0.2355 -1.1051  1.5803
 2659TIP3   OH2 7982   0.256   4.932   5.116  0.0493  0.4821  0.4507
 2659TIP3    H1 7983   0.202   4.931   5.037  0.9844  1.7531 -0.2201
 2659TIP3    H2 7984   0.237   4.848   5.158 -0.1043 -0.4448 -1.3625
 2660TIP3   OH2 7985   6.219   3.503   1.201  0.1890  0.0534 -0.1452
 2660TIP3    H1 7986   6.277   3.569   1.241  0.9568  0.2860 -1.5627
 2660TIP3    H2 7987   6.265   3.420   1.216 -0.7071 -0.1902  1.5123
 2661TIP3   OH2 7988   4.123   2.255   0.280 -0.3944 -0.3411 -0.1420
 2661TIP3    H1 7989   4.146   2.260   0.188  0.9907  0.0644  0.2063
 2661TIP3    H2 7990   4.161   2.334   0.319 -0.2651 -0.9051  0.9182
 2662TIP3   OH2 7991   1.117   5.908   0.122  0.1478 -0.8595 -0.4566
 2662TIP3    H1 7992   1.066   5.829   0.141 -0.3539 -1.1105 -2.5736
 2662TIP3    H2 7993   1.052   5.974   0.099  0.6374 -0.2198 -0.0325
 2663TIP3   OH2 7994   5.133   3.828   2.351  0.3019  0.3440 -0.0133
 2663TIP3    H1 7995   5.172   3.764   2.292  0.0355 -0.1219  0.3077
 2663TIP3    H2 7996   5.069   3.778   2.402  0.3803  0.7790  0.5255
 2664TIP3   OH2 7997   3.189   2.939   2.091 -0.3975 -0.2512 -0.0009
 2664TIP3    H1 7998   3.223   2.981   2.012  1.9166 -1.7798  0.0713
 2664TIP3    H2 7999   3.177   2.847   2.066  1.6168 -1.0604  1.6490
 2665TIP3   OH2 8000   5.517   1.222   3.626 -0.0262  0.4770  0.1104
 2665TIP3    H1 8001   5.566   1.141   3.638  2.3042  2.0156  2.0026
 2665TIP3    H2 8002   5.569   1.272   3.563 -1.7429  0.3581 -1.4812
 2666TIP3   OH2 8003   4.526   2.937   0.668 -0.6719  0.0415  0.7410
 2666TIP3    H1 8004   4.619   2.916   0.658 -0.6769  0.0272  0.7249
 2666TIP3    H2 8005   4.484   2.852   0.682 -0.4836  0.1732  2.3099
 2667TIP3   OH2 8006   1.072   0.260   0.303  0.3430 -0.0512 -0.3890
 2667TIP3    H1 8007   1.036   0.172   0.313 -1.0727  0.6409  1.0010
 2667TIP3    H2 8008   1.130   0.253   0.227 -0.0516 -2.0701 -0.5710
 2668TIP3   OH2 8009   4.493   4.424   0.104 -0.0026  0.1975 -0.1571
 2668TIP3    H1 8010   4.547   4.495   0.069  2.2831 -1.0644  0.5659
 2668TIP3    H2 8011   4.514   4.422   0.198  0.4269 -1.7333 -0.2507
 2669TIP3   OH2 8012   5.590   5.689   0.391 -0.0188 -0.5166 -0.2619
 2669TIP3    H1 8013   5.559   5.598   0.392  0.4682 -0.7534 -2.1785
 2669TIP3    H2 8014   5.664   5.687   0.331 -1.4429  1.5728 -2.2361
 2670TIP3   OH2 8015   0.590   5.682   1.284 -0.1082 -0.3948 -0.0757
 2670TIP3    H1 8016   0.555   5.633   1.358  0.3801  0.4398  0.7291
 2670TIP3    H2 8017   0.652   5.744   1.323  0.9260 -0.6232 -1.2744
 2671TIP3   OH2 8018   1.619   3.306   4.930 -0.4310  0.6452 -0.2089
 2671TIP3    H1 8019   1.645   3.395   4.956 -0.2745  0.3517  0.6827
 2671TIP3    H2 8020   1.554   3.280   4.996  0.0459 -0.1644 -0.0459
 2672TIP3   OH2 8021   5.569   4.955   1.132  0.0944 -0.7658  0.0631
 2672TIP3    H1 8022   5.603   5.034   1.175  0.5883 -1.6230  1.3094
 2672TIP3    H2 8023   5.508   4.918   1.196  1.8238 -2.7888  0.6805
 2673TIP3   OH2 8024   0.849   1.714   4.911 -0.5080 -0.1131 -0.5333
 2673TIP3    H1 8025   0.765   1.760   4.919 -0.5707  0.1190 -2.1593
 2673TIP3    H2 8026   0.914   1.779   4.938 -0.8237 -0.2646  0.6464
 2674TIP3   OH2 8027   3.000   1.326   4.981  0.3529 -0.7175 -0.4888
 2674TIP3    H1 8028   2.997   1.391   4.911  0.3766  0.7477  0.8124
 2674TIP3    H2 8029   2.946   1.254   4.949 -2.0017  1.0939 -0.8506
 2675TIP3   OH2 8030   3.095   0.084   2.281 -0.1646 -0.0754 -0.0083
 2675TIP3    H1 8031   3.101   0.175   2.252 -0.8557 -0.3289 -0.9927
 2675TIP3    H2 8032   3.011   0.079   2.327  0.2394 -0.0378  0.7570
 2676TIP3   OH2 8033   3.816   0.295   5.170  0.4783 -0.0375  0.2317
 2676TIP3    H1 8034   3.768   0.257   5.096 -1.4763 -0.8681  1.8203
 2676TIP3    H2 8035   3.894   0.240   5.178 -1.6542 -3.2077  1.6797
 2677TIP3   OH2 8036   3.296   2.664   4.113  0.2633 -0.0409 -0.5086
 2677TIP3    H1 8037   3.356   2.678   4.039 -1.5069  0.0997 -1.9983
 2677TIP3    H2 8038   3.258   2.577   4.096  1.4791 -1.0528  1.5300
 2678TIP3   OH2 8039   1.026   5.238   3.158  0.2406 -0.4891  0.2952
 2678TIP3    H1 8040   0.944   5.190   3.168  0.3441 -0.8625 -0.5497
 2678TIP3    H2 8041   1.083   5.178   3.109  0.3131  0.5437 -0.9350
 2679TIP3   OH2 8042   0.934   2.023   0.113  0.5182  0.0051  0.1561
 2679TIP3    H1 8043   0.914   1.949   0.054 -1.0409 -0.1426  0.8096
 2679TIP3    H2 8044   0.861   2.023   0.175  0.2573  2.3816 -0.0921
 2680TIP3   OH2 8045   2.917   1.340   1.122 -0.5799 -0.1381 -0.0236
 2680TIP3    H1 8046   3.001   1.381   1.098  0.1485 -0.4098  1.8908
 2680TIP3    H2 8047   2.914   1.261   1.068 -0.7169  1.0060 -1.7733
 2681TIP3   OH2 8048   4.171   5.488   1.563  0.1529  0.1735  0.0932
 2681TIP3    H1 8049   4.241   5.536   1.518 -0.6480  1.9654  0.6245
 2681TIP3    H2 8050   4.174   5.521   1.653 -1.1368  0.0185  0.2050
 2682TIP3   OH2 8051   0.919   1.302   0.177  0.6771  0.0421  0.7036
 2682TIP3    H1 8052   0.973   1.257   0.241  2.5028  1.8302  0.5170
 2682TIP3    H2 8053   0.856   1.351   0.229  0.8954 -0.0400  1.0472
 2683TIP3   OH2 8054   3.522   2.199   2.083  0.0409 -0.4773 -0.4641
 2683TIP3    H1 8055   3.503   2.277   2.032  1.5048 -0.0519 -0.4196
 2683TIP3    H2 8056   3.468   2.130   2.044 -0.7156  0.3895 -0.9680
 2684TIP3   OH2 8057   4.926   1.715   0.420  0.6641 -0.3866 -0.0132
 2684TIP3    H1 8058   4.956   1.667   0.498 -1.2467  0.0152  1.0248
 2684TIP3    H2 8059   4.965   1.802   0.430 -0.5838  0.0708  1.2227
 2685TIP3   OH2 8060   3.545   5.104   1.776  0.2262 -0.1355 -0.4392
 2685TIP3    H1 8061   3.598   5.043   1.827 -1.0317 -2.2498 -1.5411
 2685TIP3    H2 8062   3.495   5.152   1.842  0.8338 -0.6673  0.4412
 2686TIP3   OH2 8063   2.508   2.513   0.459 -0.0641  0.1191 -0.3780
 2686TIP3    H1 8064   2.423   2.492   0.498  0.3911  1.9067  1.7847
 2686TIP3    H2 8065   2.506   2.470   0.373 -2.7461 -0.6853 -0.0191
 2687TIP3   OH2 8066   2.378   4.316   1.154  1.4798 -1.0324  0.0063
 2687TIP3    H1 8067   2.325   4.260   1.098 -0.1488 -0.6834  1.1225
 2687TIP3    H2 8068   2.387   4.266   1.236  1.0297 -0.1716  0.5892
 2688TIP3   OH2 8069   5.462   5.583   4.848  0.0817 -0.1560 -0.3852
 2688TIP3    H1 8070   5.389   5.522   4.860  0.3102 -0.2692  0.4811
 2688TIP3    H2 8071   5.484   5.612   4.936  1.3818 -0.4821 -0.5791
 2689TIP3   OH2 8072   5.203   2.317   2.628 -0.5310 -0.3317 -0.4321
 2689TIP3    H1 8073   5.196   2.391   2.689  0.5695 -0.4156 -0.1770
 2689TIP3    H2 8074   5.220   2.241   2.685  4.0481  0.0818 -0.8833
 2690TIP3   OH2 8075   5.565   3.737   0.525 -0.0898  0.1007 -0.3491
 2690TIP3    H1 8076   5.638   3.706   0.579  1.1841  0.7871 -1.5940
 2690TIP3    H2 8077   5.507   3.782   0.587  0.1878 -1.0349  0.7805
 2691TIP3   OH2 8078   4.033   4.897   1.280 -0.6730 -0.0182 -0.0376
 2691TIP3    H1 8079   4.022   4.804   1.301  0.9670 -0.2350 -0.0796
 2691TIP3    H2 8080   4.096   4.899   1.208 -1.0773  1.1197 -0.3984
 2692TIP3   OH2 8081   5.821   1.877   1.024  0.3689 -0.8886 -0.2186
 2692TIP3    H1 8082   5.863   1.845   1.105  1.8343  1.3236 -0.0104
 2692TIP3    H2 8083   5.891   1.923   0.978 -1.7153  2.8994  0.0443
 2693TIP3   OH2 8084   2.067   4.552   1.809  0.0576  0.0349  0.4125
 2693TIP3    H1 8085   2.005   4.491   1.849  0.7442  0.7810  2.7507
 2693TIP3    H2 8086   2.030   4.569   1.722 -1.8579 -1.1804  0.9118
 2694TIP3   OH2 8087   6.085   0.274   3.987 -0.1548  0.9545 -0.3003
 2694TIP3    H1 8088   6.006   0.328   3.983 -1.0293 -0.3104 -1.1375
 2694TIP3    H2 8089   6.056   0.193   4.030  0.9479  0.8743  0.3237
 2695TIP3   OH2 8090   5.401   3.133   0.164 -0.3891  0.2818 -0.6136
 2695TIP3    H1 8091   5.490   3.168   0.159 -1.0357  2.0824 -0.0581
 2695TIP3    H2 8092   5.345   3.210   0.169 -2.2628 -0.6815 -3.9288
 2696TIP3   OH2 8093   4.191   2.840   0.837  0.1964  0.5410 -0.0235
 2696TIP3    H1 8094   4.210   2.829   0.744  0.8745 -1.9703  0.3634
 2696TIP3    H2 8095   4.276   2.854   0.878 -0.0078  0.7567  0.3387
 2697TIP3   OH2 8096   4.027   5.552   2.651  0.1143  0.2219 -0.6234
 2697TIP3    H1 8097   4.009   5.481   2.712 -0.7245  1.4548  0.6458
 2697TIP3    H2 8098   4.048   5.509   2.568  0.3704 -1.4881  0.2890
 2698TIP3   OH2 8099   1.011   3.826   2.810 -0.1460  0.4010  0.2573
 2698TIP3    H1 8100   1.004   3.847   2.717 -1.4917  0.0266  0.2534
 2698TIP3    H2 8101   1.002   3.730   2.813 -0.7419  0.4731  0.8189
 2699TIP3   OH2 8102   1.660   2.137   3.646 -0.1827 -0.7830 -0.1215
 2699TIP3    H1 8103   1.666   2.223   3.689 -2.7171 -0.0286 -1.0561
 2699TIP3    H2 8104   1.624   2.080   3.714 -0.7145 -0.4936 -0.1487
 2700TIP3   OH2 8105   2.174   2.071   4.696 -0.4877 -0.0795 -0.3117
 2700TIP3    H1 8106   2.148   2.092   4.606 -1.5716 -1.5010 -0.3636
 2700TIP3    H2 8107   2.117   1.998   4.721 -0.5047  0.5809  1.6944
 2701TIP3   OH2 8108   3.723   0.746   3.925 -0.5574  0.7916 -0.4474
 2701TIP3    H1 8109   3.685   0.747   3.837 -0.2230 -1.3411 -0.6730
 2701TIP3    H2 8110   3.680   0.673   3.969  1.3884 -0.0625  0.1365
 2702TIP3   OH2 8111   3.128   3.830   2.238 -0.0703 -0.2979 -0.1979
 2702TIP3    H1 8112   3.091   3.808   2.153 -0.1660  2.5487 -0.9749
 2702TIP3    H2 8113   3.062   3.886   2.279  1.6683  1.7173 -0.0070
 2703TIP3   OH2 8114   0.926   5.556   4.228 -0.0670  1.1013 -0.2046
 2703TIP3    H1 8115   1.019   5.568   4.247 -0.2373  1.2622  0.5743
 2703TIP3    H2 8116   0.886   5.540   4.313 -0.8887  1.9398 -0.4093
 2704TIP3   OH2 8117   1.663   5.709   2.926  0.0056  0.7954 -0.6845
 2704TIP3    H1 8118   1.577   5.685   2.959  0.8227  1.2714  2.0820
 2704TIP3    H2 8119   1.659   5.694   2.831 -2.6279 -0.5079 -0.4273
 2705TIP3   OH2 8120   3.638   2.231   3.480 -0.7291 -0.8308 -0.2391
 2705TIP3    H1 8121   3.667   2.321   3.471 -1.6275 -0.6026 -0.9489
 2705TIP3    H2 8122   3.651   2.211   3.573 -0.7451  0.0987 -0.0273
 2706TIP3   OH2 8123   4.600   0.429   2.602  0.5275  0.0931  0.1019
 2706TIP3    H1 8124   4.566   0.432   2.692  1.2982 -1.3139  0.4547
 2706TIP3    H2 8125   4.648   0.511   2.592 -2.3661  1.9006 -0.2181
 2707TIP3   OH2 8126   4.196   4.599   3.403  0.1842 -0.1154  0.1849
 2707TIP3    H1 8127   4.148   4.675   3.369  1.2254 -0.0990 -1.3330
 2707TIP3    H2 8128   4.244   4.633   3.479  0.9331  0.8430 -0.7034
 2708TIP3   OH2 8129   1.605   4.145   2.701 -0.4737  0.8833 -0.6809
 2708TIP3    H1 8130   1.642   4.160   2.615  0.2192  0.6710 -0.4313
 2708TIP3    H2 8131   1.638   4.216   2.755  0.1396  0.3200 -0.2917
 2709TIP3   OH2 8132   4.995   3.390   5.168 -0.2262 -0.8232  0.3765
 2709TIP3    H1 8133   4.905   3.371   5.194 -0.9615  1.2462 -0.4353
 2709TIP3    H2 8134   5.002   3.485   5.175  2.1120 -0.9869  0.9951
 2710TIP3   OH2 8135   1.989   2.771   4.498 -0.4278  0.3029  0.2338
 2710TIP3    H1 8136   1.924   2.714   4.539 -2.0245  0.9060 -1.3492
 2710TIP3    H2 8137   1.949   2.858   4.500  0.4497  0.7397 -0.5450
 2711TIP3   OH2 8138   1.162   2.953   1.523 -0.5401  0.0655  0.4007
 2711TIP3    H1 8139   1.180   2.873   1.574 -1.9377 -0.6711 -0.1980
 2711TIP3    H2 8140   1.248   2.980   1.490  0.7393  1.4523  4.2924
 2712TIP3   OH2 8141   3.689   0.464   4.954 -0.1813  0.0180 -1.0666
 2712TIP3    H1 8142   3.713   0.373   4.936  0.6787  0.6564 -3.5643
 2712TIP3    H2 8143   3.680   0.504   4.867  0.8630  2.6811 -0.0390
 2713TIP3   OH2 8144   1.052   3.418   0.803 -0.1766  0.4936  0.1389
 2713TIP3    H1 8145   0.990   3.345   0.803  1.3034 -0.9373 -2.5989
 2713TIP3    H2 8146   1.003   3.491   0.765 -1.2873  0.6162  1.7050
 2714TIP3   OH2 8147   2.218   2.674   1.092  0.1583  0.4136 -0.2385
 2714TIP3    H1 8148   2.193   2.730   1.165 -1.6171 -0.3204 -0.2317
 2714TIP3    H2 8149   2.148   2.686   1.027  0.6546 -0.4692 -0.9637
 2715TIP3   OH2 8150   1.991   5.503   0.042 -0.4908 -0.4624 -0.4060
 2715TIP3    H1 8151   2.062   5.558   0.008 -1.2818  0.6651 -0.3027
 2715TIP3    H2 8152   2.033   5.448   0.108  0.4344 -0.3914 -0.9082
 2716TIP3   OH2 8153   0.480   5.180   5.189 -0.7146  0.3566  0.1681
 2716TIP3    H1 8154   0.511   5.104   5.140 -1.3385  1.0003 -1.2532
 2716TIP3    H2 8155   0.391   5.158   5.214 -0.2255 -0.1980  1.5631
 2717TIP3   OH2 8156   2.363   4.553   1.967  0.3927 -0.1627 -0.0475
 2717TIP3    H1 8157   2.303   4.611   1.920  1.3023  0.1240 -0.8686
 2717TIP3    H2 8158   2.307   4.481   1.997 -0.1490 -0.5873 -1.9406
 2718TIP3   OH2 8159   1.791   3.975   2.836 -0.1023 -0.1116  0.0515
 2718TIP3    H1 8160   1.731   3.902   2.821  0.9764 -0.8226 -0.9288
 2718TIP3    H2 8161   1.746   4.051   2.800 -0.4240 -0.6372 -0.6840
 2719TIP3   OH2 8162   4.940   3.658   5.077  0.6390  0.2778  0.2845
 2719TIP3    H1 8163   4.852   3.628   5.101 -0.2592  1.3408 -1.4935
 2719TIP3    H2 8164   4.965   3.717   5.148  0.6630 -1.3232  1.6649
 2720TIP3   OH2 8165   4.189   3.741   4.359 -0.0630  0.0683  0.3364
 2720TIP3    H1 8166   4.153   3.823   4.391  0.1602  0.7395 -1.0391
 2720TIP3    H2 8167   4.202   3.755   4.265  1.1408 -1.1065  0.2820
 2721TIP3   OH2 8168   2.847   1.373   4.178 -0.4669  0.3127  0.0433
 2721TIP3    H1 8169   2.925   1.341   4.132  0.3895  1.1333  0.8976
 2721TIP3    H2 8170   2.880   1.408   4.260 -1.6030  1.6976 -0.0572
 2722TIP3   OH2 8171   6.153   1.785   0.650 -0.3141  0.7506  0.5569
 2722TIP3    H1 8172   6.241   1.796   0.615  0.6346  1.8416  3.1121
 2722TIP3    H2 8173   6.143   1.690   0.660  0.4050  0.5950 -0.0849
 2723TIP3   OH2 8174   6.177   4.194   3.663  0.7955 -0.0678 -0.4053
 2723TIP3    H1 8175   6.132   4.266   3.618  2.0329  0.3128 -1.0919
 2723TIP3    H2 8176   6.208   4.233   3.744  2.3126  0.4986 -1.2110
 2724TIP3   OH2 8177   2.250   0.228   0.552 -0.5862 -0.8165 -0.0888
 2724TIP3    H1 8178   2.299   0.307   0.576 -1.3040 -0.1947 -0.6258
 2724TIP3    H2 8179   2.294   0.157   0.599  2.0406 -0.6036 -2.0364
 2725TIP3   OH2 8180   0.647   3.052   0.222  0.7931 -0.3719 -0.0724
 2725TIP3    H1 8181   0.695   2.987   0.171 -0.8593 -0.8556 -1.0570
 2725TIP3    H2 8182   0.599   3.103   0.157 -0.8264 -0.5679  0.9164
 2726TIP3   OH2 8183   4.849   5.960   2.611  0.3617 -0.6054  0.3043
 2726TIP3    H1 8184   4.853   5.928   2.701  0.7122  0.6023  0.7403
 2726TIP3    H2 8185   4.931   6.007   2.599  0.0640 -0.2665 -0.4613
 2727TIP3   OH2 8186   1.010   4.019   3.616 -0.2851  0.3592  0.3346
 2727TIP3    H1 8187   1.067   4.094   3.605  0.2962  0.0300  1.0340
 2727TIP3    H2 8188   0.932   4.039   3.563 -0.0389  1.3350  0.3379
 2728TIP3   OH2 8189   5.134   5.840   3.951 -0.0917  0.6439 -0.0134
 2728TIP3    H1 8190   5.097   5.756   3.976 -1.8809  0.0317 -3.9380
 2728TIP3    H2 8191   5.203   5.818   3.887  0.1126  2.0973 -0.3341
 2729TIP3   OH2 8192   3.633   5.855   3.979  0.0427 -0.3194  0.0087
 2729TIP3    H1 8193   3.626   5.868   4.073 -0.0358  1.7641 -0.2480
 2729TIP3    H2 8194   3.580   5.777   3.962 -1.4181  0.2971  1.4569
 2730TIP3   OH2 8195   5.361   2.286   3.210 -0.1938 -0.5706 -0.7962
 2730TIP3    H1 8196   5.301   2.326   3.147 -0.9748 -0.0577  0.2395
 2730TIP3    H2 8197   5.444   2.278   3.163 -0.2986  1.3309 -1.3773
 2731TIP3   OH2 8198   3.490   1.253   0.573 -0.2278  0.3221  0.2558
 2731TIP3    H1 8199   3.436   1.299   0.637  1.0352  2.0026  0.1732
 2731TIP3    H2 8200   3.427   1.215   0.511 -1.5598 -2.2020  2.9199
 2732TIP3   OH2 8201   5.207   3.108   3.074  0.2305  0.1577 -0.4160
 2732TIP3    H1 8202   5.120   3.148   3.065  1.2999  2.6769 -0.3398
 2732TIP3    H2 8203   5.243   3.110   2.985  1.3792  2.0967  0.0510
 2733TIP3   OH2 8204   3.857   5.578   2.417 -0.4597 -0.5065  0.4813
 2733TIP3    H1 8205   3.841   5.490   2.382 -1.1643  0.8374 -3.0400
 2733TIP3    H2 8206   3.787   5.631   2.380  0.6637  1.7847  1.4809
 2734TIP3   OH2 8207   0.553   3.059   0.485  0.1465  0.5518  0.0122
 2734TIP3    H1 8208   0.599   3.078   0.404 -0.0480 -1.2696 -0.5673
 2734TIP3    H2 8209   0.469   3.022   0.458  0.2325 -0.4519  1.0204
 2735TIP3   OH2 8210   2.269   1.455   3.590  0.3316  0.2888 -0.4882
 2735TIP3    H1 8211   2.289   1.373   3.546  1.2251 -0.9078  1.9609
 2735TIP3    H2 8212   2.319   1.451   3.672 -1.7377  2.0249  0.9686
 2736TIP3   OH2 8213   1.380   1.500   2.010 -0.5359 -0.4211 -0.0719
 2736TIP3    H1 8214   1.419   1.585   2.029  0.8902 -0.4090 -2.5682
 2736TIP3    H2 8215   1.325   1.481   2.086  1.5700  1.2410  2.0234
 2737TIP3   OH2 8216   2.600   1.902   2.111  0.0279  0.2168 -0.0758
 2737TIP3    H1 8217   2.604   1.833   2.177 -1.1633 -0.4903 -0.7185
 2737TIP3    H2 8218   2.551   1.863   2.038  0.6592  1.2306 -1.0800
 2738TIP3   OH2 8219   6.129   0.795   0.500  0.3999  0.4072 -0.2093
 2738TIP3    H1 8220   6.152   0.871   0.553 -0.8592 -0.7309  2.1219
 2738TIP3    H2 8221   6.127   0.722   0.562  0.4450 -1.3453 -2.1420
 2739TIP3   OH2 8222   4.015   4.418   5.090 -0.7292 -0.2292  0.3790
 2739TIP3    H1 8223   4.042   4.350   5.152 -0.6575 -0.7631 -0.2255
 2739TIP3    H2 8224   4.060   4.497   5.120  0.5729 -0.8342  0.0944
 2740TIP3   OH2 8225   3.778   2.430   1.090 -0.1137 -0.2420  0.4961
 2740TIP3    H1 8226   3.824   2.461   1.012 -1.7799  1.7293  0.2020
 2740TIP3    H2 8227   3.744   2.509   1.131  0.2671 -1.2781  2.9933
 2741TIP3   OH2 8228   4.772   5.583   3.445  0.3547 -0.5860  0.7541
 2741TIP3    H1 8229   4.802   5.568   3.355  0.5724 -1.7079  0.9976
 2741TIP3    H2 8230   4.809   5.668   3.469  1.6989 -1.0355  0.3601
 2742TIP3   OH2 8231   5.255   1.414   4.825 -0.5725 -0.1513 -0.2510
 2742TIP3    H1 8232   5.350   1.404   4.830 -0.6492 -0.1527  1.7825
 2742TIP3    H2 8233   5.222   1.375   4.905 -2.3233 -0.2655 -0.9822
 2743TIP3   OH2 8234   4.198   4.769   4.032  0.8204  0.4126  0.4164
 2743TIP3    H1 8235   4.231   4.736   3.948 -0.7634  1.0497 -0.4937
 2743TIP3    H2 8236   4.249   4.848   4.048 -0.9526  2.0889 -1.6056
 2744TIP3   OH2 8237   0.320   1.205   0.334 -0.1398 -0.3377 -0.5734
 2744TIP3    H1 8238   0.300   1.212   0.241 -0.9362 -0.2835 -0.4083
 2744TIP3    H2 8239   0.332   1.296   0.363  1.1170 -0.4165 -0.8285
 2745TIP3   OH2 8240   1.131   5.273   1.128 -0.3217 -0.1962 -0.0597
 2745TIP3    H1 8241   1.054   5.280   1.071 -1.1947 -0.9977  0.9628
 2745TIP3    H2 8242   1.198   5.325   1.085 -1.7925  1.5173 -0.3946
 2746TIP3   OH2 8243   4.273   5.237   4.572 -0.1555 -0.2828 -0.2268
 2746TIP3    H1 8244   4.342   5.170   4.579  0.5901  0.4645 -0.3034
 2746TIP3    H2 8245   4.286   5.293   4.648 -1.5335 -0.9009  0.4952
 2747TIP3   OH2 8246   1.058  -0.009  -0.008 -0.1026 -0.6209  0.2716
 2747TIP3    H1 8247   1.138  -0.038   0.037  0.3047 -0.9619 -0.6315
 2747TIP3    H2 8248   1.075   0.083  -0.028 -0.4051 -0.3893  1.0554
 2748TIP3   OH2 8249   4.248   5.826   4.222  0.3918  0.5964  0.1032
 2748TIP3    H1 8250   4.254   5.872   4.138  2.8058  0.6041  0.2066
 2748TIP3    H2 8251   4.273   5.736   4.201  0.9216  0.5774  0.7681
 2749TIP3   OH2 8252   0.445   3.416   3.673 -0.3745 -0.4115  0.0320
 2749TIP3    H1 8253   0.395   3.488   3.634  0.1932 -0.1957 -0.3080
 2749TIP3    H2 8254   0.390   3.339   3.660 -1.4871  0.1065  1.3457
 2750TIP3   OH2 8255   1.724   4.505   4.537 -0.3020 -0.1885  0.2621
 2750TIP3    H1 8256   1.665   4.478   4.607  0.4204  1.0225  1.3865
 2750TIP3    H2 8257   1.730   4.428   4.479 -2.7459 -0.4073  0.2319
 2751TIP3   OH2 8258   1.717   5.340   4.639  0.4821  0.6243 -0.2553
 2751TIP3    H1 8259   1.633   5.361   4.597  0.8151 -1.2194 -1.9974
 2751TIP3    H2 8260   1.783   5.372   4.578  0.9783 -2.5089 -1.5089
 2752TIP3   OH2 8261   4.411   1.077   2.494  0.0819  0.1791  0.0359
 2752TIP3    H1 8262   4.379   1.026   2.419 -2.0683  1.0476  0.2802
 2752TIP3    H2 8263   4.492   1.118   2.462  0.3801 -1.1814 -1.0615
 2753TIP3   OH2 8264   5.301   5.563   1.197 -0.2676  0.2481 -0.0049
 2753TIP3    H1 8265   5.396   5.567   1.188 -0.3714  0.2270 -1.4080
 2753TIP3    H2 8266   5.269   5.565   1.107 -1.5609 -0.7580  0.4071
 2754TIP3   OH2 8267   1.711   5.043   5.195  0.0501  0.6877  0.5207
 2754TIP3    H1 8268   1.732   5.036   5.101  0.8668  2.2331  0.5525
 2754TIP3    H2 8269   1.780   5.100   5.230  0.1260 -0.3756  2.2018
 2755TIP3   OH2 8270   5.717   3.807   2.535  0.5131 -0.4517 -0.8987
 2755TIP3    H1 8271   5.657   3.738   2.565  0.1421 -0.4595 -1.6276
 2755TIP3    H2 8272   5.765   3.833   2.613 -0.7459 -0.1505 -0.1903
 2756TIP3   OH2 8273   2.283   5.895   4.032  0.7880  0.3275  0.1505
 2756TIP3    H1 8274   2.237   5.873   3.951  1.1750  1.7296 -0.4823
 2756TIP3    H2 8275   2.290   5.812   4.079  1.2008 -0.6796 -1.5804
 2757TIP3   OH2 8276   1.230   0.801   0.343 -0.0079 -0.1308 -0.3284
 2757TIP3    H1 8277   1.215   0.711   0.374 -0.6476 -0.0547 -0.4022
 2757TIP3    H2 8278   1.211   0.856   0.419 -0.1579 -0.0274 -0.4404
 2758TIP3   OH2 8279   4.770   2.748   0.756 -0.2257  0.2561 -0.0627
 2758TIP3    H1 8280   4.808   2.756   0.669  1.8013  1.2148  0.8383
 2758TIP3    H2 8281   4.717   2.668   0.752  1.3082 -0.7525 -1.6649
 2759TIP3   OH2 8282   1.540   1.963   1.724  0.1998 -0.1332 -0.0879
 2759TIP3    H1 8283   1.624   1.930   1.757  0.0963  1.0591  1.5437
 2759TIP3    H2 8284   1.559   2.053   1.698 -0.0553 -0.6286 -2.0816
 2760TIP3   OH2 8285   5.841   4.908   1.121 -0.3501 -0.3348 -0.0349
 2760TIP3    H1 8286   5.747   4.923   1.112 -0.4400 -0.8241  0.0355
 2760TIP3    H2 8287   5.865   4.953   1.202 -0.9770 -2.0990  1.2049
 2761TIP3   OH2 8288   4.077   2.610   2.855  0.1699 -0.3232  0.2542
 2761TIP3    H1 8289   4.152   2.662   2.885 -1.5728  1.8673  1.0594
 2761TIP3    H2 8290   4.020   2.672   2.810 -2.7009 -1.1172  2.4853
 2762TIP3   OH2 8291   4.790   1.845   0.221 -0.0341  0.6052  0.0586
 2762TIP3    H1 8292   4.829   1.768   0.262 -2.5744 -0.8244 -0.0071
 2762TIP3    H2 8293   4.749   1.812   0.141  1.0650  2.5543 -1.4137
 2763TIP3   OH2 8294   0.595   1.274   0.583 -0.0859  0.0376 -0.0768
 2763TIP3    H1 8295   0.580   1.365   0.605  0.3002 -0.1833  1.1968
 2763TIP3    H2 8296   0.531   1.225   0.634  0.3877 -0.4679  0.0473
 2764TIP3   OH2 8297   4.351   4.074   1.669  0.1599 -0.4645  0.7336
 2764TIP3    H1 8298   4.431   4.052   1.622 -0.4245 -0.7425 -0.1366
 2764TIP3    H2 8299   4.382   4.108   1.753  1.1715 -1.0922  0.6280
 2765TIP3   OH2 8300   1.826   2.028   3.463  0.6390  0.0428  0.4906
 2765TIP3    H1 8301   1.784   2.090   3.522 -0.1824 -0.7110  0.7164
 2765TIP3    H2 8302   1.905   2.073   3.432  0.1558  1.1153  0.7977
 2766TIP3   OH2 8303   3.466   2.367   4.552  0.2008  0.2335 -0.1875
 2766TIP3    H1 8304   3.418   2.419   4.488  0.1725 -0.8753 -1.1006
 2766TIP3    H2 8305   3.494   2.289   4.504  3.1134  0.9074  0.2597
 2767TIP3   OH2 8306   1.278   3.683   0.751  0.3673 -0.2841  0.0799
 2767TIP3    H1 8307   1.189   3.651   0.768  0.0908  0.8417  0.8867
 2767TIP3    H2 8308   1.324   3.608   0.713 -0.7118 -1.1145  0.3698
 2768TIP3   OH2 8309   2.741   1.320   2.035 -0.5132 -0.2724  0.5761
 2768TIP3    H1 8310   2.668   1.372   2.001 -0.9182 -1.1441  0.0926
 2768TIP3    H2 8311   2.707   1.279   2.114 -0.6083 -0.8065  0.2638
 2769TIP3   OH2 8312   2.800   4.447   0.961  0.5574  0.4436 -0.0838
 2769TIP3    H1 8313   2.881   4.404   0.987 -0.1774 -0.5728  0.6320
 2769TIP3    H2 8314   2.734   4.377   0.965 -0.5445  1.4832  0.4051
 2770TIP3   OH2 8315   1.083   4.984   1.651  0.7869  0.0249 -0.3435
 2770TIP3    H1 8316   1.157   5.038   1.679  1.5681 -0.9199 -0.5389
 2770TIP3    H2 8317   1.021   5.046   1.612  1.3302  0.8686  0.1054
 2771TIP3   OH2 8318   2.678   2.363   3.316  0.3775 -0.2714  0.3816
 2771TIP3    H1 8319   2.609   2.354   3.250 -0.7272  0.5808  1.3688
 2771TIP3    H2 8320   2.710   2.274   3.330 -0.7054 -0.7234  0.0825
 2772TIP3   OH2 8321   4.399   3.224   3.515  0.2109  0.4857  0.0015
 2772TIP3    H1 8322   4.448   3.186   3.588  1.4265 -0.8018 -1.4076
 2772TIP3    H2 8323   4.347   3.294   3.554  1.9052  0.7776  1.8605
 2773TIP3   OH2 8324   5.321   0.985   2.954  0.0742 -0.1540 -0.0300
 2773TIP3    H1 8325   5.272   0.944   2.883  2.1014  0.5624 -1.9671
 2773TIP3    H2 8326   5.260   1.047   2.992 -0.7611  0.2467 -1.9037
 2774TIP3   OH2 8327   3.999   1.528   1.136  0.0831 -0.2456 -0.6161
 2774TIP3    H1 8328   4.012   1.531   1.041  1.1999 -1.2858 -0.5289
 2774TIP3    H2 8329   4.008   1.435   1.158  1.4579  0.1562  0.6851
 2775TIP3   OH2 8330   3.178   1.651   0.177 -0.7865 -0.0832 -0.6477
 2775TIP3    H1 8331   3.131   1.695   0.106  0.5101  1.1074 -0.8302
 2775TIP3    H2 8332   3.251   1.710   0.197 -0.5937 -0.8361  1.0606
 2776TIP3   OH2 8333   4.288   2.763   2.970  0.1719 -0.3753 -0.3535
 2776TIP3    H1 8334   4.346   2.718   3.031 -0.0589 -0.7465 -0.4061
 2776TIP3    H2 8335   4.338   2.839   2.941  0.1658 -0.0233  0.5287
 2777TIP3   OH2 8336   0.595   3.697   4.360 -0.0535  0.3912 -0.4659
 2777TIP3    H1 8337   0.624   3.748   4.285  0.7136  0.1522 -0.3349
 2777TIP3    H2 8338   0.674   3.681   4.412 -0.6334  0.9182  0.6244
 2778TIP3   OH2 8339   5.014   0.182   1.472 -0.2528  0.4540 -0.1727
 2778TIP3    H1 8340   5.082   0.236   1.432  0.5410  1.1206  1.9138
 2778TIP3    H2 8341   4.977   0.237   1.541 -1.5161 -0.6255  0.0607
 2779TIP3   OH2 8342   0.662   2.318   4.527 -0.3305  0.3417  0.3630
 2779TIP3    H1 8343   0.653   2.376   4.451 -0.2190  0.0979  0.1636
 2779TIP3    H2 8344   0.684   2.378   4.599  3.2652  0.3056 -0.4801
 2780TIP3   OH2 8345   1.079   1.487   1.906 -0.0660 -0.2898  0.5268
 2780TIP3    H1 8346   1.070   1.530   1.821  0.6335 -1.7226 -0.3087
 2780TIP3    H2 8347   1.021   1.411   1.902  0.2416 -0.5759  1.1886
 2781TIP3   OH2 8348   6.285   4.317   0.801  0.1190  0.0520  0.1681
 2781TIP3    H1 8349   6.325   4.321   0.888 -1.3167 -1.5563  0.9588
 2781TIP3    H2 8350   6.351   4.353   0.743  1.0237  1.4546  1.9481
 2782TIP3   OH2 8351   6.193   3.902   1.762 -0.2018 -0.0779  0.3629
 2782TIP3    H1 8352   6.171   3.809   1.752 -1.8340  0.1186  1.8036
 2782TIP3    H2 8353   6.133   3.934   1.828 -0.3576  2.2743 -0.8169
 2783TIP3   OH2 8354   0.419   1.582   4.976  0.5416  0.5869  0.4423
 2783TIP3    H1 8355   0.439   1.492   4.949  1.4398  1.0473 -0.5143
 2783TIP3    H2 8356   0.376   1.621   4.900 -1.2410  0.5594  1.3764
 2784TIP3   OH2 8357   4.402   0.366   2.020 -0.0065  0.6432 -0.8824
 2784TIP3    H1 8358   4.428   0.386   1.930  1.1466  0.3656 -0.6242
 2784TIP3    H2 8359   4.342   0.437   2.044 -1.9551 -0.3660 -2.5457
 2785TIP3   OH2 8360   2.146   2.516   2.115 -0.0251 -0.4124  0.1712
 2785TIP3    H1 8361   2.131   2.562   2.032 -1.2417  2.0039  1.6256
 2785TIP3    H2 8362   2.237   2.534   2.137 -0.3895  1.0888  0.5474
 2786TIP3   OH2 8363   5.606   1.717   2.572  0.7308  0.4700 -0.1737
 2786TIP3    H1 8364   5.599   1.783   2.641  1.2879 -0.9018  1.2462
 2786TIP3    H2 8365   5.596   1.634   2.617  0.4297 -0.4581 -1.8712
 2787TIP3   OH2 8366   5.933   5.822   2.436 -0.0265  0.4377  0.3793
 2787TIP3    H1 8367   6.011   5.834   2.490 -0.2636  2.5711  0.3133
 2787TIP3    H2 8368   5.896   5.909   2.427 -2.8275 -0.5922  0.9790
 2788TIP3   OH2 8369   2.001   3.452   0.167  0.0280 -0.1367  0.4113
 2788TIP3    H1 8370   1.908   3.450   0.188  0.0479 -0.4687  0.4671
 2788TIP3    H2 8371   2.042   3.395   0.233  0.0846 -1.2162 -0.5336
 2789TIP3   OH2 8372   4.122   4.080   2.669  0.4153  0.3689 -0.2862
 2789TIP3    H1 8373   4.094   4.169   2.689 -1.6374 -0.3761  0.4488
 2789TIP3    H2 8374   4.081   4.061   2.584 -0.4410 -0.3701  0.2781
 2790TIP3   OH2 8375   2.345   1.614   0.202  0.0365 -0.0603  0.0216
 2790TIP3    H1 8376   2.295   1.678   0.152  0.1543 -0.0783 -0.1161
 2790TIP3    H2 8377   2.426   1.658   0.224  0.2050 -0.2350 -0.2498
 2791TIP3   OH2 8378   2.397   4.671   2.256  0.3019  0.0906 -0.3166
 2791TIP3    H1 8379   2.385   4.690   2.349  1.5031 -0.8379  0.0647
 2791TIP3    H2 8380   2.331   4.723   2.211 -0.4600  0.3634  1.0792
 2792TIP3   OH2 8381   4.912   5.627   0.085  0.3476  0.1133  0.2527
 2792TIP3    H1 8382   4.876   5.590   0.004  2.3377 -0.0280 -0.6103
 2792TIP3    H2 8383   5.001   5.652   0.063  0.3552  1.7773  1.9335
 2793TIP3   OH2 8384   0.454   1.720   0.265  0.1417  0.0050  0.1269
 2793TIP3    H1 8385   0.362   1.707   0.241  0.3816  0.3081 -1.0525
 2793TIP3    H2 8386   0.455   1.805   0.310 -0.1775 -0.0388  0.2189
 2794TIP3   OH2 8387   1.715   2.395   2.219 -0.0794  0.1709 -0.6995
 2794TIP3    H1 8388   1.737   2.478   2.177 -1.2859 -0.0907 -1.9121
 2794TIP3    H2 8389   1.632   2.368   2.178  0.2909 -1.6336 -0.3634
 2795TIP3   OH2 8390   1.504   0.825   0.310 -0.2073 -0.5444  0.4035
 2795TIP3    H1 8391   1.523   0.854   0.400  0.1339 -0.1435  0.2061
 2795TIP3    H2 8392   1.410   0.807   0.310 -1.2381  3.7006 -0.2526
 2796TIP3   OH2 8393   4.701   2.514   3.527 -0.1487 -0.0109  0.2708
 2796TIP3    H1 8394   4.769   2.550   3.584 -0.0111  1.6024 -0.8360
 2796TIP3    H2 8395   4.749   2.467   3.459 -0.2043 -0.0086  0.2301
 2797TIP3   OH2 8396   4.747   5.960   1.577 -0.1203  0.0579  0.0021
 2797TIP3    H1 8397   4.670   5.904   1.571 -0.6779  0.8444 -0.2936
 2797TIP3    H2 8398   4.814   5.914   1.526 -0.6346 -0.2263 -0.4292
 2798TIP3   OH2 8399   2.086   0.795   3.456 -0.2745 -0.3682 -0.7118
 2798TIP3    H1 8400   2.031   0.748   3.519 -1.2400 -0.4097 -1.5736
 2798TIP3    H2 8401   2.165   0.816   3.506 -0.1982 -2.0747 -0.0295
 2799TIP3   OH2 8402   3.017   0.754   0.918 -0.5308 -0.5550 -0.5785
 2799TIP3    H1 8403   3.066   0.828   0.882 -0.9559  0.5861  1.0537
 2799TIP3    H2 8404   3.083   0.698   0.958 -0.3255 -0.3190 -0.5810
 2800TIP3   OH2 8405   1.395   1.967   1.409  0.0274  0.3114  0.0985
 2800TIP3    H1 8406   1.402   2.034   1.477  0.1725  0.0673  0.3247
 2800TIP3    H2 8407   1.308   1.929   1.421 -0.0706  0.4864 -0.0555
 2801TIP3   OH2 8408   4.896   4.892   3.334  0.1998 -0.5409  0.0270
 2801TIP3    H1 8409   4.903   4.982   3.366 -3.8986 -0.3225  0.8017
 2801TIP3    H2 8410   4.877   4.840   3.411  2.3584 -2.1408 -0.4397
 2802TIP3   OH2 8411   2.365   5.644   4.162 -0.0062  0.3728 -0.1869
 2802TIP3    H1 8412   2.306   5.571   4.182 -0.3979  1.1313  1.6498
 2802TIP3    H2 8413   2.381   5.685   4.246  3.0434  0.3365 -0.6519
 2803TIP3   OH2 8414   5.582   4.501   5.205  0.1443 -0.0307  0.1322
 2803TIP3    H1 8415   5.610   4.574   5.150 -0.5172  1.5779  1.8556
 2803TIP3    H2 8416   5.539   4.441   5.143 -0.1468  1.4688 -1.1961
 2804TIP3   OH2 8417   0.914   4.371   3.502  0.3278  0.1243 -0.8932
 2804TIP3    H1 8418   0.948   4.282   3.496 -3.2097 -1.2870 -3.3516
 2804TIP3    H2 8419   0.859   4.371   3.580  2.2550  1.0579  0.5556
 2805TIP3   OH2 8420   5.255   2.152   1.835 -0.4511 -0.1361  0.1683
 2805TIP3    H1 8421   5.332   2.099   1.858 -0.0219  0.5832  0.4161
 2805TIP3    H2 8422   5.234   2.126   1.745  0.8103  0.4958 -0.3383
 2806TIP3   OH2 8423   0.840   1.820   1.996  0.2103  0.4006  0.1300
 2806TIP3    H1 8424   0.816   1.761   2.067 -0.8222 -2.8714 -2.6495
 2806TIP3    H2 8425   0.935   1.812   1.988  0.3086  0.6571  0.9772
 2807TIP3   OH2 8426   5.262   1.011   0.946  0.1112  0.3412 -0.3425
 2807TIP3    H1 8427   5.223   1.097   0.935 -0.6069  0.1969  0.8138
 2807TIP3    H2 8428   5.347   1.028   0.987  0.0230  0.5209 -0.2308
 2808TIP3   OH2 8429   4.973   0.153   0.744  0.1169 -0.1454 -0.0297
 2808TIP3    H1 8430   5.037   0.142   0.814 -0.2482  0.3872  0.3961
 2808TIP3    H2 8431   4.965   0.248   0.734 -1.8600 -0.1531  1.1003
 2809TIP3   OH2 8432   4.057   5.218   0.481  0.0683 -0.1053  0.3796
 2809TIP3    H1 8433   4.151   5.229   0.469 -0.1098  2.0171  0.4414
 2809TIP3    H2 8434   4.019   5.241   0.396 -0.4198 -0.5674  0.4665
 2810TIP3   OH2 8435   1.334   2.327   2.583 -0.6800  0.3321 -0.3216
 2810TIP3    H1 8436   1.378   2.411   2.573  0.1753 -0.0017  0.3948
 2810TIP3    H2 8437   1.382   2.284   2.654  0.1977 -1.5796 -1.9680
 2811TIP3   OH2 8438  -0.009   3.634   5.052 -0.1071 -0.7525  0.6166
 2811TIP3    H1 8439   0.061   3.688   5.015 -1.7768  1.3042  0.2468
 2811TIP3    H2 8440  -0.029   3.570   4.984 -0.8722  0.8585 -0.7558
 2812TIP3   OH2 8441   3.876   3.973   0.295 -0.7121 -0.5755 -0.0784
 2812TIP3    H1 8442   3.793   4.018   0.310  0.1299  1.4403 -1.1216
 2812TIP3    H2 8443   3.859   3.882   0.320 -3.0883 -0.1291  0.1226
 2813TIP3   OH2 8444   3.384   2.973   0.132 -0.1269 -0.4707  0.2690
 2813TIP3    H1 8445   3.347   3.029   0.064 -1.6672 -0.9561  0.6644
 2813TIP3    H2 8446   3.397   2.888   0.089  0.2360 -0.3935  0.2211
 2814TIP3   OH2 8447   0.039   1.824   2.904 -0.0445  0.7605 -0.4345
 2814TIP3    H1 8448   0.049   1.918   2.889  0.9931  0.5913 -0.8796
 2814TIP3    H2 8449   0.127   1.794   2.929  0.0528 -0.3738 -1.9903
 2815TIP3   OH2 8450   6.062   3.040   4.121 -0.2198 -0.1447 -0.4288
 2815TIP3    H1 8451   6.104   3.121   4.148 -2.6108  0.4441  2.0915
 2815TIP3    H2 8452   6.134   2.980   4.102  1.6389  1.7480  0.2371
 2816TIP3   OH2 8453   5.914   5.226   0.727 -0.9224  0.2109  0.5759
 2816TIP3    H1 8454   5.883   5.161   0.664 -1.5018 -0.5848  1.6398
 2816TIP3    H2 8455   5.944   5.174   0.802  2.5462  0.9295 -0.1058
 2817TIP3   OH2 8456   2.625   1.796   1.434 -0.1169  0.1834  0.6029
 2817TIP3    H1 8457   2.603   1.706   1.460  0.6782 -0.2109 -0.0419
 2817TIP3    H2 8458   2.717   1.792   1.411 -0.1251  1.1349  0.3776
 2818TIP3   OH2 8459   4.568   5.466   0.618 -0.0628  0.8251  0.1427
 2818TIP3    H1 8460   4.535   5.543   0.572  0.3453  0.4251 -0.8514
 2818TIP3    H2 8461   4.513   5.394   0.585 -0.7843  0.7485  1.4426
 2819TIP3   OH2 8462   1.583   4.437   5.082 -0.1552 -0.0833  0.5024
 2819TIP3    H1 8463   1.575   4.430   5.177  1.4073  0.1367  0.6778
 2819TIP3    H2 8464   1.600   4.347   5.052 -0.5310 -0.1356  0.4499
 2820TIP3   OH2 8465   2.423   4.215   0.131  0.3446 -0.5550  0.2470
 2820TIP3    H1 8466   2.355   4.160   0.171  0.2213  0.0322  0.8659
 2820TIP3    H2 8467   2.503   4.191   0.176  0.1460  0.3571  1.1337
 2821TIP3   OH2 8468   5.520   1.458   3.317 -0.1644 -0.3227  0.1910
 2821TIP3    H1 8469   5.594   1.410   3.353  0.6413 -0.3901 -1.4585
 2821TIP3    H2 8470   5.520   1.436   3.224 -0.1898  2.2939 -0.4997
 2822TIP3   OH2 8471   1.408   4.662   2.026 -0.3862 -0.8407  0.4996
 2822TIP3    H1 8472   1.484   4.708   1.991 -0.5310 -1.0440 -0.0817
 2822TIP3    H2 8473   1.344   4.731   2.043  0.8460 -0.2855  3.5438
 2823TIP3   OH2 8474   3.696   2.325   3.059 -0.3207  0.4049 -0.2828
 2823TIP3    H1 8475   3.709   2.233   3.084  1.6110  0.2177 -1.7328
 2823TIP3    H2 8476   3.780   2.351   3.021 -0.8396  2.7855  0.0690
 2824TIP3   OH2 8477   2.923   0.672   5.017  0.0060 -0.3402 -0.1343
 2824TIP3    H1 8478   3.002   0.629   5.050 -0.0105  0.7080  1.3402
 2824TIP3    H2 8479   2.946   0.765   5.011 -1.1969  0.0357  0.6430
 2825TIP3   OH2 8480   2.727   4.570   2.861  0.3932  0.0758 -0.2927
 2825TIP3    H1 8481   2.774   4.563   2.944  2.5185 -1.2872 -1.5133
 2825TIP3    H2 8482   2.674   4.490   2.857 -0.8152  0.8061  0.3149
 2826TIP3   OH2 8483   3.103   1.181   4.216  0.1258  0.3194  0.0956
 2826TIP3    H1 8484   3.024   1.160   4.265  0.2258  0.4158  0.3015
 2826TIP3    H2 8485   3.153   1.099   4.214  0.0534  0.2772  0.0277
 2827TIP3   OH2 8486   3.186   4.128   4.605  0.9029  0.0952  0.1472
 2827TIP3    H1 8487   3.250   4.100   4.671  2.1051 -0.9869 -1.4079
 2827TIP3    H2 8488   3.238   4.143   4.526 -0.7221 -0.3718 -1.0497
 2828TIP3   OH2 8489   3.125   5.601   4.954  0.3062  0.0667  0.5916
 2828TIP3    H1 8490   3.150   5.645   5.036 -0.6233 -0.1739  1.0163
 2828TIP3    H2 8491   3.158   5.659   4.885  0.7482  0.4753  1.1368
 2829TIP3   OH2 8492   3.478   5.494   3.619 -0.0792  0.2851 -0.1735
 2829TIP3    H1 8493   3.550   5.523   3.675  1.2693 -1.5309 -0.8731
 2829TIP3    H2 8494   3.449   5.574   3.575  0.7191  1.2602  0.9889
 2830TIP3   OH2 8495   3.219   1.822   3.902  0.2817  0.4150  0.4675
 2830TIP3    H1 8496   3.266   1.843   3.983 -0.4413  0.9286  0.7729
 2830TIP3    H2 8497   3.222   1.726   3.896 -1.4681  0.1617  2.2768
 2831TIP3   OH2 8498   4.085   0.155   3.609  0.5490 -0.0794 -0.3617
 2831TIP3    H1 8499   4.170   0.135   3.648  0.9204 -0.4634 -1.3279
 2831TIP3    H2 8500   4.090   0.249   3.590 -0.4007  0.5730  2.2741
 2832TIP3   OH2 8501   5.489   0.516   2.940  0.3434  0.6741 -0.5583
 2832TIP3    H1 8502   5.514   0.447   2.878 -0.8031 -0.5381  0.2832
 2832TIP3    H2 8503   5.410   0.555   2.901  0.2491  0.6372 -0.4050
 2833TIP3   OH2 8504   4.089   3.603   2.861  0.1827 -0.2427  0.2983
 2833TIP3    H1 8505   4.182   3.594   2.840  0.3100  1.2429  0.1666
 2833TIP3    H2 8506   4.083   3.684   2.911 -0.9444 -0.7308  1.0029
 2834TIP3   OH2 8507   0.917   4.141   4.247 -0.2785 -0.0458  0.1130
 2834TIP3    H1 8508   0.885   4.121   4.158  0.9286 -1.5057 -0.0347
 2834TIP3    H2 8509   0.935   4.235   4.245 -0.0815 -0.0845 -1.2659
 2835TIP3   OH2 8510   0.938   3.455   4.687 -0.0164 -1.0522  0.0228
 2835TIP3    H1 8511   0.992   3.383   4.654  0.9509 -0.9449  1.3102
 2835TIP3    H2 8512   1.000   3.525   4.707 -0.8490 -0.1999 -0.2901
 2836TIP3   OH2 8513   5.680   4.121   0.960  0.2794 -0.1400 -0.3448
 2836TIP3    H1 8514   5.628   4.051   0.921  1.8304 -1.5108 -0.0739
 2836TIP3    H2 8515   5.730   4.078   1.030  0.9145  1.3464  0.1711
 2837TIP3   OH2 8516   4.387   4.811   4.899 -0.4473  0.5569 -0.0120
 2837TIP3    H1 8517   4.335   4.799   4.819  0.6450  1.2075 -0.8548
 2837TIP3    H2 8518   4.431   4.726   4.912  0.1042  0.7359 -0.6567
 2838TIP3   OH2 8519   3.145   2.433   4.024  0.5812  0.4532 -0.3668
 2838TIP3    H1 8520   3.063   2.434   3.976  0.3442  0.3200  0.0269
 2838TIP3    H2 8521   3.127   2.380   4.102  0.4853  1.9356  0.6634
 2839TIP3   OH2 8522   1.416   5.824   4.518 -0.4371  0.0939 -0.0397
 2839TIP3    H1 8523   1.409   5.742   4.567 -1.4842 -0.1762 -0.6089
 2839TIP3    H2 8524   1.350   5.881   4.556  0.3683  0.7235  0.4280
 2840TIP3   OH2 8525   1.221   3.574   3.649 -0.5636  0.1308  0.1349
 2840TIP3    H1 8526   1.161   3.644   3.672 -0.0986 -0.2302  2.7787
 2840TIP3    H2 8527   1.177   3.494   3.680  0.3054 -0.3703  0.1117
 2841TIP3   OH2 8528   3.939   0.155   3.363 -0.4223 -0.4146  0.7096
 2841TIP3    H1 8529   3.896   0.234   3.395  1.2541  0.3872  1.1002
 2841TIP3    H2 8530   4.006   0.136   3.429 -0.7473 -2.1438  0.5982
 2842TIP3   OH2 8531   0.110   0.943   2.068 -0.5944 -0.2119 -0.0264
 2842TIP3    H1 8532   0.091   0.980   1.982 -0.1758  3.6110  1.3327
 2842TIP3    H2 8533   0.027   0.949   2.116 -0.2266  0.0742  0.5912
 2843TIP3   OH2 8534   3.277   3.398   3.461  0.3402 -0.7517 -0.1277
 2843TIP3    H1 8535   3.248   3.424   3.373 -0.0461 -2.2419 -0.4745
 2843TIP3    H2 8536   3.362   3.441   3.472  0.4311 -0.6006 -1.2574
 2844TIP3   OH2 8537   1.400   0.485   1.461  0.5337 -0.0879 -0.2956
 2844TIP3    H1 8538   1.386   0.407   1.515  0.9386 -0.4285 -0.6724
 2844TIP3    H2 8539   1.475   0.462   1.406  0.5659  0.5183 -0.5075
 2845TIP3   OH2 8540   3.967   1.869   4.089 -0.5231 -0.4500 -0.0915
 2845TIP3    H1 8541   4.045   1.815   4.072  0.7282  1.6484 -1.4990
 2845TIP3    H2 8542   3.921   1.871   4.005 -1.3510 -0.4941  0.3534
 2846TIP3   OH2 8543   3.251   3.366   1.296 -0.3345  0.6302  0.0556
 2846TIP3    H1 8544   3.197   3.290   1.274 -1.7333  1.2524  1.1562
 2846TIP3    H2 8545   3.233   3.430   1.227  1.8020 -0.3961 -1.5872
 2847TIP3   OH2 8546   4.287   0.831   4.769  0.0259  0.5611  0.2314
 2847TIP3    H1 8547   4.243   0.754   4.806  0.2981  0.0029 -0.5538
 2847TIP3    H2 8548   4.230   0.858   4.697  1.9842 -1.6327 -2.3882
 2848TIP3   OH2 8549   5.165   4.917   1.153  0.7037 -0.6189 -0.1832
 2848TIP3    H1 8550   5.196   4.960   1.073  2.2352  0.9907  1.1915
 2848TIP3    H2 8551   5.243   4.913   1.209 -0.6362 -0.4441  1.7740
 2849TIP3   OH2 8552   6.240   3.076   3.783  0.2466 -0.5756 -0.3444
 2849TIP3    H1 8553   6.144   3.078   3.781  0.2075 -2.1917 -1.5251
 2849TIP3    H2 8554   6.262   2.994   3.828  1.0838 -0.3139 -0.2583
 2850TIP3   OH2 8555   6.020   5.599   3.669 -0.3894 -0.3245  0.7537
 2850TIP3    H1 8556   6.028   5.515   3.624 -1.0050  0.3461 -0.6726
 2850TIP3    H2 8557   6.106   5.640   3.659 -1.1267  0.7545 -1.8309
 2851TIP3   OH2 8558   0.476   2.471   1.459  0.5173 -0.0222  0.4244
 2851TIP3    H1 8559   0.537   2.399   1.444  2.1590  1.4230 -0.1369
 2851TIP3    H2 8560   0.389   2.432   1.445  1.3516 -1.8626  0.1022
 2852TIP3   OH2 8561   3.795   5.704   2.652  0.6756 -0.4374 -0.4820
 2852TIP3    H1 8562   3.836   5.640   2.594  0.8399 -1.8239  1.0846
 2852TIP3    H2 8563   3.776   5.778   2.595  3.9285 -0.3051 -1.6571
 2853TIP3   OH2 8564   4.702   5.681   2.832 -0.0058  0.0307 -0.0112
 2853TIP3    H1 8565   4.762   5.608   2.815  0.3732  0.2207  0.5062
 2853TIP3    H2 8566   4.644   5.682   2.756 -1.1505 -1.9229  0.7558
 2854TIP3   OH2 8567   0.695   5.985   4.344 -0.5872 -0.3537 -0.0109
 2854TIP3    H1 8568   0.666   5.900   4.311  1.1263 -0.3967 -1.5757
 2854TIP3    H2 8569   0.780   5.999   4.302 -0.7078  2.0348  0.4109
 2855TIP3   OH2 8570   0.546   0.013   3.216 -0.8410 -0.3313 -0.2329
 2855TIP3    H1 8571   0.599  -0.066   3.208 -0.7070 -0.1571 -1.2795
 2855TIP3    H2 8572   0.606   0.084   3.192 -0.6119  0.2503  1.8426
 2856TIP3   OH2 8573   4.998   1.091   5.001 -0.4216  0.1082  0.0156
 2856TIP3    H1 8574   4.930   1.027   5.022  0.1929  0.0788  2.1189
 2856TIP3    H2 8575   5.070   1.038   4.965 -1.0942  0.0297 -1.2688
 2857TIP3   OH2 8576   6.028   5.659   2.717  0.5484  0.4331 -0.0745
 2857TIP3    H1 8577   6.025   5.563   2.712 -1.7615  0.1973  3.0085
 2857TIP3    H2 8578   5.941   5.688   2.689  0.0368  1.2930  2.1764
 2858TIP3   OH2 8579   1.550   5.382   5.147 -0.2691 -0.8633 -0.3057
 2858TIP3    H1 8580   1.529   5.349   5.059  0.4076  1.1122 -1.2720
 2858TIP3    H2 8581   1.633   5.341   5.169 -0.4778 -1.4272 -0.5501
 2859TIP3   OH2 8582   1.944   0.664   2.197 -0.3122 -0.0058 -0.4900
 2859TIP3    H1 8583   1.984   0.682   2.282  1.1593 -0.0898 -1.1239
 2859TIP3    H2 8584   1.851   0.680   2.210 -0.0174  0.7176  0.9398
 2860TIP3   OH2 8585   6.246   5.234   4.054  0.0844 -0.0329  0.1741
 2860TIP3    H1 8586   6.191   5.165   4.091 -0.3094  0.1482 -0.0641
 2860TIP3    H2 8587   6.200   5.261   3.975  1.1662 -0.7491 -0.7268
 2861TIP3   OH2 8588   5.401   1.019   1.661 -0.6238  0.3763  0.3306
 2861TIP3    H1 8589   5.348   1.053   1.733 -1.1713 -0.9438  0.5706
 2861TIP3    H2 8590   5.445   0.943   1.697  2.8874  2.3671  0.6796
 2862TIP3   OH2 8591   3.195   4.573   2.786  0.3699  0.6135 -0.1785
 2862TIP3    H1 8592   3.279   4.612   2.764  1.3214 -1.5156 -0.6511
 2862TIP3    H2 8593   3.213   4.518   2.862 -0.6602  0.3509 -0.1034
 2863TIP3   OH2 8594   4.304   0.669   3.123 -0.1699 -0.5736  0.2232
 2863TIP3    H1 8595   4.337   0.657   3.034  2.5960 -0.4649  1.1408
 2863TIP3    H2 8596   4.289   0.581   3.156 -0.8673 -0.6236 -0.1967
 2864TIP3   OH2 8597   0.140   4.964   4.348 -0.7706  0.3613  0.1860
 2864TIP3    H1 8598   0.133   4.882   4.398 -0.5799 -0.2040 -0.6965
 2864TIP3    H2 8599   0.057   5.009   4.365 -0.6617  0.2309  1.1029
 2865TIP3   OH2 8600   4.840   3.102   1.737 -0.4083  0.2632  0.4149
 2865TIP3    H1 8601   4.854   3.009   1.754 -1.4791  0.0937  0.3971
 2865TIP3    H2 8602   4.753   3.120   1.770 -0.7526  0.9529 -0.8038
 2866TIP3   OH2 8603   0.602   2.017   1.606  0.3438 -0.0889 -0.1662
 2866TIP3    H1 8604   0.692   1.991   1.587 -0.0929 -0.1895 -2.4337
 2866TIP3    H2 8605   0.558   1.935   1.628  0.9262  0.0619  1.7511
 2867TIP3   OH2 8606   4.240   0.446   3.341  0.0877 -0.0912  0.4156
 2867TIP3    H1 8607   4.195   0.428   3.423  0.6707 -0.9725  0.5639
 2867TIP3    H2 8608   4.300   0.518   3.361 -0.7609  0.6354  0.3882
 2868TIP3   OH2 8609   4.001   0.235   0.072 -0.1150  0.2150  0.3953
 2868TIP3    H1 8610   3.959   0.152   0.049 -3.0363  1.2931  1.3743
 2868TIP3    H2 8611   3.982   0.293  -0.002 -0.7885  0.8181  1.0115
 2869TIP3   OH2 8612   5.557   1.795   1.330  0.2255  0.0480  0.1986
 2869TIP3    H1 8613   5.631   1.735   1.332  0.6991  0.4446 -2.4357
 2869TIP3    H2 8614   5.494   1.756   1.270 -1.5989 -0.0724  2.0604
 2870TIP3   OH2 8615   1.916   2.454   0.514 -0.0883  0.1256  0.0313
 2870TIP3    H1 8616   1.837   2.400   0.515 -0.3725  0.5313  0.7921
 2870TIP3    H2 8617   1.956   2.437   0.429 -0.0397 -1.4436  0.3533
 2871TIP3   OH2 8618   5.309   1.482   0.389 -0.1054  0.0445  0.5168
 2871TIP3    H1 8619   5.357   1.436   0.319  0.1275  0.9401  0.0775
 2871TIP3    H2 8620   5.266   1.412   0.438 -1.8171 -0.5232 -1.6305
 2872TIP3   OH2 8621   2.659   4.112   0.295  0.1685  0.0015 -0.0896
 2872TIP3    H1 8622   2.586   4.100   0.356  0.2308 -0.3816 -0.0853
 2872TIP3    H2 8623   2.731   4.062   0.334  0.5077  0.5782  0.0326
 2873TIP3   OH2 8624   4.215   3.692   4.081 -0.9260 -0.1534 -0.0840
 2873TIP3    H1 8625   4.208   3.597   4.085  0.2102 -0.2833 -0.8656
 2873TIP3    H2 8626   4.188   3.714   3.992 -0.9492  0.2403  0.0185
 2874TIP3   OH2 8627   1.283   4.784   1.746  0.5337 -0.4812 -0.9621
 2874TIP3    H1 8628   1.320   4.872   1.737 -0.4012 -0.1015 -1.1807
 2874TIP3    H2 8629   1.200   4.788   1.700  0.4738 -1.4851 -0.9569
 2875TIP3   OH2 8630   0.954   1.796   0.676  0.5956 -0.2450 -0.3421
 2875TIP3    H1 8631   0.933   1.704   0.688 -0.6562 -0.2118 -1.9385
 2875TIP3    H2 8632   1.012   1.818   0.749  0.1134 -2.0261  0.6120
 2876TIP3   OH2 8633   0.124   0.794   4.485 -0.3636  0.2740 -0.3255
 2876TIP3    H1 8634   0.124   0.886   4.511  1.4399  0.4763 -0.9201
 2876TIP3    H2 8635   0.115   0.796   4.390 -0.6453 -0.1890 -0.3120
 2877TIP3   OH2 8636   2.442   5.536   2.336 -0.1898 -0.2271 -0.3591
 2877TIP3    H1 8637   2.458   5.445   2.312  0.4018  0.0641 -1.1093
 2877TIP3    H2 8638   2.474   5.544   2.426  0.6674 -0.5208 -0.6357
 2878TIP3   OH2 8639   5.204   2.573   1.590  0.5696  0.3123  0.4985
 2878TIP3    H1 8640   5.186   2.624   1.511 -0.9691 -1.7177 -0.5184
 2878TIP3    H2 8641   5.127   2.586   1.645 -0.8508 -2.4852 -0.6790
 2879TIP3   OH2 8642   1.646   2.439   3.069  0.1415  0.4242 -0.1810
 2879TIP3    H1 8643   1.677   2.527   3.092  1.5011 -0.0341 -0.2152
 2879TIP3    H2 8644   1.560   2.454   3.029  0.5000  1.7666 -0.4927
 2880TIP3   OH2 8645   4.032   2.325   0.802  0.0817 -0.1345  0.1640
 2880TIP3    H1 8646   3.946   2.360   0.779  0.4488  0.7740  0.1428
 2880TIP3    H2 8647   4.031   2.316   0.897  0.7268  1.9950  0.4076
 2881TIP3   OH2 8648   3.738   1.253  -0.020  0.4820 -0.1526 -0.0365
 2881TIP3    H1 8649   3.683   1.187   0.023  3.1292 -1.3059  1.8402
 2881TIP3    H2 8650   3.755   1.318   0.048 -0.9104  1.8395 -1.4603
 2882TIP3   OH2 8651   0.060   1.447   1.478 -0.7102  0.2792  0.0709
 2882TIP3    H1 8652   0.118   1.481   1.410 -0.8069 -0.4228 -0.3711
 2882TIP3    H2 8653   0.024   1.525   1.519 -0.7922  0.7154 -0.8026
 2883TIP3   OH2 8654   5.701   1.696   4.733  0.4456 -0.0368 -0.2359
 2883TIP3    H1 8655   5.777   1.721   4.680  0.0539  1.8055  0.0040
 2883TIP3    H2 8656   5.736   1.681   4.821  0.7455 -0.7617 -0.4722
 2884TIP3   OH2 8657   5.011   4.097   2.100  0.3270 -0.6623 -0.2088
 2884TIP3    H1 8658   5.055   4.171   2.144  1.8675 -0.8939 -1.2788
 2884TIP3    H2 8659   4.921   4.126   2.088  0.4887  0.3725  0.8926
 2885TIP3   OH2 8660   5.724   4.552   3.678  0.5104 -0.0902 -0.3249
 2885TIP3    H1 8661   5.695   4.642   3.661  0.2404 -0.3575 -1.3299
 2885TIP3    H2 8662   5.819   4.559   3.690  0.1143  0.9820  4.1547
 2886TIP3   OH2 8663   1.085   0.831   0.862  0.1325  0.1265 -0.0747
 2886TIP3    H1 8664   1.161   0.778   0.884  0.2187  0.1886 -0.2181
 2886TIP3    H2 8665   1.099   0.914   0.906  0.8559  0.6557 -1.2504
 2887TIP3   OH2 8666   5.534   2.211   3.793 -0.1644 -0.2528 -0.5412
 2887TIP3    H1 8667   5.617   2.254   3.812  1.2563 -3.2150  0.4614
 2887TIP3    H2 8668   5.554   2.118   3.791 -3.6629 -1.2117  0.8550
 2888TIP3   OH2 8669   2.325   2.955   2.235 -0.0370 -0.0902  0.0225
 2888TIP3    H1 8670   2.357   2.991   2.317 -0.7301 -0.3920  0.4315
 2888TIP3    H2 8671   2.238   2.993   2.223 -0.2285 -0.5874 -0.2134
 2889TIP3   OH2 8672   5.587   1.702   3.990  0.0354  0.5957 -0.0349
 2889TIP3    H1 8673   5.557   1.787   3.957  0.6389  0.6189 -0.5448
 2889TIP3    H2 8674   5.507   1.659   4.019 -0.3858  1.0155 -0.5311
 2890TIP3   OH2 8675   2.901   5.783   3.243 -0.2496 -0.6344  0.3274
 2890TIP3    H1 8676   2.943   5.766   3.159  0.3437 -0.7516  0.6436
 2890TIP3    H2 8677   2.959   5.846   3.286 -0.0567 -1.2881  1.0352
 2891TIP3   OH2 8678   0.653   0.766   4.386  0.1623  0.1562  0.0169
 2891TIP3    H1 8679   0.668   0.737   4.296  1.6983  0.5708  0.1113
 2891TIP3    H2 8680   0.739   0.763   4.427 -0.7426 -1.5488  1.9752
 2892TIP3   OH2 8681   4.286   1.900   3.457 -0.3986  0.5320 -0.0685
 2892TIP3    H1 8682   4.237   1.975   3.424 -0.1275  0.4516 -0.6804
 2892TIP3    H2 8683   4.331   1.932   3.535 -0.4625  0.9430 -0.1999
 2893TIP3   OH2 8684   1.299   5.493   2.574 -0.3745 -0.6253 -0.0973
 2893TIP3    H1 8685   1.284   5.411   2.622  0.1844  0.0495  1.2794
 2893TIP3    H2 8686   1.246   5.558   2.620  0.4480  0.1169 -0.1645
 2894TIP3   OH2 8687   6.132   5.757   1.613 -0.2037  0.0850 -0.4039
 2894TIP3    H1 8688   6.082   5.686   1.652  0.1404  0.3974  0.6404
 2894TIP3    H2 8689   6.096   5.836   1.653  0.2650  0.4009 -0.5967
 2895TIP3   OH2 8690   1.305   2.132   0.586  0.0668 -0.0271 -0.0408
 2895TIP3    H1 8691   1.326   2.192   0.658 -2.9067 -1.1927  2.0136
 2895TIP3    H2 8692   1.302   2.046   0.627  1.0178 -1.1548 -2.2229
 2896TIP3   OH2 8693   5.990   4.483   3.734  0.3587 -0.3341  0.0325
 2896TIP3    H1 8694   6.028   4.566   3.761  0.6433  0.3574 -2.2837
 2896TIP3    H2 8695   5.966   4.439   3.816 -1.7087  2.8628  1.3296
 2897TIP3   OH2 8696   0.401   3.805   3.756  0.0885  0.0601  0.3097
 2897TIP3    H1 8697   0.453   3.770   3.828  0.9347 -0.1098 -0.3675
 2897TIP3    H2 8698   0.463   3.855   3.703 -0.9802  2.2258  0.9727
 2898TIP3   OH2 8699   3.875   4.069   2.534 -0.2283 -0.0501 -0.1145
 2898TIP3    H1 8700   3.856   4.159   2.559 -1.3315 -0.2717 -0.0864
 2898TIP3    H2 8701   3.799   4.042   2.482  0.8527 -0.4279 -1.5689
 2899TIP3   OH2 8702   2.364   0.537   5.135  0.0412 -0.4002  0.0614
 2899TIP3    H1 8703   2.286   0.554   5.187  0.2233  3.2521 -0.5342
 2899TIP3    H2 8704   2.432   0.517   5.199 -0.3314  1.3906  1.0956
 2900TIP3   OH2 8705   2.322   0.906   1.251  1.0705 -0.0427 -0.2393
 2900TIP3    H1 8706   2.352   0.913   1.160  0.4409  1.3526 -0.3682
 2900TIP3    H2 8707   2.227   0.914   1.245  1.0073 -0.1713  0.5270
 2901TIP3   OH2 8708   2.025   4.145   1.234 -0.0709 -0.2910 -0.0159
 2901TIP3    H1 8709   1.942   4.175   1.269  0.7764  0.5198  1.4058
 2901TIP3    H2 8710   2.080   4.131   1.311  1.0737 -0.9159 -0.9098
 2902TIP3   OH2 8711   5.563   3.703   4.617 -0.2191 -0.4257 -0.0988
 2902TIP3    H1 8712   5.517   3.671   4.694  0.8852 -2.0954 -0.0666
 2902TIP3    H2 8713   5.496   3.711   4.550 -1.0879  0.4378  0.8436
 2903TIP3   OH2 8714   4.732   2.164   2.248 -0.6092  0.3245 -0.6968
 2903TIP3    H1 8715   4.793   2.224   2.205  2.7605 -1.3545  1.3607
 2903TIP3    H2 8716   4.735   2.084   2.195 -2.0099  0.5785 -1.2094
 2904TIP3   OH2 8717   0.538   1.421   3.470 -0.2013  0.3754  0.4429
 2904TIP3    H1 8718   0.458   1.450   3.426  0.5493  0.8243 -0.6605
 2904TIP3    H2 8719   0.512   1.342   3.518 -0.7508 -0.9674 -1.9261
 2905TIP3   OH2 8720   1.417   4.842   1.374  0.8407 -0.1216 -0.3822
 2905TIP3    H1 8721   1.419   4.891   1.292 -1.4820 -0.8163 -0.9291
 2905TIP3    H2 8722   1.459   4.900   1.438 -1.9071  2.7554 -0.9479
 2906TIP3   OH2 8723   5.907   0.584   4.966  0.2948  0.1311 -0.0342
 2906TIP3    H1 8724   5.883   0.608   5.055  0.5733 -0.8590  0.3193
 2906TIP3    H2 8725   5.960   0.658   4.935  0.6261  0.2513  0.7993
 2907TIP3   OH2 8726   1.776   5.824   3.475 -0.5613  0.1169 -0.4489
 2907TIP3    H1 8727   1.757   5.862   3.389  0.8954 -1.4679 -1.5228
 2907TIP3    H2 8728   1.789   5.731   3.457 -0.8656 -0.3528  1.6086
 2908TIP3   OH2 8729   1.472   4.389   3.185 -0.5677  0.2573  0.4444
 2908TIP3    H1 8730   1.479   4.483   3.198  0.2101  0.4110 -0.8984
 2908TIP3    H2 8731   1.448   4.354   3.271  1.9979  1.3817  1.7126
 2909TIP3   OH2 8732   4.929   0.665   2.374  0.7561 -0.3811  0.0726
 2909TIP3    H1 8733   5.014   0.702   2.350 -0.3781  1.5766 -1.1527
 2909TIP3    H2 8734   4.883   0.736   2.419 -1.0190 -0.6642 -1.1856
 2910TIP3   OH2 8735   0.914   5.752   2.867 -0.0067 -0.2147  0.2498
 2910TIP3    H1 8736   0.924   5.764   2.961  0.0679  1.8759  0.0153
 2910TIP3    H2 8737   0.826   5.715   2.857 -0.2099  0.0196  1.0981
 2911TIP3   OH2 8738   5.234   3.271   2.235  0.0772 -0.0143 -0.1907
 2911TIP3    H1 8739   5.285   3.218   2.296 -2.4025 -0.0469  2.0009
 2911TIP3    H2 8740   5.149   3.227   2.229 -1.2954  2.4351 -0.0793
 2912TIP3   OH2 8741   2.618   4.246   0.981  0.3325  0.0581 -0.4119
 2912TIP3    H1 8742   2.534   4.260   0.936  1.0118  2.0930 -1.1592
 2912TIP3    H2 8743   2.647   4.160   0.952 -0.0957  0.5796 -2.5505
 2913TIP3   OH2 8744   5.553   2.665   3.148  0.1316  0.0254 -0.1858
 2913TIP3    H1 8745   5.611   2.591   3.129 -0.9047 -0.2185 -2.7563
 2913TIP3    H2 8746   5.608   2.728   3.194  1.8527 -1.0778 -0.6622
 2914TIP3   OH2 8747   1.710   5.478   2.474 -0.4539 -0.1837  0.0922
 2914TIP3    H1 8748   1.797   5.450   2.444 -0.5919 -1.0336  0.4603
 2914TIP3    H2 8749   1.671   5.521   2.398  1.3488  2.7996  0.6778
 2915TIP3   OH2 8750   5.003   4.583   2.371  0.6143  0.3341  0.1309
 2915TIP3    H1 8751   4.995   4.556   2.280  0.7344 -2.1290  0.7663
 2915TIP3    H2 8752   4.913   4.602   2.398  0.7700  3.0788 -0.9605
 2916TIP3   OH2 8753   4.650   1.964   0.414  0.1171 -0.0109  0.0634
 2916TIP3    H1 8754   4.559   1.938   0.428  0.0697 -0.5327 -1.1322
 2916TIP3    H2 8755   4.670   1.936   0.324  1.8555 -1.0529  0.7290
 2917TIP3   OH2 8756   0.821   3.061   2.626  0.0234 -0.2618 -0.2096
 2917TIP3    H1 8757   0.779   2.979   2.599 -1.6180  0.6995 -0.7307
 2917TIP3    H2 8758   0.860   3.095   2.546 -0.3836  0.0631 -0.2739
 2918TIP3   OH2 8759   2.854   1.495   4.442 -0.3635  0.2626  0.3184
 2918TIP3    H1 8760   2.783   1.435   4.465  0.9609 -1.4557  0.1033
 2918TIP3    H2 8761   2.847   1.566   4.506 -1.2558 -0.7063  1.3388
 2919TIP3   OH2 8762   4.646   5.483   2.511 -0.3243 -0.3140  0.5600
 2919TIP3    H1 8763   4.570   5.448   2.465 -0.8426  0.4097  0.8290
 2919TIP3    H2 8764   4.641   5.578   2.496 -0.8313  0.0221  2.5074
 2920TIP3   OH2 8765   4.302   3.826   3.811  0.3178  0.0461 -0.3780
 2920TIP3    H1 8766   4.319   3.859   3.722  2.3885  0.4711  0.1279
 2920TIP3    H2 8767   4.379   3.852   3.861  0.4074 -2.4753  0.9440
 2921TIP3   OH2 8768   3.720   4.437   4.997 -0.2583 -0.2797  0.3672
 2921TIP3    H1 8769   3.705   4.348   5.027 -1.0539  0.2069  1.4794
 2921TIP3    H2 8770   3.815   4.449   5.002  0.1954 -1.8732 -2.2731
 2922TIP3   OH2 8771   5.130   2.445   3.449 -0.2917  0.4099 -0.3461
 2922TIP3    H1 8772   5.173   2.465   3.532 -0.1490  0.4222 -0.4237
 2922TIP3    H2 8773   5.188   2.480   3.382  0.1951 -0.6588 -0.5095
 2923TIP3   OH2 8774   6.159   2.737   1.003  0.0656  0.3956  0.1901
 2923TIP3    H1 8775   6.234   2.786   1.038  0.9489  2.0761 -3.5806
 2923TIP3    H2 8776   6.198   2.664   0.956 -0.9529 -0.7359  1.0433
 2924TIP3   OH2 8777   2.208   0.499   3.652 -0.2989 -0.0059  0.1862
 2924TIP3    H1 8778   2.298   0.466   3.643 -0.2395 -0.3317  1.7199
 2924TIP3    H2 8779   2.173   0.497   3.563  1.3437  0.5138 -0.5147
 2925TIP3   OH2 8780   1.759   5.230   0.125 -0.0854  0.6241 -0.3739
 2925TIP3    H1 8781   1.742   5.223   0.031  0.4588 -0.3277 -0.4140
 2925TIP3    H2 8782   1.727   5.317   0.149  0.9664  1.4025 -1.6958
 2926TIP3   OH2 8783   0.904   1.377   1.172 -0.0445 -0.3034 -0.5074
 2926TIP3    H1 8784   0.809   1.367   1.166 -0.3017  0.1717  1.8475
 2926TIP3    H2 8785   0.925   1.356   1.263  2.0162  0.3660 -0.7733
 2927TIP3   OH2 8786   3.231   5.035   3.092 -0.2132 -0.1121 -0.1465
 2927TIP3    H1 8787   3.197   4.948   3.073 -0.9693  0.2725 -0.6166
 2927TIP3    H2 8788   3.194   5.091   3.024  1.4888  0.3162 -0.7759
 2928TIP3   OH2 8789   6.174   3.250   3.288 -0.3504  0.0497  0.2077
 2928TIP3    H1 8790   6.100   3.288   3.335  0.0578 -0.8980  1.6894
 2928TIP3    H2 8791   6.192   3.168   3.335  3.2013  1.3801  1.5175
 2929TIP3   OH2 8792   5.011   1.141   3.474  0.3722 -0.4882  0.3147
 2929TIP3    H1 8793   5.019   1.205   3.403  0.5805 -0.3736  0.4390
 2929TIP3    H2 8794   5.101   1.123   3.500  0.3559 -1.3711 -0.1962
 2930TIP3   OH2 8795   5.166   5.539   2.667 -0.2060  0.1800  0.3327
 2930TIP3    H1 8796   5.120   5.566   2.588  1.6197 -0.3914 -1.0062
 2930TIP3    H2 8797   5.219   5.615   2.691 -1.4958  0.7101  1.6503
 2931TIP3   OH2 8798   6.050   1.551   2.868 -0.4499  0.2292  0.7323
 2931TIP3    H1 8799   6.108   1.613   2.824 -0.3047  0.6788  1.5343
 2931TIP3    H2 8800   6.036   1.482   2.804  2.0815 -0.5912  0.9467
 2932TIP3   OH2 8801   6.329   4.924   1.532  1.0079 -0.2600  0.2051
 2932TIP3    H1 8802   6.308   5.017   1.539 -1.0570 -0.7411  1.0984
 2932TIP3    H2 8803   6.304   4.887   1.616  0.6706 -1.8202 -0.5413
 2933TIP3   OH2 8804   0.455   3.452   2.675  0.5277 -0.1493  0.3467
 2933TIP3    H1 8805   0.411   3.492   2.600 -0.5058  0.3153  1.1833
 2933TIP3    H2 8806   0.539   3.497   2.680  0.1962  0.5190  0.0633
 2934TIP3   OH2 8807   1.513   5.055   1.520  0.0274  0.7058 -0.3757
 2934TIP3    H1 8808   1.454   5.121   1.556  1.2221  1.3105  0.5152
 2934TIP3    H2 8809   1.578   5.041   1.588  0.3003 -0.7649 -0.9072
 2935TIP3   OH2 8810   0.173   3.810   3.420  0.0795 -0.0972  0.1592
 2935TIP3    H1 8811   0.171   3.906   3.426 -1.1746 -0.0467 -0.7600
 2935TIP3    H2 8812   0.239   3.791   3.353 -1.2136  0.2419 -1.2530
 2936TIP3   OH2 8813   4.530   4.702   3.337 -0.0319 -0.1676 -0.3436
 2936TIP3    H1 8814   4.583   4.774   3.372 -0.3312  0.6509 -1.5137
 2936TIP3    H2 8815   4.502   4.733   3.251 -2.4631 -0.5182  0.2340
 2937TIP3   OH2 8816   1.589   0.396   5.056 -0.0743  0.2839 -0.0172
 2937TIP3    H1 8817   1.546   0.479   5.076 -1.1582 -0.2973  0.1340
 2937TIP3    H2 8818   1.572   0.341   5.133  2.2021  0.4934  0.7054
 2938TIP3   OH2 8819   1.140   3.201   1.774 -0.3155  0.5117  0.3556
 2938TIP3    H1 8820   1.166   3.289   1.749  0.7536  0.1228  0.0451
 2938TIP3    H2 8821   1.060   3.213   1.825 -0.3724  1.6250  0.0209
 2939TIP3   OH2 8822   6.239   2.323   3.439 -0.1707 -0.2584 -0.3970
 2939TIP3    H1 8823   6.226   2.238   3.480  0.7936 -1.1868 -1.9077
 2939TIP3    H2 8824   6.152   2.350   3.411 -0.6200 -0.2857  0.8979
 2940TIP3   OH2 8825   0.006   1.655   3.537  0.1181 -0.8636  0.3209
 2940TIP3    H1 8826   0.082   1.603   3.513  0.5701 -0.1847  0.2368
 2940TIP3    H2 8827   0.035   1.746   3.526 -0.7352 -0.5948  0.1812
 2941TIP3   OH2 8828   2.208   1.312   2.552  0.3071 -0.3432 -0.0873
 2941TIP3    H1 8829   2.224   1.261   2.472  0.9000  1.0734 -0.9236
 2941TIP3    H2 8830   2.266   1.273   2.617 -0.2002 -1.5438 -0.3214
 2942TIP3   OH2 8831   1.594   0.228   1.868 -0.2208  0.7187  0.6896
 2942TIP3    H1 8832   1.677   0.256   1.829 -0.8222  0.8120 -0.5701
 2942TIP3    H2 8833   1.613   0.142   1.904  0.5436  0.9350  0.8289
 2943TIP3   OH2 8834   4.655   1.212   2.523 -0.3318  0.6438  0.0917
 2943TIP3    H1 8835   4.740   1.208   2.567 -0.4218 -1.3604  0.1807
 2943TIP3    H2 8836   4.642   1.304   2.504  2.4980  0.8657 -1.1423
 2944TIP3   OH2 8837   4.379   4.203   0.828 -0.6873  0.0883  0.6916
 2944TIP3    H1 8838   4.430   4.283   0.811 -0.5320  0.2540  1.8078
 2944TIP3    H2 8839   4.339   4.219   0.913 -0.6878 -1.0100  0.9088
 2945TIP3   OH2 8840   3.883   3.492   3.977  0.3475  0.5878 -1.0685
 2945TIP3    H1 8841   3.947   3.564   3.976 -0.0426  1.0249  0.8042
 2945TIP3    H2 8842   3.907   3.440   4.054 -1.4996  0.7601 -0.3157
 2946TIP3   OH2 8843   5.529   5.455   2.583 -0.0050  0.6828 -0.3310
 2946TIP3    H1 8844   5.604   5.419   2.536  1.2508 -1.0179  2.7243
 2946TIP3    H2 8845   5.484   5.509   2.518  2.0678 -0.7465 -3.1668
 2947TIP3   OH2 8846   3.640   3.386   4.328 -1.1859  0.0761 -0.1413
 2947TIP3    H1 8847   3.630   3.351   4.239  1.0783 -1.1931  0.0488
 2947TIP3    H2 8848   3.690   3.466   4.316  0.2975 -0.7922  0.0646
 2948TIP3   OH2 8849   5.246   4.323   4.089  0.2205  0.4716  0.3594
 2948TIP3    H1 8850   5.241   4.407   4.044  2.7297  1.9239  2.5399
 2948TIP3    H2 8851   5.337   4.296   4.082  0.1301 -0.5415  2.2432
 2949TIP3   OH2 8852   4.982   5.884   1.437 -0.5071  0.6051 -0.1041
 2949TIP3    H1 8853   5.025   5.866   1.521  0.4130  0.6802 -0.5458
 2949TIP3    H2 8854   5.049   5.866   1.371 -0.7282  1.9727 -0.7458
 2950TIP3   OH2 8855   5.513   2.107   0.138 -0.5515 -0.0090  0.1544
 2950TIP3    H1 8856   5.504   2.062   0.055 -0.9187  0.2682  0.0406
 2950TIP3    H2 8857   5.436   2.165   0.143 -1.1407 -0.8346  1.1885
 2951TIP3   OH2 8858   4.921   0.146   4.191 -0.3166 -0.2852  0.0011
 2951TIP3    H1 8859   4.968   0.192   4.261  0.5554 -0.1003 -0.6971
 2951TIP3    H2 8860   4.972   0.067   4.175  1.4573  1.2309 -2.6800
 2952TIP3   OH2 8861   5.727   0.003   4.565  0.3150 -0.8934  0.4536
 2952TIP3    H1 8862   5.749  -0.049   4.487  0.0550  1.7340 -1.5342
 2952TIP3    H2 8863   5.795   0.070   4.569 -1.2223  0.7320  0.7577
 2953TIP3   OH2 8864   5.546   5.872   1.797  0.3972  0.3063 -0.1410
 2953TIP3    H1 8865   5.559   5.839   1.886 -1.0239  1.2187  0.4470
 2953TIP3    H2 8866   5.480   5.941   1.807  1.6720  1.8216 -1.6204
 2954TIP3   OH2 8867   4.968   0.450   0.835  0.7131  0.0045  0.1606
 2954TIP3    H1 8868   5.063   0.452   0.833  0.8034 -0.3536  2.3084
 2954TIP3    H2 8869   4.945   0.469   0.925 -1.2073 -1.2830  0.0046
 2955TIP3   OH2 8870   0.260   1.687   4.768  0.6926  0.0878  0.1037
 2955TIP3    H1 8871   0.245   1.600   4.730  1.1095 -0.6575  1.5579
 2955TIP3    H2 8872   0.174   1.730   4.764  0.6110 -0.1407 -1.1740
 2956TIP3   OH2 8873   2.867   5.306   4.217  0.7168 -0.2384 -0.1567
 2956TIP3    H1 8874   2.918   5.248   4.161 -0.6459 -0.3653 -1.3287
 2956TIP3    H2 8875   2.926   5.378   4.237  1.8908 -1.1972 -0.0588
 2957TIP3   OH2 8876   0.625   4.788   1.887  0.8806  0.6342 -0.0782
 2957TIP3    H1 8877   0.657   4.699   1.878  0.4517  0.5558 -0.9295
 2957TIP3    H2 8878   0.537   4.779   1.923  2.2977  0.9154  3.9052
 2958TIP3   OH2 8879   2.356   3.004   5.049 -0.6343 -0.0605 -0.3240
 2958TIP3    H1 8880   2.417   2.976   5.117 -0.4448 -0.4555 -0.6488
 2958TIP3    H2 8881   2.330   3.093   5.074  0.0049  0.0759 -0.1396
 2959TIP3   OH2 8882   1.515   1.047   4.008 -0.0799  0.4728 -0.0310
 2959TIP3    H1 8883   1.536   0.971   4.064 -0.1170 -0.0121 -0.6622
 2959TIP3    H2 8884   1.421   1.060   4.020 -0.0600  0.4683  0.1378
 2960TIP3   OH2 8885   1.323   5.464   3.968  0.3111  0.4875  0.0737
 2960TIP3    H1 8886   1.404   5.492   4.011 -0.0837  0.0298  1.1600
 2960TIP3    H2 8887   1.331   5.369   3.961 -0.2561  0.4057  0.4701
 2961TIP3   OH2 8888   3.338   3.975   3.193 -0.2803  0.1404  0.2532
 2961TIP3    H1 8889   3.321   4.069   3.190 -1.1396 -0.0338 -1.2666
 2961TIP3    H2 8890   3.331   3.946   3.102 -1.2886 -1.5974  0.8300
 2962TIP3   OH2 8891   3.751   0.150   0.683  0.0696 -0.0295 -0.0729
 2962TIP3    H1 8892   3.794   0.214   0.740  2.8454  0.1537 -2.1998
 2962TIP3    H2 8893   3.774   0.065   0.722 -0.6075  0.1308  0.7197
 2963TIP3   OH2 8894   5.890   0.370   2.889  0.3175  0.8967 -0.0015
 2963TIP3    H1 8895   5.971   0.348   2.936  0.3085 -2.2192 -1.1814
 2963TIP3    H2 8896   5.828   0.392   2.958  1.4580  0.7427  1.1195
 2964TIP3   OH2 8897   5.595   1.607   0.471  0.5659  0.1023 -0.0774
 2964TIP3    H1 8898   5.515   1.559   0.450  0.5549 -0.0610  0.3254
 2964TIP3    H2 8899   5.625   1.643   0.387  0.3307 -0.2380 -0.3081
 2965TIP3   OH2 8900   3.014   1.605   0.400 -0.0715 -0.2164  0.3846
 2965TIP3    H1 8901   3.006   1.512   0.421 -0.3593 -0.6148 -1.3271
 2965TIP3    H2 8902   3.077   1.608   0.328  0.1717  0.9523  0.6335
 2966TIP3   OH2 8903   5.763   2.145   2.819 -0.0117  0.0214  0.0777
 2966TIP3    H1 8904   5.690   2.122   2.761 -1.4303  0.2333  1.6965
 2966TIP3    H2 8905   5.754   2.085   2.894  1.6598 -0.1265  0.1910
 2967TIP3   OH2 8906   6.152   1.515   0.634 -1.0620 -0.2637  0.4111
 2967TIP3    H1 8907   6.159   1.500   0.540  1.0166 -0.5177  0.5657
 2967TIP3    H2 8908   6.219   1.458   0.673 -0.3239  1.4961  1.8585
 2968TIP3   OH2 8909   3.948   2.036   0.691 -0.0634 -0.0399  0.3145
 2968TIP3    H1 8910   4.003   2.060   0.616 -2.1616  2.9593 -0.4491
 2968TIP3    H2 8911   3.955   2.111   0.750 -3.6956  0.7874 -0.1111
 2969TIP3   OH2 8912   2.255   0.469   1.816  0.1381 -0.9579  0.0657
 2969TIP3    H1 8913   2.177   0.492   1.867  1.7421  0.4247  2.0383
 2969TIP3    H2 8914   2.259   0.374   1.820 -2.1500 -1.1742 -1.2414
 2970TIP3   OH2 8915   4.267   0.318   1.708  0.2229  0.0757  0.9754
 2970TIP3    H1 8916   4.251   0.225   1.721 -0.3184  0.0653  0.3220
 2970TIP3    H2 8917   4.356   0.323   1.675 -1.0468 -0.6689 -3.2057
 2971TIP3   OH2 8918   4.878   1.036   3.680  0.4907 -0.1678  0.0094
 2971TIP3    H1 8919   4.915   1.091   3.612 -1.7238  1.5848  0.0987
 2971TIP3    H2 8920   4.874   1.092   3.758 -1.8227 -0.3411  0.1107
 2972TIP3   OH2 8921   0.395   2.704   2.723 -0.3269 -0.1439 -0.2957
 2972TIP3    H1 8922   0.320   2.653   2.754  1.4420 -2.4142  0.5821
 2972TIP3    H2 8923   0.436   2.646   2.658  1.0917  0.7112 -0.1804
 2973TIP3   OH2 8924   1.230   0.498   1.760 -0.1927 -0.3981 -0.3662
 2973TIP3    H1 8925   1.285   0.576   1.770 -0.3986 -0.5362  2.8243
 2973TIP3    H2 8926   1.291   0.425   1.763 -0.1681 -0.4549 -1.6355
 2974TIP3   OH2 8927   3.119   5.175   3.649 -0.5813  0.5417 -0.0406
 2974TIP3    H1 8928   3.196   5.195   3.594 -1.3451  0.4423 -1.1894
 2974TIP3    H2 8929   3.076   5.260   3.661 -0.6623  0.4900  0.0282
 2975TIP3   OH2 8930   1.446   1.446   3.847  0.3862 -0.1342  0.3384
 2975TIP3    H1 8931   1.520   1.479   3.897  0.1328  1.1916 -0.1187
 2975TIP3    H2 8932   1.478   1.366   3.807  1.2855 -0.0448  0.8465
 2976TIP3   OH2 8933   2.874   1.480   2.858  0.3605  0.6712  0.3837
 2976TIP3    H1 8934   2.917   1.412   2.909 -0.6061 -0.4203 -0.1946
 2976TIP3    H2 8935   2.809   1.517   2.918  1.0705  1.2947  0.7853
 2977TIP3   OH2 8936   2.676   4.070   1.310  0.4298 -0.0939  0.1947
 2977TIP3    H1 8937   2.716   4.155   1.295 -0.0482  0.2569  0.8396
 2977TIP3    H2 8938   2.615   4.058   1.237  1.9371 -0.8050 -1.0092
 2978TIP3   OH2 8939   0.449   3.805   0.097  0.2506 -1.0444  0.1430
 2978TIP3    H1 8940   0.386   3.866   0.135 -0.4359 -1.8287  0.2980
 2978TIP3    H2 8941   0.398   3.726   0.078  0.6398 -0.8450 -2.0529
 2979TIP3   OH2 8942   2.396   5.288   4.901 -0.1483  0.6852 -0.3352
 2979TIP3    H1 8943   2.401   5.192   4.894 -1.3413  0.5726  0.1558
 2979TIP3    H2 8944   2.377   5.318   4.813 -1.6308  0.3110 -0.1680
 2980TIP3   OH2 8945   5.951   1.115   2.793 -0.1295  0.2544 -0.6755
 2980TIP3    H1 8946   6.023   1.174   2.775 -0.4475  1.2177  0.9730
 2980TIP3    H2 8947   5.993   1.035   2.826  0.3492  2.2174  4.4312
 2981TIP3   OH2 8948   4.760   4.559   4.030 -0.4503  0.4672 -0.3118
 2981TIP3    H1 8949   4.836   4.540   3.975  1.2319  1.5780  1.5123
 2981TIP3    H2 8950   4.733   4.647   4.004 -0.9826  0.1822 -0.7620
 2982TIP3   OH2 8951   4.472   3.173   0.095  0.7284 -0.2351  1.0034
 2982TIP3    H1 8952   4.420   3.114   0.040  0.7648  0.5348  0.1252
 2982TIP3    H2 8953   4.517   3.230   0.033  3.4158 -1.4745  1.6594
 2983TIP3   OH2 8954   1.276   3.027   0.575 -0.1351  0.3691 -0.4417
 2983TIP3    H1 8955   1.230   3.111   0.572 -1.4007 -0.2304  0.6452
 2983TIP3    H2 8956   1.235   2.975   0.506  1.2873  0.9148 -1.7377
 2984TIP3   OH2 8957   6.010   3.043   4.517  0.2832 -0.6664  0.0974
 2984TIP3    H1 8958   5.951   3.118   4.513  1.0785  0.0075  0.8333
 2984TIP3    H2 8959   6.097   3.081   4.520  0.6788 -1.5987  1.0204
 2985TIP3   OH2 8960   0.031   4.636   4.907 -0.5846  0.0530  0.0681
 2985TIP3    H1 8961   0.032   4.610   4.815  0.0483 -0.7382  0.2925
 2985TIP3    H2 8962   0.031   4.732   4.905 -0.3558  0.0402 -0.7492
 2986TIP3   OH2 8963   2.344   3.336   1.647 -0.1121  0.4515 -0.1867
 2986TIP3    H1 8964   2.303   3.380   1.722 -0.8175  0.7316 -0.7150
 2986TIP3    H2 8965   2.430   3.308   1.678 -0.0035  1.4356  0.4323
 2987TIP3   OH2 8966   4.639   5.091   0.245  0.0613 -0.0620  0.7664
 2987TIP3    H1 8967   4.567   5.058   0.299  0.9924 -0.0584  2.0809
 2987TIP3    H2 8968   4.677   5.012   0.205 -0.7676 -0.0437 -0.0852
 2988TIP3   OH2 8969   2.443   3.860   3.607 -0.5042 -0.3007 -0.2900
 2988TIP3    H1 8970   2.435   3.816   3.692 -0.9547  0.4965  0.0941
 2988TIP3    H2 8971   2.435   3.790   3.543 -0.6382 -0.8543  0.3193
 2989TIP3   OH2 8972   4.271   3.800   1.067  0.2888  0.0459 -0.2533
 2989TIP3    H1 8973   4.357   3.840   1.053 -0.0086  0.3220 -1.4457
 2989TIP3    H2 8974   4.210   3.874   1.067 -0.0073 -0.1987 -0.0527
 2990TIP3   OH2 8975   1.298   5.896   1.389 -0.3533 -0.5571 -0.3390
 2990TIP3    H1 8976   1.225   5.868   1.445 -0.5201  0.9288  0.2334
 2990TIP3    H2 8977   1.323   5.981   1.424  0.5728 -0.2981 -1.5813
 2991TIP3   OH2 8978   4.391   3.288   3.198 -0.4273 -0.0412 -0.1090
 2991TIP3    H1 8979   4.317   3.232   3.176 -0.4270  0.0827 -0.4414
 2991TIP3    H2 8980   4.408   3.271   3.290 -0.1977 -0.8515 -0.2948
 2992TIP3   OH2 8981   4.236   4.480   3.025  0.2446  0.0007  0.2358
 2992TIP3    H1 8982   4.203   4.402   3.068 -1.2224  0.8740  0.7374
 2992TIP3    H2 8983   4.172   4.548   3.044  0.9297  1.0774 -1.0892
 2993TIP3   OH2 8984   3.633   3.189   1.649 -0.3028 -0.2754  0.1788
 2993TIP3    H1 8985   3.554   3.243   1.650  0.0400  0.2656 -0.6336
 2993TIP3    H2 8986   3.676   3.208   1.732 -0.2981  0.5453 -0.0002
 2994TIP3   OH2 8987   5.243   2.692   2.010 -0.0430 -0.3926 -0.5310
 2994TIP3    H1 8988   5.278   2.689   1.922  2.9959 -0.6671  0.5872
 2994TIP3    H2 8989   5.199   2.607   2.021  1.9835 -1.5546 -0.9138
 2995TIP3   OH2 8990   5.547   2.508   4.033  0.1303 -0.0650  0.4621
 2995TIP3    H1 8991   5.571   2.600   4.045 -1.3790  0.2254  1.4415
 2995TIP3    H2 8992   5.631   2.463   4.021  0.7938  1.7796 -2.8766
 2996TIP3   OH2 8993   5.155   3.293   1.199  0.3872 -0.5482 -0.3183
 2996TIP3    H1 8994   5.187   3.375   1.238 -0.4976 -0.8160  1.0361
 2996TIP3    H2 8995   5.220   3.272   1.132  0.3688  1.5257 -1.0773
 2997TIP3   OH2 8996   0.192   5.646   3.072  0.2567  0.5463 -0.4164
 2997TIP3    H1 8997   0.165   5.674   2.985  0.0660  1.7972  0.0203
 2997TIP3    H2 8998   0.123   5.586   3.101 -1.0665  2.1520 -0.1023
 2998TIP3   OH2 8999   1.125   4.993   1.246  0.2236 -0.0811  0.3551
 2998TIP3    H1 9000   1.097   4.987   1.338 -0.3896 -2.4230  0.0803
 2998TIP3    H2 9001   1.097   5.080   1.219 -0.6290  0.2420  2.0810
 2999TIP3   OH2 9002   3.426   1.856   4.980  0.4274 -0.2469 -0.1858
 2999TIP3    H1 9003   3.409   1.892   4.893 -0.1469  0.8533  0.3664
 2999TIP3    H2 9004   3.346   1.873   5.030  0.8919 -0.5077  0.6715
 3000TIP3   OH2 9005   3.678   4.208   1.418  0.8080  0.1999 -0.4581
 3000TIP3    H1 9006   3.650   4.134   1.473  0.4542  0.0129 -0.8800
 3000TIP3    H2 9007   3.664   4.285   1.473  3.6993 -0.2037  0.9886
 3001TIP3   OH2 9008   2.924   3.186   1.825 -0.1629 -0.2699  0.3204
 3001TIP3    H1 9009   2.944   3.148   1.739  1.5454 -1.4248  1.1637
 3001TIP3    H2 9010   3.000   3.241   1.845 -0.2979 -0.4313  1.3073
 3002TIP3   OH2 9011   3.457   5.280   4.745  0.2303 -0.3109 -0.4393
 3002TIP3    H1 9012   3.492   5.199   4.711  1.4181 -0.4776  1.0696
 3002TIP3    H2 9013   3.442   5.262   4.838 -1.5618  0.5306 -0.5207
 3003TIP3   OH2 9014   3.513   2.847   5.010  0.3121  0.0358 -0.0355
 3003TIP3    H1 9015   3.555   2.761   5.014  1.7355  0.7153  0.2405
 3003TIP3    H2 9016   3.567   2.897   4.948 -0.9169  0.5171 -0.7395
 3004TIP3   OH2 9017   1.984   3.569   3.019  0.1991  0.1248 -0.3366
 3004TIP3    H1 9018   1.966   3.527   2.935  1.6258  0.2838 -0.7447
 3004TIP3    H2 9019   2.048   3.637   2.999  0.4109  0.3001  0.8566
 3005TIP3   OH2 9020   3.146   1.566   1.988  0.2890  0.3528 -0.2213
 3005TIP3    H1 9021   3.092   1.633   2.029  0.6953  0.0066  0.9242
 3005TIP3    H2 9022   3.084   1.503   1.952 -0.0849  0.3223  0.4609
 3006TIP3   OH2 9023   0.884   3.770   2.383 -0.0526  0.0267  0.1394
 3006TIP3    H1 9024   0.823   3.717   2.433 -0.0467 -0.1204 -0.0094
 3006TIP3    H2 9025   0.845   3.777   2.296 -1.4907  2.6404  0.8979
 3007TIP3   OH2 9026   0.383   4.764   0.392 -0.1954  0.3033 -0.1889
 3007TIP3    H1 9027   0.410   4.739   0.480 -0.1016  0.5771 -0.1381
 3007TIP3    H2 9028   0.338   4.687   0.357  0.1171  0.0542 -0.0469
 3008TIP3   OH2 9029   2.996   5.057   1.888 -0.9401  0.7605 -0.3041
 3008TIP3    H1 9030   2.941   4.992   1.930 -0.3975  1.0684  0.9140
 3008TIP3    H2 9031   2.939   5.134   1.879 -0.4999  1.3655  1.7330
 3009TIP3   OH2 9032   2.921   1.941   4.257  0.3234  0.3377  0.4167
 3009TIP3    H1 9033   2.836   1.968   4.224  0.4535 -0.4413 -0.6115
 3009TIP3    H2 9034   2.945   1.866   4.203  1.3003  0.0439  1.2243
 3010TIP3   OH2 9035   4.999   2.843   0.298  0.0342  0.4558 -0.4852
 3010TIP3    H1 9036   4.963   2.805   0.218  0.3830  0.1711 -0.5068
 3010TIP3    H2 9037   5.074   2.895   0.268  1.8390 -1.7748 -0.0936
 3011TIP3   OH2 9038   1.276   4.549   5.044  0.1367 -0.3145 -0.1967
 3011TIP3    H1 9039   1.228   4.475   5.007 -0.2248 -0.6846  0.9544
 3011TIP3    H2 9040   1.353   4.559   4.988 -1.6359  0.8101 -2.5796
 3012TIP3   OH2 9041   1.676   5.024   2.158 -0.1141  0.7770 -0.0111
 3012TIP3    H1 9042   1.587   5.040   2.188 -1.1803 -3.5603 -0.1275
 3012TIP3    H2 9043   1.731   5.046   2.233 -1.5679  0.9541  1.0456
 3013TIP3   OH2 9044   6.285   1.685   2.238 -0.3158  0.3755 -0.2842
 3013TIP3    H1 9045   6.283   1.771   2.197 -0.7287 -0.1088 -1.3100
 3013TIP3    H2 9046   6.253   1.701   2.327 -0.8427  1.2076 -0.6031
 3014TIP3   OH2 9047   0.034   2.460   3.775 -0.0172  0.0568 -0.5777
 3014TIP3    H1 9048   0.011   2.497   3.689  0.9007 -2.5750 -2.0777
 3014TIP3    H2 9049   0.033   2.366   3.761  1.5614 -0.4245  1.9628
 3015TIP3   OH2 9050   3.033   1.623   5.011 -0.0721  0.1251 -0.4864
 3015TIP3    H1 9051   3.084   1.651   4.934  1.0427  1.8988  0.8097
 3015TIP3    H2 9052   2.980   1.699   5.034  0.2285 -0.0796  0.9825
 3016TIP3   OH2 9053   0.370   1.953   1.869  0.0939 -0.0458 -0.0808
 3016TIP3    H1 9054   0.284   1.931   1.834 -0.0896  0.1993  0.2164
 3016TIP3    H2 9055   0.393   1.878   1.924  0.1802 -0.2224 -0.3557
 3017TIP3   OH2 9056   0.420   1.801   1.664 -0.1116  0.0817 -0.3061
 3017TIP3    H1 9057   0.342   1.749   1.680 -0.7571  1.4797  1.3196
 3017TIP3    H2 9058   0.423   1.864   1.736  3.1285 -0.6130  0.3172
 3018TIP3   OH2 9059   4.021   4.754   1.925 -0.1196  0.2903 -0.3583
 3018TIP3    H1 9060   3.966   4.676   1.928  0.1602  0.0894  2.5633
 3018TIP3    H2 9061   4.023   4.785   2.015  2.8956  1.4658 -0.7119
 3019TIP3   OH2 9062   2.210   2.413   3.733  0.1236 -0.4036 -0.3534
 3019TIP3    H1 9063   2.195   2.483   3.669 -1.0394 -0.2371  0.0725
 3019TIP3    H2 9064   2.304   2.412   3.747  0.2515  0.4150 -1.1075
 3020TIP3   OH2 9065   2.740   3.193   0.259 -0.5333  0.1815  0.0795
 3020TIP3    H1 9066   2.704   3.174   0.173  1.2296 -1.0821 -0.4234
 3020TIP3    H2 9067   2.752   3.107   0.300  0.8067  0.6273  0.6649
 3021TIP3   OH2 9068   4.999   1.971   2.870 -0.2565 -0.2191  0.2043
 3021TIP3    H1 9069   4.963   1.952   2.956  1.5775  0.7148  1.2444
 3021TIP3    H2 9070   4.945   2.043   2.837 -1.8919 -1.5348 -0.1102
 3022TIP3   OH2 9071   3.923   0.372   4.721 -0.1001 -0.1777  0.1836
 3022TIP3    H1 9072   3.842   0.335   4.684 -0.2777  0.8879 -0.5471
 3022TIP3    H2 9073   3.943   0.316   4.796 -1.4425 -0.5559  0.2881
 3023TIP3   OH2 9074   0.799   3.508   0.193  0.2112  0.1028 -0.8244
 3023TIP3    H1 9075   0.763   3.454   0.123 -2.1610  0.1681  0.2606
 3023TIP3    H2 9076   0.837   3.583   0.148 -1.1434  0.0886 -2.0709
 3024TIP3   OH2 9077   3.592   3.535   0.170 -0.1481 -0.6866 -0.2175
 3024TIP3    H1 9078   3.582   3.598   0.241 -0.6506  1.3470 -2.0083
 3024TIP3    H2 9079   3.669   3.483   0.196  1.0480  1.4391  0.7779
 3025TIP3   OH2 9080   0.852   1.903   4.587 -0.0398  0.1948 -0.0319
 3025TIP3    H1 9081   0.855   1.942   4.499  0.1112 -0.8066 -0.4779
 3025TIP3    H2 9082   0.875   1.811   4.574  1.6251  0.3740  1.2656
 3026TIP3   OH2 9083   1.101   0.504   1.288  0.5685 -0.0111 -0.0908
 3026TIP3    H1 9084   1.183   0.470   1.253  0.4966 -1.2551  0.8854
 3026TIP3    H2 9085   1.033   0.447   1.252  0.4331 -0.8790  1.4374
 3027TIP3   OH2 9086   3.631   1.078   2.523  0.1034 -0.0015 -0.5718
 3027TIP3    H1 9087   3.657   1.164   2.555 -1.1330  1.2697 -2.7695
 3027TIP3    H2 9088   3.684   1.065   2.444  0.4484 -1.3956 -0.1412
 3028TIP3   OH2 9089   1.253   4.635   4.642 -0.7134 -0.5658 -0.4913
 3028TIP3    H1 9090   1.244   4.717   4.691 -0.7521 -0.5949 -0.4500
 3028TIP3    H2 9091   1.293   4.575   4.704  1.3187  0.0277 -1.1724
 3029TIP3   OH2 9092   2.857   1.227   4.647 -0.6248  0.2109 -0.8377
 3029TIP3    H1 9093   2.920   1.175   4.696 -2.7059 -0.9208  0.8093
 3029TIP3    H2 9094   2.878   1.318   4.667  0.2740 -0.1593 -0.0630
 3030TIP3   OH2 9095   5.199   4.854   4.776 -0.2078 -0.0857  0.5938
 3030TIP3    H1 9096   5.151   4.861   4.693  0.0118  0.1870  0.4880
 3030TIP3    H2 9097   5.134   4.873   4.843 -0.4029 -0.3719  0.4868
 3031TIP3   OH2 9098   3.978   0.857   3.358 -0.0390  0.0336 -0.1790
 3031TIP3    H1 9099   3.992   0.928   3.421  0.0957 -0.4640  0.3649
 3031TIP3    H2 9100   3.905   0.886   3.304 -0.9751 -0.0681  1.0052
 3032TIP3   OH2 9101   0.573   5.595   1.602 -0.0081 -0.0386 -0.0884
 3032TIP3    H1 9102   0.558   5.686   1.624 -1.0758  0.2032 -1.6307
 3032TIP3    H2 9103   0.510   5.546   1.656 -0.6046  0.2876 -0.4837
 3033TIP3   OH2 9104   1.580   4.378   0.987 -0.0582 -0.1372  0.1128
 3033TIP3    H1 9105   1.487   4.355   0.985 -0.7384  2.2595  1.2962
 3033TIP3    H2 9106   1.594   4.428   0.906  0.1564 -0.2825  0.0580
 3034TIP3   OH2 9107   1.209   5.562   4.205 -0.2978  0.0191  0.3631
 3034TIP3    H1 9108   1.292   5.598   4.237 -0.2769  1.1808 -0.9118
 3034TIP3    H2 9109   1.225   5.543   4.113 -1.4890  0.3853  0.0720
 3035TIP3   OH2 9110   0.415   5.703   2.341  0.7492 -0.9384  0.6115
 3035TIP3    H1 9111   0.385   5.672   2.255  0.1333 -1.3206  0.9585
 3035TIP3    H2 9112   0.340   5.691   2.399  1.9049 -3.1515  1.8107
 3036TIP3   OH2 9113   3.084   5.370   2.014 -0.2485 -0.0871  0.2953
 3036TIP3    H1 9114   3.139   5.331   1.946 -0.0984  0.2489  0.2237
 3036TIP3    H2 9115   2.996   5.338   1.993 -0.3409  0.7004 -0.5731
 3037TIP3   OH2 9116   0.120   1.531   1.032 -0.1141  0.2941  0.2353
 3037TIP3    H1 9117   0.195   1.568   0.986  0.7390 -2.0503 -0.4143
 3037TIP3    H2 9118   0.044   1.572   0.991  0.7291  0.4812 -1.2306
 3038TIP3   OH2 9119   5.751   0.288   0.381 -0.2880 -0.1442 -0.1297
 3038TIP3    H1 9120   5.762   0.366   0.436 -0.3476  0.4116 -0.9023
 3038TIP3    H2 9121   5.757   0.215   0.443  0.5139  0.4347  0.5056
 3039TIP3   OH2 9122   3.968   3.084   0.391 -0.4599 -0.3641 -0.3133
 3039TIP3    H1 9123   3.930   3.001   0.421  1.8516 -0.9207  1.3710
 3039TIP3    H2 9124   3.981   3.135   0.470  2.6613 -0.4529 -0.6155
 3040TIP3   OH2 9125   5.121   3.754   0.202  0.0184 -0.2028 -0.1902
 3040TIP3    H1 9126   5.083   3.722   0.284  0.3387  0.8188  0.3660
 3040TIP3    H2 9127   5.195   3.696   0.186 -1.2326 -1.7089 -0.8629
 3041TIP3   OH2 9128   5.137   4.799   2.393  0.4083  0.0984 -0.3375
 3041TIP3    H1 9129   5.088   4.723   2.363  0.8940 -0.5464  0.4491
 3041TIP3    H2 9130   5.117   4.804   2.487  0.2338  1.0552 -0.4200
 3042TIP3   OH2 9131   3.356   1.767   3.641 -0.2561  0.5304 -0.0490
 3042TIP3    H1 9132   3.321   1.818   3.714  1.0715 -0.3602  1.2964
 3042TIP3    H2 9133   3.435   1.814   3.615 -0.9817  1.0979 -1.2485
 3043TIP3   OH2 9134   4.517   5.815   1.071  0.0820 -0.9500  0.5445
 3043TIP3    H1 9135   4.425   5.791   1.085 -0.6393  1.6272  0.8596
 3043TIP3    H2 9136   4.529   5.809   0.976 -0.9689  0.3125  0.2970
 3044TIP3   OH2 9137   3.313   0.303   1.696 -0.1369 -0.5804 -0.2515
 3044TIP3    H1 9138   3.281   0.229   1.747  0.0107 -0.4207  0.0741
 3044TIP3    H2 9139   3.399   0.323   1.734 -0.6349  0.4487  0.3761
 3045TIP3   OH2 9140   1.947   1.892   3.720 -1.0453  0.1999  0.4157
 3045TIP3    H1 9141   1.951   1.814   3.663  0.4455 -0.0079  0.7720
 3045TIP3    H2 9142   1.942   1.965   3.659  2.2994  0.1101 -0.1815
 3046TIP3   OH2 9143   3.507   3.353   4.759  0.0590 -0.0086 -0.1266
 3046TIP3    H1 9144   3.509   3.438   4.714  1.2956 -0.5261 -1.1233
 3046TIP3    H2 9145   3.478   3.291   4.692  1.1613 -0.6786 -0.0087
 3047TIP3   OH2 9146   4.481   5.444   1.148  0.5841 -0.4898 -0.6472
 3047TIP3    H1 9147   4.494   5.534   1.178  0.0105 -0.5922 -0.0588
 3047TIP3    H2 9148   4.569   5.413   1.125  0.7110  0.4021 -1.4175
 3048TIP3   OH2 9149   1.957   4.886   2.378 -0.1524 -0.5112 -0.0890
 3048TIP3    H1 9150   1.906   4.966   2.393 -0.5661 -0.9911  1.1706
 3048TIP3    H2 9151   1.910   4.840   2.308 -0.4300 -0.0999 -0.1758
 3049TIP3   OH2 9152   0.235   5.209   3.732  0.0933 -0.1309 -0.5439
 3049TIP3    H1 9153   0.303   5.276   3.727 -0.8363  1.1345  1.8946
 3049TIP3    H2 9154   0.181   5.224   3.654  0.7797  0.9360 -0.8367
 3050TIP3   OH2 9155   5.242   4.103   4.844  0.6050  0.2262  0.6943
 3050TIP3    H1 9156   5.160   4.123   4.797  0.7506 -3.1364 -1.3228
 3050TIP3    H2 9157   5.220   4.028   4.899  2.1596 -0.3283  0.6046
 3051TIP3   OH2 9158   5.016   0.674   0.209 -0.4018  0.0525 -0.1441
 3051TIP3    H1 9159   4.948   0.619   0.248 -1.4089  1.6155  0.4144
 3051TIP3    H2 9160   5.054   0.620   0.140 -0.8936 -1.5565  0.7883
 3052TIP3   OH2 9161   4.036   0.098   1.377 -0.9919  0.5682 -0.3248
 3052TIP3    H1 9162   4.024   0.136   1.291  0.6314  1.3597 -0.2291
 3052TIP3    H2 9163   4.128   0.071   1.379 -1.4555 -1.1310  0.5085
 3053TIP3   OH2 9164   0.757   0.569   2.746  0.1937  0.1148 -0.1993
 3053TIP3    H1 9165   0.777   0.628   2.674 -0.8532  0.8689  0.1088
 3053TIP3    H2 9166   0.747   0.626   2.822  1.0106 -0.6460  0.5018
 3054TIP3   OH2 9167   2.610   4.991   0.475 -0.2082 -0.5758  0.1983
 3054TIP3    H1 9168   2.573   4.971   0.561  0.0606  0.5938  0.6182
 3054TIP3    H2 9169   2.573   4.926   0.417 -0.5373 -1.2870  1.1726
 3055TIP3   OH2 9170   6.251   2.355   2.206 -0.2252  0.4810 -0.1117
 3055TIP3    H1 9171   6.242   2.448   2.184 -0.4766  0.5011  0.0810
 3055TIP3    H2 9172   6.320   2.353   2.273 -1.1312  0.6709  0.8566
 3056TIP3   OH2 9173   4.105   0.178   0.380  0.0766  0.4289  0.3878
 3056TIP3    H1 9174   4.177   0.121   0.354 -1.0030 -0.4410 -0.8238
 3056TIP3    H2 9175   4.077   0.220   0.298 -0.8522  0.6677  0.8168
 3057TIP3   OH2 9176   0.718   4.424   4.385  0.8357 -0.3798  0.0082
 3057TIP3    H1 9177   0.812   4.437   4.373  0.5899  2.1436  0.4457
 3057TIP3    H2 9178   0.682   4.421   4.296  1.2759 -1.1131 -0.1524
 3058TIP3   OH2 9179   0.670   2.808   2.531 -0.1770  0.3248  0.5357
 3058TIP3    H1 9180   0.693   2.771   2.616  1.5913  1.3537  0.5458
 3058TIP3    H2 9181   0.748   2.795   2.477 -1.0338  0.2933 -0.7374
 3059TIP3   OH2 9182   2.645   5.543   4.249 -0.2115 -0.2133 -0.3505
 3059TIP3    H1 9183   2.552   5.547   4.270 -0.4415  0.3580 -1.4213
 3059TIP3    H2 9184   2.689   5.543   4.335 -1.1874 -0.6221  0.1654
 3060TIP3   OH2 9185   5.349   5.093   2.591  0.0340  0.5119 -0.0853
 3060TIP3    H1 9186   5.348   5.176   2.638  0.1492  0.7968 -0.5865
 3060TIP3    H2 9187   5.283   5.103   2.523  0.1450  0.2423 -0.2345
 3061TIP3   OH2 9188   4.569   0.300   4.672 -0.6388  0.1474 -0.0914
 3061TIP3    H1 9189   4.647   0.307   4.616 -1.5660 -0.1718 -1.4847
 3061TIP3    H2 9190   4.604   0.287   4.760  0.9270  3.2304 -0.1150
 3062TIP3   OH2 9191   0.626   3.273   3.021  0.5472  0.8000  0.1435
 3062TIP3    H1 9192   0.549   3.280   3.077 -0.0005  1.4434 -0.6837
 3062TIP3    H2 9193   0.660   3.362   3.014  1.6710  0.4641  0.8886
 3063TIP3   OH2 9194   3.871   2.548   1.742 -0.0652  0.1196 -0.1208
 3063TIP3    H1 9195   3.862   2.458   1.773 -1.5324  0.2467 -0.1123
 3063TIP3    H2 9196   3.784   2.571   1.708 -0.1185  1.9960  1.1317
 3064TIP3   OH2 9197   3.600   2.232   1.165 -0.2223  0.2863 -0.3487
 3064TIP3    H1 9198   3.614   2.231   1.260  1.5568 -1.4014 -0.5417
 3064TIP3    H2 9199   3.674   2.282   1.131  0.0613 -0.4975 -0.9158
 3065TIP3   OH2 9200   2.367   4.496   3.632  0.5173  0.8808  0.0498
 3065TIP3    H1 9201   2.346   4.449   3.551  1.5016 -1.1913  0.9295
 3065TIP3    H2 9202   2.287   4.545   3.652 -0.5061 -0.2474 -1.0692
 3066TIP3   OH2 9203   0.866   1.502   0.665 -0.3642  0.0685 -0.2444
 3066TIP3    H1 9204   0.917   1.446   0.608  1.4085  0.4925  0.8384
 3066TIP3    H2 9205   0.878   1.465   0.753 -2.6523 -0.3158 -0.0226
 3067TIP3   OH2 9206   1.477   5.567   3.404 -1.1881 -0.1400  0.0722
 3067TIP3    H1 9207   1.546   5.532   3.347 -0.3955 -0.5144  1.2252
 3067TIP3    H2 9208   1.404   5.584   3.345 -0.1008  0.3089 -1.1952
 3068TIP3   OH2 9209   4.992   2.148   2.450 -0.2714 -0.0512 -0.5457
 3068TIP3    H1 9210   4.901   2.146   2.419 -0.1036 -0.1423 -1.0380
 3068TIP3    H2 9211   5.008   2.240   2.472 -1.1756 -0.3661  1.6377
 3069TIP3   OH2 9212   4.069   4.184   4.337  0.0275 -0.5466 -0.1218
 3069TIP3    H1 9213   4.090   4.110   4.393 -0.8240 -0.7179 -0.0061
 3069TIP3    H2 9214   3.985   4.161   4.297  0.4009 -0.2190 -1.1082
 3070TIP3   OH2 9215   4.086   4.263   1.970  0.1192  0.3679 -0.7808
 3070TIP3    H1 9216   4.102   4.169   1.970 -2.2466 -0.1142 -0.1367
 3070TIP3    H2 9217   4.143   4.297   2.039  0.3172 -0.7280 -0.3817
 3071TIP3   OH2 9218   4.947   3.973   3.096  0.5389  0.0254  0.4707
 3071TIP3    H1 9219   4.912   3.904   3.040  0.4564 -0.6907  1.3942
 3071TIP3    H2 9220   5.037   3.985   3.066  0.4684 -0.2894  0.1255
 3072TIP3   OH2 9221   4.540   5.224   1.563 -0.2526 -0.1051 -0.1218
 3072TIP3    H1 9222   4.627   5.264   1.553 -1.4491  2.2880 -1.6161
 3072TIP3    H2 9223   4.504   5.221   1.475 -1.8448 -0.7735  0.5080
 3073TIP3   OH2 9224   3.401   2.460   0.655  0.4954 -0.5235 -0.2563
 3073TIP3    H1 9225   3.305   2.464   0.647  0.3564 -1.0067  0.9510
 3073TIP3    H2 9226   3.419   2.495   0.742  1.4747  0.0736 -0.6861
 3074TIP3   OH2 9227   0.430   5.874   1.961  0.2125 -0.3441 -0.1476
 3074TIP3    H1 9228   0.359   5.936   1.944 -0.0540 -0.3535  0.8246
 3074TIP3    H2 9229   0.384   5.794   1.990  0.5939 -0.6134 -0.2798
 3075TIP3   OH2 9230   5.539   3.551   1.362  0.3303 -0.4281 -0.3745
 3075TIP3    H1 9231   5.598   3.502   1.420  0.3525 -0.7017 -0.6251
 3075TIP3    H2 9232   5.567   3.642   1.371  0.4580 -0.4920 -0.1015
 3076TIP3   OH2 9233   4.324   5.408   2.614  0.3203 -0.1359 -0.0038
 3076TIP3    H1 9234   4.343   5.492   2.573  1.4024 -0.8641 -1.0699
 3076TIP3    H2 9235   4.276   5.359   2.548  0.9172 -0.8518  0.0765
 3077TIP3   OH2 9236   6.363   0.562   3.612  0.5004  0.1400  0.1982
 3077TIP3    H1 9237   6.312   0.561   3.693 -1.5781 -2.9818 -0.9763
 3077TIP3    H2 9238   6.305   0.603   3.548  1.1049  0.2275 -0.3021
 3078TIP3   OH2 9239   0.798   2.198   2.318  0.0894 -0.1521 -0.2162
 3078TIP3    H1 9240   0.781   2.108   2.347 -1.3651  0.0557 -0.3297
 3078TIP3    H2 9241   0.815   2.246   2.399 -0.5775 -0.2504 -0.0110
 3079TIP3   OH2 9242   6.351   2.739   4.866 -0.2406  0.7041 -0.4964
 3079TIP3    H1 9243   6.278   2.690   4.828 -2.0771  1.7854  1.4181
 3079TIP3    H2 9244   6.394   2.780   4.791 -2.0804  0.6434 -1.6548
 3080TIP3   OH2 9245   0.523   3.285   1.598 -0.4202  0.0074 -0.6399
 3080TIP3    H1 9246   0.572   3.204   1.610 -1.3737 -0.9053 -2.4692
 3080TIP3    H2 9247   0.584   3.344   1.554  0.1397  0.1282  0.2977
 3081TIP3   OH2 9248   3.012   4.399   4.014  0.1628  0.0089  0.3758
 3081TIP3    H1 9249   3.005   4.427   3.923  2.0890 -0.3409  0.0761
 3081TIP3    H2 9250   3.102   4.420   4.039 -0.0375 -0.7884  1.8890
 3082TIP3   OH2 9251   1.374   5.787   0.102 -0.6702  0.2700  0.0364
 3082TIP3    H1 9252   1.288   5.830   0.095 -0.0103  1.3676 -1.8128
 3082TIP3    H2 9253   1.431   5.853   0.141 -0.8554 -0.8474  2.3906
 3083TIP3   OH2 9254   2.866   4.182   0.726 -0.4400  0.8298 -0.0022
 3083TIP3    H1 9255   2.845   4.159   0.817 -0.4660  1.3939  0.1378
 3083TIP3    H2 9256   2.830   4.110   0.674 -0.8623  0.7517  0.3968
 3084TIP3   OH2 9257   4.504   2.886   2.776 -0.1566 -0.1899  0.0278
 3084TIP3    H1 9258   4.455   2.943   2.835 -0.7510 -0.1939 -0.4509
 3084TIP3    H2 9259   4.445   2.872   2.702  1.2860  1.4178 -1.5274
 3085TIP3   OH2 9260   1.542   2.757   4.570  0.0680 -0.2224  0.2809
 3085TIP3    H1 9261   1.490   2.717   4.501  0.0197 -0.3396  0.3855
 3085TIP3    H2 9262   1.575   2.838   4.532  1.1858 -0.9496 -0.3589
 3086TIP3   OH2 9263   2.563   1.423   4.444 -0.2290 -0.6263 -0.1060
 3086TIP3    H1 9264   2.526   1.402   4.530 -0.0333 -1.0375 -0.1195
 3086TIP3    H2 9265   2.500   1.484   4.405 -0.2742 -0.3647  0.3645
 3087TIP3   OH2 9266   5.923   0.787   1.512  0.3112 -0.1804  0.4896
 3087TIP3    H1 9267   5.858   0.718   1.523  2.1577 -2.0204  0.4307
 3087TIP3    H2 9268   5.936   0.794   1.417  0.5595 -0.1972  0.5201
 3088TIP3   OH2 9269   0.850   4.043   4.790  0.2213  0.0184 -0.6800
 3088TIP3    H1 9270   0.793   4.120   4.787  0.9960  0.8030  1.9932
 3088TIP3    H2 9271   0.791   3.968   4.784 -0.6665  0.7755 -1.8982
 3089TIP3   OH2 9272   0.167   0.510   2.959 -0.3995 -0.1402  0.3092
 3089TIP3    H1 9273   0.158   0.484   3.051  0.3461  0.7271  0.6464
 3089TIP3    H2 9274   0.111   0.449   2.911 -0.5229 -0.8332  1.3004
 3090TIP3   OH2 9275   2.024   3.837   2.543 -0.0824 -0.5932 -0.0828
 3090TIP3    H1 9276   1.960   3.789   2.595 -1.5511  0.8269 -0.5009
 3090TIP3    H2 9277   2.045   3.914   2.596 -1.4726  0.7873 -1.4345
 3091TIP3   OH2 9278   3.334   0.050   3.821 -0.6456 -0.1293 -0.0135
 3091TIP3    H1 9279   3.411   0.050   3.765 -0.3508 -0.7162  0.3822
 3091TIP3    H2 9280   3.357  -0.008   3.893 -0.8456  0.9651  0.9625
 3092TIP3   OH2 9281   5.979   4.405   0.304 -0.3328 -0.4577  0.2216
 3092TIP3    H1 9282   5.995   4.499   0.303  0.5624 -0.6037 -0.0404
 3092TIP3    H2 9283   5.922   4.389   0.229 -1.4286  0.0101  0.9088
 3093TIP3   OH2 9284   4.811   2.725   0.109  0.2604 -0.2283  0.0385
 3093TIP3    H1 9285   4.777   2.644   0.072  0.8804  0.1502 -1.4163
 3093TIP3    H2 9286   4.882   2.751   0.050 -0.2620  1.6444  0.1547
 3094TIP3   OH2 9287   5.385   1.876   3.728 -0.0082 -0.5155  0.3340
 3094TIP3    H1 9288   5.309   1.928   3.702  0.6260  0.5822  0.6243
 3094TIP3    H2 9289   5.347   1.800   3.773 -1.0145 -1.2792 -1.7043
 3095TIP3   OH2 9290   5.034   0.004   3.801 -0.0330 -0.2988 -0.3006
 3095TIP3    H1 9291   5.043   0.095   3.828 -0.0044 -0.3197 -0.2383
 3095TIP3    H2 9292   4.943  -0.018   3.820 -0.5241  0.2235 -1.8969
 3096TIP3   OH2 9293   2.905   1.088   0.019 -0.1196  0.4677  0.1406
 3096TIP3    H1 9294   2.935   1.162  -0.033 -2.2570  2.1035  1.0673
 3096TIP3    H2 9295   2.984   1.056   0.063  0.6473  3.2660  0.9861
 3097TIP3   OH2 9296   0.618   1.241   1.923  0.3470  0.3932  0.2440
 3097TIP3    H1 9297   0.560   1.300   1.875  0.0998  0.3408  0.4745
 3097TIP3    H2 9298   0.580   1.154   1.909  0.5507  0.3211  0.1351
 3098TIP3   OH2 9299   1.840   1.876   1.717  0.3685  0.0930 -0.0002
 3098TIP3    H1 9300   1.872   1.919   1.637  1.2587 -2.6938 -1.2650
 3098TIP3    H2 9301   1.874   1.930   1.788  0.7531  1.8833 -1.4357
 3099TIP3   OH2 9302   1.598   4.668   1.175  0.0124 -0.1046  0.4067
 3099TIP3    H1 9303   1.623   4.753   1.141  0.9230  0.5214  2.4829
 3099TIP3    H2 9304   1.531   4.636   1.114  0.6033  1.4719 -1.1464
 3100TIP3   OH2 9305   0.333   2.488   0.905  0.4176 -0.3436 -0.5218
 3100TIP3    H1 9306   0.271   2.519   0.839 -0.1248 -2.0294 -0.8485
 3100TIP3    H2 9307   0.396   2.435   0.857  0.0812 -1.5052  0.2734
 3101TIP3   OH2 9308   3.592   1.327   5.028  0.6639  0.3544 -0.0949
 3101TIP3    H1 9309   3.539   1.402   5.054 -0.4656 -0.4576  0.0364
 3101TIP3    H2 9310   3.586   1.324   4.933 -0.4005 -0.3336 -0.0191
 3102TIP3   OH2 9311   0.718   3.512   1.132  0.3505  0.6280  0.6398
 3102TIP3    H1 9312   0.629   3.482   1.150  0.1541  1.0283  0.3587
 3102TIP3    H2 9313   0.714   3.547   1.043  0.8335  0.4818  0.5573
 3103TIP3   OH2 9314   6.150   0.587   1.537 -0.4105 -0.0883  0.0931
 3103TIP3    H1 9315   6.074   0.639   1.565 -2.2328 -1.9047 -1.1813
 3103TIP3    H2 9316   6.186   0.637   1.463 -0.6547  0.5422  0.3907
 3104TIP3   OH2 9317   4.044   4.875   2.737 -0.0643  0.0132 -0.0026
 3104TIP3    H1 9318   4.028   4.963   2.703  3.1449  0.1355 -1.5833
 3104TIP3    H2 9319   4.138   4.861   2.723 -0.1851 -3.1380  1.5198
 3105TIP3   OH2 9320   2.955   1.461   4.760  0.2184 -0.0667 -0.7634
 3105TIP3    H1 9321   3.000   1.522   4.702  1.7333 -0.6979 -0.3062
 3105TIP3    H2 9322   2.871   1.503   4.780  0.8974  1.4884 -1.0779
 3106TIP3   OH2 9323   4.490   2.387   1.700  0.8141 -0.2694  0.3844
 3106TIP3    H1 9324   4.527   2.453   1.759  0.1606  2.2360 -1.8628
 3106TIP3    H2 9325   4.398   2.381   1.726  0.9749 -0.6717  0.8833
 3107TIP3   OH2 9326   0.582   4.497   4.676 -0.1063  0.3990 -0.3979
 3107TIP3    H1 9327   0.658   4.444   4.701  0.5654  1.1599 -0.7944
 3107TIP3    H2 9328   0.618   4.570   4.627 -1.1291  0.5949 -0.9007
 3108TIP3   OH2 9329   1.594   0.823   4.879  0.1947  0.3745 -0.0362
 3108TIP3    H1 9330   1.537   0.758   4.920 -0.3857  0.6300 -0.4186
 3108TIP3    H2 9331   1.571   0.905   4.922  0.2353  0.4896 -0.2324
 3109TIP3   OH2 9332   2.128   5.869   3.794 -0.2459  0.4006  0.4741
 3109TIP3    H1 9333   2.099   5.951   3.834 -3.6776  0.0090 -0.8878
 3109TIP3    H2 9334   2.116   5.882   3.700  3.0339 -0.3802 -0.2085
 3110TIP3   OH2 9335   0.819   2.240   0.395 -0.3477  0.0117  0.2851
 3110TIP3    H1 9336   0.802   2.145   0.397 -1.3306  0.1576  2.6272
 3110TIP3    H2 9337   0.903   2.249   0.440  0.1682  0.2223 -0.6925
 3111TIP3   OH2 9338   1.472   1.546   2.973  0.2123 -0.0077  0.2610
 3111TIP3    H1 9339   1.529   1.623   2.965 -0.4722  0.6214  1.1322
 3111TIP3    H2 9340   1.384   1.581   2.960 -0.0621 -0.7643  0.0475
 3112TIP3   OH2 9341   5.170   0.843   4.058  0.2459 -0.2662  0.5733
 3112TIP3    H1 9342   5.098   0.803   4.106 -1.8375 -1.5062 -3.1991
 3112TIP3    H2 9343   5.237   0.775   4.052 -0.3379 -0.8004  0.0571
 3113TIP3   OH2 9344   4.583   4.659   1.756 -0.4611  0.0431 -0.6426
 3113TIP3    H1 9345   4.491   4.678   1.772  0.0482  0.7452  1.7096
 3113TIP3    H2 9346   4.618   4.739   1.716 -0.7844 -0.1024 -1.2220
 3114TIP3   OH2 9347   3.646   1.108   0.226 -0.2171  0.1670 -0.0407
 3114TIP3    H1 9348   3.570   1.115   0.284  1.9008  0.7096  2.8888
 3114TIP3    H2 9349   3.687   1.025   0.250  0.0400 -0.2556 -1.7812
 3115TIP3   OH2 9350   5.019   0.879   1.581 -0.6721 -0.5699  0.8166
 3115TIP3    H1 9351   5.004   0.824   1.657 -1.0286  0.4649  1.5230
 3115TIP3    H2 9352   5.036   0.966   1.617  1.6460 -0.5471 -0.1840
 3116TIP3   OH2 9353   4.519   2.780   4.248  0.3471 -0.3847  0.0651
 3116TIP3    H1 9354   4.553   2.695   4.220  0.8240 -0.1460 -0.0804
 3116TIP3    H2 9355   4.492   2.766   4.339  0.2526 -0.7381 -0.0155
 3117TIP3   OH2 9356   4.373   5.714   5.064 -0.3589 -0.1891 -0.5889
 3117TIP3    H1 9357   4.432   5.661   5.119  0.1451 -1.0737 -1.9297
 3117TIP3    H2 9358   4.383   5.803   5.097  1.2155 -0.4332 -0.3329
 3118TIP3   OH2 9359   6.223   5.321   4.435  0.5926 -0.0323  0.1760
 3118TIP3    H1 9360   6.317   5.338   4.431  0.6512 -0.2608  0.4985
 3118TIP3    H2 9361   6.183   5.399   4.398  0.9092  0.0851  0.0738
 3119TIP3   OH2 9362   2.644   2.283   2.192 -0.1470  0.1952  0.4759
 3119TIP3    H1 9363   2.595   2.323   2.120 -0.8749 -2.7777 -0.8463
 3119TIP3    H2 9364   2.734   2.275   2.159  0.5480  2.4902  1.5743
 3120TIP3   OH2 9365   6.099   0.067   1.908 -0.2811 -0.1431  0.2380
 3120TIP3    H1 9366   6.179   0.112   1.884 -1.7411  2.4021 -0.1841
 3120TIP3    H2 9367   6.120   0.024   1.991  1.2952  1.0875  0.5297
 3121TIP3   OH2 9368   0.735   4.647   1.600  0.1164  0.5171  0.2987
 3121TIP3    H1 9369   0.652   4.694   1.607  0.1426  0.5624  0.3012
 3121TIP3    H2 9370   0.775   4.655   1.686  0.0655  0.3873  0.3353
 3122TIP3   OH2 9371   2.534   0.756   0.368  0.2350 -0.1447 -0.2830
 3122TIP3    H1 9372   2.558   0.797   0.451 -0.0484  0.5881 -0.5579
 3122TIP3    H2 9373   2.526   0.829   0.307 -0.8907 -0.5570 -0.6384
 3123TIP3   OH2 9374   4.875   2.266   4.693  0.4721 -0.2061 -0.2735
 3123TIP3    H1 9375   4.962   2.228   4.692 -0.1504 -1.7150 -0.3728
 3123TIP3    H2 9376   4.827   2.218   4.625 -0.4042  0.6430 -0.2735
 3124TIP3   OH2 9377   2.982   0.316   4.433  0.1573 -0.1384  0.1503
 3124TIP3    H1 9378   2.901   0.319   4.483  1.2072  0.5179  1.9067
 3124TIP3    H2 9379   3.016   0.228   4.445  1.8822  0.7859  3.2365
 3125TIP3   OH2 9380   5.920   5.876   0.349  0.2761  0.2703 -0.2054
 3125TIP3    H1 9381   6.009   5.864   0.315 -0.3636 -0.6357 -1.6539
 3125TIP3    H2 9382   5.868   5.809   0.305 -0.6940 -0.8585  2.4681
 3126TIP3   OH2 9383   3.232   4.062   3.625 -0.0729 -0.2060 -0.1389
 3126TIP3    H1 9384   3.169   4.034   3.692 -1.3075  1.0496 -0.7277
 3126TIP3    H2 9385   3.312   4.081   3.675  0.4145 -3.2286  0.4542
 3127TIP3   OH2 9386   2.641   4.508   1.850  0.8056  0.1959  0.3536
 3127TIP3    H1 9387   2.589   4.576   1.808  1.0588  0.3081  0.2229
 3127TIP3    H2 9388   2.618   4.514   1.943  1.4383  1.0083  0.4677
 3128TIP3   OH2 9389   0.256   5.324   4.229  0.3685 -0.3708  0.1261
 3128TIP3    H1 9390   0.326   5.261   4.248  1.3337  0.7689  0.4582
 3128TIP3    H2 9391   0.200   5.322   4.307  0.2209 -1.0310  0.0071
 3129TIP3   OH2 9392   0.578   4.473   1.447  0.1832  0.3593 -0.3082
 3129TIP3    H1 9393   0.631   4.534   1.499  0.4348  0.8765 -1.1417
 3129TIP3    H2 9394   0.608   4.386   1.474 -1.1830  0.5256  1.9476
 3130TIP3   OH2 9395   1.389   0.042   3.789 -0.5452 -0.2750 -0.3317
 3130TIP3    H1 9396   1.481   0.017   3.790 -0.1929  0.7693  2.7235
 3130TIP3    H2 9397   1.342  -0.039   3.810 -0.0255 -0.1771  1.3656
 3131TIP3   OH2 9398   3.476   0.592   1.419 -0.2161 -0.3016  0.2871
 3131TIP3    H1 9399   3.393   0.596   1.468 -0.3893  1.0203 -0.0821
 3131TIP3    H2 9400   3.542   0.577   1.487 -0.7158 -1.1583  0.6112
 3132TIP3   OH2 9401   6.242   3.922   4.257 -0.4119 -0.6435 -0.8135
 3132TIP3    H1 9402   6.157   3.882   4.236 -1.7788  1.5968  0.1757
 3132TIP3    H2 9403   6.222   3.991   4.319  2.6723 -2.7964  3.0652
 3133TIP3   OH2 9404   2.718   3.015   3.672  0.1558 -0.6385  0.4790
 3133TIP3    H1 9405   2.699   3.025   3.579  0.8620  2.0072  0.5490
 3133TIP3    H2 9406   2.635   2.989   3.711 -0.1663 -1.7093 -0.8459
 3134TIP3   OH2 9407   1.950   4.305   4.893 -0.3822 -0.2886  0.0820
 3134TIP3    H1 9408   1.928   4.365   4.822 -1.6634 -0.1597  0.5677
 3134TIP3    H2 9409   1.866   4.268   4.920  0.0448 -0.1297  1.7178
 3135TIP3   OH2 9410   4.020   3.818   0.839  0.0714  0.0250  0.1585
 3135TIP3    H1 9411   4.100   3.767   0.832  0.1209  0.1246 -0.0193
 3135TIP3    H2 9412   3.950   3.753   0.848 -0.1689 -0.2231 -2.6006
 3136TIP3   OH2 9413   2.113   0.939   3.726  0.5209 -0.5752 -0.0691
 3136TIP3    H1 9414   2.162   0.979   3.655  1.5560  0.0693  0.9667
 3136TIP3    H2 9415   2.022   0.937   3.695  0.7745  0.7233 -0.9475
 3137TIP3   OH2 9416   0.984   1.620   0.166 -0.4187 -0.0160  0.1158
 3137TIP3    H1 9417   0.908   1.657   0.211  1.3035 -0.0681  3.4066
 3137TIP3    H2 9418   0.964   1.527   0.155 -1.2496  0.1813 -0.0565
 3138TIP3   OH2 9419   1.024   4.465   2.138 -0.0444  0.4638 -0.1883
 3138TIP3    H1 9420   1.075   4.481   2.058  0.5528 -2.0955 -0.4289
 3138TIP3    H2 9421   1.077   4.503   2.208  0.5800  0.7131 -0.7740
 3139TIP3   OH2 9422   6.164   1.292   2.770  0.5234 -0.2479  0.2757
 3139TIP3    H1 9423   6.206   1.303   2.685  0.2472  1.1560  0.3048
 3139TIP3    H2 9424   6.237   1.285   2.832  0.7243 -0.0556  0.0625
 3140TIP3   OH2 9425   1.828   2.262   5.059 -0.2988 -0.3160 -0.5694
 3140TIP3    H1 9426   1.921   2.283   5.060  0.0252 -1.5109 -2.2440
 3140TIP3    H2 9427   1.825   2.167   5.072 -1.4121 -0.0962  1.1501
 3141TIP3   OH2 9428   1.864   0.290   0.489  0.2286 -0.4113 -0.1428
 3141TIP3    H1 9429   1.799   0.260   0.426  0.5873  0.8388 -1.1520
 3141TIP3    H2 9430   1.850   0.234   0.566 -0.6327 -1.5584 -1.0823
 3142TIP3   OH2 9431   4.008   4.944   2.414 -0.3439  0.2076 -0.6541
 3142TIP3    H1 9432   3.930   4.995   2.436  1.0100  2.4753 -0.7719
 3142TIP3    H2 9433   4.074   4.973   2.477  0.5341 -1.3772 -0.7931
 3143TIP3   OH2 9434   2.451   5.372   4.348 -0.1112  0.7617 -0.4636
 3143TIP3    H1 9435   2.537   5.369   4.305  0.6354 -1.1602  1.0476
 3143TIP3    H2 9436   2.394   5.320   4.293  0.9825 -2.1805  0.9800
 3144TIP3   OH2 9437   1.168   3.209   2.624 -0.8184  0.4250  0.5044
 3144TIP3    H1 9438   1.167   3.230   2.530 -0.2138 -1.7689 -0.0341
 3144TIP3    H2 9439   1.080   3.174   2.641  0.3559 -3.3855 -0.3708
 3145TIP3   OH2 9440   3.380   5.370   2.887 -0.2232 -0.3910 -0.0357
 3145TIP3    H1 9441   3.434   5.391   2.963 -1.4446  0.0619  0.7317
 3145TIP3    H2 9442   3.339   5.452   2.863  0.1566 -0.5191 -1.2326
 3146TIP3   OH2 9443   2.933   2.869   4.744  0.0058 -0.0294 -0.0711
 3146TIP3    H1 9444   2.887   2.895   4.824  0.9460  1.6208 -0.0333
 3146TIP3    H2 9445   3.023   2.853   4.772  0.1759 -0.1495 -0.6756
 3147TIP3   OH2 9446   1.587   0.810   3.776 -0.0022 -0.3720 -0.0385
 3147TIP3    H1 9447   1.581   0.744   3.707 -0.1574 -0.3572 -0.0401
 3147TIP3    H2 9448   1.511   0.867   3.762 -0.2681 -0.6086  0.3908
 3148TIP3   OH2 9449   0.512   1.245   4.649 -0.0137 -0.1554 -0.0469
 3148TIP3    H1 9450   0.581   1.224   4.586 -0.7785 -0.1476 -0.9226
 3148TIP3    H2 9451   0.449   1.296   4.598 -0.9429 -0.6648  0.5683
 3149TIP3   OH2 9452   1.749   3.124   2.630 -0.4145  0.6832  0.8919
 3149TIP3    H1 9453   1.784   3.046   2.586 -0.8711  1.5344 -1.1122
 3149TIP3    H2 9454   1.720   3.092   2.715 -3.0317 -1.9688 -0.7909
 3150TIP3   OH2 9455   3.085   4.102   0.470  1.2065 -0.1407  0.1762
 3150TIP3    H1 9456   3.013   4.124   0.529  0.6273  0.2792 -0.6569
 3150TIP3    H2 9457   3.143   4.047   0.522  1.1802  0.9355  1.4177
 3151TIP3   OH2 9458   4.468   5.732   0.497  0.1181  0.1013 -0.1053
 3151TIP3    H1 9459   4.506   5.804   0.547  1.1675 -1.0985  0.9022
 3151TIP3    H2 9460   4.375   5.734   0.517  0.3587  0.3315  1.0303
 3152TIP3   OH2 9461   0.500   5.848   2.615  0.3509  0.4330  0.1708
 3152TIP3    H1 9462   0.500   5.942   2.599  0.6989  0.6668  1.4381
 3152TIP3    H2 9463   0.473   5.810   2.531  1.9077  1.5555 -0.8898
 3153TIP3   OH2 9464   6.388   3.729   0.201  0.0039  0.3578  0.4835
 3153TIP3    H1 9465   6.360   3.781   0.125  0.8422 -0.9395 -0.7836
 3153TIP3    H2 9466   6.307   3.709   0.248 -0.5710  0.9850 -0.2068
 3154TIP3   OH2 9467   0.702   3.064   4.264 -0.3462 -0.0059 -0.1655
 3154TIP3    H1 9468   0.689   3.003   4.337  1.0900  0.5846  0.6383
 3154TIP3    H2 9469   0.793   3.093   4.274 -0.5333  1.0921 -1.4338
 3155TIP3   OH2 9470   4.952   5.523   2.450 -0.0908 -0.8085  0.3921
 3155TIP3    H1 9471   4.866   5.481   2.449 -0.0306 -0.9270 -0.1974
 3155TIP3    H2 9472   5.007   5.465   2.399  0.7434 -1.5428  2.0559
 3156TIP3   OH2 9473   6.158   3.300   4.481  0.1315 -0.6087  0.3230
 3156TIP3    H1 9474   6.165   3.283   4.387  1.2518  1.4543 -0.0455
 3156TIP3    H2 9475   6.244   3.335   4.504  0.7124 -3.2905  2.6771
 3157TIP3   OH2 9476   1.357   2.004   4.065  0.1515  0.0420  0.3082
 3157TIP3    H1 9477   1.452   2.013   4.054 -0.0623  2.0386 -0.3455
 3157TIP3    H2 9478   1.341   2.032   4.155  0.0903  0.6275  0.1172
 3158TIP3   OH2 9479   0.638   5.395   0.755 -0.2765 -0.0880 -0.8058
 3158TIP3    H1 9480   0.603   5.308   0.735 -0.2314 -0.0796 -0.9226
 3158TIP3    H2 9481   0.704   5.410   0.687 -0.1069 -0.0704 -0.6376
 3159TIP3   OH2 9482   4.658   2.137   2.540 -0.5206 -0.7446 -0.1562
 3159TIP3    H1 9483   4.682   2.143   2.448  0.7568 -0.1439  0.1927
 3159TIP3    H2 9484   4.678   2.046   2.564  0.9220 -0.4173 -0.0286
 3160TIP3   OH2 9485   3.388   5.176   5.019 -0.2146 -0.0987  0.5574
 3160TIP3    H1 9486   3.323   5.113   4.988 -0.0772  0.2010 -0.3948
 3160TIP3    H2 9487   3.341   5.230   5.083 -1.6145  1.5057 -1.6544
 3161TIP3   OH2 9488   3.845   5.303   2.352 -0.2600  0.6422 -0.2198
 3161TIP3    H1 9489   3.875   5.269   2.268 -1.7969  1.4756 -1.1622
 3161TIP3    H2 9490   3.764   5.255   2.370 -0.9589  1.7907 -0.1855
 3162TIP3   OH2 9491   3.801   5.300   3.250 -0.5024  0.0020  0.0548
 3162TIP3    H1 9492   3.817   5.362   3.178 -1.3530  2.1547  1.5992
 3162TIP3    H2 9493   3.886   5.259   3.265 -0.5481 -1.4874 -2.9270
 3163TIP3   OH2 9494   0.401   2.906   3.719 -0.1458 -0.1217 -0.0262
 3163TIP3    H1 9495   0.334   2.940   3.779  0.6806  1.2119  0.1954
 3163TIP3    H2 9496   0.474   2.882   3.776 -0.0104 -0.5144 -0.3592
 3164TIP3   OH2 9497   5.014   2.962   1.100  0.0574  0.3283 -0.2173
 3164TIP3    H1 9498   5.023   3.006   1.015  1.6068 -0.2863 -0.4179
 3164TIP3    H2 9499   5.094   2.909   1.107 -0.6105 -0.5499  1.0986
 3165TIP3   OH2 9500   3.714   4.781   2.447 -1.1436  0.4720  0.1855
 3165TIP3    H1 9501   3.627   4.812   2.421 -0.8045 -0.3171 -2.0994
 3165TIP3    H2 9502   3.758   4.859   2.479 -1.9780  1.3471 -0.7205
 3166TIP3   OH2 9503  -0.016   3.859   0.926  0.3194  0.4814 -0.1478
 3166TIP3    H1 9504  -0.004   3.797   0.854 -0.1726 -1.5598  1.4151
 3166TIP3    H2 9505   0.035   3.936   0.901 -1.3381  0.6468 -3.4809
 3167TIP3   OH2 9506   1.649   2.175   1.389 -0.1540  0.1260 -0.1439
 3167TIP3    H1 9507   1.666   2.083   1.370  0.5637 -0.3613  2.4034
 3167TIP3    H2 9508   1.621   2.176   1.480 -1.6860  2.3052 -0.5641
 3168TIP3   OH2 9509   3.535   5.742   1.653  0.0086 -0.2249 -0.2363
 3168TIP3    H1 9510   3.576   5.794   1.722  1.2966 -1.6703  0.1402
 3168TIP3    H2 9511   3.507   5.806   1.588  0.6717  1.0019  0.6509
 3169TIP3   OH2 9512   5.711   4.375   4.145 -0.5265  0.6172 -0.3260
 3169TIP3    H1 9513   5.635   4.326   4.115 -0.8141 -0.0555  1.3393
 3169TIP3    H2 9514   5.691   4.466   4.126 -0.4237  0.2321 -2.5638
 3170TIP3   OH2 9515   2.077   2.576   1.852 -0.1444 -0.2446  0.4863
 3170TIP3    H1 9516   2.030   2.535   1.780 -0.9971  1.0760  0.2449
 3170TIP3    H2 9517   2.070   2.670   1.835  0.3290  0.0700  1.8515
 3171TIP3   OH2 9518   1.620   4.813   1.989 -0.2048 -0.1386  0.6785
 3171TIP3    H1 9519   1.626   4.892   2.043 -0.8541  0.1273  0.3706
 3171TIP3    H2 9520   1.672   4.834   1.911  1.4648 -0.8423  1.5428
 3172TIP3   OH2 9521   1.539   0.346   3.574 -0.2405 -0.5504 -0.1384
 3172TIP3    H1 9522   1.462   0.302   3.538  0.1441 -0.2720 -1.3502
 3172TIP3    H2 9523   1.605   0.337   3.505  0.8471 -0.8786  0.9236
 3173TIP3   OH2 9524   5.031   0.250   3.911  0.2644 -0.1038 -0.1082
 3173TIP3    H1 9525   5.097   0.320   3.911  1.3399 -1.0785 -0.3747
 3173TIP3    H2 9526   5.002   0.244   4.002  1.0903 -0.1467  0.1613
 3174TIP3   OH2 9527   2.889   1.034   2.843  0.3233  0.2376 -0.3665
 3174TIP3    H1 9528   2.820   0.990   2.793 -1.7691  3.0057 -0.1827
 3174TIP3    H2 9529   2.870   1.011   2.934 -0.1805  0.7306 -0.3417
 3175TIP3   OH2 9530   3.191   0.069   1.801  0.7352  0.0173 -0.2586
 3175TIP3    H1 9531   3.109   0.117   1.812  1.6237  1.5795 -0.1862
 3175TIP3    H2 9532   3.191   0.044   1.709  0.5892  0.8341 -0.4930
 3176TIP3   OH2 9533   1.505   0.866   1.058 -0.6201  0.2515  0.3945
 3176TIP3    H1 9534   1.430   0.847   1.001  1.1948 -0.6511 -1.8809
 3176TIP3    H2 9535   1.529   0.956   1.036 -1.2122  0.6654  1.3845
 3177TIP3   OH2 9536   5.939   2.717   2.026 -0.2921 -0.0894 -0.4193
 3177TIP3    H1 9537   5.952   2.771   1.948 -2.3294  0.9550 -0.0894
 3177TIP3    H2 9538   5.877   2.649   2.000  0.1441 -0.6295 -0.0874
 3178TIP3   OH2 9539   1.369   3.035   5.057  0.1359 -0.1316 -0.6642
 3178TIP3    H1 9540   1.407   3.113   5.096  0.3709 -0.8443  0.5695
 3178TIP3    H2 9541   1.441   2.994   5.008  0.4528 -0.4553  0.0691
 3179TIP3   OH2 9542   3.983   5.188   1.821 -0.2275  0.3912  0.3057
 3179TIP3    H1 9543   4.077   5.168   1.815 -0.4704 -0.3772 -2.1960
 3179TIP3    H2 9544   3.979   5.284   1.822  0.5856  0.4318  0.3037
 3180TIP3   OH2 9545   1.503   0.413   0.102  0.0246  0.9372 -0.0006
 3180TIP3    H1 9546   1.430   0.380   0.155  0.2537  0.7535  0.2035
 3180TIP3    H2 9547   1.544   0.334   0.066  0.3404  1.0154  0.1808
 3181TIP3   OH2 9548   4.120   0.459   4.530  0.2362 -0.5786  0.6535
 3181TIP3    H1 9549   4.072   0.465   4.447  0.7898  0.5791  0.3904
 3181TIP3    H2 9550   4.051   0.462   4.597 -0.2369 -1.8239  0.2551
 3182TIP3   OH2 9551   1.065   1.085   2.865 -1.0164 -0.2769  0.0288
 3182TIP3    H1 9552   1.096   1.023   2.799 -2.0667  0.4159 -1.1546
 3182TIP3    H2 9553   1.008   1.033   2.922 -2.2626 -0.3335 -1.2330
 3183TIP3   OH2 9554   1.900   4.027   4.239 -0.3822 -0.3441  0.7023
 3183TIP3    H1 9555   1.829   3.996   4.296  0.2051 -2.0615  0.5514
 3183TIP3    H2 9556   1.978   3.983   4.272  0.1602 -0.5058 -0.7486
 3184TIP3   OH2 9557   5.620   2.556   1.382  0.0388  0.3003 -0.2293
 3184TIP3    H1 9558   5.595   2.583   1.294 -0.0629  0.7434 -0.0706
 3184TIP3    H2 9559   5.597   2.631   1.437  0.6181  0.2538  0.0909
 3185TIP3   OH2 9560   0.693   3.806   4.112 -0.2175  0.2203 -0.1021
 3185TIP3    H1 9561   0.678   3.809   4.017  1.3382  0.9332 -0.3581
 3185TIP3    H2 9562   0.758   3.737   4.124  1.4366  1.7545  0.1257
 3186TIP3   OH2 9563   2.381   4.210   0.821 -0.0585 -0.5301 -0.3647
 3186TIP3    H1 9564   2.382   4.297   0.782  0.0113 -0.4902 -0.2731
 3186TIP3    H2 9565   2.295   4.204   0.863 -0.4999 -0.9164 -1.3013
 3187TIP3   OH2 9566   1.765   4.452   2.349  0.4105 -0.7057 -0.0116
 3187TIP3    H1 9567   1.701   4.513   2.312  1.0917 -0.2596 -0.4900
 3187TIP3    H2 9568   1.814   4.504   2.412  0.2422 -1.0713  0.4268
 3188TIP3   OH2 9569   1.321   1.959   0.983 -0.3330 -0.1931 -0.2251
 3188TIP3    H1 9570   1.380   1.885   0.994 -2.2720 -1.7170  0.3765
 3188TIP3    H2 9571   1.248   1.924   0.932 -1.7790  1.0020  0.9361
 3189TIP3   OH2 9572   3.767   2.071   3.183 -0.6149  0.8209 -0.5552
 3189TIP3    H1 9573   3.762   2.026   3.268  0.3309  1.2421 -0.2654
 3189TIP3    H2 9574   3.778   2.000   3.120  1.3893  0.6296 -0.0496
 3190TIP3   OH2 9575   4.225   2.807   2.351  0.5120 -0.2130  0.2355
 3190TIP3    H1 9576   4.244   2.714   2.345  2.3068  0.2020 -1.4901
 3190TIP3    H2 9577   4.271   2.846   2.277  0.5373  2.1727  1.3992
 3191TIP3   OH2 9578   5.122   1.054   2.205  0.6243  0.6098 -0.3747
 3191TIP3    H1 9579   5.133   1.133   2.151  0.5082  1.5617  0.9361
 3191TIP3    H2 9580   5.027   1.047   2.218  0.4664 -0.8242 -1.9744
 3192TIP3   OH2 9581   1.863   2.664   2.915  0.0133  0.2673  0.1267
 3192TIP3    H1 9582   1.916   2.723   2.863 -0.5854  0.3258 -0.4240
 3192TIP3    H2 9583   1.838   2.715   2.992 -1.1676  1.0247 -0.7215
 3193TIP3   OH2 9584   0.388   2.918   4.461 -0.1458  0.0255 -0.1522
 3193TIP3    H1 9585   0.483   2.926   4.464  0.1984 -2.1205 -2.3397
 3193TIP3    H2 9586   0.372   2.825   4.446 -2.5846  0.4341 -0.4798
 3194TIP3   OH2 9587   0.903   2.735   2.400  0.1935 -0.1338  0.4176
 3194TIP3    H1 9588   0.910   2.645   2.367 -1.2347 -0.1962  0.1954
 3194TIP3    H2 9589   0.978   2.781   2.363 -2.0879  0.2712 -4.4488
 3195TIP3   OH2 9590   5.184   2.979   3.711  0.2820  0.1922  0.3154
 3195TIP3    H1 9591   5.258   3.035   3.735  0.8077 -0.2709 -0.1905
 3195TIP3    H2 9592   5.189   2.905   3.773  0.5406 -0.0835 -0.0307
 3196TIP3   OH2 9593   0.144   5.273   2.607  0.4245 -0.8519  0.1928
 3196TIP3    H1 9594   0.147   5.349   2.549 -0.4806 -0.1410  1.0349
 3196TIP3    H2 9595   0.210   5.292   2.674  0.6492 -1.1116  0.0428
 3197TIP3   OH2 9596   0.088   5.505   0.542 -0.3555 -0.0753 -0.0715
 3197TIP3    H1 9597   0.057   5.560   0.470 -0.3579  1.2748  0.9292
 3197TIP3    H2 9598   0.017   5.507   0.606 -1.3285 -3.0796 -0.8996
 3198TIP3   OH2 9599   2.783   3.152   2.715  0.0284 -0.1462 -0.2524
 3198TIP3    H1 9600   2.751   3.067   2.685  0.0403 -1.1767  2.4136
 3198TIP3    H2 9601   2.710   3.190   2.764  0.4468  0.8146 -0.3420
 3199TIP3   OH2 9602   1.725   3.691   3.063 -0.3940 -0.4745 -0.2372
 3199TIP3    H1 9603   1.818   3.676   3.045 -0.2958 -0.2194  0.0597
 3199TIP3    H2 9604   1.721   3.780   3.097 -0.8717 -0.1142 -1.1974
 3200TIP3   OH2 9605   3.219   0.222   4.678  0.3802  0.0444 -0.7970
 3200TIP3    H1 9606   3.200   0.313   4.699  1.3563  0.1048 -0.1151
 3200TIP3    H2 9607   3.137   0.176   4.698 -0.2191  0.8025 -1.4461
 3201TIP3   OH2 9608   4.303   2.606   4.570 -0.3398  0.1474 -0.4752
 3201TIP3    H1 9609   4.382   2.584   4.520  0.7562  0.8222  0.9048
 3201TIP3    H2 9610   4.277   2.692   4.538 -0.1481  0.2039 -0.4746
 3202TIP3   OH2 9611   1.900   1.284   3.952 -0.0191  0.5155 -0.5851
 3202TIP3    H1 9612   1.927   1.254   3.865  0.2359  1.4427 -0.8405
 3202TIP3    H2 9613   1.862   1.207   3.994  2.7396 -0.8110 -0.3101
 3203TIP3   OH2 9614   1.956   1.799   1.965  0.7012  0.1358 -0.3293
 3203TIP3    H1 9615   1.884   1.857   1.991  1.5424  2.1356 -2.1110
 3203TIP3    H2 9616   1.921   1.749   1.891  1.7062  3.0014 -3.0067
 3204TIP3   OH2 9617   2.531   1.264   3.035 -0.4056 -0.9887  0.1294
 3204TIP3    H1 9618   2.593   1.221   3.094  0.5075  0.4718  0.2756
 3204TIP3    H2 9619   2.555   1.357   3.038 -1.5300 -0.6268 -1.1221
 3205TIP3   OH2 9620   5.676   2.643   3.479 -0.1688 -0.5493 -0.4211
 3205TIP3    H1 9621   5.660   2.735   3.456  0.0437 -0.7520 -1.4459
 3205TIP3    H2 9622   5.766   2.628   3.451 -0.7179 -1.5088 -1.7849
 3206TIP3   OH2 9623   4.241   3.981   1.967 -0.1183  0.1414  0.2289
 3206TIP3    H1 9624   4.223   3.921   1.895  1.0915  2.7600 -2.4715
 3206TIP3    H2 9625   4.337   3.991   1.967  0.0244 -0.4846  2.9022
 3207TIP3   OH2 9626   3.832   2.337   4.347  0.4113 -0.3790  0.7824
 3207TIP3    H1 9627   3.751   2.286   4.352 -1.1640  1.8824  0.0970
 3207TIP3    H2 9628   3.850   2.345   4.254  1.1405 -0.3943  0.9156
 3208TIP3   OH2 9629   3.453   4.135   1.087 -0.4030  0.1446  0.1781
 3208TIP3    H1 9630   3.454   4.219   1.134  0.0585  0.0961  0.2623
 3208TIP3    H2 9631   3.526   4.085   1.126 -0.3569 -0.1018 -0.2173
 3209TIP3   OH2 9632   3.923   0.643   4.729 -0.3808 -0.4706 -0.5146
 3209TIP3    H1 9633   3.828   0.640   4.737 -0.2798 -1.1575  0.7297
 3209TIP3    H2 9634   3.952   0.556   4.757  0.7661  0.6247  2.1071
 3210TIP3   OH2 9635   1.405   3.110   1.758  0.4869 -0.5646  0.2656
 3210TIP3    H1 9636   1.318   3.148   1.768  1.2762  1.5034 -0.2666
 3210TIP3    H2 9637   1.451   3.135   1.838  1.2335  0.2547 -0.3993
 3211TIP3   OH2 9638   3.191   2.165   3.492 -0.6294 -0.5062 -0.5134
 3211TIP3    H1 9639   3.112   2.152   3.438 -1.6452  1.1395  0.4789
 3211TIP3    H2 9640   3.175   2.112   3.571  0.5284 -2.3246 -1.4202
 3212TIP3   OH2 9641   2.911   1.746   3.619  0.4609  0.1131 -0.0250
 3212TIP3    H1 9642   2.909   1.825   3.673  2.7053 -0.7391  1.4854
 3212TIP3    H2 9643   2.861   1.682   3.670 -0.5376  0.2770 -0.7805
 3213TIP3   OH2 9644   2.631   3.597   0.105 -0.1221 -0.1682 -0.3511
 3213TIP3    H1 9645   2.711   3.575   0.154 -0.4300  0.0517  0.2639
 3213TIP3    H2 9646   2.662   3.649   0.031  0.3867 -0.7746 -0.5687
 3214TIP3   OH2 9647   5.911   2.690   1.703 -0.0720  0.8869  0.5579
 3214TIP3    H1 9648   5.895   2.615   1.760  2.0025 -1.2476 -1.4006
 3214TIP3    H2 9649   5.825   2.726   1.685 -1.4901 -2.4847 -0.1796
 3215TIP3   OH2 9650   5.840   3.085   3.514 -0.7624 -0.2456 -0.0670
 3215TIP3    H1 9651   5.751   3.106   3.486 -0.5642  0.0391 -0.5125
 3215TIP3    H2 9652   5.868   3.162   3.564 -0.2097  0.3782 -1.2824
 3216TIP3   OH2 9653   5.958   2.265   2.020 -0.5282 -0.0330 -0.1602
 3216TIP3    H1 9654   5.891   2.219   2.071  0.8825  1.2001  3.0738
 3216TIP3    H2 9655   6.034   2.206   2.021 -0.8370 -0.5167 -1.9922
 3217TIP3   OH2 9656   3.040   3.118   4.147  0.1343  0.0224 -0.0501
 3217TIP3    H1 9657   3.061   3.165   4.228  1.2258  0.3852 -0.5178
 3217TIP3    H2 9658   3.116   3.060   4.133 -1.2051 -1.9987  0.5615
 3218TIP3   OH2 9659   3.455   4.345   0.093  0.1757 -0.5035 -0.4643
 3218TIP3    H1 9660   3.464   4.333   0.188 -2.1841  0.8134  0.0018
 3218TIP3    H2 9661   3.480   4.436   0.078 -2.0018  0.1272 -0.6268
 3219TIP3   OH2 9662   6.017   0.335   2.140 -0.1760 -0.0256  0.2154
 3219TIP3    H1 9663   6.045   0.280   2.213 -0.4899 -0.2681  0.1524
 3219TIP3    H2 9664   5.973   0.276   2.080  1.1547 -0.0528 -0.7641
 3220TIP3   OH2 9665   0.943   0.779   1.308 -0.3422 -0.2873 -0.3977
 3220TIP3    H1 9666   0.880   0.755   1.241 -2.0893 -2.3002  1.7709
 3220TIP3    H2 9667   0.930   0.873   1.323 -3.0199 -0.6811  0.0928
 3221TIP3   OH2 9668   3.383   0.719   0.560 -0.2322  0.2613  0.0873
 3221TIP3    H1 9669   3.315   0.688   0.619 -0.3192 -1.4321 -0.8327
 3221TIP3    H2 9670   3.354   0.691   0.473  1.3355  0.0139 -0.3994
 3222TIP3   OH2 9671   5.874   1.603   3.315 -0.1777 -0.6320  0.1733
 3222TIP3    H1 9672   5.932   1.577   3.387  1.5740 -1.3044 -1.4007
 3222TIP3    H2 9673   5.810   1.661   3.356  2.1835  0.9582  1.8448
 3223TIP3   OH2 9674   4.349   0.595   2.212 -0.3955 -0.0452  0.1776
 3223TIP3    H1 9675   4.391   0.539   2.277 -2.2449 -1.6678  0.0580
 3223TIP3    H2 9676   4.256   0.594   2.235 -0.8202  1.0006 -1.2988
 3224TIP3   OH2 9677   6.080   2.492   2.427 -0.0296 -0.1485 -0.3808
 3224TIP3    H1 9678   6.096   2.479   2.520  0.0883 -1.6342 -0.5808
 3224TIP3    H2 9679   6.083   2.404   2.389 -0.5334  0.3707 -1.7180
 3225TIP3   OH2 9680   0.161   1.625   0.247 -0.3005  0.2922 -0.0026
 3225TIP3    H1 9681   0.094   1.589   0.189  1.0805 -0.7138 -1.0687
 3225TIP3    H2 9682   0.113   1.674   0.313 -2.0089  0.5478 -1.3687
 3226TIP3   OH2 9683   3.605   4.574   0.180 -0.3310 -0.6694 -0.3186
 3226TIP3    H1 9684   3.684   4.564   0.233 -0.3703  2.2849  0.4780
 3226TIP3    H2 9685   3.630   4.543   0.093  1.3768 -0.7221  0.1672
 3227TIP3   OH2 9686   5.518   4.280   3.241  0.0243  0.5981 -0.0289
 3227TIP3    H1 9687   5.452   4.216   3.270 -0.1329  0.1975 -1.2376
 3227TIP3    H2 9688   5.540   4.328   3.321 -0.7071 -0.1904  0.6759
 3228TIP3   OH2 9689   2.276   2.729   3.901  0.4080 -0.3897  0.1308
 3228TIP3    H1 9690   2.235   2.788   3.964 -2.4166 -1.2304 -0.7654
 3228TIP3    H2 9691   2.262   2.642   3.938  0.3582 -0.7739 -0.7718
 3229TIP3   OH2 9692   6.098   2.890   3.104 -0.1793  0.0912  0.1394
 3229TIP3    H1 9693   6.084   2.984   3.093  0.7956  0.3409  0.9313
 3229TIP3    H2 9694   6.091   2.875   3.198  3.4494  0.0935  0.5832
 3230TIP3   OH2 9695   5.268   1.139   1.904 -0.1335 -0.2717 -0.5435
 3230TIP3    H1 9696   5.240   1.224   1.939  0.6560 -0.0868 -0.3280
 3230TIP3    H2 9697   5.326   1.104   1.972  1.5472  0.1568 -1.6888
 3231TIP3   OH2 9698   3.500   3.224   0.554 -0.9281 -0.3065 -0.1501
 3231TIP3    H1 9699   3.593   3.214   0.574 -0.9453  0.7364  0.5019
 3231TIP3    H2 9700   3.497   3.240   0.460 -0.4610 -0.5277 -0.2032
 3232TIP3   OH2 9701   4.903   3.597   0.354  0.4354  0.2000  0.3567
 3232TIP3    H1 9702   4.882   3.678   0.400  0.3252  0.1849  0.3346
 3232TIP3    H2 9703   4.958   3.548   0.414 -0.6870 -0.3500  0.9581
 3233TIP3   OH2 9704   0.529   5.457   1.982 -0.1235 -0.0070 -0.1009
 3233TIP3    H1 9705   0.533   5.467   2.077 -2.6431 -0.7359  0.1526
 3233TIP3    H2 9706   0.511   5.364   1.968  1.2939 -0.1248 -1.3713
 3234TIP3   OH2 9707   2.069   4.252   0.550  0.0759 -0.2566  0.0183
 3234TIP3    H1 9708   2.131   4.181   0.530 -2.6594 -2.4587 -1.3304
 3234TIP3    H2 9709   2.039   4.233   0.639  1.0596  0.6501  0.5649
 3235TIP3   OH2 9710   5.057   3.775   4.288 -0.5245  0.3438 -0.3673
 3235TIP3    H1 9711   4.999   3.848   4.268 -1.0845 -0.0246 -0.1138
 3235TIP3    H2 9712   5.121   3.775   4.217 -2.2895 -0.7565 -2.0319
 3236TIP3   OH2 9713   0.822   1.388   3.613 -0.2130  0.3503  0.0173
 3236TIP3    H1 9714   0.745   1.339   3.639  0.9256 -1.6378 -0.1721
 3236TIP3    H2 9715   0.825   1.462   3.674 -1.2895 -0.5000  1.1474
 3237TIP3   OH2 9716   0.729   0.283   1.508  0.0565 -0.0671 -0.2123
 3237TIP3    H1 9717   0.676   0.279   1.587  1.1521 -1.8889  0.5016
 3237TIP3    H2 9718   0.805   0.228   1.528  0.6255 -0.1296 -2.3415
 3238TIP3   OH2 9719   5.822   1.678   1.745 -0.2637  0.1936  0.5794
 3238TIP3    H1 9720   5.802   1.586   1.730 -0.7054  0.1603  1.3159
 3238TIP3    H2 9721   5.738   1.723   1.737 -0.1214  0.4724  0.6219
 3239TIP3   OH2 9722   1.102   3.957   1.870  0.2170 -0.2511  0.2174
 3239TIP3    H1 9723   1.138   4.012   1.940 -1.0355 -0.9847  1.5003
 3239TIP3    H2 9724   1.032   4.010   1.832  2.8006  1.4258 -2.6873
 3240TIP3   OH2 9725   1.610   2.084   4.030  0.0276 -0.1417 -0.2955
 3240TIP3    H1 9726   1.643   2.174   4.021  0.6335 -0.4470 -1.2491
 3240TIP3    H2 9727   1.667   2.032   3.974  1.1631 -1.5159  1.9888
 3241TIP3   OH2 9728   3.703   1.770   3.900  0.3074 -0.4297 -0.1422
 3241TIP3    H1 9729   3.714   1.690   3.950  0.0611 -0.6272 -0.4033
 3241TIP3    H2 9730   3.666   1.833   3.962 -0.0130 -0.6774 -0.0846
 3242TIP3   OH2 9731   0.040   0.412   0.338 -0.4694 -0.0507  0.0564
 3242TIP3    H1 9732   0.093   0.381   0.265  0.6814  1.3781  0.2358
 3242TIP3    H2 9733  -0.003   0.491   0.306  0.4234  0.8697  1.0142
 3243TIP3   OH2 9734   5.770   5.597   2.426 -0.0395 -0.1066  0.5958
 3243TIP3    H1 9735   5.813   5.518   2.394 -0.3476  1.0947 -3.3568
 3243TIP3    H2 9736   5.842   5.657   2.445  0.1836 -1.0934  3.3623
 3244TIP3   OH2 9737   4.413   0.778   2.622 -0.3580 -0.7182 -0.3141
 3244TIP3    H1 9738   4.345   0.775   2.555  0.5181  0.8303 -1.3349
 3244TIP3    H2 9739   4.392   0.857   2.673  0.4986 -0.3786 -0.4736
 3245TIP3   OH2 9740   4.926   5.219   2.614 -0.2338 -0.4194 -0.2966
 3245TIP3    H1 9741   4.927   5.231   2.519 -0.5392 -0.5066 -0.3150
 3245TIP3    H2 9742   4.871   5.291   2.646 -0.1635 -0.4135 -0.1896
 3246TIP3   OH2 9743   5.893   1.741   3.636 -0.6983 -0.0577 -0.5569
 3246TIP3    H1 9744   5.898   1.816   3.695 -1.3351 -0.4714  0.0393
 3246TIP3    H2 9745   5.969   1.751   3.577 -1.0684  1.3182 -0.8264
 3247TIP3   OH2 9746   6.003   2.126   4.023  0.4006  0.0047  0.1091
 3247TIP3    H1 9747   6.032   2.153   4.111  1.5824 -0.8449  0.0048
 3247TIP3    H2 9748   5.956   2.203   3.989  1.3436  0.9425  0.8502
 3248TIP3   OH2 9749   0.507   2.183   4.185 -0.0598  0.3212 -0.2943
 3248TIP3    H1 9750   0.433   2.128   4.210 -0.4676  0.3655 -1.3363
 3248TIP3    H2 9751   0.568   2.176   4.258 -0.2942 -1.1558 -0.2078
 3249TIP3   OH2 9752   1.190   2.563   0.640  0.2355 -0.6879 -0.1164
 3249TIP3    H1 9753   1.159   2.654   0.635  1.1462 -0.3416  0.3371
 3249TIP3    H2 9754   1.286   2.571   0.642  0.3636 -1.7217 -1.3691
 3250TIP3   OH2 9755   1.283   0.642   4.145  0.3016  0.5807 -0.9179
 3250TIP3    H1 9756   1.200   0.602   4.169 -0.4488  1.9016 -1.2258
 3250TIP3    H2 9757   1.313   0.592   4.069 -0.8461  0.8755 -1.5836
 3251TIP3   OH2 9758   6.157   0.668   3.442 -0.5750 -0.0336  0.2695
 3251TIP3    H1 9759   6.155   0.681   3.347 -0.0657  0.9785  0.3786
 3251TIP3    H2 9760   6.080   0.615   3.461 -1.0350  0.2950 -0.6356
 3252TIP3   OH2 9761   3.217   1.453   4.354 -0.0925  0.0990 -0.2669
 3252TIP3    H1 9762   3.248   1.522   4.412 -0.0164 -0.7761  0.7833
 3252TIP3    H2 9763   3.128   1.435   4.384  0.0712 -0.6022 -0.1692
 3253TIP3   OH2 9764   5.067   3.493   4.438  0.8485  0.4512  0.5504
 3253TIP3    H1 9765   5.139   3.467   4.381  0.5439  2.4861 -0.8455
 3253TIP3    H2 9766   5.046   3.582   4.412 -0.7801  0.6772  2.3838
 3254TIP3   OH2 9767   3.907   4.575   3.832  0.2036  0.0089 -0.1534
 3254TIP3    H1 9768   3.990   4.581   3.785  0.8385 -0.7314  0.8345
 3254TIP3    H2 9769   3.930   4.536   3.917 -1.1333 -0.0806  0.1910
 3255TIP3   OH2 9770   1.838   3.669   3.981  0.0022  0.0012  0.2602
 3255TIP3    H1 9771   1.783   3.702   3.910 -0.4804 -0.7488  0.2774
 3255TIP3    H2 9772   1.892   3.744   4.006  0.0547  0.3208 -0.7795
 3256TIP3   OH2 9773   2.651   0.064   3.018 -0.2313 -0.1581 -0.0840
 3256TIP3    H1 9774   2.654   0.141   3.074  1.6879 -0.4679  0.3210
 3256TIP3    H2 9775   2.735   0.066   2.971 -1.5094 -0.2421 -2.5245
 3257TIP3   OH2 9776   1.310   4.300   1.017  0.4883  0.2326 -0.1066
 3257TIP3    H1 9777   1.234   4.352   1.043  0.2632 -0.8167  1.5188
 3257TIP3    H2 9778   1.357   4.284   1.099  2.2866  0.5644 -1.0347
 3258TIP3   OH2 9779   1.756   4.154   1.286  0.0368  0.3275  0.5768
 3258TIP3    H1 9780   1.743   4.152   1.381 -0.5464 -1.0097  0.4868
 3258TIP3    H2 9781   1.752   4.247   1.263  0.3193  0.6752  1.8744
 3259TIP3   OH2 9782   5.331   4.753   0.282 -0.0420 -0.3724 -0.0978
 3259TIP3    H1 9783   5.332   4.733   0.375 -1.2264  0.5556  0.1373
 3259TIP3    H2 9784   5.423   4.769   0.259  0.2461 -0.5490  0.9096
 3260TIP3   OH2 9785   3.614   0.019   0.189 -0.6618  0.7677  0.3531
 3260TIP3    H1 9786   3.648   0.030   0.278  3.2473 -1.1399 -0.6986
 3260TIP3    H2 9787   3.691   0.021   0.133 -2.2628 -3.2974 -2.4706
 3261TIP3   OH2 9788   1.690   5.134   2.823 -0.1816  0.1315  0.6398
 3261TIP3    H1 9789   1.687   5.227   2.802  2.4806  0.0711 -0.4917
 3261TIP3    H2 9790   1.766   5.125   2.881 -0.4982 -1.3263  0.8733
 3262TIP3   OH2 9791   0.588   0.917   3.922 -0.3387 -0.1451  0.0579
 3262TIP3    H1 9792   0.513   0.875   3.964 -1.1690  1.1768 -0.0200
 3262TIP3    H2 9793   0.574   0.903   3.828 -1.5494  1.6602 -0.0939
 3263TIP3   OH2 9794   1.364   1.460   3.512  0.5016  0.0769 -0.3600
 3263TIP3    H1 9795   1.441   1.502   3.550  0.5501  0.5040 -0.9207
 3263TIP3    H2 9796   1.337   1.518   3.441  0.6207 -0.8927 -1.2094
 3264TIP3   OH2 9797   0.860   4.007   1.215  0.0658  0.0388  0.3321
 3264TIP3    H1 9798   0.935   4.025   1.272  0.4976 -1.0653  0.1534
 3264TIP3    H2 9799   0.784   4.008   1.274  0.2053  1.1512  0.5185
 3265TIP3   OH2 9800   6.213   5.525   5.154 -0.0282 -0.1423 -0.1389
 3265TIP3    H1 9801   6.167   5.536   5.071  0.3637 -1.2765 -0.5162
 3265TIP3    H2 9802   6.157   5.571   5.218 -0.7866 -0.0214 -0.8713
 3266TIP3   OH2 9803   5.358   4.108   3.397 -0.3076  0.2206 -0.0862
 3266TIP3    H1 9804   5.329   4.027   3.440  0.0149  0.6460  0.9483
 3266TIP3    H2 9805   5.296   4.174   3.427  0.4298  0.6955  0.4327
 3267TIP3   OH2 9806   5.153   3.949   2.685  0.4637  0.0068  0.4133
 3267TIP3    H1 9807   5.073   4.001   2.685  0.3521 -0.1591  0.1141
 3267TIP3    H2 9808   5.224   4.013   2.684  0.3267  0.1548 -0.1239
 3268TIP3   OH2 9809   5.161   2.724   3.845 -0.2100 -0.1027  0.0409
 3268TIP3    H1 9810   5.205   2.656   3.794  1.9440  1.1332  0.1363
 3268TIP3    H2 9811   5.168   2.694   3.935  0.1394 -0.0861  0.0209
 3269TIP3   OH2 9812   3.438   0.180   1.428  0.1552 -0.2215 -0.4526
 3269TIP3    H1 9813   3.427   0.245   1.358 -0.2398 -1.0673 -1.1957
 3269TIP3    H2 9814   3.482   0.228   1.498 -1.3126  1.2230 -0.4438
 3270TIP3   OH2 9815   4.763   3.369   1.587 -0.0871 -0.0172 -0.1793
 3270TIP3    H1 9816   4.833   3.433   1.577  1.0620 -1.2150 -0.0931
 3270TIP3    H2 9817   4.808   3.285   1.590 -1.6106 -0.9158 -1.2113
 3271TIP3   OH2 9818   2.161   4.415   4.417  0.6934 -0.2184 -0.3970
 3271TIP3    H1 9819   2.094   4.480   4.437 -0.1269 -1.3535  0.7579
 3271TIP3    H2 9820   2.204   4.399   4.501  0.6988 -1.3491 -0.6017
 3272TIP3   OH2 9821   0.570   4.645   3.749  0.4425 -0.3295 -0.2259
 3272TIP3    H1 9822   0.645   4.610   3.798 -0.2058 -0.6377  0.5726
 3272TIP3    H2 9823   0.508   4.673   3.817  0.2347  0.8191 -0.8688
 3273TIP3   OH2 9824   0.538   4.965   5.007 -0.0944 -0.0538 -0.6671
 3273TIP3    H1 9825   0.448   4.933   5.016 -0.6020  1.0841 -1.4438
 3273TIP3    H2 9826   0.587   4.917   5.074 -1.2796 -0.6807 -0.2101
 3274TIP3   OH2 9827   4.455   1.529   1.002 -0.0149 -0.1607  0.6985
 3274TIP3    H1 9828   4.447   1.624   1.006  0.8793 -0.0333 -0.1197
 3274TIP3    H2 9829   4.433   1.499   1.090 -1.8185  0.6662  0.5621
 3275TIP3   OH2 9830   0.234   1.197   1.008  0.3797  0.2405 -0.3868
 3275TIP3    H1 9831   0.302   1.132   0.991  1.1200  1.2006 -1.2040
 3275TIP3    H2 9832   0.263   1.275   0.961 -0.2313  1.3343  0.9874
 3276TIP3   OH2 9833   4.622   1.746   5.053  0.4062 -0.4360  0.5471
 3276TIP3    H1 9834   4.605   1.655   5.078  1.7982 -0.9487 -0.2407
 3276TIP3    H2 9835   4.707   1.766   5.091  0.9025 -0.0510 -0.6997
 3277TIP3   OH2 9836   5.526   1.943   3.038 -0.5499  0.2003  0.1795
 3277TIP3    H1 9837   5.532   1.865   3.094 -1.0202 -0.0954 -0.1750
 3277TIP3    H2 9838   5.435   1.946   3.010 -0.2393  0.1126 -0.8952
 3278TIP3   OH2 9839   2.254   3.659   2.979  0.1254 -0.4837 -0.0856
 3278TIP3    H1 9840   2.261   3.671   2.884 -0.8486 -1.3777 -0.2869
 3278TIP3    H2 9841   2.319   3.591   2.998  0.1076 -0.5233 -0.1626
 3279TIP3   OH2 9842   4.585   5.812   3.823 -0.4749  0.0951 -0.0958
 3279TIP3    H1 9843   4.549   5.806   3.735 -0.6273  0.7497 -0.0833
 3279TIP3    H2 9844   4.623   5.725   3.840 -1.2532 -0.3181 -0.4484
 3280TIP3   OH2 9845   4.505   2.489   1.992 -0.7603  0.3184 -0.3065
 3280TIP3    H1 9846   4.459   2.409   2.016 -0.3870 -0.0716 -0.8725
 3280TIP3    H2 9847   4.546   2.519   2.073  0.0721 -0.7071 -0.3289
 3281TIP3   OH2 9848   2.162   5.902   0.796 -0.2373 -0.0522 -0.4494
 3281TIP3    H1 9849   2.224   5.865   0.860 -1.3929 -0.5211  0.4402
 3281TIP3    H2 9850   2.187   5.862   0.713  1.1924  0.4371 -0.2998
 3282TIP3   OH2 9851   3.715   5.447   2.789 -0.4792  0.4132  0.6625
 3282TIP3    H1 9852   3.650   5.393   2.745  0.8076 -0.8682  0.2557
 3282TIP3    H2 9853   3.711   5.531   2.745 -0.8236 -0.1285 -0.3615
 3283TIP3   OH2 9854   1.267   5.676   3.251  0.3661  0.2006 -0.1958
 3283TIP3    H1 9855   1.250   5.751   3.308  0.2711  0.8024 -0.9947
 3283TIP3    H2 9856   1.251   5.709   3.162  0.2106 -0.7981 -0.5529
 3284TIP3   OH2 9857   6.200   2.131   2.031 -0.4347  0.0844 -0.0805
 3284TIP3    H1 9858   6.275   2.088   1.991 -1.4004 -0.2782 -1.5968
 3284TIP3    H2 9859   6.237   2.205   2.079  0.8689  0.0065 -0.9220
 3285TIP3   OH2 9860   0.566   2.736   1.092 -0.0796 -0.3189 -0.3479
 3285TIP3    H1 9861   0.473   2.751   1.074 -0.4505 -0.5009  1.2535
 3285TIP3    H2 9862   0.612   2.782   1.022 -1.3721 -0.4581 -1.3238
 3286TIP3   OH2 9863   4.947   3.966   3.381  0.0563  0.1011 -0.1702
 3286TIP3    H1 9864   4.962   4.060   3.367 -0.9924  0.6720  2.0660
 3286TIP3    H2 9865   4.951   3.928   3.293 -1.2589  2.4960 -1.3634
 3287TIP3   OH2 9866   3.445   4.019   0.175  0.4995 -0.0540  0.3057
 3287TIP3    H1 9867   3.514   4.054   0.231  0.5422  0.2331  0.0780
 3287TIP3    H2 9868   3.393   3.963   0.232  0.4993  0.2935  0.6509
 3288TIP3   OH2 9869   0.188   1.280   4.026 -0.4813 -0.3837  0.8661
 3288TIP3    H1 9870   0.260   1.216   4.025  0.5675  0.7360 -0.7447
 3288TIP3    H2 9871   0.136   1.257   3.948  0.3428  1.1289 -0.1798
 3289TIP3   OH2 9872   4.975   0.017   1.140 -0.2431  0.2268 -0.1401
 3289TIP3    H1 9873   4.904   0.059   1.091 -0.7923  0.5828  0.9313
 3289TIP3    H2 9874   4.931  -0.051   1.191  0.4208 -0.5962 -0.6426
 3290TIP3   OH2 9875   3.965   3.076   0.886  0.4577  0.2440 -0.2225
 3290TIP3    H1 9876   4.000   2.999   0.840 -0.1010 -0.6329  0.7773
 3290TIP3    H2 9877   3.911   3.120   0.820 -0.7577 -1.2774 -0.3102
 3291TIP3   OH2 9878   3.379   4.589   4.815 -0.0375  0.8163  0.3006
 3291TIP3    H1 9879   3.330   4.619   4.738 -0.6623 -0.8271  0.0095
 3291TIP3    H2 9880   3.321   4.607   4.889  0.3646  1.9647  0.3524
 3292TIP3   OH2 9881   2.352   3.471   1.894 -0.3666  0.0909 -0.0897
 3292TIP3    H1 9882   2.302   3.393   1.916 -1.8314  0.8573 -0.5963
 3292TIP3    H2 9883   2.400   3.491   1.975  0.7463 -1.8030 -0.2223
 3293TIP3   OH2 9884   2.065   0.321   0.287  0.3689  0.1104  0.2898
 3293TIP3    H1 9885   2.001   0.297   0.354  0.6246  0.3787  0.6389
 3293TIP3    H2 9886   2.147   0.331   0.336  0.2019  2.1112  0.2458
 3294TIP3   OH2 9887   3.305   0.774   1.217  0.0157  0.2858  0.1960
 3294TIP3    H1 9888   3.387   0.745   1.178  0.1539 -0.4613  1.0135
 3294TIP3    H2 9889   3.327   0.858   1.258  0.0037  0.7989 -0.8057
 3295TIP3   OH2 9890   3.926   5.733   1.898 -0.1874 -0.0978  0.0722
 3295TIP3    H1 9891   3.987   5.757   1.968 -0.5434  0.0104  0.3517
 3295TIP3    H2 9892   3.871   5.811   1.888 -1.0571 -0.6268  0.6675
 3296TIP3   OH2 9893   4.740   4.708   0.461  0.1469 -1.2589  0.0871
 3296TIP3    H1 9894   4.677   4.648   0.421  1.0692 -0.5639 -2.6001
 3296TIP3    H2 9895   4.694   4.792   0.464 -0.0149 -1.3668  0.8060
 3297TIP3   OH2 9896   0.899   2.281   3.204 -0.1148  0.4663 -0.2709
 3297TIP3    H1 9897   0.836   2.309   3.270  1.2270 -0.1378  1.3423
 3297TIP3    H2 9898   0.978   2.330   3.224  0.5892 -0.3903 -0.8730
 3298TIP3   OH2 9899   0.152   3.607   4.322 -0.1712  0.3022 -0.6239
 3298TIP3    H1 9900   0.188   3.546   4.258 -0.1028 -0.6301  0.2743
 3298TIP3    H2 9901   0.171   3.694   4.287  1.1067 -0.1833 -1.1766
 3299TIP3   OH2 9902   4.046   4.677   2.910 -0.2562  0.1192  0.4503
 3299TIP3    H1 9903   4.014   4.599   2.863  1.6858 -0.3900 -0.0926
 3299TIP3    H2 9904   4.050   4.745   2.842  2.8309 -0.6924 -0.3405
 3300TIP3   OH2 9905   3.437   0.252   4.482 -0.2106 -0.2977  0.5894
 3300TIP3    H1 9906   3.421   0.346   4.476 -1.9519 -0.5337  1.1508
 3300TIP3    H2 9907   3.353   0.214   4.507 -0.1071 -2.2386 -1.6045
 3301TIP3   OH2 9908   3.742   3.152   2.572 -0.1751  0.1532  0.4489
 3301TIP3    H1 9909   3.806   3.203   2.522 -1.3814  1.6455  0.3488
 3301TIP3    H2 9910   3.790   3.123   2.650  1.4665 -1.4285 -1.0829
 3302TIP3   OH2 9911   1.694   5.200   3.302  0.6500 -0.1855 -0.5206
 3302TIP3    H1 9912   1.608   5.160   3.318  0.0409  1.3018  0.0775
 3302TIP3    H2 9913   1.728   5.218   3.390  0.6609  1.1019 -0.7755
 3303TIP3   OH2 9914   2.299   5.756   1.613 -0.3792  0.4545  0.5883
 3303TIP3    H1 9915   2.219   5.722   1.574  0.8550 -1.5686 -0.3395
 3303TIP3    H2 9916   2.368   5.732   1.551  1.3920 -0.9379  2.9201
 3304TIP3   OH2 9917   3.635   4.416   4.435  0.1378  0.2992 -0.4750
 3304TIP3    H1 9918   3.551   4.434   4.476 -0.3041 -1.3800 -0.5778
 3304TIP3    H2 9919   3.697   4.410   4.508  0.1786  1.4981 -0.3990
 3305TIP3   OH2 9920   2.607   4.086   2.486  0.0495 -0.4957 -0.1281
 3305TIP3    H1 9921   2.684   4.123   2.444 -0.1754  0.4283  0.2471
 3305TIP3    H2 9922   2.640   4.043   2.565  0.2926 -0.9687 -0.4837
 3306TIP3   OH2 9923   1.908   4.919   4.701  0.1362 -0.6470  0.0829
 3306TIP3    H1 9924   1.986   4.975   4.703 -0.8164  0.8817 -2.0312
 3306TIP3    H2 9925   1.864   4.942   4.619 -2.9934 -0.8556  1.5662
 3307TIP3   OH2 9926   1.819   4.076   0.149  0.2858  0.2328 -0.2123
 3307TIP3    H1 9927   1.743   4.052   0.096  0.5056  2.8083 -1.8582
 3307TIP3    H2 9928   1.853   4.155   0.108  1.7572  1.1893  2.5926
 3308TIP3   OH2 9929   4.845   3.547   3.508  0.4297 -0.5816  0.4182
 3308TIP3    H1 9930   4.778   3.482   3.486  0.0552 -1.5697  3.8154
 3308TIP3    H2 9931   4.802   3.631   3.497 -0.3972 -1.0807 -0.2546
 3309TIP3   OH2 9932   3.676   5.702   0.296  0.5561  0.1340 -0.3150
 3309TIP3    H1 9933   3.597   5.744   0.260  0.9749  1.2793  0.0598
 3309TIP3    H2 9934   3.658   5.695   0.390 -0.4784 -2.7196 -0.6504
 3310TIP3   OH2 9935   1.614   1.394   0.850 -0.1626 -0.0512  0.1160
 3310TIP3    H1 9936   1.540   1.455   0.861  0.1287  0.0365  1.8393
 3310TIP3    H2 9937   1.692   1.450   0.856  0.0787 -0.3965  0.2357
 3311TIP3   OH2 9938   0.936   2.281   0.142  0.0894  0.3462 -0.0793
 3311TIP3    H1 9939   0.940   2.191   0.109  0.3159 -0.1491  1.2304
 3311TIP3    H2 9940   0.860   2.281   0.201  0.4670  0.8432  0.4116
 3312TIP3   OH2 9941   6.115   1.803   0.189  0.5251  0.2760  0.3997
 3312TIP3    H1 9942   6.153   1.889   0.173  0.5201 -0.0141 -1.3716
 3312TIP3    H2 9943   6.020   1.817   0.179  0.3678  0.3940  1.8473
 3313TIP3   OH2 9944   4.658   1.181   4.328  0.1740 -0.0552 -0.0863
 3313TIP3    H1 9945   4.592   1.142   4.385 -0.1509 -1.0234 -1.0794
 3313TIP3    H2 9946   4.611   1.250   4.280 -0.2144 -0.8954 -0.9593
 3314TIP3   OH2 9947   2.205   3.996   0.613  0.0501  0.4032 -0.6466
 3314TIP3    H1 9948   2.196   3.921   0.554 -0.1561  0.1594 -0.3151
 3314TIP3    H2 9949   2.131   3.986   0.674 -0.2431  1.1255 -0.8732
 3315TIP3   OH2 9950   3.521   5.742   2.942  0.0823  0.0183 -0.3428
 3315TIP3    H1 9951   3.610   5.737   2.907 -0.6203  1.3820 -2.4986
 3315TIP3    H2 9952   3.507   5.834   2.961 -0.4158 -0.3752  1.4261
 3316TIP3   OH2 9953   3.162   1.362   2.698 -0.1060 -0.3125 -0.3425
 3316TIP3    H1 9954   3.160   1.267   2.692 -1.2856 -0.2745 -0.7782
 3316TIP3    H2 9955   3.204   1.390   2.616  0.8347 -0.4697  0.0763
 3317TIP3   OH2 9956   0.394   2.552   1.945  0.2334  0.6219 -0.5046
 3317TIP3    H1 9957   0.386   2.457   1.933 -1.8653  0.9393 -2.4478
 3317TIP3    H2 9958   0.352   2.569   2.030  0.3027 -0.1419 -0.3099
 3318TIP3   OH2 9959   5.026   3.306   1.764 -0.5658 -0.0590 -0.5132
 3318TIP3    H1 9960   5.099   3.274   1.711  0.7264  1.7424  0.0900
 3318TIP3    H2 9961   4.967   3.231   1.773  0.8809 -1.3603 -1.5769
 3319TIP3   OH2 9962   0.111   4.939   0.902 -0.2885 -0.1416 -0.0454
 3319TIP3    H1 9963   0.183   4.971   0.848  0.9205  0.5152  1.8362
 3319TIP3    H2 9964   0.055   4.890   0.842  1.9991 -1.1214 -1.5172
 3320TIP3   OH2 9965   1.190   4.823   2.084  0.0930 -0.1104 -0.4028
 3320TIP3    H1 9966   1.120   4.776   2.038 -0.2620 -1.1154  1.0804
 3320TIP3    H2 9967   1.164   4.915   2.079 -0.3960 -0.2888 -1.4010
 3321TIP3   OH2 9968   3.828   1.216   4.167 -0.5625 -0.6877  0.2034
 3321TIP3    H1 9969   3.775   1.160   4.110 -0.2810 -0.0334 -0.7198
 3321TIP3    H2 9970   3.774   1.229   4.245 -1.4038 -0.7225 -0.3657
 3322TIP3   OH2 9971   6.324   1.192   3.000 -0.2136 -0.1234  0.1506
 3322TIP3    H1 9972   6.320   1.274   3.048  0.7443 -0.1486  0.3021
 3322TIP3    H2 9973   6.393   1.142   3.044  0.9956  0.0256 -1.4757
 3323TIP3   OH2 9974   4.293   1.319   2.553 -0.0341  0.1563 -0.0229
 3323TIP3    H1 9975   4.295   1.316   2.649  0.5642  1.1037  0.0045
 3323TIP3    H2 9976   4.331   1.236   2.526 -0.2492 -0.1409  0.5559
 3324TIP3   OH2 9977   0.695   3.464   2.522  0.1305 -0.3732  0.0709
 3324TIP3    H1 9978   0.734   3.415   2.450  2.3645  0.7622  0.4115
 3324TIP3    H2 9979   0.709   3.410   2.600  0.7377 -0.1305  0.1355
 3325TIP3   OH2 9980   5.541   2.282   1.418 -0.2681 -0.5465 -0.1264
 3325TIP3    H1 9981   5.559   2.370   1.385 -0.5113 -0.4681 -0.0512
 3325TIP3    H2 9982   5.526   2.229   1.339  1.5511 -0.9104 -0.2778
 3326TIP3   OH2 9983   5.903   2.368   2.876  0.3539 -0.3594  0.3971
 3326TIP3    H1 9984   5.868   2.284   2.848 -0.9235  0.4354 -0.4902
 3326TIP3    H2 9985   5.882   2.373   2.969 -1.3789 -0.1862  0.0295
 3327TIP3   OH2 9986   3.905   2.937   1.122  0.8448  0.5057 -0.1849
 3327TIP3    H1 9987   3.907   2.973   1.033  0.4893  1.6175  0.2376
 3327TIP3    H2 9988   3.994   2.908   1.139  0.3633 -2.3266 -1.9117
 3328TIP3   OH2 9989   3.684   1.967   2.217  0.2480  0.0687  0.4026
 3328TIP3    H1 9990   3.667   1.894   2.276 -1.1749  0.9038  1.0891
 3328TIP3    H2 9991   3.597   1.998   2.191  0.8237  1.0589 -0.4440
 3329TIP3   OH2 9992   3.806   3.081   1.388  0.3723  0.5518 -0.0219
 3329TIP3    H1 9993   3.859   3.107   1.313 -1.2862 -0.0700 -1.4858
 3329TIP3    H2 9994   3.805   2.986   1.386 -0.5031  0.5437  0.1760
 3330TIP3   OH2 9995   3.793   1.880   2.998 -0.3768  0.2447  0.5678
 3330TIP3    H1 9996   3.709   1.837   2.982 -0.1204 -0.2720  0.5830
 3330TIP3    H2 9997   3.851   1.809   3.025  1.3118 -0.2401 -3.6520
 3331TIP3   OH2 9998   2.976   3.436   0.805  0.0246  0.4378  0.0894
 3331TIP3    H1 9999   2.932   3.378   0.743 -2.8539  2.2556  0.2470
 3331TIP3    H210000   3.009   3.508   0.751  0.1881  0.5544  0.3434
 3332TIP3   OH210001   2.183   4.165   1.011  0.2705 -0.0348 -0.2777
 3332TIP3    H110002   2.108   4.188   1.066 -1.5994 -2.1273 -1.8075
 3332TIP3    H210003   2.180   4.070   1.005  2.3646 -0.0807 -1.3569
 3333TIP3   OH210004   2.777   0.787   2.530  0.5787  0.0461  0.5615
 3333TIP3    H110005   2.784   0.871   2.486  3.7041 -0.0464  0.6693
 3333TIP3    H210006   2.748   0.808   2.619  0.0925  0.8420  0.2248
 3334TIP3   OH210007   5.312   0.794   3.490  0.1263  0.5017  0.2395
 3334TIP3    H110008   5.313   0.886   3.515 -0.4097  1.2144 -2.1392
 3334TIP3    H210009   5.220   0.776   3.468  0.5141 -0.0973 -0.9617
 3335TIP3   OH210010   3.994   1.123   4.702  0.1173  0.1854 -0.5134
 3335TIP3    H110011   3.926   1.085   4.647 -1.7206  2.1735  0.2047
 3335TIP3    H210012   4.015   1.055   4.766 -1.5137 -0.3477 -0.5120
 3336TIP3   OH210013   5.371   5.461   2.116  0.5132 -0.0334 -0.2599
 3336TIP3    H110014   5.365   5.373   2.153  1.3974  0.1813  0.4390
 3336TIP3    H210015   5.405   5.448   2.028 -0.9503 -0.5008 -0.7849
 3337TIP3   OH210016   3.384   1.873   0.418  0.3427  0.4072  0.6177
 3337TIP3    H110017   3.417   1.799   0.367  2.4197  1.0981  0.8678
 3337TIP3    H210018   3.378   1.839   0.508 -1.0572 -0.1116  0.3687
 3338TIP3   OH210019   5.459   5.480   4.169  0.5319  0.1062  0.5728
 3338TIP3    H110020   5.389   5.529   4.213  0.7779  0.9997 -0.0205
 3338TIP3    H210021   5.413   5.409   4.123  0.0087  0.7311  0.1285
 3339TIP3   OH210022   3.411   5.767   3.554 -0.2283  0.6397 -0.4101
 3339TIP3    H110023   3.435   5.859   3.561 -2.1359  1.0796  2.8561
 3339TIP3    H210024   3.326   5.768   3.510  0.3546  0.2914 -1.5553
 3340TIP3   OH210025   3.392   4.597   2.042 -0.0549 -0.2445 -0.4001
 3340TIP3    H110026   3.392   4.684   2.082 -0.6082 -0.3983 -0.0647
 3340TIP3    H210027   3.437   4.610   1.958  2.0857 -0.1279  0.7033
 3341TIP3   OH210028   0.313   4.214   0.449 -0.7472  0.2983 -0.2665
 3341TIP3    H110029   0.277   4.292   0.490  0.9595  0.6447  0.6744
 3341TIP3    H210030   0.240   4.153   0.443 -1.8171  1.5081  0.1183
 3342TIP3   OH210031   2.145   1.570   2.193  0.1717  0.6635  0.7130
 3342TIP3    H110032   2.138   1.550   2.286  0.4498  0.9791  0.8021
 3342TIP3    H210033   2.193   1.652   2.189  1.2903  0.0192  0.2488
 3343TIP3   OH210034   1.734   1.815   2.633 -0.1244 -0.2325  0.1683
 3343TIP3    H110035   1.803   1.810   2.567  0.2879  1.5357  0.4081
 3343TIP3    H210036   1.693   1.900   2.618 -0.4717 -0.0876  1.7593
 3344TIP3   OH210037   1.414   4.777   3.497 -0.2014  0.0275 -0.4690
 3344TIP3    H110038   1.424   4.703   3.437  1.4513 -0.5863  0.4858
 3344TIP3    H210039   1.356   4.744   3.566 -0.7711  0.1781 -0.8718
 3345TIP3   OH210040   4.563   3.524   4.123 -0.2165  0.0954  0.2102
 3345TIP3    H110041   4.638   3.553   4.174 -0.5764  1.0903  0.1951
 3345TIP3    H210042   4.555   3.588   4.052 -0.6922 -0.3622 -0.1670
 3346TIP3   OH210043   5.343   4.472   1.248  0.5594 -0.1143  0.1908
 3346TIP3    H110044   5.398   4.499   1.322  1.5303  0.0024 -0.5527
 3346TIP3    H210045   5.401   4.417   1.195 -0.4054 -0.9580 -0.0119
 3347TIP3   OH210046   0.433   0.492   1.485  0.3943 -0.0274  0.0247
 3347TIP3    H110047   0.497   0.527   1.423 -1.2586  0.1970 -1.6005
 3347TIP3    H210048   0.437   0.397   1.473  1.9379 -0.2146  1.5229
 3348TIP3   OH210049   5.274   0.432   0.779  0.1609 -0.0250 -0.1073
 3348TIP3    H110050   5.343   0.487   0.742  0.1302  0.3128  0.3349
 3348TIP3    H210051   5.262   0.465   0.868 -1.2629  0.5635 -0.4930
 3349TIP3   OH210052   6.064   0.694   0.842  0.1930 -0.1150 -0.5328
 3349TIP3    H110053   6.094   0.647   0.764 -1.0083 -3.6053  0.8964
 3349TIP3    H210054   5.969   0.693   0.835  0.1021  0.5338  0.4605
 3350TIP3   OH210055   2.585   2.611   2.212  0.1619 -0.7195  0.1103
 3350TIP3    H110056   2.606   2.535   2.157  0.2617  0.3735 -1.4053
 3350TIP3    H210057   2.518   2.658   2.163 -0.3004 -0.1020  1.2969
 3351TIP3   OH210058   1.072   5.574   0.841 -0.2603 -0.0874 -0.1354
 3351TIP3    H110059   1.016   5.502   0.870  0.6700 -1.2439 -1.1177
 3351TIP3    H210060   1.033   5.652   0.881 -1.7344 -1.0261  0.3359
 3352TIP3   OH210061   6.101   3.714   0.767 -0.0513 -0.3991  0.2348
 3352TIP3    H110062   6.188   3.733   0.733 -0.0528  0.9500  0.8847
 3352TIP3    H210063   6.090   3.776   0.839 -1.2935 -0.9958  0.5878
 3353TIP3   OH210064   2.889   3.923   2.413 -0.2163 -1.0503 -0.1146
 3353TIP3    H110065   2.900   4.013   2.442  2.6097 -0.6451 -2.0376
 3353TIP3    H210066   2.952   3.872   2.465 -0.2764 -1.5565 -0.5249
 3354TIP3   OH210067   3.894   2.021   2.052 -0.1182 -0.3731  0.1414
 3354TIP3    H110068   3.904   2.113   2.075  0.0618 -0.5444  0.7641
 3354TIP3    H210069   3.837   1.985   2.119 -0.1452 -0.7300 -0.0674
 3355TIP3   OH210070   4.792   1.251   0.954  0.1487  1.2219  0.1138
 3355TIP3    H110071   4.876   1.215   0.983  1.3957  3.6202 -0.3046
 3355TIP3    H210072   4.738   1.254   1.032  0.9055  0.8582  0.6615
 3356TIP3   OH210073   4.452   2.451   2.865  0.2513 -0.1911 -0.0735
 3356TIP3    H110074   4.468   2.477   2.955  0.8709  1.5460 -0.6481
 3356TIP3    H210075   4.475   2.528   2.813 -4.1844  0.4964 -1.4357
 3357TIP3   OH210076   0.784   0.754   1.047  0.4196  0.3881  0.0579
 3357TIP3    H110077   0.850   0.763   0.978 -2.2372  0.0621 -2.7779
 3357TIP3    H210078   0.777   0.660   1.061 -0.3018  0.3305 -0.6210
 3358TIP3   OH210079   3.488   4.978   4.047 -0.0902 -0.3846  0.1134
 3358TIP3    H110080   3.468   4.889   4.019 -0.9911  0.0437 -0.6552
 3358TIP3    H210081   3.581   4.976   4.068  0.3954 -0.9900 -1.9259
 3359TIP3   OH210082   2.562   1.196   2.601 -0.1379 -0.4832 -0.2331
 3359TIP3    H110083   2.490   1.250   2.632  0.9018 -0.4522  2.3160
 3359TIP3    H210084   2.641   1.247   2.618  0.8081 -2.3473  1.3721
 3360TIP3   OH210085   2.388   1.919   1.542  0.1098 -0.0836 -0.3995
 3360TIP3    H110086   2.434   1.965   1.612  0.9104  0.3779 -1.2056
 3360TIP3    H210087   2.456   1.895   1.480 -0.5318 -0.8402 -0.8278
 3361TIP3   OH210088   3.358   2.182   4.974 -0.3486 -0.0253  0.6926
 3361TIP3    H110089   3.316   2.202   5.058 -0.5159 -0.5980  0.7508
 3361TIP3    H210090   3.316   2.100   4.946 -0.6146  0.3925 -0.1621
 3362TIP3   OH210091   0.900   5.522   2.331  0.1986  0.1603  0.4386
 3362TIP3    H110092   0.833   5.564   2.384 -0.3240  0.7439 -0.6458
 3362TIP3    H210093   0.885   5.556   2.242  0.8746 -0.9859 -0.1377
 3363TIP3   OH210094   5.204   5.620   0.951 -0.4992 -0.2190 -0.2522
 3363TIP3    H110095   5.136   5.677   0.988 -0.6162  0.6622 -1.7332
 3363TIP3    H210096   5.158   5.569   0.885  0.0868 -0.2865 -0.6141
 3364TIP3   OH210097   3.393   2.621   1.756 -0.2945  0.2152 -0.2785
 3364TIP3    H110098   3.436   2.685   1.812 -1.2478 -0.5511  1.4150
 3364TIP3    H210099   3.310   2.662   1.732 -0.5126 -0.0137  0.0700
 3365TIP3   OH210100   4.226   1.842   0.863 -0.1359  0.1538 -0.0058
 3365TIP3    H110101   4.319   1.835   0.884  0.0039  0.5540 -0.4898
 3365TIP3    H210102   4.222   1.836   0.767 -0.6318 -0.1110  0.0264
 3366TIP3   OH210103   1.552   5.551   4.128  0.3586  0.1744 -0.2229
 3366TIP3    H110104   1.552   5.548   4.223  0.1123  0.3015 -0.2202
 3366TIP3    H210105   1.630   5.501   4.103 -0.7448 -1.7537 -0.0210
 3367TIP3   OH210106   1.291   1.677   3.323 -0.4719 -0.7355 -0.0294
 3367TIP3    H110107   1.213   1.630   3.292 -1.2599 -1.5516  2.8414
 3367TIP3    H210108   1.260   1.766   3.341 -0.8044 -1.0726  1.1568
 3368TIP3   OH210109   2.439   3.971   2.279  0.7121 -0.0867 -0.0550
 3368TIP3    H110110   2.512   3.917   2.309  0.7699  0.1491  0.2347
 3368TIP3    H210111   2.477   4.057   2.264  0.5370 -0.0173 -0.1051
 3369TIP3   OH210112   2.555   3.977   2.790 -0.5035  0.2226 -0.0510
 3369TIP3    H110113   2.597   4.063   2.792  0.2874 -0.1524 -0.0155
 3369TIP3    H210114   2.626   3.917   2.769 -1.2824 -0.2889 -1.3252
 3370TIP3   OH210115   2.144   5.728   1.360  0.5862 -0.1776  0.1594
 3370TIP3    H110116   2.078   5.773   1.307  0.6196  1.3229  1.3071
 3370TIP3    H210117   2.223   5.730   1.307  0.7621  1.7821  0.4033
 3371TIP3   OH210118   5.524   4.138   1.449 -0.1872 -0.2331 -0.4105
 3371TIP3    H110119   5.535   4.098   1.363  0.0146  1.9682 -1.4762
 3371TIP3    H210120   5.591   4.097   1.503  0.9575 -0.3212 -1.8291
 3372TIP3   OH210121   1.454   5.709   2.475  0.2971  0.5584  0.2931
 3372TIP3    H110122   1.417   5.622   2.490  0.2554  0.4126 -0.6061
 3372TIP3    H210123   1.393   5.752   2.416  0.2209  1.2796  0.8736
 3373TIP3   OH210124   3.291   1.933   2.154 -0.3471 -0.7943  0.2286
 3373TIP3    H110125   3.217   1.872   2.146 -0.1528 -0.9966 -0.0332
 3373TIP3    H210126   3.365   1.879   2.180  0.6153 -1.2735 -3.0349
 3374TIP3   OH210127   5.116   3.929   0.647 -0.4344  0.1222  0.2271
 3374TIP3    H110128   5.024   3.940   0.673 -0.2928 -0.1073  0.8308
 3374TIP3    H210129   5.138   4.011   0.604 -1.1128 -0.0607 -0.5161
 3375TIP3   OH210130   3.103   5.148   0.543  0.0914 -0.7110  0.6627
 3375TIP3    H110131   3.008   5.159   0.551 -0.0603 -1.2435 -0.1854
 3375TIP3    H210132   3.137   5.237   0.535 -0.2584 -0.4770  1.6558
 3376TIP3   OH210133   3.943   4.046   3.317 -0.2198 -0.0062 -0.1454
 3376TIP3    H110134   3.884   3.977   3.347  0.8566 -1.2314 -0.7477
 3376TIP3    H210135   3.975   4.086   3.398 -1.8754  0.7273  0.1901
 3377TIP3   OH210136   4.409   3.968   3.041  0.4560  0.4788  0.4497
 3377TIP3    H110137   4.316   3.965   3.061  0.6038  1.5196  1.4056
 3377TIP3    H210138   4.428   3.883   3.001 -0.7557 -0.0058  0.8578
 3378TIP3   OH210139   0.155   3.342   1.000 -0.5222 -0.0700 -0.3740
 3378TIP3    H110140   0.088   3.309   1.060  0.5548 -0.1747  0.8151
 3378TIP3    H210141   0.170   3.270   0.939 -1.2583 -0.1586 -0.4612
 3379TIP3   OH210142   6.104   0.519   0.633 -0.0487 -0.0269  0.5340
 3379TIP3    H110143   6.019   0.476   0.626  0.5932 -1.4581  1.2032
 3379TIP3    H210144   6.167   0.453   0.604  0.7696  1.4822 -1.3628
 3380TIP3   OH210145   6.181   4.562   2.895 -0.1271 -0.1488  0.1861
 3380TIP3    H110146   6.199   4.486   2.840  1.5264 -1.2679  2.0994
 3380TIP3    H210147   6.097   4.542   2.936 -0.2615 -0.3986 -0.2021
 3381TIP3   OH210148   4.362   5.491   2.886 -0.6456 -0.0782 -0.2584
 3381TIP3    H110149   4.381   5.582   2.908 -4.3035  1.0147 -1.0739
 3381TIP3    H210150   4.353   5.490   2.791 -2.3051 -0.8782 -0.1202
 3382TIP3   OH210151   1.081   0.605   2.500  0.9565  0.0398  0.2246
 3382TIP3    H110152   0.988   0.626   2.491  0.9195  0.1292  0.8213
 3382TIP3    H210153   1.118   0.679   2.549  1.1360 -0.4959  0.9109
 3383TIP3   OH210154   4.255   1.349   3.675  0.6557  0.4055 -0.1426
 3383TIP3    H110155   4.263   1.256   3.699  1.4148 -0.1859 -2.4184
 3383TIP3    H210156   4.165   1.372   3.698  0.4263 -0.8957  0.3928
 3384TIP3   OH210157   4.426   1.115   0.083  0.0768  0.4026 -0.5941
 3384TIP3    H110158   4.461   1.201   0.105 -1.9378  1.6371 -1.8307
 3384TIP3    H210159   4.333   1.119   0.108 -0.0400 -1.4685 -0.5508
 3385TIP3   OH210160   3.457   4.624   3.153  0.1589 -0.3041 -0.1634
 3385TIP3    H110161   3.504   4.702   3.124  0.1540 -0.2544 -0.0336
 3385TIP3    H210162   3.458   4.628   3.248 -0.6398  0.0146 -0.1552
 3386TIP3   OH210163   4.327   4.496   3.747 -0.1473 -0.4129 -0.1345
 3386TIP3    H110164   4.378   4.476   3.826  0.2924 -1.4141 -0.6579
 3386TIP3    H210165   4.288   4.412   3.722 -1.3838  0.1706 -0.2253
 3387TIP3   OH210166   4.761   5.407   2.761  0.0015  0.2768 -0.1670
 3387TIP3    H110167   4.687   5.426   2.703  1.1976  1.0762 -1.4918
 3387TIP3    H210168   4.731   5.334   2.815 -1.0507 -0.7315 -2.0140
 3388TIP3   OH210169   0.382   3.947   0.673  0.3923  0.1656 -0.2564
 3388TIP3    H110170   0.453   3.890   0.701  0.4945 -0.6628 -2.0490
 3388TIP3    H210171   0.422   4.006   0.610 -0.1379  0.9155  0.0974
 3389TIP3   OH210172   4.721   0.604   5.089 -0.2015  0.0873  0.3972
 3389TIP3    H110173   4.817   0.604   5.088 -0.1745 -1.5701  0.5424
 3389TIP3    H210174   4.697   0.658   5.014  0.7996  2.0985  1.4335
 3390TIP3   OH210175   2.620   1.689   2.322  0.0143  0.4741 -0.4132
 3390TIP3    H110176   2.530   1.713   2.342 -0.6405 -0.7456 -1.7501
 3390TIP3    H210177   2.653   1.651   2.404 -1.9001 -2.4506 -0.8605
 3391TIP3   OH210178   2.973   3.474   2.241  0.7682  0.4646  0.6244
 3391TIP3    H110179   2.998   3.382   2.243 -0.2620  0.1358 -0.2676
 3391TIP3    H210180   2.999   3.508   2.326 -2.0718 -1.5816  2.5192
 3392TIP3   OH210181   0.824   5.730   4.812 -0.2165  0.2179 -0.0516
 3392TIP3    H110182   0.861   5.818   4.806  0.0259  0.1658  0.6162
 3392TIP3    H210183   0.897   5.672   4.789 -0.5415  0.2017 -1.1212
 3393TIP3   OH210184   4.053   0.337   1.916  0.2752  0.1640  0.0127
 3393TIP3    H110185   4.086   0.360   1.829  0.5788  0.4758  0.2092
 3393TIP3    H210186   4.110   0.266   1.946  0.4976  0.4095  0.1724
 3394TIP3   OH210187   0.720   3.299   2.760 -0.4279  0.3147 -0.0121
 3394TIP3    H110188   0.666   3.272   2.835 -0.5030  0.3023 -0.0704
 3394TIP3    H210189   0.720   3.224   2.701 -0.3997  0.3377 -0.0415
 3395TIP3   OH210190   1.047   0.896   0.592  0.5940 -0.1170 -0.2478
 3395TIP3    H110191   0.994   0.975   0.580  1.2988  0.0241 -3.1523
 3395TIP3    H210192   1.065   0.893   0.686  0.0800  2.8536  0.0285
 3396TIP3   OH210193   3.779   3.344   0.338  0.7648 -0.1148  0.0040
 3396TIP3    H110194   3.857   3.397   0.357  0.5421 -0.2756  1.5021
 3396TIP3    H210195   3.760   3.299   0.421 -0.6840 -0.3884 -0.4485
 3397TIP3   OH210196   5.834   3.887   3.783 -0.2766  0.6588 -0.2820
 3397TIP3    H110197   5.802   3.826   3.850 -0.2020  0.7442 -0.1670
 3397TIP3    H210198   5.854   3.832   3.708 -1.8292  0.7473 -0.7823
 3398TIP3   OH210199   0.024   4.580   0.686 -0.3818  0.6234 -0.6769
 3398TIP3    H110200  -0.014   4.633   0.757 -1.8966 -0.8304 -0.3220
 3398TIP3    H210201  -0.002   4.624   0.606 -0.4743  1.1383 -0.3673
 3399TIP3   OH210202   4.695   0.207   3.729  0.4713  0.2624 -0.7318
 3399TIP3    H110203   4.601   0.223   3.736  0.2462 -0.0931 -2.5176
 3399TIP3    H210204   4.720   0.169   3.813 -0.9063  0.6870 -0.1117
 3400TIP3   OH210205   5.881   2.956   1.866  0.3564 -0.2497  0.0476
 3400TIP3    H110206   5.855   3.032   1.918 -0.2002 -1.9767  2.4330
 3400TIP3    H210207   5.799   2.912   1.845  0.6882 -0.3185 -1.1704
 3401TIP3   OH210208   4.534   5.951   4.812  0.0172 -0.4696 -0.4769
 3401TIP3    H110209   4.502   6.037   4.786  0.0402 -0.8184 -1.7318
 3401TIP3    H210210   4.458   5.906   4.849  0.1983  0.3653  1.0021
 3402TIP3   OH210211   0.027   2.293   2.576 -0.1611  0.0990  0.1763
 3402TIP3    H110212   0.014   2.380   2.615 -1.2375  0.1724 -0.2999
 3402TIP3    H210213   0.056   2.311   2.487  1.7271 -0.0656  0.7258
 3403TIP3   OH210214   1.810   1.727   3.083  0.0096  0.2484 -0.0156
 3403TIP3    H110215   1.852   1.641   3.086  3.0508  1.6265  0.3592
 3403TIP3    H210216   1.734   1.718   3.141 -0.1398 -2.3223 -0.4691
 3404TIP3   OH210217   3.225   3.773   4.406  0.5470 -0.0968 -0.2236
 3404TIP3    H110218   3.138   3.810   4.391  0.3130 -1.1870 -1.9032
 3404TIP3    H210219   3.249   3.802   4.494 -1.6497 -0.0318  0.4205
 3405TIP3   OH210220   2.999   3.304   2.592  0.1900 -0.0590 -0.1365
 3405TIP3    H110221   3.074   3.279   2.648 -0.3955  0.6018  0.9866
 3405TIP3    H210222   2.930   3.243   2.616  0.1302 -0.1830 -0.6188
 3406TIP3   OH210223   4.592   1.467   5.156 -0.3745 -0.0998 -0.3443
 3406TIP3    H110224   4.635   1.382   5.151 -0.0646  0.1177 -1.9321
 3406TIP3    H210225   4.515   1.452   5.211  0.7913 -0.8840  1.1501
 3407TIP3   OH210226   1.028   5.289   2.800  0.5254  0.1647  0.4772
 3407TIP3    H110227   0.965   5.236   2.849  0.7443  0.6560  1.3050
 3407TIP3    H210228   1.002   5.279   2.709 -0.6053  0.1490  0.7871
 3408TIP3   OH210229   1.336   3.654   3.045 -0.2908  0.5797 -0.1371
 3408TIP3    H110230   1.364   3.597   3.117 -1.0937 -0.0472 -0.3063
 3408TIP3    H210231   1.374   3.614   2.967 -0.3400  0.6231 -0.1835
 3409TIP3   OH210232   0.965   3.872   4.148  0.6435  0.2003  0.1707
 3409TIP3    H110233   0.991   3.819   4.224  1.4279 -0.2944 -0.4323
 3409TIP3    H210234   0.870   3.880   4.156  0.6192 -0.5543  0.7456
 3410TIP3   OH210235   4.935   4.802   1.205  0.1804  0.1503  0.2994
 3410TIP3    H110236   4.991   4.871   1.170 -0.3179 -0.7326 -2.5192
 3410TIP3    H210237   4.872   4.785   1.134 -1.7452 -0.9672  2.1694
 3411TIP3   OH210238   5.107   5.378   1.705  0.1359  0.1115 -0.2281
 3411TIP3    H110239   5.130   5.461   1.662  1.2059  0.0828  0.2555
 3411TIP3    H210240   5.012   5.380   1.712 -0.3209 -0.5214 -3.9291
 3412TIP3   OH210241   1.456   0.544   3.787  0.1123 -0.4190  0.0638
 3412TIP3    H110242   1.480   0.464   3.740  0.4671 -1.6057  2.1691
 3412TIP3    H210243   1.532   0.564   3.841 -0.6017  0.3828  0.8074
 3413TIP3   OH210244   5.414   1.188   4.507 -0.3680 -0.3966  0.3066
 3413TIP3    H110245   5.349   1.257   4.519  0.6391  0.6551 -0.2043
 3413TIP3    H210246   5.408   1.163   4.415 -0.0985 -0.3481  0.2741
 3414TIP3   OH210247   4.421   0.695   0.356  0.5444 -0.0144 -0.2381
 3414TIP3    H110248   4.409   0.682   0.450  0.3306 -2.4338 -0.5404
 3414TIP3    H210249   4.514   0.678   0.341  0.4861 -0.1051 -0.5157
 3415TIP3   OH210250   0.102   5.809   2.227  0.2126 -0.0453 -0.0728
 3415TIP3    H110251   0.109   5.851   2.141 -2.3669 -0.3457 -0.5147
 3415TIP3    H210252   0.096   5.716   2.207  2.8550 -0.4422  0.7071
 3416TIP3   OH210253   4.011   4.324   1.647 -0.7154 -0.6827  0.3350
 3416TIP3    H110254   3.972   4.410   1.629 -1.7307 -1.7471 -3.2708
 3416TIP3    H210255   3.998   4.312   1.741 -1.5069  2.6130  0.7846
 3417TIP3   OH210256   1.446   5.843   2.047  0.6645 -0.0145 -0.2625
 3417TIP3    H110257   1.421   5.863   1.957  0.4418 -1.2594 -0.5022
 3417TIP3    H210258   1.414   5.917   2.098 -1.0632 -0.2549 -0.9351
 3418TIP3   OH210259   4.099   0.106   0.778  0.4141  0.5337  0.1159
 3418TIP3    H110260   4.145   0.186   0.804 -0.4880  2.2416 -3.0229
 3418TIP3    H210261   4.166   0.037   0.781  2.1547  2.1353 -0.4966
 3419TIP3   OH210262   4.829   3.749   1.318 -0.1474 -0.4026 -0.1859
 3419TIP3    H110263   4.773   3.745   1.241  0.3403 -0.0498 -0.5714
 3419TIP3    H210264   4.831   3.659   1.352 -0.8912 -0.4230 -0.1975
 3420TIP3   OH210265   1.051   4.185   2.805  0.0293  0.0561  0.0223
 3420TIP3    H110266   1.062   4.091   2.795 -1.9136 -0.0973 -1.3719
 3420TIP3    H210267   0.973   4.194   2.860  0.4749  0.8715  0.5445
 3421TIP3   OH210268   5.562   1.629   5.082 -0.0206  0.3847 -0.5926
 3421TIP3    H110269   5.533   1.720   5.093  0.7416  1.0291 -3.1934
 3421TIP3    H210270   5.480   1.580   5.070 -0.4579  0.6260  1.1547
 3422TIP3   OH210271   5.303   4.395   3.720  0.1512  0.1054 -0.2524
 3422TIP3    H110272   5.287   4.488   3.735 -0.7137  0.0956 -1.0579
 3422TIP3    H210273   5.394   4.381   3.750 -0.0501  0.9757  0.8328
 3423TIP3   OH210274   6.145   1.449   1.323 -0.2442  0.2706  0.4771
 3423TIP3    H110275   6.126   1.461   1.416  0.5601  0.0329  0.6758
 3423TIP3    H210276   6.210   1.380   1.320 -1.4348 -0.8624 -0.3788
 3424TIP3   OH210277   3.678   4.620   1.870  0.2709 -0.1789 -0.5030
 3424TIP3    H110278   3.733   4.566   1.928 -1.9742  0.2816  2.3107
 3424TIP3    H210279   3.639   4.557   1.809  0.5250 -1.1733  0.3254
 3425TIP3   OH210280   5.067   0.398   0.064  0.1268  0.0783 -0.1487
 3425TIP3    H110281   5.034   0.383   0.152  0.9835  0.2550  0.2099
 3425TIP3    H210282   5.148   0.348   0.059  0.6928  0.9941 -0.4325
 3426TIP3   OH210283   2.617   0.297   0.016 -0.0560 -0.0869 -0.2793
 3426TIP3    H110284   2.575   0.382   0.005  0.2641  0.2712  1.1178
 3426TIP3    H210285   2.545   0.237   0.038  0.0118  0.3298  1.1458
 3427TIP3   OH210286   3.064   1.630   4.136  0.1212  0.4596  0.4117
 3427TIP3    H110287   3.112   1.564   4.085  0.6558  2.3383 -1.6692
 3427TIP3    H210288   3.127   1.661   4.201  0.3510  0.0253  0.4005
 3428TIP3   OH210289   0.036   5.453   4.136 -0.5794 -0.3810  0.0281
 3428TIP3    H110290   0.113   5.397   4.147 -0.4287 -0.2861 -0.5155
 3428TIP3    H210291  -0.034   5.392   4.113 -1.1423 -0.7167  2.3575
 3429TIP3   OH210292   2.074   0.074   3.389 -0.1790 -0.1806 -0.5526
 3429TIP3    H110293   2.024  -0.004   3.414  0.4609 -0.1961  0.7347
 3429TIP3    H210294   2.108   0.108   3.472 -2.0854  2.6221 -0.7891
 3430TIP3   OH210295   4.887   0.719   0.762  0.1230 -0.4148  0.2752
 3430TIP3    H110296   4.917   0.644   0.813 -0.1212 -0.2019  0.7411
 3430TIP3    H210297   4.879   0.686   0.672  0.2925 -0.8658  0.4237
 3431TIP3   OH210298   4.152   2.727   5.078 -0.5506  0.3670  0.0845
 3431TIP3    H110299   4.246   2.714   5.072 -0.5920  0.6061 -2.0171
 3431TIP3    H210300   4.142   2.820   5.101 -0.2734  0.2229  0.7838
 3432TIP3   OH210301   0.712   2.676   4.615 -0.1120 -0.2117 -0.1290
 3432TIP3    H110302   0.780   2.621   4.577  1.3918  0.4099  1.5041
 3432TIP3    H210303   0.713   2.654   4.709 -1.6211  0.3844  0.0553
 3433TIP3   OH210304   0.097   1.079   2.400  0.1974 -0.1589 -0.0290
 3433TIP3    H110305   0.056   1.036   2.475  1.3832  0.9729  1.3219
 3433TIP3    H210306   0.159   1.015   2.367  1.0557 -0.0074  1.1980
 3434TIP3   OH210307   3.373   5.810   1.130 -0.1861 -0.3873  0.2976
 3434TIP3    H110308   3.317   5.859   1.190  1.9170  1.6541  0.7362
 3434TIP3    H210309   3.458   5.805   1.175  0.6246 -1.4681 -1.2399
 3435TIP3   OH210310   5.491   0.663   0.865  0.0020 -0.8347 -0.2826
 3435TIP3    H110311   5.553   0.608   0.816  0.9206  0.0432 -0.1295
 3435TIP3    H210312   5.538   0.688   0.944  1.1099  3.1985 -1.9530
 3436TIP3   OH210313   1.927   5.850   2.483 -0.3558 -0.2749 -0.8823
 3436TIP3    H110314   1.857   5.904   2.520 -0.3765  0.0524 -1.3943
 3436TIP3    H210315   1.920   5.767   2.530 -0.1955  0.2309  0.0495
 3437TIP3   OH210316   1.201   4.957   3.583  0.3229 -0.7520  0.4563
 3437TIP3    H110317   1.200   5.023   3.514  0.9544 -0.5816  0.6080
 3437TIP3    H210318   1.120   4.907   3.570  0.0943 -0.2731  0.0313
 3438TIP3   OH210319   0.164   5.542   2.726  0.6396 -0.8636 -0.4367
 3438TIP3    H110320   0.209   5.468   2.766 -0.0193 -0.5215  1.0116
 3438TIP3    H210321   0.166   5.611   2.793 -1.7746 -0.7581 -0.3762
 3439TIP3   OH210322   2.790   2.087   0.340  0.4701 -0.1865  0.4472
 3439TIP3    H110323   2.826   2.170   0.372  0.7711  0.0255 -0.4103
 3439TIP3    H210324   2.712   2.073   0.394  0.1620  0.8837  0.3090
 3440TIP3   OH210325   1.407   5.126   2.170 -0.5136  0.1777  0.4508
 3440TIP3    H110326   1.427   5.188   2.240 -0.6415 -0.6671  1.2492
 3440TIP3    H210327   1.314   5.139   2.153 -0.4713  0.4202  0.3881
 3441TIP3   OH210328   5.581   0.773   0.257 -0.0872 -0.3011 -0.2070
 3441TIP3    H110329   5.605   0.772   0.349 -1.6041  0.8533  0.2498
 3441TIP3    H210330   5.650   0.825   0.215 -0.7144  1.3958  0.7529
 3442TIP3   OH210331   1.555   2.277   3.260  0.0137  0.1004 -0.3806
 3442TIP3    H110332   1.468   2.294   3.227 -0.1373  1.0491  0.4319
 3442TIP3    H210333   1.613   2.291   3.185 -0.3020  2.2679 -0.2740
 3443TIP3   OH210334   1.687   2.379   3.787 -0.6040  0.0125  0.2872
 3443TIP3    H110335   1.736   2.424   3.719 -2.5019 -0.9595 -1.8426
 3443TIP3    H210336   1.754   2.348   3.848  1.0565  2.0013 -0.4105
 3444TIP3   OH210337   2.953   5.150   0.897  0.1323 -0.2023  0.6963
 3444TIP3    H110338   2.935   5.082   0.833 -0.6339 -0.0827  0.7757
 3444TIP3    H210339   3.009   5.212   0.851 -2.0516  0.9556 -0.5772
 3445TIP3   OH210340   0.147   3.676   1.041  0.3614  0.2674 -0.2341
 3445TIP3    H110341   0.129   3.600   0.985  1.4327 -1.0427  1.1328
 3445TIP3    H210342   0.085   3.743   1.010  0.0373 -0.8086 -2.1101
 3446TIP3   OH210343   3.162   0.163   0.493 -0.1890  0.6512  0.7319
 3446TIP3    H110344   3.114   0.238   0.457 -0.0456  0.1873 -0.4875
 3446TIP3    H210345   3.224   0.140   0.423 -1.0347 -1.3469  0.5955
 3447TIP3   OH210346   4.607   5.337   3.440 -0.4269  0.3250  0.3344
 3447TIP3    H110347   4.681   5.398   3.439  0.0413 -0.2364  0.3763
 3447TIP3    H210348   4.554   5.364   3.515  0.9462 -0.6835  1.7307
 3448TIP3   OH210349   4.387   0.838   4.308 -0.6271 -0.2624 -0.2371
 3448TIP3    H110350   4.361   0.836   4.216 -0.0668  0.5277 -0.4194
 3448TIP3    H210351   4.384   0.746   4.335 -1.0387 -0.4757 -0.9732
 3449TIP3   OH210352   2.296   2.269   4.853 -0.6582  0.2088  0.6301
 3449TIP3    H110353   2.261   2.283   4.940 -0.1882  0.2467  0.8167
 3449TIP3    H210354   2.225   2.228   4.804 -1.2644  1.1009  0.7388
 3450TIP3   OH210355   5.173   3.693   3.158  0.0606 -0.6470 -0.1669
 3450TIP3    H110356   5.193   3.602   3.137  0.5620 -0.7056  0.4979
 3450TIP3    H210357   5.164   3.694   3.254 -0.3068 -0.0697 -0.2036
 3451TIP3   OH210358   4.885   0.936   1.336  0.1605  0.1659  0.3291
 3451TIP3    H110359   4.911   0.891   1.417 -1.1490 -0.2538  0.5438
 3451TIP3    H210360   4.931   0.888   1.267 -1.4416 -1.7648  0.5250
 3452TIP3   OH210361   5.054   3.508   2.889  0.1754 -0.1027 -0.1302
 3452TIP3    H110362   5.069   3.458   2.969  1.3718  0.5549  0.0849
 3452TIP3    H210363   5.042   3.442   2.821  0.1417 -0.6711  0.4151
 3453TIP3   OH210364   1.305   3.307   2.843  0.9171  0.7554 -0.1901
 3453TIP3    H110365   1.256   3.297   2.924  3.1766  1.4327  1.3794
 3453TIP3    H210366   1.246   3.276   2.775 -1.7629  1.8253  1.4691
 3454TIP3   OH210367   1.339   2.141   4.285  0.0236  0.0616  0.1203
 3454TIP3    H110368   1.267   2.190   4.324 -0.5792  0.0121 -0.8945
 3454TIP3    H210369   1.398   2.208   4.250 -2.0826  0.2253 -3.6311
 3455TIP3   OH210370   3.363   1.525   2.131 -0.1488 -0.7070 -0.5845
 3455TIP3    H110371   3.286   1.558   2.085 -0.5515  1.4353  1.4503
 3455TIP3    H210372   3.334   1.442   2.169 -1.4312 -0.0417 -0.0431
 3456TIP3   OH210373   3.307   2.729   2.564 -0.6188  0.1304  0.1848
 3456TIP3    H110374   3.232   2.669   2.569 -1.5921  1.3569  0.7458
 3456TIP3    H210375   3.282   2.792   2.496  0.4961 -0.2047 -0.5655
 3457TIP3   OH210376   1.871   5.518   2.891 -0.0144  0.2160 -0.3938
 3457TIP3    H110377   1.792   5.565   2.919 -1.6192 -2.5680  0.1606
 3457TIP3    H210378   1.933   5.530   2.963 -0.3689  1.4088 -0.2648
 3458TIP3   OH210379   5.776   3.455   4.102 -0.3615 -0.0182  0.4848
 3458TIP3    H110380   5.862   3.435   4.065  0.1516  2.0491  0.4331
 3458TIP3    H210381   5.721   3.382   4.075  1.1566 -0.9455 -0.2453
 3459TIP3   OH210382   2.626   4.350   2.630  0.1604 -0.1498  0.1420
 3459TIP3    H110383   2.535   4.324   2.613  0.8560 -2.2024 -0.7514
 3459TIP3    H210384   2.660   4.376   2.545  0.9359 -1.2543  0.0898
 3460TIP3   OH210385   5.939   5.397   2.770 -0.4198  0.3111  0.1877
 3460TIP3    H110386   5.990   5.316   2.775  1.8444  1.7031  0.8884
 3460TIP3    H210387   5.862   5.379   2.823  1.4892 -0.4259  2.9534
 3461TIP3   OH210388   0.498   0.180   0.107 -0.5306  0.6241 -0.2782
 3461TIP3    H110389   0.439   0.106   0.123 -0.2487  0.4798  0.1003
 3461TIP3    H210390   0.513   0.179   0.012  1.4382 -1.3238 -0.0087
 3462TIP3   OH210391   0.098   1.750   0.768 -0.3135 -0.1137  0.0318
 3462TIP3    H110392   0.180   1.744   0.816  0.0245  1.0010 -0.3638
 3462TIP3    H210393   0.044   1.810   0.820 -0.0326  0.9113 -0.8215
 3463TIP3   OH210394   4.472   5.851   3.565  0.1210  0.0558 -0.4087
 3463TIP3    H110395   4.383   5.866   3.533 -0.1471  0.9704  0.7187
 3463TIP3    H210396   4.528   5.882   3.494 -0.4614  1.9880 -0.0924
 3464TIP3   OH210397   1.111   3.007   5.113  0.3032 -0.6091 -0.1582
 3464TIP3    H110398   1.094   3.095   5.079  1.7516 -0.5777 -0.8952
 3464TIP3    H210399   1.204   2.992   5.094 -0.2350 -2.8519 -1.3455
 3465TIP3   OH210400   6.286   4.569   4.023  0.0293  0.4029 -0.2325
 3465TIP3    H110401   6.204   4.576   4.072  0.1204 -1.1069  0.1996
 3465TIP3    H210402   6.332   4.496   4.065 -0.8658 -2.5515 -3.9032
 3466TIP3   OH210403   5.058   2.808   4.600 -0.1242  0.1986 -0.5800
 3466TIP3    H110404   5.045   2.859   4.680 -0.3023  0.4268 -0.7563
 3466TIP3    H210405   5.079   2.720   4.631 -1.6186 -0.0755 -0.2908
 3467TIP3   OH210406   1.954   5.608   2.621 -0.6839 -0.2240 -0.2728
 3467TIP3    H110407   1.970   5.534   2.563 -0.0589  0.4578 -0.9851
 3467TIP3    H210408   1.944   5.569   2.708  1.1361 -1.0275 -0.3855
 3468TIP3   OH210409   2.456   0.962   4.196 -0.3204 -0.4216 -0.0193
 3468TIP3    H110410   2.370   0.923   4.210 -0.7953 -0.5835 -2.8031
 3468TIP3    H210411   2.449   1.049   4.236 -1.3256 -0.9090  0.9115
 3469TIP3   OH210412   4.617   5.893   4.538 -0.1190  0.0756 -0.5179
 3469TIP3    H110413   4.590   5.912   4.628 -0.3962 -0.4291 -0.4879
 3469TIP3    H210414   4.694   5.837   4.548 -1.0503 -1.2645 -0.5670
 3470TIP3   OH210415   2.366   1.518   0.460  0.0020 -0.4486  0.4605
 3470TIP3    H110416   2.404   1.430   0.455  1.2584  0.1236 -0.6121
 3470TIP3    H210417   2.316   1.527   0.379  0.4102  0.0584  0.2648
 3471TIP3   OH210418   4.173   4.382   1.397  0.2495 -0.2020 -0.1299
 3471TIP3    H110419   4.107   4.317   1.420  1.0484 -0.3275  2.0509
 3471TIP3    H210420   4.203   4.357   1.310 -0.8244 -1.5903 -0.1308
 3472TIP3   OH210421   3.767   0.400   0.812  0.5220 -0.2516 -0.1319
 3472TIP3    H110422   3.818   0.406   0.732  0.7876 -0.9026 -0.0159
 3472TIP3    H210423   3.720   0.483   0.817  0.6987 -0.1055 -0.8269
 3473TIP3   OH210424   4.236   3.525   0.077  0.3731 -0.2706 -0.5214
 3473TIP3    H110425   4.170   3.471   0.034 -1.2678  0.1756  1.2911
 3473TIP3    H210426   4.192   3.608   0.093  0.4340 -0.7669  2.9572
 3474TIP3   OH210427   5.428   2.824   0.777  0.4287  0.1406 -0.1533
 3474TIP3    H110428   5.337   2.848   0.760  0.0754 -0.0197  1.3748
 3474TIP3    H210429   5.456   2.777   0.698 -0.8499  0.0644 -0.5737
 3475TIP3   OH210430   4.821   1.417   3.922  0.0434  0.1215 -0.0875
 3475TIP3    H110431   4.867   1.491   3.881  1.9188 -1.2666 -0.6447
 3475TIP3    H210432   4.835   1.429   4.016  0.1918  0.5548 -0.1626
 3476TIP3   OH210433   6.182   4.393   0.556  0.8106  0.2832 -0.0798
 3476TIP3    H110434   6.087   4.383   0.568  0.6923  2.1807  0.9650
 3476TIP3    H210435   6.220   4.364   0.639  1.0494  0.5984 -0.0761
 3477TIP3   OH210436   2.953   0.999   3.784 -0.4145  0.5296 -0.0595
 3477TIP3    H110437   3.019   0.964   3.844 -1.4081  0.1978  0.8911
 3477TIP3    H210438   2.882   0.935   3.787  0.0235 -0.1522 -2.6159
 3478TIP3   OH210439   5.522   1.948   2.732 -0.4659  0.2562 -0.1042
 3478TIP3    H110440   5.491   1.979   2.647  0.5767 -0.9411 -0.9582
 3478TIP3    H210441   5.443   1.922   2.779 -0.9172 -2.1439 -1.9789
 3479TIP3   OH210442   2.100   4.642   4.023 -0.7215 -0.3575  0.0193
 3479TIP3    H110443   2.065   4.569   3.972 -1.2856 -0.3872  0.4397
 3479TIP3    H210444   2.036   4.655   4.093 -1.2664  1.3659 -0.7573
 3480TIP3   OH210445   1.514   3.359   1.485 -0.4154  0.9660  0.5658
 3480TIP3    H110446   1.552   3.420   1.549  1.1588 -0.1445  0.7413
 3480TIP3    H210447   1.438   3.321   1.530 -0.2493  1.3496  1.1790
 3481TIP3   OH210448   2.681   1.215   1.198 -0.6751 -0.2995 -0.3664
 3481TIP3    H110449   2.761   1.260   1.172 -1.3955 -0.4724 -3.2714
 3481TIP3    H210450   2.711   1.135   1.241  0.7100 -0.0783 -0.8652
 3482TIP3   OH210451   2.114   0.724   0.759 -0.1726  0.4120  0.2020
 3482TIP3    H110452   2.198   0.680   0.744 -0.0067  1.4358 -2.2731
 3482TIP3    H210453   2.138   0.816   0.775 -0.7659  0.4673  0.8031
 3483TIP3   OH210454   3.054   3.250   5.127  0.2919  0.1851  0.1467
 3483TIP3    H110455   3.004   3.262   5.047  0.7804  0.8221 -0.0705
 3483TIP3    H210456   3.007   3.181   5.174  1.7866 -2.5989 -2.1345
 3484TIP3   OH210457   6.003   3.794   4.189  0.6294 -0.3781  0.1712
 3484TIP3    H110458   6.029   3.732   4.120 -1.2105  0.2371 -1.1549
 3484TIP3    H210459   5.982   3.738   4.264  0.1959 -1.3009 -0.6031
 3485TIP3   OH210460   2.245   2.642   3.221  0.6126  0.1858  0.1228
 3485TIP3    H110461   2.246   2.593   3.140 -0.3551  2.1361 -1.1488
 3485TIP3    H210462   2.331   2.627   3.260  1.1138 -0.7540 -1.2811
 3486TIP3   OH210463   0.964   2.543   4.591  0.2139  0.3098  0.5752
 3486TIP3    H110464   0.945   2.477   4.657  0.4604 -1.1992 -0.8134
 3486TIP3    H210465   1.050   2.578   4.616  0.9736 -1.2680  0.2978
 3487TIP3   OH210466   3.750   2.179   2.383 -0.4326 -0.0377 -0.0999
 3487TIP3    H110467   3.705   2.119   2.324 -0.8775  0.7265 -0.5583
 3487TIP3    H210468   3.682   2.238   2.414  0.3100  1.4820 -1.2255
 3488TIP3   OH210469   1.485   4.220   4.529  0.5496 -0.1735  0.2251
 3488TIP3    H110470   1.477   4.289   4.595  1.7719  0.1267  0.0840
 3488TIP3    H210471   1.505   4.142   4.580  1.8167  0.1225  0.2067
 3489TIP3   OH210472   0.020   5.392   4.782  0.3164 -0.1649 -0.0899
 3489TIP3    H110473   0.063   5.366   4.863 -1.1320 -1.4216  0.3339
 3489TIP3    H210474  -0.025   5.474   4.803  0.9276  0.1543  0.0026
 3490TIP3   OH210475   1.061   3.365   3.696 -0.1391 -0.0503  0.5499
 3490TIP3    H110476   1.049   3.281   3.652 -0.0319  0.9407 -1.5410
 3490TIP3    H210477   0.985   3.373   3.754  0.4651 -2.0628  1.7152
 3491TIP3   OH210478   5.454   3.757   3.385  0.2871 -0.2107 -0.1484
 3491TIP3    H110479   5.494   3.805   3.312 -0.7628 -0.2925 -0.7892
 3491TIP3    H210480   5.368   3.797   3.396  0.1007 -0.7725  0.4824
 3492TIP3   OH210481   5.146   0.517   3.859  0.3549  0.6171  0.4300
 3492TIP3    H110482   5.228   0.566   3.854  2.3664 -2.4125  0.8325
 3492TIP3    H210483   5.116   0.511   3.769  2.1436 -0.5435 -0.1462
 3493TIP3   OH210484   2.067   2.468   4.815  0.2041 -0.5641 -0.0884
 3493TIP3    H110485   1.980   2.430   4.808  0.1976 -0.4363 -0.7931
 3493TIP3    H210486   2.104   2.431   4.895 -0.8564  0.1254  0.7477
 3494TIP3   OH210487   2.584   4.482   1.188  0.1440  0.2322  0.6505
 3494TIP3    H110488   2.500   4.438   1.195 -0.5457  1.5436  0.8994
 3494TIP3    H210489   2.620   4.451   1.104 -1.9530  1.8798 -0.9812
 3495TIP3   OH210490   1.085   3.927   0.271  0.4243  0.8061 -0.4715
 3495TIP3    H110491   1.129   3.862   0.325 -2.6403 -0.0366  1.2352
 3495TIP3    H210492   1.109   3.903   0.181  0.3112 -2.0437  0.1568
 3496TIP3   OH210493   5.719   3.486   2.879 -0.6019  0.0827 -0.1364
 3496TIP3    H110494   5.725   3.547   2.953 -0.6372  1.5181 -1.2870
 3496TIP3    H210495   5.672   3.535   2.811 -1.2831 -1.4949 -0.8442
 3497TIP3   OH210496   0.788   3.089   3.711 -0.3855 -0.6899 -0.1235
 3497TIP3    H110497   0.712   3.120   3.661 -0.7468  0.0537  0.8444
 3497TIP3    H210498   0.782   2.993   3.707 -2.1882 -0.6873  1.0492
 3498TIP3   OH210499   2.061   0.620   2.512 -0.3342 -0.4659 -0.1957
 3498TIP3    H110500   2.043   0.527   2.525  0.6265 -0.6143  0.1461
 3498TIP3    H210501   2.077   0.653   2.600 -1.2632  0.1620 -0.2487
 3499TIP3   OH210502   5.972   3.814   0.328  0.0287  0.0233 -0.1260
 3499TIP3    H110503   6.002   3.727   0.354 -0.1309 -0.1482 -0.5050
 3499TIP3    H210504   6.020   3.874   0.384 -0.7155 -0.3587  0.9418
 3500TIP3   OH210505   1.597   3.132   4.138 -0.4209 -0.0710 -0.2299
 3500TIP3    H110506   1.548   3.164   4.062 -1.8966 -0.2692  0.5787
 3500TIP3    H210507   1.668   3.195   4.150  0.4682 -0.5930 -2.3540
 3501TIP3   OH210508   0.238   3.474   3.350  0.5096 -0.4414  0.5534
 3501TIP3    H110509   0.286   3.516   3.421  1.9511 -1.3605  0.1678
 3501TIP3    H210510   0.171   3.421   3.394 -0.3955  1.0707  1.0843
 3502TIP3   OH210511   4.297   4.464   2.723  0.1105  0.3135 -0.1325
 3502TIP3    H110512   4.277   4.489   2.813 -2.2512  2.3562 -1.1174
 3502TIP3    H210513   4.233   4.397   2.701 -0.4656  1.0657 -0.8060
 3503TIP3   OH210514   1.263   2.384   1.421 -0.4344  0.9946  0.1479
 3503TIP3    H110515   1.295   2.362   1.333 -0.0556  0.2080  0.4655
 3503TIP3    H210516   1.185   2.436   1.406 -0.1330  1.2268 -0.6567
 3504TIP3   OH210517   3.495   2.133   2.792  0.2232  0.0008 -0.3312
 3504TIP3    H110518   3.561   2.194   2.759 -1.7381  1.3941 -1.9240
 3504TIP3    H210519   3.415   2.186   2.797 -0.7465 -1.5336  1.8377
 3505TIP3   OH210520  -0.001   0.147   2.380  0.1601  0.3713 -0.1736
 3505TIP3    H110521  -0.036   0.227   2.420  0.3890  0.2164  0.3528
 3505TIP3    H210522   0.044   0.177   2.301  0.0698  0.7405 -0.0868
 3506TIP3   OH210523   3.161   4.908   2.703  0.2284 -0.4403  0.0476
 3506TIP3    H110524   3.134   4.903   2.794  0.2120 -0.8737  0.0216
 3506TIP3    H210525   3.219   4.984   2.699 -3.4688  2.6670 -0.5392
 3507TIP3   OH210526   2.874   0.026   2.462 -0.1477 -0.4821 -0.3247
 3507TIP3    H110527   2.883  -0.060   2.502 -1.5754  0.3117  1.9306
 3507TIP3    H210528   2.781   0.046   2.470  0.3551  1.8297  0.5769
 3508TIP3   OH210529   5.880   2.065   4.486  0.0520 -0.2991  0.1887
 3508TIP3    H110530   5.972   2.081   4.508  0.2050 -0.1067 -0.5510
 3508TIP3    H210531   5.834   2.144   4.513  0.5227  0.7033 -1.7997
 3509TIP3   OH210532   6.306   1.484   3.012  0.2554  0.1370 -0.5960
 3509TIP3    H110533   6.270   1.531   2.937 -0.6347 -1.7066 -1.3858
 3509TIP3    H210534   6.243   1.498   3.082 -0.2849 -0.2613 -0.9858
 3510TIP3   OH210535   2.446   0.362   4.417  0.0955  0.1832  0.6332
 3510TIP3    H110536   2.502   0.432   4.450  0.1604  1.1608 -1.4276
 3510TIP3    H210537   2.506   0.301   4.374 -0.3164  1.1439 -1.4250
 3511TIP3   OH210538   0.711   5.169   4.581 -0.1515 -0.2443 -0.1109
 3511TIP3    H110539   0.696   5.201   4.670 -1.5456  0.6516 -0.6379
 3511TIP3    H210540   0.625   5.171   4.540  0.4308 -0.9152 -1.3995
 3512TIP3   OH210541   2.885   3.301   0.591  0.0422  0.0618  0.1564
 3512TIP3    H110542   2.900   3.250   0.511 -0.0152  0.1537  0.0879
 3512TIP3    H210543   2.880   3.392   0.562  0.0427  0.0976  0.2670
 3513TIP3   OH210544   0.441   0.358   4.436  0.4070  0.2728  0.0379
 3513TIP3    H110545   0.375   0.303   4.476  0.5480  0.0655 -0.0146
 3513TIP3    H210546   0.398   0.442   4.423 -1.2506 -0.9584 -3.8467
 3514TIP3   OH210547   1.903   2.450   1.682 -0.2939  0.6123  0.2327
 3514TIP3    H110548   1.832   2.492   1.633 -0.3815 -1.0762 -1.1895
 3514TIP3    H210549   1.925   2.372   1.630  1.1674 -0.0386  1.7431
 3515TIP3   OH210550   0.679   0.206   4.748 -0.0344  0.7153  0.3436
 3515TIP3    H110551   0.587   0.230   4.735  0.3742  2.0649 -0.2664
 3515TIP3    H210552   0.693   0.215   4.842 -1.2977 -2.5894  0.9747
 3516TIP3   OH210553   0.155   1.363   3.483 -0.3387  0.3955  0.1236
 3516TIP3    H110554   0.165   1.281   3.434  0.7155  0.4649  0.2076
 3516TIP3    H210555   0.210   1.426   3.436  0.2019  0.6220  1.0323
 3517TIP3   OH210556   1.110   4.664   3.124  0.4805  0.0709 -0.1150
 3517TIP3    H110557   1.118   4.590   3.184  2.1772  0.1918 -0.1555
 3517TIP3    H210558   1.082   4.737   3.179 -1.0356 -0.5249 -0.0460
 3518TIP3   OH210559   2.348   0.508   1.258  0.7223 -0.0976  0.3904
 3518TIP3    H110560   2.396   0.427   1.237 -1.4799 -1.0598 -1.4007
 3518TIP3    H210561   2.377   0.571   1.192  1.1229  0.0080  0.6676
 3519TIP3   OH210562   1.125   4.670   0.225 -0.6299  0.1846 -0.2207
 3519TIP3    H110563   1.218   4.682   0.211 -0.1067 -2.3950  0.4237
 3519TIP3    H210564   1.085   4.687   0.140  0.2168  2.5048 -0.2248
 3520TIP3   OH210565   6.163   0.104   4.786  0.0168  0.3065  0.2203
 3520TIP3    H110566   6.157   0.198   4.802 -0.7367  0.2014  0.5899
 3520TIP3    H210567   6.222   0.072   4.854  1.1691  0.6699 -0.5886
 3521TIP3   OH210568   1.271   3.893   0.570  0.7036  0.0809  0.0987
 3521TIP3    H110569   1.317   3.854   0.644  2.2602  1.2407 -0.2187
 3521TIP3    H210570   1.280   3.988   0.583 -0.5639  0.3272 -0.6316
 3522TIP3   OH210571   0.815   0.068   2.089 -0.6402 -0.2413  0.1967
 3522TIP3    H110572   0.890   0.093   2.143  0.4449 -1.5415 -0.6284
 3522TIP3    H210573   0.753   0.140   2.099  0.2497  0.3544  1.7777
 3523TIP3   OH210574   0.166   4.130   3.942 -0.0805  0.2817 -0.1395
 3523TIP3    H110575   0.117   4.206   3.910 -1.0551 -0.4915 -0.4907
 3523TIP3    H210576   0.106   4.057   3.934  0.0027 -0.1519  2.4487
 3524TIP3   OH210577   1.007   5.821   4.112  0.0769 -0.1260 -0.0610
 3524TIP3    H110578   0.935   5.877   4.082  1.3240  1.9570  0.6209
 3524TIP3    H210579   0.964   5.743   4.148 -1.7612  0.5675 -0.6529
 3525TIP3   OH210580   4.974   4.166   4.413 -0.3501 -0.8208 -0.3388
 3525TIP3    H110581   4.975   4.245   4.359 -0.0091 -1.1271 -0.7888
 3525TIP3    H210582   4.909   4.109   4.372 -0.1872 -1.0015 -0.3471
 3526TIP3   OH210583   1.682   3.414   3.898 -0.1903 -0.3472  0.1345
 3526TIP3    H110584   1.679   3.380   3.809 -2.7954  0.6352 -0.2490
 3526TIP3    H210585   1.663   3.508   3.888  0.4260 -0.0323  1.6489
 3527TIP3   OH210586   0.536   4.484   2.184 -0.5248  0.7221  0.7319
 3527TIP3    H110587   0.624   4.447   2.192  0.7120  3.2016 -0.4174
 3527TIP3    H210588   0.530   4.549   2.254 -1.0893  1.2271  0.2294
 3528TIP3   OH210589   5.811   5.372   4.937 -0.3358  0.2958  0.3931
 3528TIP3    H110590   5.856   5.389   5.019  0.1400  0.5782  0.0760
 3528TIP3    H210591   5.862   5.302   4.896 -0.5212  0.2173  0.2937
 3529TIP3   OH210592   5.246   5.720   4.565  0.0020 -0.3342  0.6667
 3529TIP3    H110593   5.177   5.772   4.523  1.0183  0.2465 -0.3444
 3529TIP3    H210594   5.241   5.744   4.657 -0.8252  0.0756  0.5291
 3530TIP3   OH210595   2.125   5.158   1.735  0.1198  0.0630 -0.5492
 3530TIP3    H110596   2.043   5.123   1.701  0.0982  0.3368 -0.7777
 3530TIP3    H210597   2.114   5.253   1.734 -1.3239  0.1447  3.6372
 3531TIP3   OH210598   2.389   5.161   3.619 -0.0231  0.2228 -0.3440
 3531TIP3    H110599   2.438   5.170   3.700  0.1853 -0.3251 -0.4029
 3531TIP3    H210600   2.374   5.067   3.610 -1.4066  0.4010 -0.1481
 3532TIP3   OH210601   2.067   5.940   1.158  0.0652 -0.2265 -0.3361
 3532TIP3    H110602   2.025   6.024   1.136  0.0618 -0.5274 -1.5645
 3532TIP3    H210603   2.016   5.875   1.110  0.9614 -0.7740 -0.5619
 3533TIP3   OH210604   4.410   3.485   1.759  0.4139  0.1939  0.4331
 3533TIP3    H110605   4.364   3.516   1.837  1.0250 -1.0115  1.3004
 3533TIP3    H210606   4.489   3.538   1.755 -0.2815  1.2181 -0.1882
 3534TIP3   OH210607   2.981   2.171   0.688  0.5428  0.2537  0.2583
 3534TIP3    H110608   2.963   2.181   0.595  0.3105  2.2382  0.4831
 3534TIP3    H210609   3.068   2.209   0.701 -0.1343  1.5758  1.1089
 3535TIP3   OH210610   0.730   1.140   4.443  0.1652  0.1076  0.2584
 3535TIP3    H110611   0.707   1.211   4.383  1.2931  0.2825  0.0169
 3535TIP3    H210612   0.795   1.089   4.396 -0.9071 -1.3252  0.2829
 3536TIP3   OH210613   1.713   5.419   1.654 -0.0222  0.0092 -0.3360
 3536TIP3    H110614   1.621   5.440   1.665  0.0327  0.8430 -1.3996
 3536TIP3    H210615   1.736   5.451   1.567  1.1511 -0.6257 -0.2885
 3537TIP3   OH210616   5.346   5.831   0.746 -0.0141  0.2477 -0.2060
 3537TIP3    H110617   5.326   5.741   0.772 -0.2181  0.3073 -0.1545
 3537TIP3    H210618   5.288   5.885   0.800  1.0002  0.4785  0.6904
 3538TIP3   OH210619   2.081   0.082   0.802  0.5083  0.0027  0.0323
 3538TIP3    H110620   2.165   0.111   0.768  1.0617 -1.3665  0.1429
 3538TIP3    H210621   2.072  -0.008   0.770 -0.0433 -0.5094  1.5260
 3539TIP3   OH210622   2.484   3.797   4.724 -0.4520 -0.2876 -0.3900
 3539TIP3    H110623   2.512   3.878   4.682 -0.1579 -1.5494 -2.8462
 3539TIP3    H210624   2.565   3.759   4.759 -0.6681  0.6806  1.2311
 3540TIP3   OH210625   2.602   1.744   4.643  0.0552  0.0513 -0.1211
 3540TIP3    H110626   2.605   1.833   4.607  1.6570  0.0027 -0.1848
 3540TIP3    H210627   2.530   1.702   4.597 -0.2542  1.0890 -0.6302
 3541TIP3   OH210628   4.297   0.297   4.197  0.1400  0.4499 -0.2576
 3541TIP3    H110629   4.298   0.371   4.258 -2.1834  1.3893 -1.2158
 3541TIP3    H210630   4.298   0.219   4.253 -2.3223  1.2774  1.0978
 3542TIP3   OH210631   5.073   0.218   2.109 -0.4446  0.0896 -0.1168
 3542TIP3    H110632   5.083   0.209   2.204 -1.2462 -0.4664 -0.0782
 3542TIP3    H210633   5.112   0.138   2.073 -1.5253 -0.4241 -0.1627
 3543TIP3   OH210634   4.635   2.767   0.319  0.0909 -0.8371  0.2029
 3543TIP3    H110635   4.716   2.746   0.271  0.8842 -0.3398  1.2829
 3543TIP3    H210636   4.626   2.862   0.311 -1.1014 -1.0156 -0.9670
 3544TIP3   OH210637   6.152   5.404   1.677  0.3533 -0.1448  0.4023
 3544TIP3    H110638   6.101   5.363   1.746 -1.6208  1.6410  0.0912
 3544TIP3    H210639   6.088   5.448   1.622  1.9876 -0.2988 -1.7836
 3545TIP3   OH210640   3.707   3.764   4.514 -0.2882 -0.3455 -0.5772
 3545TIP3    H110641   3.746   3.702   4.452 -0.9174  1.5074 -2.9953
 3545TIP3    H210642   3.618   3.731   4.529 -0.2973 -0.5589 -1.0745
 3546TIP3   OH210643   3.229   2.790   4.859  0.0594  0.2472  0.6652
 3546TIP3    H110644   3.274   2.845   4.923  0.5091 -0.3188  0.8410
 3546TIP3    H210645   3.297   2.769   4.794 -0.2173  0.2424  0.3775
 3547TIP3   OH210646   3.171   5.352   1.429  0.1481  0.0624  0.2432
 3547TIP3    H110647   3.095   5.341   1.486  0.2741  0.0850  0.4170
 3547TIP3    H210648   3.135   5.359   1.341 -0.0981  0.6973  0.3866
 3548TIP3   OH210649   1.130   4.648   3.516 -0.4043  0.1752  0.1954
 3548TIP3    H110650   1.040   4.649   3.547 -0.3711 -0.6335  0.3147
 3548TIP3    H210651   1.183   4.662   3.594 -0.4181  0.7221  0.1156
 3549TIP3   OH210652   5.029   4.629   0.741 -0.3183 -0.3523  0.5663
 3549TIP3    H110653   5.093   4.696   0.767 -0.7816  0.2079  0.2880
 3549TIP3    H210654   5.028   4.631   0.646  0.9036 -1.9608  0.4786
 3550TIP3   OH210655   6.009   2.884   2.615  0.4985 -0.3267  0.1031
 3550TIP3    H110656   6.009   2.834   2.697  0.7630  0.1854  0.4153
 3550TIP3    H210657   5.949   2.835   2.558 -1.8026  0.7298  1.4585
 3551TIP3   OH210658   4.169   0.796   0.312 -0.2533 -0.3483 -0.3573
 3551TIP3    H110659   4.163   0.772   0.219  1.0234 -0.8095 -0.3375
 3551TIP3    H210660   4.255   0.765   0.339 -0.3878  0.2842  0.8470
 3552TIP3   OH210661   0.685   4.751   5.130  0.3916 -0.4964  0.8810
 3552TIP3    H110662   0.630   4.691   5.081  1.5662 -1.8684  1.1699
 3552TIP3    H210663   0.705   4.704   5.211  0.9631  0.4764  1.3194
 3553TIP3   OH210664   4.912   2.717   0.533 -0.5814  0.4614 -0.1975
 3553TIP3    H110665   4.853   2.657   0.489 -0.3625  1.0600 -1.3676
 3553TIP3    H210666   4.936   2.781   0.465  1.0272  0.5072  0.3612
 3554TIP3   OH210667   6.047   5.480   4.683  0.1487 -0.0311  0.1148
 3554TIP3    H110668   6.039   5.461   4.590  1.3600 -0.2951  0.0443
 3554TIP3    H210669   5.996   5.560   4.696  0.9544  0.6994 -1.0220
 3555TIP3   OH210670   1.909   1.339   4.428  0.2533  0.2388 -0.7428
 3555TIP3    H110671   1.952   1.423   4.415 -0.3778  0.5886 -0.5849
 3555TIP3    H210672   1.963   1.277   4.378  0.7017  0.7343 -0.8837
 3556TIP3   OH210673   3.269   2.996   0.595 -0.4059  0.0696 -0.3514
 3556TIP3    H110674   3.350   3.009   0.546  0.3646  0.3532  0.9470
 3556TIP3    H210675   3.219   3.076   0.581  0.5547  0.8863  0.6461
 3557TIP3   OH210676   4.286   1.347   0.833 -0.1982  0.1511  0.1507
 3557TIP3    H110677   4.204   1.381   0.867 -1.0576 -2.5895  1.0927
 3557TIP3    H210678   4.354   1.388   0.888 -0.9580  1.6949 -0.0120
 3558TIP3   OH210679   3.717   0.181   2.075 -0.3735  0.1549 -0.7017
 3558TIP3    H110680   3.764   0.159   2.155  0.6380 -0.3846 -1.4148
 3558TIP3    H210681   3.626   0.158   2.093 -0.0496 -0.6033  0.0550
 3559TIP3   OH210682   1.920   2.068   1.018  0.4718 -0.5227  0.0645
 3559TIP3    H110683   1.951   2.142   1.071  0.1228 -0.8425  0.7363
 3559TIP3    H210684   1.967   2.076   0.935  0.0064  0.7934 -0.0948
 3560TIP3   OH210685   2.068   3.413   2.022  0.5952  0.1810 -0.0925
 3560TIP3    H110686   1.998   3.389   2.082  0.7893  0.4606  0.2511
 3560TIP3    H210687   2.104   3.494   2.057  1.8997 -0.5863  0.4462
 3561TIP3   OH210688   4.883   2.366   2.232  0.0072 -0.1934  0.0612
 3561TIP3    H110689   4.881   2.374   2.327 -2.3128  1.2377 -0.0424
 3561TIP3    H210690   4.881   2.456   2.200  0.6639 -0.6561 -1.3601
 3562TIP3   OH210691   5.707   3.190   5.085 -0.0147 -0.7484  0.1854
 3562TIP3    H110692   5.775   3.179   5.017  1.7129 -1.2468  1.9059
 3562TIP3    H210693   5.649   3.115   5.073 -0.7713  0.0665 -1.7790
 3563TIP3   OH210694   0.879   0.622   4.949  0.3116  0.2907  0.2077
 3563TIP3    H110695   0.784   0.613   4.948  0.2362  1.0147  0.2299
 3563TIP3    H210696   0.911   0.537   4.979 -0.2471 -0.5782 -1.4791
 3564TIP3   OH210697   0.788   5.488   0.513  0.1460  0.0424 -0.1389
 3564TIP3    H110698   0.727   5.463   0.443 -1.1281  0.6770  0.7204
 3564TIP3    H210699   0.799   5.582   0.503  0.0139  0.1266  0.4778
 3565TIP3   OH210700   3.590   1.921   3.662  0.5098  0.2896 -0.0032
 3565TIP3    H110701   3.558   2.005   3.695  0.5490  0.5170 -0.5221
 3565TIP3    H210702   3.640   1.884   3.735  0.4408  0.6916  0.2530
 3566TIP3   OH210703   5.989   5.495   1.475  0.2403  1.1243  0.3708
 3566TIP3    H110704   5.910   5.453   1.509  0.0029  1.4810  0.2709
 3566TIP3    H210705   5.958   5.548   1.402  0.5775  1.2511  0.3188
 3567TIP3   OH210706   1.929   4.996   3.905 -0.4253  0.4251  0.2057
 3567TIP3    H110707   1.898   5.022   3.992  0.7528 -1.0396  1.1103
 3567TIP3    H210708   1.874   4.921   3.881  0.7229 -0.6129  0.7254
 3568TIP3   OH210709   2.739   3.683   4.757 -0.4245 -0.0540 -0.3527
 3568TIP3    H110710   2.746   3.631   4.677  0.9065 -0.1983 -0.1652
 3568TIP3    H210711   2.778   3.628   4.825  2.5357  1.7513 -0.4378
 3569TIP3   OH210712   5.407   3.330   1.419  0.1138  0.3135  0.9314
 3569TIP3    H110713   5.402   3.271   1.344  0.5311  0.0908  1.0775
 3569TIP3    H210714   5.437   3.413   1.383  2.9774 -0.4943  1.2022
 3570TIP3   OH210715   4.956   4.127   1.737  0.3063 -0.0112 -0.6968
 3570TIP3    H110716   4.917   4.041   1.751  1.3939 -0.2426  1.1391
 3570TIP3    H210717   4.918   4.182   1.806  2.4315 -0.0206  0.5629
 3571TIP3   OH210718   5.501   0.561   4.915 -0.2441 -0.0467  0.4591
 3571TIP3    H110719   5.526   0.525   5.000  1.0194  1.8290  0.9450
 3571TIP3    H210720   5.513   0.488   4.854 -0.2585 -1.1592  1.7364
 3572TIP3   OH210721   4.188   2.849   0.556 -0.2018 -0.1605  0.0817
 3572TIP3    H110722   4.245   2.789   0.508  0.8829  0.5387  0.4396
 3572TIP3    H210723   4.216   2.936   0.527 -0.2939  0.2323  1.1289
 3573TIP3   OH210724   5.107   4.576   1.128  0.1744 -0.0692 -0.3335
 3573TIP3    H110725   5.118   4.669   1.148 -1.6274 -0.0392  0.7232
 3573TIP3    H210726   5.193   4.537   1.144  0.2591  0.9583  1.9902
 3574TIP3   OH210727   6.292   4.238   2.890 -0.4770  0.7258 -0.8564
 3574TIP3    H110728   6.372   4.287   2.911 -0.7039  0.9048 -0.3939
 3574TIP3    H210729   6.263   4.202   2.973 -1.7439  1.9781 -0.7053
 3575TIP3   OH210730   4.868   0.909   2.515 -0.7010 -0.3251 -0.2806
 3575TIP3    H110731   4.859   0.969   2.589  1.7822  1.8988 -1.6058
 3575TIP3    H210732   4.937   0.947   2.461  0.8776 -4.2707 -1.4299
 3576TIP3   OH210733   3.774   1.535   1.415 -0.2633 -0.3271 -0.5846
 3576TIP3    H110734   3.761   1.578   1.331 -0.1492 -0.3034 -0.5903
 3576TIP3    H210735   3.739   1.598   1.479  0.4721  0.0550 -0.5420
 3577TIP3   OH210736   1.217   4.294   4.496 -0.6830  0.3397  0.5718
 3577TIP3    H110737   1.163   4.228   4.540  0.0058  0.8265  2.2237
 3577TIP3    H210738   1.303   4.252   4.487 -0.8374  0.2147 -0.4291
 3578TIP3   OH210739   2.787   5.341   3.614 -0.6480 -0.2800  0.0055
 3578TIP3    H110740   2.721   5.409   3.628 -0.4607 -0.2606  0.8229
 3578TIP3    H210741   2.871   5.387   3.624 -0.4201  0.1075 -2.7965
 3579TIP3   OH210742   3.603   2.706   0.913  0.2243  0.0802  0.0169
 3579TIP3    H110743   3.534   2.645   0.936  1.1389 -0.5148  1.3050
 3579TIP3    H210744   3.557   2.782   0.877 -1.0331 -0.5874  0.1591
 3580TIP3   OH210745   3.845   1.367   0.892  0.0813  0.5043  0.0921
 3580TIP3    H110746   3.872   1.457   0.880  1.7643 -0.0991 -0.9451
 3580TIP3    H210747   3.850   1.328   0.805  1.4944 -1.1226  0.8533
 3581TIP3   OH210748   5.443   3.477   3.381 -0.2002 -0.1176 -0.2134
 3581TIP3    H110749   5.390   3.448   3.455 -1.3990 -0.1385 -1.0558
 3581TIP3    H210750   5.448   3.572   3.391  2.0069 -0.3345  1.4087
 3582TIP3   OH210751   4.814   0.821   1.972 -0.3560  0.6212  0.1995
 3582TIP3    H110752   4.783   0.884   1.907 -0.0599  0.0191 -0.5366
 3582TIP3    H210753   4.749   0.750   1.968  0.6009 -0.2249 -0.6975
 3583TIP3   OH210754   2.481   1.843   4.952  0.3958 -0.1829  0.0199
 3583TIP3    H110755   2.386   1.835   4.942  0.3074  1.8968 -1.2796
 3583TIP3    H210756   2.514   1.856   4.863  1.7472  0.4272  0.5818
 3584TIP3   OH210757   5.973   5.391   1.891 -0.0283 -0.6467  0.5247
 3584TIP3    H110758   5.895   5.445   1.880  0.6600  0.0273 -1.5045
 3584TIP3    H210759   6.042   5.452   1.916 -0.1845 -1.3141  2.8535
 3585TIP3   OH210760   0.599   1.957   0.030 -0.3528 -0.4105  0.4566
 3585TIP3    H110761   0.587   2.046  -0.001 -1.7963 -1.2460 -1.5620
 3585TIP3    H210762   0.654   1.966   0.108  1.6895  2.0146 -1.1043
 3586TIP3   OH210763   5.868   1.639   2.254 -0.3285 -0.1879  0.2132
 3586TIP3    H110764   5.832   1.561   2.295  0.6130  0.1049  1.6767
 3586TIP3    H210765   5.935   1.605   2.194 -0.6223 -0.5559  0.0925
 3587TIP3   OH210766   6.208   5.297   0.720  0.5766  0.1909 -0.1055
 3587TIP3    H110767   6.278   5.234   0.735  0.4571 -0.1375 -0.8744
 3587TIP3    H210768   6.130   5.255   0.756  0.3532 -0.4533 -1.2689
 3588TIP3   OH210769   6.058   4.288   4.971 -0.5027  0.2848 -0.1772
 3588TIP3    H110770   6.084   4.380   4.957 -1.2313  0.9243  2.1894
 3588TIP3    H210771   5.999   4.291   5.046 -0.0580 -2.2171  0.3681
 3589TIP3   OH210772   2.617   2.449   2.612 -0.0136 -0.1701  0.3938
 3589TIP3    H110773   2.615   2.478   2.703  0.5108  0.9176  0.0741
 3589TIP3    H210774   2.540   2.488   2.572 -0.0071 -0.2908  0.2610
 3590TIP3   OH210775   5.823   3.269   2.178  0.2526  0.1850 -0.3718
 3590TIP3    H110776   5.904   3.262   2.228  0.1444 -0.6371 -0.3083
 3590TIP3    H210777   5.809   3.363   2.169  1.0151  0.3347 -0.0633
 3591TIP3   OH210778   5.162   5.731   0.314  0.0133 -0.5138 -0.6632
 3591TIP3    H110779   5.067   5.742   0.322  0.3844  1.3948  2.4446
 3591TIP3    H210780   5.175   5.636   0.322 -1.5427 -0.6382  1.3319
 3592TIP3   OH210781   3.711   0.868   1.295 -0.0443  0.3715  0.2791
 3592TIP3    H110782   3.740   0.805   1.360 -0.1511  2.1931  2.1897
 3592TIP3    H210783   3.771   0.857   1.221  1.4276 -0.3041  1.5396
 3593TIP3   OH210784   5.655   2.673   4.693  0.4597 -0.1797 -0.2080
 3593TIP3    H110785   5.696   2.608   4.635 -0.5509 -1.1622  0.1416
 3593TIP3    H210786   5.696   2.658   4.778  0.5945 -0.0040 -0.2410
 3594TIP3   OH210787   4.474   3.135   4.583  0.8868  0.3259  0.3697
 3594TIP3    H110788   4.393   3.102   4.621  0.8663 -0.2861 -0.1897
 3594TIP3    H210789   4.452   3.222   4.550  0.1623 -0.2657 -0.7568
 3595TIP3   OH210790   5.276   4.783   4.174  0.2304  0.0483 -0.0103
 3595TIP3    H110791   5.244   4.844   4.108  2.3592  0.6560 -0.5691
 3595TIP3    H210792   5.285   4.700   4.127 -2.0780 -0.6283  0.5981
 3596TIP3   OH210793   0.689   5.045   1.821  0.3463 -0.4609  0.2808
 3596TIP3    H110794   0.610   5.095   1.845  0.1178  0.8758 -2.7084
 3596TIP3    H210795   0.666   4.954   1.839 -1.3110  0.0334  0.8971
 3597TIP3   OH210796   2.372   0.564   4.218 -0.2309 -0.0214 -0.0810
 3597TIP3    H110797   2.444   0.509   4.185 -0.5939 -0.7585  0.3223
 3597TIP3    H210798   2.363   0.538   4.310 -0.3335  0.8179  0.1537
 3598TIP3   OH210799   3.265   2.024   2.531 -0.3834  0.2257  0.7250
 3598TIP3    H110800   3.203   2.025   2.459 -0.4200  0.0381  0.7535
 3598TIP3    H210801   3.265   2.114   2.565  0.4195  0.5842 -0.1768
 3599TIP3   OH210802   2.917  -0.024   3.972  0.0371  0.5271  0.4904
 3599TIP3    H110803   2.955  -0.028   3.884  1.1805  0.6130  0.9633
 3599TIP3    H210804   2.871   0.059   3.975  0.1258  0.5965  0.0298
 3600TIP3   OH210805   1.948   1.483   3.046  0.3364 -0.1249 -0.4995
 3600TIP3    H110806   1.899   1.448   3.120  0.2040 -0.0803 -0.5659
 3600TIP3    H210807   2.036   1.448   3.057 -0.4164 -2.7632 -2.0550
 3601TIP3   OH210808   0.819   1.073   0.572 -0.4971 -0.2441 -0.1381
 3601TIP3    H110809   0.752   1.004   0.572 -1.6675  0.8327  0.7853
 3601TIP3    H210810   0.770   1.154   0.589  0.5920  1.0885 -2.7493
 3602TIP3   OH210811   1.644   5.985   4.531  0.1420 -0.1190  0.6156
 3602TIP3    H110812   1.695   5.975   4.451 -0.3468  1.2395  0.1154
 3602TIP3    H210813   1.561   5.941   4.513 -0.0282  0.3196  0.2988
 3603TIP3   OH210814   2.656   4.017   4.919  0.2375 -0.2713 -0.0159
 3603TIP3    H110815   2.685   4.070   4.844  0.3063  0.1127  0.2768
 3603TIP3    H210816   2.568   4.048   4.938  0.3377 -0.1407  0.2573
 3604TIP3   OH210817   3.073   2.483   3.299 -0.2034  0.0277 -0.1369
 3604TIP3    H110818   3.046   2.396   3.269 -2.5681  1.1225 -1.4563
 3604TIP3    H210819   3.126   2.517   3.227 -0.9378  0.4041 -0.5110
 3605TIP3   OH210820   2.377   0.912   0.977  0.0906 -0.2158  0.0655
 3605TIP3    H110821   2.452   0.939   0.923  0.5208 -0.6670  0.4217
 3605TIP3    H210822   2.303   0.958   0.940  0.3191 -0.7574 -1.1296
 3606TIP3   OH210823   5.885   2.261   5.077  0.1237  0.4447  0.0080
 3606TIP3    H110824   5.838   2.252   4.995  0.2265 -2.1176  0.1712
 3606TIP3    H210825   5.966   2.306   5.053 -1.0772  2.3467 -0.7373
 3607TIP3   OH210826   1.406   2.072   0.148  0.2262 -0.0314  0.8003
 3607TIP3    H110827   1.475   2.005   0.144 -1.2765 -1.6960  1.2141
 3607TIP3    H210828   1.342   2.043   0.083 -0.8235  0.5810  1.5517
 3608TIP3   OH210829   3.609   3.510   0.655  0.1421  0.4102  0.0054
 3608TIP3    H110830   3.555   3.501   0.734 -0.6386  1.2900 -0.4134
 3608TIP3    H210831   3.667   3.434   0.657  2.2513  1.8953  3.0247
 3609TIP3   OH210832   1.289   1.041   2.364  0.6701 -0.4035  0.1869
 3609TIP3    H110833   1.245   0.977   2.309 -0.6795  0.2605  0.4539
 3609TIP3    H210834   1.382   1.020   2.355  0.5057 -0.4535 -2.1821
 3610TIP3   OH210835   1.775   4.194   3.341 -0.0906 -0.0534  0.2524
 3610TIP3    H110836   1.870   4.194   3.346 -0.1223 -0.1943  0.9783
 3610TIP3    H210837   1.756   4.188   3.248  0.6132 -0.9198  0.1455
 3611TIP3   OH210838   5.615   4.121   0.017  0.6799  0.0220  0.1024
 3611TIP3    H110839   5.663   4.173  -0.047 -0.8390  0.7402 -0.5179
 3611TIP3    H210840   5.667   4.127   0.097  1.7221  0.5680 -0.5994
 3612TIP3   OH210841   1.076   5.551   2.769  0.0159 -0.4395 -0.2968
 3612TIP3    H110842   1.026   5.470   2.778  0.2290 -0.4838  0.5439
 3612TIP3    H210843   1.019   5.619   2.805 -1.0097  0.1496 -2.8172
 3613TIP3   OH210844   4.959   5.685   4.991 -0.0934 -0.4394  0.2417
 3613TIP3    H110845   4.926   5.625   5.057 -0.0057 -0.3422  0.3744
 3613TIP3    H210846   4.883   5.707   4.938  0.0455 -1.3676 -0.3599
 3614TIP3   OH210847   1.173   3.463   1.083  0.3448  0.4387  0.4427
 3614TIP3    H110848   1.143   3.434   0.997  2.2464 -0.5262  0.0497
 3614TIP3    H210849   1.105   3.433   1.144 -0.3825 -0.0047 -0.5621
 3615TIP3   OH210850   6.073   2.333   0.017  0.2156  0.0659  0.0060
 3615TIP3    H110851   6.060   2.383   0.097  1.1904  0.5699 -0.1289
 3615TIP3    H210852   6.160   2.293   0.028  1.4325  1.9777 -1.7146
 3616TIP3   OH210853   3.129   5.377   3.205  0.0419 -0.0443 -0.3226
 3616TIP3    H110854   3.116   5.445   3.139  0.1832 -1.5286 -1.9454
 3616TIP3    H210855   3.217   5.392   3.238  0.5647 -0.1962 -1.5928
 3617TIP3   OH210856   4.847   3.273   0.909  0.1045  0.2296 -0.1971
 3617TIP3    H110857   4.880   3.340   0.968  1.0619  1.2554 -1.8096
 3617TIP3    H210858   4.772   3.235   0.955  1.3818  0.2838  2.0580
 3618TIP3   OH210859   5.940   2.980   3.741  0.0990  0.2589  0.4610
 3618TIP3    H110860   5.983   2.908   3.695 -0.4637  0.4159 -0.3298
 3618TIP3    H210861   5.881   3.018   3.676 -1.8068 -0.4088  1.6985
 3619TIP3   OH210862   2.565   1.147   3.972  0.1045  0.7035  0.1855
 3619TIP3    H110863   2.546   1.144   4.065  2.0440 -1.2855  0.5857
 3619TIP3    H210864   2.615   1.228   3.960  0.7138  0.4673  1.0627
 3620TIP3   OH210865   4.980   1.698   3.078 -0.0717  0.0434  0.0325
 3620TIP3    H110866   4.953   1.789   3.087  0.9590  0.1844  3.0972
 3620TIP3    H210867   4.900   1.651   3.054 -0.8837  1.5877 -0.3820
 3621TIP3   OH210868   1.137   0.088   5.091  0.2236 -0.3019  0.0045
 3621TIP3    H110869   1.124   0.182   5.077 -0.6206 -0.1011  1.8264
 3621TIP3    H210870   1.063   0.046   5.048  0.3536 -0.1176 -0.4089
 3622TIP3   OH210871   0.210   4.683   3.647 -0.1340 -0.5407 -0.1686
 3622TIP3    H110872   0.177   4.712   3.732  0.1109 -2.7098  0.7303
 3622TIP3    H210873   0.247   4.762   3.608 -0.6097  0.6014  1.5598
 3623TIP3   OH210874   4.162   3.192   2.227 -0.1119 -0.1182  0.0340
 3623TIP3    H110875   4.230   3.219   2.165  0.3912  0.4821  0.8391
 3623TIP3    H210876   4.139   3.103   2.199  1.0499 -0.3568 -0.2190
 3624TIP3   OH210877   4.678   0.391   0.971  0.3415 -0.2295 -0.0606
 3624TIP3    H110878   4.698   0.352   0.886  1.9432 -1.9606  1.0135
 3624TIP3    H210879   4.761   0.429   1.000 -0.5426  1.6874  0.1293
 3625TIP3   OH210880   4.056   3.286   4.889 -0.0250 -0.6183 -0.0563
 3625TIP3    H110881   4.038   3.261   4.799  1.8300  1.1902 -1.0159
 3625TIP3    H210882   4.151   3.287   4.895 -0.0956  0.3319  1.5999
 3626TIP3   OH210883   6.215   0.916   1.004 -0.0383 -0.3858 -0.2130
 3626TIP3    H110884   6.149   0.972   1.044  0.0514  0.6162 -1.4063
 3626TIP3    H210885   6.168   0.865   0.939  0.2027 -0.3044 -0.4553
 3627TIP3   OH210886   4.193   3.295   1.666 -0.6598 -0.1976  0.3673
 3627TIP3    H110887   4.122   3.349   1.700 -2.7623 -2.8697  0.5293
 3627TIP3    H210888   4.193   3.217   1.721  1.7103 -0.7815 -0.3385
 3628TIP3   OH210889   0.386   3.827   3.247  0.3307 -0.3864  0.2087
 3628TIP3    H110890   0.433   3.910   3.242  0.8563 -0.6597  0.5295
 3628TIP3    H210891   0.396   3.788   3.160 -0.4770  0.1801 -0.1483
 3629TIP3   OH210892   4.953   3.361   2.486 -0.2235 -0.3133 -0.1080
 3629TIP3    H110893   4.905   3.324   2.559 -0.6000 -0.5333 -0.4616
 3629TIP3    H210894   4.946   3.295   2.417  1.6147 -0.8993  0.2217
 3630TIP3   OH210895   5.777   0.983   3.022 -0.1958 -0.2094  0.5521
 3630TIP3    H110896   5.818   1.039   2.957 -0.8834  0.8740  1.0349
 3630TIP3    H210897   5.838   0.982   3.096 -0.7805  0.9947  1.0699
 3631TIP3   OH210898   1.196   0.119   4.618 -0.6015 -0.5477 -0.1071
 3631TIP3    H110899   1.235   0.066   4.548  0.2090 -0.7564  0.4916
 3631TIP3    H210900   1.270   0.160   4.662 -0.9823 -1.4821  1.4855
 3632TIP3   OH210901   4.347   3.487   1.455 -0.0183 -0.7046 -0.1514
 3632TIP3    H110902   4.382   3.556   1.399 -1.1665 -0.5315 -0.6772
 3632TIP3    H210903   4.253   3.502   1.457 -0.0543 -0.8512  1.6473
 3633TIP3   OH210904   4.452   4.755   0.532 -0.2998 -0.3382  0.3242
 3633TIP3    H110905   4.492   4.673   0.502 -1.1316 -0.6456  0.0164
 3633TIP3    H210906   4.415   4.794   0.453  0.0423  0.3205  0.4787
 3634TIP3   OH210907   1.122   3.967   4.349 -0.2108 -0.4613  0.4781
 3634TIP3    H110908   1.057   3.989   4.282 -1.0275  0.4250  1.5242
 3634TIP3    H210909   1.096   4.019   4.425  0.9629 -1.1001  1.3383
 3635TIP3   OH210910   6.064   0.518   4.234  0.0097 -0.7156 -0.3437
 3635TIP3    H110911   6.014   0.549   4.310  1.7073  0.9281  0.1901
 3635TIP3    H210912   6.111   0.441   4.267 -0.9315 -1.3102 -0.3814
 3636TIP3   OH210913   2.840   5.559   4.466 -0.0776  0.5328  0.0780
 3636TIP3    H110914   2.831   5.651   4.440 -0.3087  0.2339 -0.9669
 3636TIP3    H210915   2.930   5.536   4.442 -0.3132  0.2351 -0.5451
 3637TIP3   OH210916   5.701   1.266   1.252 -0.0381  0.1698 -0.3973
 3637TIP3    H110917   5.784   1.303   1.219  0.3330 -0.2186  0.0943
 3637TIP3    H210918   5.728   1.199   1.314 -0.7288  0.7809  0.5875
 3638TIP3   OH210919   4.731   4.516   2.920 -0.1543 -0.0664  0.8529
 3638TIP3    H110920   4.653   4.521   2.975 -0.5092 -0.9994  0.4429
 3638TIP3    H210921   4.704   4.467   2.843  0.2594  1.4133 -0.3032
 3639TIP3   OH210922   2.221   4.963   3.367 -0.1722  0.3333 -0.0315
 3639TIP3    H110923   2.182   4.899   3.307  0.0587 -0.7174  0.9094
 3639TIP3    H210924   2.272   4.911   3.428  1.4849  1.5504 -0.2882
 3640TIP3   OH210925   4.364   1.880   2.560 -0.1120  0.3455  0.0134
 3640TIP3    H110926   4.342   1.957   2.508 -2.8276 -0.7985 -0.7069
 3640TIP3    H210927   4.380   1.810   2.496  2.3260  0.2177  0.6480
 3641TIP3   OH210928   5.720   1.294   4.473  0.0554 -0.2054 -0.0144
 3641TIP3    H110929   5.677   1.369   4.434  0.2567  0.0162  0.1859
 3641TIP3    H210930   5.654   1.224   4.471 -0.6239  0.3792  1.0941
 3642TIP3   OH210931   5.602   0.531   2.577 -0.6652  0.0083 -0.9133
 3642TIP3    H110932   5.620   0.523   2.483 -1.8873  0.2208 -1.1735
 3642TIP3    H210933   5.527   0.591   2.582  1.3650  2.6674  0.3720
 3643TIP3   OH210934   0.180   4.623   0.301 -0.4759 -0.1609 -0.2173
 3643TIP3    H110935   0.114   4.585   0.244  0.0820  0.2441 -1.1601
 3643TIP3    H210936   0.174   4.717   0.285 -0.3999 -0.0292  0.4971
 3644TIP3   OH210937   1.073   0.207   3.399  0.2867  0.0858  0.3025
 3644TIP3    H110938   1.133   0.207   3.474 -0.8397  1.1162  1.2641
 3644TIP3    H210939   1.051   0.115   3.385  0.2900 -0.1013  1.4465
 3645TIP3   OH210940   2.360   4.089   2.575  0.5494 -0.0474  0.3376
 3645TIP3    H110941   2.357   4.184   2.589  0.4883 -0.1282  0.8921
 3645TIP3    H210942   2.436   4.075   2.519 -0.2143  0.4609 -0.8789
 3646TIP3   OH210943   1.826   0.778   5.075  0.0664 -0.3751 -0.8561
 3646TIP3    H110944   1.882   0.854   5.089  1.0204 -1.3646  0.9038
 3646TIP3    H210945   1.805   0.782   4.981  1.6349  0.9872 -1.2025
 3647TIP3   OH210946   5.135   2.091   0.933 -0.0848  0.0172  0.1469
 3647TIP3    H110947   5.096   2.006   0.952  0.8029 -0.4404  0.0031
 3647TIP3    H210948   5.137   2.096   0.837 -1.4853  0.8547  0.1440
 3648TIP3   OH210949   3.419   1.016   4.142 -0.6975  0.0492 -0.6128
 3648TIP3    H110950   3.335   0.972   4.156  1.3129 -3.8749  0.7232
 3648TIP3    H210951   3.441   1.054   4.227 -0.7163  0.3059 -0.7217
 3649TIP3   OH210952   0.795   2.937   2.066 -0.3284 -0.4542  0.3277
 3649TIP3    H110953   0.793   2.907   2.157 -1.1380 -0.6930  0.2407
 3649TIP3    H210954   0.867   2.888   2.026  0.1211 -0.2396  0.8720
 3650TIP3   OH210955   0.049   1.902   4.736 -0.0129 -0.2807 -0.6635
 3650TIP3    H110956   0.009   1.983   4.767  0.4476 -0.0042 -0.7796
 3650TIP3    H210957  -0.025   1.845   4.714 -0.3372  0.1298 -0.6459
 3651TIP3   OH210958   5.658   0.653   1.925 -0.1866  0.1352  0.0370
 3651TIP3    H110959   5.730   0.593   1.906  1.2492  1.3810  1.2976
 3651TIP3    H210960   5.608   0.610   1.994 -0.8365 -0.8488 -1.0139
 3652TIP3   OH210961   4.853   1.253   2.262 -0.7027  0.5459  0.1426
 3652TIP3    H110962   4.761   1.254   2.287 -0.9859  1.9216 -0.8370
 3652TIP3    H210963   4.862   1.179   2.202 -1.1266  0.3023  0.3805
 3653TIP3   OH210964   2.864   2.247   4.053 -0.7866 -0.8671 -0.1941
 3653TIP3    H110965   2.909   2.274   3.972 -1.0334  1.6167  0.4105
 3653TIP3    H210966   2.782   2.209   4.023 -0.6819 -0.3868 -1.1356
 3654TIP3   OH210967   2.960   1.709   3.348  0.0816 -0.1665 -0.2285
 3654TIP3    H110968   2.964   1.613   3.344  1.2465 -0.1231 -0.2487
 3654TIP3    H210969   2.946   1.728   3.441 -0.9488 -0.3689 -0.3297
 3655TIP3   OH210970   2.234   5.776   2.349  0.2271  0.4605 -0.1849
 3655TIP3    H110971   2.250   5.683   2.338 -0.0324  0.3569  0.3012
 3655TIP3    H210972   2.309   5.818   2.306 -0.0144  0.0498 -1.0246
 3656TIP3   OH210973   0.715   4.790   2.204 -0.6559 -0.4349  0.2739
 3656TIP3    H110974   0.766   4.776   2.284 -0.1593  0.5463  0.1456
 3656TIP3    H210975   0.742   4.877   2.174  0.1756 -1.3381 -1.7210
 3657TIP3   OH210976   4.159   0.337   0.926  0.1106  0.9605  0.1107
 3657TIP3    H110977   4.242   0.362   0.887 -0.7836  1.2911 -1.6637
 3657TIP3    H210978   4.100   0.410   0.906 -0.5339  0.8959  1.6389
 3658TIP3   OH210979   6.097   3.773   3.483 -0.1497  0.1012 -0.5420
 3658TIP3    H110980   6.144   3.693   3.459 -0.0177 -0.8951  2.6892
 3658TIP3    H210981   6.165   3.830   3.519 -0.7314  0.4759 -0.0292
 3659TIP3   OH210982   4.644   0.534   0.432  0.3386 -0.2462  0.5779
 3659TIP3    H110983   4.690   0.546   0.514  0.8288 -0.9710  0.4163
 3659TIP3    H210984   4.709   0.553   0.364  0.6737 -2.0922  0.3411
 3660TIP3   OH210985   5.021   4.035   4.656 -0.3659  0.5235 -0.1518
 3660TIP3    H110986   5.111   4.003   4.651  0.2999  2.0970  0.8630
 3660TIP3    H210987   5.010   4.086   4.576 -0.6968 -0.4098 -0.7210
 3661TIP3   OH210988   4.379   4.078   5.022  0.3103 -0.1645 -0.1958
 3661TIP3    H110989   4.420   4.111   5.102 -2.6845  1.0537  0.9815
 3661TIP3    H210990   4.317   4.011   5.052 -0.0989 -0.4635 -1.6176
 3662TIP3   OH210991   5.325   2.209   2.886 -0.6027 -0.0201 -0.0045
 3662TIP3    H110992   5.303   2.262   2.963 -0.6554  0.2286 -0.1914
 3662TIP3    H210993   5.398   2.255   2.845  0.1423 -0.7287  0.4932
 3663TIP3   OH210994   2.983   2.590   0.089 -0.1074 -0.5120  0.3868
 3663TIP3    H110995   2.904   2.550   0.051 -0.4484  0.3294  0.2006
 3663TIP3    H210996   3.055   2.536   0.056 -0.5192 -0.6647 -0.2922
 3664TIP3   OH210997   3.563   3.937   2.911  0.5301 -0.1507 -0.3981
 3664TIP3    H110998   3.629   3.967   2.849  0.5570 -2.4066 -1.5811
 3664TIP3    H210999   3.610   3.929   2.994  1.1809  0.3814 -0.7109
 3665TIP3   OH211000   2.108   0.934   4.586 -0.1731  0.2174 -0.2617
 3665TIP3    H111001   2.197   0.909   4.608 -0.0795  1.3142  0.7229
 3665TIP3    H211002   2.107   1.029   4.596 -1.6366  0.1532  0.4734
 3666TIP3   OH211003   2.205   1.456   4.279  0.1011 -0.0926 -0.2489
 3666TIP3    H111004   2.113   1.453   4.306  0.8510 -1.6860  2.5268
 3666TIP3    H211005   2.204   1.504   4.196 -3.0602  1.1332  0.3447
 3667TIP3   OH211006   3.034   4.304   2.941  0.1414 -0.2371 -0.4768
 3667TIP3    H111007   3.091   4.360   2.993  0.3193 -1.1024  0.2810
 3667TIP3    H211008   3.094   4.259   2.881 -0.2246  2.0430 -2.7487
 3668TIP3   OH211009   6.283   4.079   2.148 -0.1737 -0.8375 -0.2234
 3668TIP3    H111010   6.329   4.056   2.229 -1.1087 -2.3191 -0.0711
 3668TIP3    H211011   6.207   4.130   2.176  1.4340  1.9211 -0.5002
 3669TIP3   OH211012   3.518   2.512   2.480 -0.4713 -0.1285  0.5335
 3669TIP3    H111013   3.477   2.553   2.555  0.4170 -1.3071  1.7041
 3669TIP3    H211014   3.600   2.561   2.466 -0.6464  0.1037  0.3076
 3670TIP3   OH211015   2.126   0.418   1.417  0.2520  0.2058 -0.0346
 3670TIP3    H111016   2.173   0.401   1.499  1.8733  1.5329 -0.6461
 3670TIP3    H211017   2.194   0.448   1.356 -1.3554  1.9871 -1.0273
 3671TIP3   OH211018   5.871   2.736   0.258  0.0811  0.3694 -0.6081
 3671TIP3    H111019   5.808   2.808   0.264 -0.2557  0.0283  0.0557
 3671TIP3    H211020   5.949   2.768   0.305 -0.0200  0.3460 -0.4259
 3672TIP3   OH211021   5.673   5.895   2.370 -0.2732 -0.0356 -0.0161
 3672TIP3    H111022   5.595   5.888   2.316 -0.6431 -0.1189  0.5204
 3672TIP3    H211023   5.709   5.806   2.371 -0.5522 -0.1456  0.2941
 3673TIP3   OH211024   0.957   4.428   4.240  0.3385 -0.0917  0.1596
 3673TIP3    H111025   0.996   4.476   4.168 -0.3426  0.2202 -0.0080
 3673TIP3    H211026   1.012   4.449   4.316  0.0426  0.9719  0.0919
 3674TIP3   OH211027   4.703   4.416   2.192  0.3729  0.3687 -0.2916
 3674TIP3    H111028   4.630   4.444   2.138 -0.9456 -1.9958  0.1192
 3674TIP3    H211029   4.672   4.430   2.282  1.2738  1.2541 -0.1001
 3675TIP3   OH211030   6.170   4.771   2.677  0.6268 -0.3092  0.6009
 3675TIP3    H111031   6.079   4.742   2.669  0.2896  0.3640  1.7064
 3675TIP3    H211032   6.210   4.708   2.737  0.6967 -0.1765  0.6921
 3676TIP3   OH211033   4.856   5.089   0.573 -0.0876 -0.1452  0.1382
 3676TIP3    H111034   4.878   5.008   0.620  0.5534  0.7990  1.5245
 3676TIP3    H211035   4.890   5.075   0.485 -0.2258 -1.4910  0.2788
 3677TIP3   OH211036   2.685   4.507   0.596  0.2079  0.4169  0.0396
 3677TIP3    H111037   2.601   4.465   0.577  0.6976 -0.2749 -0.6381
 3677TIP3    H211038   2.728   4.515   0.510  0.4423  1.6444  0.2452
 3678TIP3   OH211039   3.752   3.036   4.697 -0.2774 -0.8496 -0.2582
 3678TIP3    H111040   3.833   2.985   4.702  0.8151  0.8623  0.6924
 3678TIP3    H211041   3.747   3.066   4.607  1.5271  1.0420  0.1985
 3679TIP3   OH211042   2.646   1.051   4.627 -0.0635  0.2715  0.6263
 3679TIP3    H111043   2.720   1.112   4.627  0.5643 -0.4659 -0.7188
 3679TIP3    H211044   2.674   0.979   4.683 -0.1208  0.3873  0.8079
 3680TIP3   OH211045   3.224   1.953   0.843  0.0117  0.2816  0.5111
 3680TIP3    H111046   3.212   2.025   0.781 -3.8086 -1.6610 -1.3602
 3680TIP3    H211047   3.262   1.882   0.791  2.6186  0.4287  2.0414
 3681TIP3   OH211048   5.939   3.519   1.126  0.2075  0.0275 -0.2585
 3681TIP3    H111049   6.017   3.502   1.179  0.3523  1.0365 -0.1347
 3681TIP3    H211050   5.892   3.588   1.172  0.0498  0.5350 -1.1460
 3682TIP3   OH211051   2.820   3.248   4.040 -0.2559 -0.4493 -0.1661
 3682TIP3    H111052   2.895   3.205   3.999 -0.9505  0.4617 -2.5962
 3682TIP3    H211053   2.859   3.314   4.097  0.8883  0.8997 -2.3637
 3683TIP3   OH211054   1.711   4.258   4.081 -0.4836  0.1343 -0.3009
 3683TIP3    H111055   1.733   4.268   4.173  0.3780  0.6120 -0.5543
 3683TIP3    H211056   1.644   4.189   4.080 -0.6678  0.2912  0.6940
 3684TIP3   OH211057   4.116   3.000   4.944 -0.4324 -0.0901 -0.3932
 3684TIP3    H111058   4.126   2.978   4.852  1.3120  3.6852 -1.3082
 3684TIP3    H211059   4.108   3.096   4.945  2.0627  0.3031  3.4851
 3685TIP3   OH211060   3.101   2.915   2.693 -0.0938 -0.0639  0.4058
 3685TIP3    H111061   3.100   2.925   2.598 -1.7030 -0.5092  0.3528
 3685TIP3    H211062   3.110   3.004   2.727  0.5400  0.0928 -0.1497
 3686TIP3   OH211063   2.164   0.698   0.435  0.2553 -0.0291 -0.0775
 3686TIP3    H111064   2.230   0.672   0.499 -0.1349  0.6667  0.6234
 3686TIP3    H211065   2.091   0.638   0.451  0.3069 -0.1096 -0.1404
 3687TIP3   OH211066   1.411   0.859   0.599 -0.5235 -0.1673  0.7118
 3687TIP3    H111067   1.340   0.885   0.658  0.3637 -1.1607  2.3005
 3687TIP3    H211068   1.450   0.941   0.570 -2.0579  0.3723  0.1408
 3688TIP3   OH211069   3.953   2.545   0.408 -0.2055 -0.2952 -0.2681
 3688TIP3    H111070   3.967   2.595   0.328  1.6776 -0.7824 -0.2852
 3688TIP3    H211071   4.040   2.512   0.431 -0.7931 -0.5664  1.7116
 3689TIP3   OH211072   0.632   5.890   0.976  0.1509  0.5398  0.3111
 3689TIP3    H111073   0.580   5.877   1.055 -0.2805 -1.2992 -0.2109
 3689TIP3    H211074   0.567   5.911   0.908 -0.0529 -1.9890 -0.3933
 3690TIP3   OH211075   0.272   1.616   4.389  0.1137  0.0590  0.1858
 3690TIP3    H111076   0.274   1.617   4.294  1.9895 -0.4149  0.1834
 3690TIP3    H211077   0.361   1.591   4.415 -1.2358 -3.6438  2.0145
 3691TIP3   OH211078   0.742   2.645   3.657  0.5045  0.0353  0.3714
 3691TIP3    H111079   0.777   2.557   3.670 -0.2584 -0.2076  0.8323
 3691TIP3    H211080   0.720   2.675   3.745  0.8399  0.7183  0.2230
 3692TIP3   OH211081   0.213   0.043   2.515 -0.0991  0.7172 -0.2363
 3692TIP3    H111082   0.177   0.010   2.598 -2.3144  0.5361 -1.1959
 3692TIP3    H211083   0.136   0.065   2.462  1.2400  2.9915 -1.4350
 3693TIP3   OH211084   0.063   5.619   4.416  0.5907 -0.2765 -0.3290
 3693TIP3    H111085   0.078   5.528   4.390 -1.1660 -0.6513 -0.1908
 3693TIP3    H211086   0.144   5.646   4.458  1.3946 -1.5510 -1.0031
 3694TIP3   OH211087   4.652   5.664   3.123 -0.0078 -0.0439 -0.0560
 3694TIP3    H111088   4.685   5.708   3.045  1.0229  0.5000  0.6625
 3694TIP3    H211089   4.731   5.631   3.167 -0.5525 -0.1471  0.8709
 3695TIP3   OH211090   0.817   1.002   4.038 -0.6069 -0.2509  0.1316
 3695TIP3    H111091   0.733   0.973   4.004 -0.5652 -0.4681  0.2122
 3695TIP3    H211092   0.801   1.090   4.071 -0.7943 -0.2808  0.1186
 3696TIP3   OH211093   1.706   4.528   0.329 -0.0727  0.3549 -0.5319
 3696TIP3    H111094   1.654   4.548   0.407  0.0276  1.6285 -0.7824
 3696TIP3    H211095   1.677   4.440   0.303  1.6046 -1.1842  2.3378
 3697TIP3   OH211096   0.858   5.150   0.520  0.0994 -0.1551 -0.0745
 3697TIP3    H111097   0.766   5.163   0.545  0.2386 -2.5356  2.0672
 3697TIP3    H211098   0.857   5.070   0.466  0.7968  0.5908 -1.2383
 3698TIP3   OH211099   0.277   0.306   0.867 -0.1307 -0.8369  0.2636
 3698TIP3    H111100   0.244   0.291   0.956  0.5383 -0.3269  0.6054
 3698TIP3    H211101   0.352   0.246   0.859 -0.5698 -1.3404 -0.1903
 3699TIP3   OH211102   1.318   3.432   4.889  0.3001  0.1500  0.2516
 3699TIP3    H111103   1.337   3.347   4.848  1.3737  0.1948  0.6387
 3699TIP3    H211104   1.396   3.485   4.873 -0.4382  1.1462 -0.1509
 3700TIP3   OH211105   2.834   2.514   0.721 -0.0406 -0.4266 -0.1887
 3700TIP3    H111106   2.762   2.484   0.777  0.7468 -1.6827  0.1930
 3700TIP3    H211107   2.877   2.583   0.771 -0.8165  0.1557 -0.3117
 3701TIP3   OH211108   5.387   2.572   3.757 -0.0462 -0.6623 -0.3796
 3701TIP3    H111109   5.465   2.627   3.749 -1.0529  0.8616 -0.0355
 3701TIP3    H211110   5.421   2.485   3.779  1.6394 -0.4181 -1.8207
 3702TIP3   OH211111   0.175   2.411   0.461 -0.2771  0.1899 -0.8381
 3702TIP3    H111112   0.129   2.401   0.544 -0.4880  3.2870 -0.4760
 3702TIP3    H211113   0.255   2.360   0.473 -1.2776 -1.1985  0.4022
 3703TIP3   OH211114   2.169   5.380   0.206  0.1027 -0.0749 -0.5433
 3703TIP3    H111115   2.107   5.318   0.244  0.3023 -0.9050 -1.5467
 3703TIP3    H211116   2.233   5.326   0.160  1.0709  0.8076 -0.2951
 3704TIP3   OH211117   0.756   5.056   2.147  0.3774 -0.5311 -0.7261
 3704TIP3    H111118   0.806   5.089   2.073  1.6363  0.2128  0.4148
 3704TIP3    H211119   0.772   5.119   2.217 -0.8825 -1.1441  0.1587
 3705TIP3   OH211120   0.083   1.014   1.234  0.4167 -0.3888  0.4462
 3705TIP3    H111121   0.147   0.962   1.187  1.2598  0.5136  0.5661
 3705TIP3    H211122   0.078   1.096   1.185 -0.1033 -0.1715  0.8537
 3706TIP3   OH211123   1.391   1.585   5.117  0.0483 -0.1124  0.0753
 3706TIP3    H111124   1.351   1.616   5.035  0.6391 -0.0756 -0.2032
 3706TIP3    H211125   1.341   1.630   5.185  0.4042  0.8944 -0.3002
 3707TIP3   OH211126   1.916   2.152   1.865 -0.4197 -0.4990  0.2467
 3707TIP3    H111127   1.987   2.161   1.928  0.1116 -1.2889 -0.2297
 3707TIP3    H211128   1.858   2.086   1.903  0.3205 -1.5800 -0.4470
 3708TIP3   OH211129   0.992   2.167   1.618  0.0298 -0.1815 -0.3928
 3708TIP3    H111130   1.029   2.174   1.705 -1.8038 -0.8394  0.4874
 3708TIP3    H211131   0.921   2.231   1.616 -0.5013 -0.7731 -1.0885
 3709TIP3   OH211132   3.102   2.055   2.320  0.1275 -0.0712  0.2670
 3709TIP3    H111133   3.011   2.057   2.290  0.2800  0.8777 -0.1894
 3709TIP3    H211134   3.153   2.047   2.239  0.4802  0.6486  0.4084
 3710TIP3   OH211135   4.531   0.989   2.047 -0.3467  0.2632 -0.0572
 3710TIP3    H111136   4.621   0.964   2.025 -0.7321 -0.2690 -1.0739
 3710TIP3    H211137   4.479   0.912   2.025 -1.1220  0.7527  0.0407
 3711TIP3   OH211138   3.670   1.501   3.968 -0.2845  0.5506 -1.1376
 3711TIP3    H111139   3.664   1.455   3.884 -3.4048  0.2645 -0.8867
 3711TIP3    H211140   3.670   1.432   4.034 -0.5466  0.8149 -0.8573
 3712TIP3   OH211141   2.462   3.965   1.153 -0.0267 -0.1092  0.1761
 3712TIP3    H111142   2.496   3.876   1.160  0.6321 -0.0135 -1.4155
 3712TIP3    H211143   2.368   3.957   1.170 -0.0385 -1.1644 -0.3729
 3713TIP3   OH211144   2.136   2.598   3.543 -0.2377 -0.4462  0.1221
 3713TIP3    H111145   2.084   2.666   3.585  2.0297 -0.4742  3.3514
 3713TIP3    H211146   2.160   2.635   3.457 -1.5007  1.5513  0.5647
 3714TIP3   OH211147   4.015   5.454   4.551  0.2537 -0.1585 -0.0284
 3714TIP3    H111148   3.926   5.484   4.535  0.8243  0.2342 -2.9069
 3714TIP3    H211149   4.004   5.372   4.600 -1.4824  1.7543  3.0769
 3715TIP3   OH211150   6.115   0.087   3.492 -0.1562 -0.0136 -0.5086
 3715TIP3    H111151   6.045   0.081   3.427 -1.6029  0.0160  0.9995
 3715TIP3    H211152   6.147   0.176   3.484  0.1588 -0.2016 -1.6199
 3716TIP3   OH211153   1.106   2.188   2.485  0.4440  0.1057  0.0509
 3716TIP3    H111154   1.190   2.212   2.523  0.5045 -1.1673  0.7841
 3716TIP3    H211155   1.056   2.152   2.558 -0.2286 -0.4387 -0.6536
 3717TIP3   OH211156   5.372   5.042   3.489 -0.1085 -0.2731  0.0486
 3717TIP3    H111157   5.449   4.989   3.511  0.1528 -0.2240 -0.7272
 3717TIP3    H211158   5.336   5.001   3.410 -0.0509  0.5502 -0.4173
 3718TIP3   OH211159   0.155   5.613   1.026  0.5737 -0.8029  0.2305
 3718TIP3    H111160   0.109   5.588   0.946 -0.4512  0.9771  0.2031
 3718TIP3    H211161   0.245   5.632   0.997 -0.4294  2.6139 -1.1872
 3719TIP3   OH211162   2.050   2.341   3.158  0.5874 -0.8445 -0.5762
 3719TIP3    H111163   1.977   2.293   3.119 -0.1605  0.5120 -0.9018
 3719TIP3    H211164   2.023   2.357   3.248  0.0248  0.5039 -0.9639
 3720TIP3   OH211165   1.846   4.082   5.107 -0.5542 -0.0909 -0.0047
 3720TIP3    H111166   1.856   3.989   5.127 -1.0387 -0.6197 -2.0232
 3720TIP3    H211167   1.768   4.086   5.051  1.1361  1.1339 -2.4048
 3721TIP3   OH211168   3.072   3.531   2.480 -0.5667 -0.4424 -0.1898
 3721TIP3    H111169   3.025   3.453   2.509 -2.2010  0.6795  0.3429
 3721TIP3    H211170   3.049   3.598   2.543 -0.2644  0.8176 -1.3636
 3722TIP3   OH211171   5.380   3.065   2.376  0.2747  0.3529 -0.8156
 3722TIP3    H111172   5.377   3.027   2.464  2.3078  1.2371 -0.3232
 3722TIP3    H211173   5.473   3.075   2.357 -0.1473  1.2549 -2.6038
 3723TIP3   OH211174   3.675   0.864   2.665  0.1411 -0.3930 -0.3644
 3723TIP3    H111175   3.584   0.833   2.671  0.5634 -1.4972  0.8515
 3723TIP3    H211176   3.667   0.955   2.636 -1.2983 -0.7736 -1.2952
 3724TIP3   OH211177   5.131   3.845   4.886 -0.0621  0.0747 -0.2603
 3724TIP3    H111178   5.187   3.816   4.957 -2.0090  0.1888  1.4019
 3724TIP3    H211179   5.182   3.828   4.807  1.3801 -1.9739  1.0107
 3725TIP3   OH211180   0.486   5.341   3.673 -0.4544  0.3366  0.7898
 3725TIP3    H111181   0.504   5.418   3.726 -0.6830  0.1799  1.0974
 3725TIP3    H211182   0.482   5.374   3.583  1.2062  0.4082  0.7200
 3726TIP3   OH211183   4.625   5.667   4.245 -0.0201 -0.3230 -0.3145
 3726TIP3    H111184   4.651   5.753   4.210  1.3206 -0.6752 -0.2592
 3726TIP3    H211185   4.708   5.625   4.269 -0.7558 -0.9060  1.4067
 3727TIP3   OH211186   4.499   1.235   1.842 -0.2070 -0.2911  0.6610
 3727TIP3    H111187   4.424   1.218   1.899  0.0566 -0.9682  0.8200
 3727TIP3    H211188   4.571   1.257   1.902 -0.9285  3.2583  0.4217
 3728TIP3   OH211189   4.509   2.342   3.626  0.3345  0.2220  0.1197
 3728TIP3    H111190   4.477   2.295   3.549  2.1034 -0.6425 -0.1313
 3728TIP3    H211191   4.575   2.401   3.592 -0.4734  1.4998  0.7076
 3729TIP3   OH211192   1.759   2.098   2.277  0.3976 -0.7812 -1.1919
 3729TIP3    H111193   1.727   2.187   2.264  1.5317 -0.4019 -1.5072
 3729TIP3    H211194   1.684   2.049   2.310 -0.2600  0.2677 -1.1231
 3730TIP3   OH211195   4.359   3.029   0.389 -0.4490  0.4638 -0.1255
 3730TIP3    H111196   4.439   3.041   0.440 -0.6230 -0.8610  0.5082
 3730TIP3    H211197   4.339   3.116   0.355  0.5867  1.0544  0.7075
 3731TIP3   OH211198   2.921   5.083   2.460 -0.3972 -0.1470 -0.0909
 3731TIP3    H111199   2.892   5.037   2.539 -1.8982  1.4873  0.3666
 3731TIP3    H211200   2.897   5.025   2.388 -2.1251 -0.1882  0.4713
 3732TIP3   OH211201   4.989   1.767   4.909  0.1021 -0.3078  0.2014
 3732TIP3    H111202   4.967   1.692   4.965  0.6569  0.1978  1.1129
 3732TIP3    H211203   5.052   1.818   4.960 -0.4983  0.9551 -0.2641
 3733TIP3   OH211204   3.388   0.328   4.979 -0.2848 -0.4233 -0.3133
 3733TIP3    H111205   3.388   0.423   4.989  0.1707 -0.4747  0.1929
 3733TIP3    H211206   3.295   0.305   4.971 -0.4389 -0.0116  0.2875
 3734TIP3   OH211207   5.752   1.066   1.432  0.0637 -0.5416 -0.0308
 3734TIP3    H111208   5.774   1.069   1.525  0.0949 -1.2990 -0.0063
 3734TIP3    H211209   5.675   1.009   1.428 -1.3640  1.3238 -0.2138
 3735TIP3   OH211210   5.389   1.696   2.049  0.4651 -0.5732 -0.0833
 3735TIP3    H111211   5.463   1.757   2.051  0.3871 -0.4909  1.7067
 3735TIP3    H211212   5.311   1.751   2.057  0.3773 -0.8519  1.1641
 3736TIP3   OH211213   3.935   3.337   2.101 -0.1577 -0.0013 -0.3891
 3736TIP3    H111214   4.010   3.294   2.143  0.5371  0.0381 -1.5631
 3736TIP3    H211215   3.858   3.297   2.143  0.5061 -0.4921  0.3820
 3737TIP3   OH211216   3.742   4.285   2.568  0.0004 -0.1539  0.1364
 3737TIP3    H111217   3.664   4.231   2.560 -0.2454 -0.0332  1.5115
 3737TIP3    H211218   3.709   4.372   2.589  0.5282 -0.4691  2.4755
 3738TIP3   OH211219   3.530   1.837   1.932  0.1790  0.7299 -0.1374
 3738TIP3    H111220   3.467   1.773   1.965  0.3038  1.5824  1.8742
 3738TIP3    H211221   3.476   1.906   1.893  0.0306 -0.2920 -1.8385
 3739TIP3   OH211222   1.589   1.806   3.498  0.0429 -0.6785  0.0704
 3739TIP3    H111223   1.520   1.872   3.507 -0.0875 -0.5343 -1.7109
 3739TIP3    H211224   1.665   1.855   3.467  0.7552 -0.9599  1.3116
 3740TIP3   OH211225   5.727   0.465   3.063  0.4334 -0.3172  0.0395
 3740TIP3    H111226   5.723   0.462   3.159 -0.3977 -1.9633 -0.0170
 3740TIP3    H211227   5.640   0.493   3.036  0.4759 -0.4548 -0.2470
 3741TIP3   OH211228   0.433   1.367   0.878  0.3463 -0.1045  0.5397
 3741TIP3    H111229   0.445   1.462   0.881  1.0488 -0.0138 -2.4630
 3741TIP3    H211230   0.522   1.332   0.873  0.0495 -0.8531  0.4067
 3742TIP3   OH211231   5.181   1.023   4.258  0.0674 -0.5176 -0.1473
 3742TIP3    H111232   5.199   0.979   4.174 -0.5585  0.0101 -0.5646
 3742TIP3    H211233   5.185   0.952   4.322 -2.1282 -1.4715 -0.9478
 3743TIP3   OH211234   2.601   3.206   0.564  0.4279 -0.1447 -0.2162
 3743TIP3    H111235   2.530   3.211   0.500  0.3164 -1.8176 -0.2646
 3743TIP3    H211236   2.677   3.244   0.519  0.0878 -0.3197 -0.9580
 3744TIP3   OH211237   1.994   0.603   1.588  0.3698 -0.2040  0.0974
 3744TIP3    H111238   1.908   0.628   1.553  0.0056  0.4901  1.4011
 3744TIP3    H211239   2.035   0.554   1.517 -0.7595  0.1847 -0.8738
 3745TIP3   OH211240   2.735   4.978   4.802 -0.6960 -0.1093 -0.1286
 3745TIP3    H111241   2.696   5.057   4.839 -0.3638 -0.3513  0.7754
 3745TIP3    H211242   2.820   4.971   4.846 -0.4879 -0.6680 -0.6088
 3746TIP3   OH211243   5.001   3.877   1.939  0.5741 -0.9343  0.0129
 3746TIP3    H111244   5.003   3.954   1.996 -1.0588 -1.1303  0.3884
 3746TIP3    H211245   5.088   3.873   1.900  1.8141 -0.8680  2.5861
 3747TIP3   OH211246   3.012   4.696   4.142 -0.1683  0.2382 -0.5764
 3747TIP3    H111247   2.938   4.731   4.091 -0.1971  1.2230  0.1129
 3747TIP3    H211248   2.982   4.701   4.233 -1.2968 -4.2199 -0.4907
 3748TIP3   OH211249   6.007   4.230   1.995 -0.5328  0.0467 -0.4359
 3748TIP3    H111250   6.014   4.201   2.086  0.9896 -0.4202 -0.6763
 3748TIP3    H211251   5.954   4.310   2.000 -2.8786 -1.4531  0.5054
 3749TIP3   OH211252   1.942   3.129   2.890  0.3793  0.1424 -0.4024
 3749TIP3    H111253   1.892   3.072   2.949  1.3590 -1.1264 -0.7552
 3749TIP3    H211254   1.913   3.217   2.912  0.5092 -0.3143  1.8043
 3750TIP3   OH211255   1.473   2.821   1.727  0.1264 -0.1792  0.5001
 3750TIP3    H111256   1.425   2.761   1.785  1.4058 -0.3930  1.3978
 3750TIP3    H211257   1.434   2.907   1.743 -0.9845 -0.5787  0.0343
 3751TIP3   OH211258   5.505   1.337   2.606  0.0969  0.2082 -0.4764
 3751TIP3    H111259   5.584   1.310   2.653  1.1001  0.8373 -1.7292
 3751TIP3    H211260   5.457   1.390   2.670  0.4017 -0.6338  0.4844
 3752TIP3   OH211261   0.855   1.115   5.166 -0.3225 -0.1516  0.4508
 3752TIP3    H111262   0.895   1.143   5.248 -0.7514 -0.6095  0.8166
 3752TIP3    H211263   0.924   1.065   5.121 -0.1650 -0.1007  0.6367
 3753TIP3   OH211264   4.644   1.675   3.055 -0.5536  0.0278 -0.2575
 3753TIP3    H111265   4.665   1.758   3.011 -0.7817  0.9161  1.2306
 3753TIP3    H211266   4.578   1.699   3.119  0.1018 -1.1256  0.8858
 3754TIP3   OH211267   0.907   2.401   3.640 -0.2789  0.0965  0.1628
 3754TIP3    H111268   0.880   2.311   3.624 -2.3339  0.6577  0.1293
 3754TIP3    H211269   0.977   2.394   3.705 -0.4224 -1.5161  0.1869
 3755TIP3   OH211270   5.531   5.815   4.123  0.4708 -0.3055  0.0102
 3755TIP3    H111271   5.626   5.811   4.132  0.3082  0.6384  4.2949
 3755TIP3    H211272   5.500   5.734   4.163 -0.5307  0.6862  1.3292
 3756TIP3   OH211273   0.455   5.901   5.053  0.0340  0.2004 -0.6450
 3756TIP3    H111274   0.391   5.912   4.982  0.6805  1.8971 -1.0123
 3756TIP3    H211275   0.403   5.884   5.131 -0.8443  0.9964 -1.0438
 3757TIP3   OH211276   1.069   1.501   3.391 -0.1229 -0.0655  0.2800
 3757TIP3    H111277   1.140   1.453   3.348  0.6202  1.4596 -0.2753
 3757TIP3    H211278   0.989   1.464   3.354  0.4836  0.7075 -1.9640
 3758TIP3   OH211279   3.357   1.434   1.253 -0.1280 -0.3284  0.1536
 3758TIP3    H111280   3.411   1.358   1.274 -0.3018 -0.2775  0.8263
 3758TIP3    H211281   3.310   1.409   1.173  0.5676 -0.5320 -0.2015
 3759TIP3   OH211282   4.406   1.965   2.813  0.7917 -0.1157  0.5858
 3759TIP3    H111283   4.394   1.955   2.719  1.0699 -1.5938  0.6838
 3759TIP3    H211284   4.347   2.036   2.838  0.7764  0.3370 -0.7095
 3760TIP3   OH211285   1.147   2.597   1.056  0.7851 -0.8222  0.0616
 3760TIP3    H111286   1.203   2.525   1.027  0.6659 -1.4761  1.3793
 3760TIP3    H211287   1.188   2.628   1.137 -0.2065 -0.6799  0.5282
 3761TIP3   OH211288   3.516   4.380   0.367 -0.4950  0.2004  0.1140
 3761TIP3    H111289   3.576   4.448   0.334  0.3462 -1.2443 -1.4617
 3761TIP3    H211290   3.488   4.413   0.452  4.1901  0.0502  2.0211
 3762TIP3   OH211291   3.934   2.180   0.034  0.2924  0.3648  0.1985
 3762TIP3    H111292   3.913   2.117   0.103 -1.0366 -0.7662 -1.1660
 3762TIP3    H211293   3.890   2.260   0.061  0.5053  0.1974  1.0758
 3763TIP3   OH211294   0.193   1.966   0.434  0.5071  0.2568 -0.5208
 3763TIP3    H111295   0.174   2.041   0.378  1.5095  0.1539 -1.0188
 3763TIP3    H211296   0.170   1.995   0.522  0.0081  0.8155 -0.8286
 3764TIP3   OH211297   5.771   3.471   4.508  0.0849  0.2226 -0.2670
 3764TIP3    H111298   5.680   3.483   4.534  0.5755 -0.2528  1.8970
 3764TIP3    H211299   5.768   3.400   4.444 -1.2003  1.3589 -1.5312
 3765TIP3   OH211300   1.611   1.878   0.170 -0.3063 -0.3791 -0.4454
 3765TIP3    H111301   1.677   1.809   0.170 -1.7058 -1.7605 -0.6729
 3765TIP3    H211302   1.552   1.856   0.242 -1.1691  0.1819 -0.9593
 3766TIP3   OH211303   0.017   3.674   0.736  0.7127  0.2505 -0.2465
 3766TIP3    H111304   0.069   3.709   0.664  0.7867 -0.5855 -0.6159
 3766TIP3    H211305   0.049   3.584   0.747 -0.7114 -0.3265 -0.5577
 3767TIP3   OH211306   6.249   5.741   3.680  0.1098  0.0690  0.2795
 3767TIP3    H111307   6.237   5.745   3.775  3.2623 -0.8989  0.8520
 3767TIP3    H211308   6.267   5.832   3.655 -0.4190  0.2813  0.6456
 3768TIP3   OH211309   0.304   5.607   2.090 -0.7428 -0.1809  0.4861
 3768TIP3    H111310   0.357   5.550   2.034  0.4073 -0.5466  1.9091
 3768TIP3    H211311   0.217   5.568   2.088 -0.6046 -0.4685 -0.6423
 3769TIP3   OH211312   5.528   1.034   0.402  0.5732  0.2122 -0.2196
 3769TIP3    H111313   5.564   0.947   0.420 -0.7331 -0.2836  0.1318
 3769TIP3    H211314   5.518   1.037   0.307  1.1543  0.1966 -0.2817
 3770TIP3   OH211315   0.279   5.101   1.542  0.4033 -0.0991 -0.2526
 3770TIP3    H111316   0.369   5.072   1.551  0.3122 -0.2936  0.0269
 3770TIP3    H211317   0.254   5.132   1.629  1.2554  3.0459 -0.9750
 3771TIP3   OH211318   1.827   2.370   0.039  0.3696  0.6208  0.4884
 3771TIP3    H111319   1.777   2.291   0.059 -0.9766  1.3275  0.0324
 3771TIP3    H211320   1.899   2.339  -0.016  0.1915 -0.3535  0.7720
 3772TIP3   OH211321   3.807   0.991   1.593 -0.3257  0.2948 -0.0103
 3772TIP3    H111322   3.859   1.064   1.627  0.6425 -0.5458  0.3894
 3772TIP3    H211323   3.769   1.024   1.512 -1.3784  1.8343  1.0421
 3773TIP3   OH211324   2.951   5.502   0.430  0.2028 -0.6330 -0.3972
 3773TIP3    H111325   2.910   5.444   0.493 -0.8569 -1.0200 -1.4049
 3773TIP3    H211326   3.008   5.445   0.378  0.3389 -0.4965 -0.3976
 3774TIP3   OH211327   4.745   4.326   4.434 -0.2574 -0.0181  0.2822
 3774TIP3    H111328   4.679   4.288   4.376 -1.2198 -0.0551  1.3514
 3774TIP3    H211329   4.758   4.415   4.400  0.4061 -0.5565 -0.9398
 3775TIP3   OH211330   2.937   1.322   0.689 -0.3715 -0.0167 -0.1301
 3775TIP3    H111331   2.950   1.308   0.595  0.5974  0.5518 -0.0927
 3775TIP3    H211332   2.847   1.293   0.705  0.2277 -2.4752 -0.7629
 3776TIP3   OH211333   1.678   4.415   3.460  0.2745 -0.1642 -0.2708
 3776TIP3    H111334   1.694   4.335   3.410 -0.2407  1.1861 -2.7061
 3776TIP3    H211335   1.693   4.486   3.399 -0.7863  1.6000  1.3902
 3777TIP3   OH211336   1.664   5.451   0.620  0.2037  0.0619  0.5645
 3777TIP3    H111337   1.610   5.374   0.640 -1.1974  0.6644 -0.6449
 3777TIP3    H211338   1.753   5.417   0.617 -0.3241 -1.4322  0.5583
 3778TIP3   OH211339   1.369   4.256   1.276 -0.4839  0.2067 -0.5142
 3778TIP3    H111340   1.406   4.344   1.284  0.7466 -0.4377  1.9458
 3778TIP3    H211341   1.409   4.207   1.348  0.3731 -2.9329 -2.8961
 3779TIP3   OH211342   5.900   2.935   2.888  0.0853 -0.1952  0.4732
 3779TIP3    H111343   5.929   3.017   2.850 -1.8367 -0.2526 -1.2871
 3779TIP3    H211344   5.973   2.875   2.875  1.2543  1.0148  1.1930
 3780TIP3   OH211345   2.187   4.788   0.993 -0.3894 -0.8740  0.4748
 3780TIP3    H111346   2.167   4.855   0.927  2.7362  0.5473  0.7821
 3780TIP3    H211347   2.116   4.794   1.056 -2.0661 -0.4057 -1.3702
 3781TIP3   OH211348   0.848   2.374   2.567  0.6397  0.3606  0.2344
 3781TIP3    H111349   0.870   2.395   2.658 -0.1248 -0.9738  0.7661
 3781TIP3    H211350   0.761   2.411   2.555  1.5368  2.3214 -0.6495
 3782TIP3   OH211351   6.237   4.438   3.344  0.1128 -0.1326  0.1479
 3782TIP3    H111352   6.270   4.446   3.255 -2.3482 -0.3558 -0.8531
 3782TIP3    H211353   6.216   4.527   3.370  1.3491  0.0021  0.7643
 3783TIP3   OH211354   1.835   3.998   3.964 -0.5151 -0.3931  0.4539
 3783TIP3    H111355   1.840   4.016   4.058 -0.8637  1.1257  0.2053
 3783TIP3    H211356   1.753   4.038   3.936 -0.4181 -0.8336 -0.5099
 3784TIP3   OH211357   0.904   4.379   1.421  0.0367 -0.8839 -0.3963
 3784TIP3    H111358   0.952   4.445   1.472 -2.0564 -0.7201  1.5490
 3784TIP3    H211359   0.972   4.324   1.383  1.7888  0.6348  0.3529
 3785TIP3   OH211360   2.426   4.030   3.957  0.3869  0.6415  0.9610
 3785TIP3    H111361   2.395   3.944   3.927  0.9433  1.1134 -1.1552
 3785TIP3    H211362   2.497   4.011   4.017  0.7360 -0.4039  0.2479
 3786TIP3   OH211363   4.699   5.962   1.975  0.5764  0.0568  0.2669
 3786TIP3    H111364   4.751   5.984   1.898 -1.1955  0.8649 -0.7722
 3786TIP3    H211365   4.750   5.996   2.049  1.8888  0.0793 -0.6131
 3787TIP3   OH211366   0.098   1.333   5.086 -0.1496 -0.7044  0.1013
 3787TIP3    H111367   0.012   1.290   5.091  1.0235 -3.1387  1.3101
 3787TIP3    H211368   0.153   1.270   5.040  0.7450  1.3765 -1.8070
 3788TIP3   OH211369   5.825   3.693   1.705 -0.5605  0.5679  0.0360
 3788TIP3    H111370   5.783   3.758   1.761 -0.3321  1.1852 -0.4966
 3788TIP3    H211371   5.918   3.704   1.722 -0.4773  0.8951 -0.5991
 3789TIP3   OH211372   1.423   2.276   0.787 -0.1968  0.3066 -0.1155
 3789TIP3    H111373   1.473   2.343   0.740  1.6829 -0.6770  0.3843
 3789TIP3    H211374   1.488   2.233   0.843 -1.4072 -1.7864 -0.2423
 3790TIP3   OH211375   2.974   5.465   2.271  0.5265 -0.6454  0.5958
 3790TIP3    H111376   2.996   5.415   2.192 -1.5058 -0.3112 -0.2352
 3790TIP3    H211377   2.971   5.556   2.242 -0.1585 -0.5113  1.0598
 3791TIP3   OH211378   5.290   0.899   1.433  0.7033 -0.4967  0.8464
 3791TIP3    H111379   5.310   0.941   1.516 -2.2827  1.0107  0.9705
 3791TIP3    H211380   5.293   0.971   1.369 -1.1097 -0.7284  0.4430
 3792TIP3   OH211381   2.445   2.437   1.293 -0.3493 -0.0137 -0.6095
 3792TIP3    H111382   2.519   2.377   1.282 -0.3926  0.2238 -2.5124
 3792TIP3    H211383   2.416   2.422   1.383 -0.1538 -2.6199 -0.8966
 3793TIP3   OH211384   6.255   2.145   3.102  0.1388  0.0046  0.4815
 3793TIP3    H111385   6.167   2.130   3.135  0.1034 -0.0459  0.3656
 3793TIP3    H211386   6.261   2.089   3.024  0.3029 -0.0596  0.5396
 3794TIP3   OH211387   4.312   3.365   0.702 -0.5870 -0.2484 -0.5335
 3794TIP3    H111388   4.216   3.358   0.699 -0.6825 -0.3434  1.3234
 3794TIP3    H211389   4.342   3.278   0.728  0.0528 -0.3187 -1.4548
 3795TIP3   OH211390   3.085   2.960   0.278 -0.0620 -0.0956  0.0092
 3795TIP3    H111391   2.995   2.945   0.307  0.8335 -2.1616  2.0394
 3795TIP3    H211392   3.090   2.919   0.192 -0.9559 -0.4356  0.1134
 3796TIP3   OH211393   2.571   0.253   4.977  0.3835  0.4425 -0.2105
 3796TIP3    H111394   2.642   0.193   4.955 -0.7023 -0.8597 -0.2778
 3796TIP3    H211395   2.610   0.317   5.035  1.6683 -0.1030 -0.4530
 3797TIP3   OH211396   2.235   0.279   4.258 -0.0408  0.2714 -0.0152
 3797TIP3    H111397   2.172   0.276   4.330 -0.0116 -0.1089 -0.0045
 3797TIP3    H211398   2.314   0.317   4.298  0.0319 -0.0982  0.2018
 3798TIP3   OH211399   1.261   4.015   1.107 -0.6557  0.1539 -0.2914
 3798TIP3    H111400   1.268   4.109   1.088 -1.1310  0.0584 -0.9633
 3798TIP3    H211401   1.266   4.009   1.202  1.4928  0.6829 -0.3275
 3799TIP3   OH211402   4.068   2.488   1.515  0.2928 -0.0087  0.7207
 3799TIP3    H111403   4.128   2.442   1.574  1.0912  0.6181  0.4127
 3799TIP3    H211404   4.007   2.534   1.573 -0.3028 -1.1432  1.0345
 3800TIP3   OH211405   0.980   5.232   4.637 -0.1593  0.2477  0.5979
 3800TIP3    H111406   0.889   5.204   4.649  0.7400 -3.2148  0.3649
 3800TIP3    H211407   1.005   5.269   4.721 -1.0171 -1.3140  1.5953
 3801TIP3   OH211408   6.140   0.362   1.365  0.3067  0.4683 -0.1625
 3801TIP3    H111409   6.155   0.421   1.440  1.5567 -0.1294  0.0951
 3801TIP3    H211410   6.107   0.282   1.405  1.4698 -0.0341 -0.1664
 3802TIP3   OH211411   4.413   2.045   4.830  0.2268 -0.0700  0.2341
 3802TIP3    H111412   4.333   1.994   4.823  0.5501 -0.7235  1.1079
 3802TIP3    H211413   4.475   1.999   4.774 -0.4378  1.3771 -1.7832
 3803TIP3   OH211414   0.432   2.026   1.366 -0.1021  0.3250 -0.1903
 3803TIP3    H111415   0.482   2.075   1.432  0.6966 -0.8207  0.0731
 3803TIP3    H211416   0.469   1.938   1.368 -0.0406  0.2761 -2.2196
 3804TIP3   OH211417   2.637   4.703   4.824  0.0430  0.6460  0.5025
 3804TIP3    H111418   2.645   4.798   4.815  0.8982  0.4437 -1.5242
 3804TIP3    H211419   2.707   4.678   4.884  0.5418  1.2034  0.1639
 3805TIP3   OH211420   3.032   0.465   0.434  0.2691 -0.5901  0.3272
 3805TIP3    H111421   2.957   0.513   0.470  1.1507  1.1644 -0.0869
 3805TIP3    H211422   2.992   0.392   0.386 -1.1687  0.1611  0.3204
 3806TIP3   OH211423   1.662   5.769   2.201  0.3500  0.6626  0.1354
 3806TIP3    H111424   1.581   5.795   2.157  0.3083  0.7056  0.2387
 3806TIP3    H211425   1.654   5.674   2.210  0.9167  0.4766 -1.0892
 3807TIP3   OH211426   3.897   1.235   0.300 -0.4461 -0.2758  0.2836
 3807TIP3    H111427   3.858   1.323   0.298  1.1663  0.5307  1.4808
 3807TIP3    H211428   3.823   1.176   0.314 -1.8194  0.6585 -2.3605
 3808TIP3   OH211429   5.166   1.913   4.157  0.2743  0.3175 -0.3279
 3808TIP3    H111430   5.213   1.907   4.240  0.1071 -0.3109 -0.2737
 3808TIP3    H211431   5.098   1.845   4.163 -0.6270  1.1775 -0.4067
 3809TIP3   OH211432   3.285   0.182   2.036  1.0856 -0.0599 -0.8012
 3809TIP3    H111433   3.209   0.220   2.081  0.8580 -0.4406 -0.8612
 3809TIP3    H211434   3.247   0.127   1.968  1.4303  0.8455 -1.7532
 3810TIP3   OH211435   4.564   1.045   2.753 -0.0664  0.0522 -0.3255
 3810TIP3    H111436   4.471   1.060   2.769  0.3008  0.3005  2.0026
 3810TIP3    H211437   4.581   1.084   2.668 -1.9006  0.8677 -0.3575
 3811TIP3   OH211438   0.233   4.841   2.916 -0.0128 -0.5106  0.4330
 3811TIP3    H111439   0.304   4.795   2.961  0.3747  0.0598  0.4143
 3811TIP3    H211440   0.270   4.863   2.830 -0.0818  0.1035  0.5568
 3812TIP3   OH211441   1.473   1.637   0.795  0.2003  0.4272  0.2564
 3812TIP3    H111442   1.548   1.692   0.772  0.3751 -0.4919 -1.5293
 3812TIP3    H211443   1.446   1.668   0.882  1.9878  1.4682  0.4841
 3813TIP3   OH211444   2.005   5.253   3.976 -0.1775  0.5942  0.2717
 3813TIP3    H111445   2.021   5.290   3.889  1.6588 -0.6842  0.0077
 3813TIP3    H211446   1.997   5.159   3.960 -1.4811  0.5093  1.3131
 3814TIP3   OH211447   1.655   5.386   2.762  0.1059 -0.4192  0.4933
 3814TIP3    H111448   1.731   5.440   2.783  0.5569 -1.0279  0.4215
 3814TIP3    H211449   1.633   5.409   2.672  0.0043 -0.0173  0.6151
 3815TIP3   OH211450   0.723   0.986   3.612  0.3493 -0.2303 -0.0908
 3815TIP3    H111451   0.802   1.038   3.626 -0.2338  0.2778  1.5649
 3815TIP3    H211452   0.747   0.898   3.643  0.8359 -0.5625 -1.3762
 3816TIP3   OH211453   0.273   1.347   4.493  0.0483  0.4985  0.4942
 3816TIP3    H111454   0.218   1.346   4.571  0.3432  1.5144  0.7174
 3816TIP3    H211455   0.264   1.435   4.457  0.9688  0.4567  0.1287
 3817TIP3   OH211456   2.780   0.581   0.393 -0.1136  0.0392  0.0083
 3817TIP3    H111457   2.710   0.642   0.369 -0.2208  0.8304  2.1687
 3817TIP3    H211458   2.789   0.590   0.488  1.2382 -1.8739  0.1177
 3818TIP3   OH211459   4.356   1.474   0.544  0.2961  0.0089 -0.4738
 3818TIP3    H111460   4.349   1.460   0.639  2.4228 -0.3334 -0.3250
 3818TIP3    H211461   4.279   1.428   0.508 -0.3461 -0.1754  1.0420
 3819TIP3   OH211462   4.480   4.438   0.723  0.0187  0.4281 -0.3451
 3819TIP3    H111463   4.507   4.444   0.631 -0.2824  2.8361 -0.3322
 3819TIP3    H211464   4.399   4.488   0.727 -1.0931 -1.3349  0.8920
 3820TIP3   OH211465   0.754   3.839   2.898 -0.4745 -0.6148 -0.1735
 3820TIP3    H111466   0.833   3.827   2.846 -0.6374  0.4389 -0.6810
 3820TIP3    H211467   0.780   3.897   2.970 -0.2661 -1.9999  0.9268
 3821TIP3   OH211468   6.026   2.868   1.339  0.0002 -0.2886  0.4819
 3821TIP3    H111469   5.977   2.846   1.261 -1.0659 -0.3267  1.1478
 3821TIP3    H211470   6.048   2.783   1.378 -0.0224 -0.2563  0.5653
 3822TIP3   OH211471   2.536   0.311   1.258  0.1599 -0.0617  0.0597
 3822TIP3    H111472   2.565   0.225   1.228 -0.6254 -0.4776  0.4627
 3822TIP3    H211473   2.617   0.359   1.277  0.6359 -0.3363 -1.1717
 3823TIP3   OH211474   4.883   3.976   4.215  0.1825 -0.3103 -0.4420
 3823TIP3    H111475   4.957   4.026   4.182 -0.1436  0.9585  0.6697
 3823TIP3    H211476   4.828   3.960   4.139  0.9132 -0.0727 -1.0270
 3824TIP3   OH211477   4.067   5.818   2.808  0.4063  0.0308  0.1578
 3824TIP3    H111478   4.049   5.741   2.754 -2.7129  0.3309  0.5731
 3824TIP3    H211479   4.066   5.786   2.898 -2.3259  0.6218  0.4379
 3825TIP3   OH211480   1.918   0.495   2.800  0.5769 -0.2307 -0.1236
 3825TIP3    H111481   1.924   0.480   2.894  1.0996  0.5229 -0.0313
 3825TIP3    H211482   1.981   0.564   2.782 -0.0132  0.1218 -0.9206
 3826TIP3   OH211483   1.400   4.602   0.439 -0.4706 -0.1608 -0.5245
 3826TIP3    H111484   1.382   4.620   0.347  3.8084 -0.5323 -1.6657
 3826TIP3    H211485   1.362   4.515   0.454 -1.9555  0.2567 -1.6217
 3827TIP3   OH211486   2.559   2.443   1.986  0.0355 -0.0599  0.4692
 3827TIP3    H111487   2.599   2.474   1.905  0.7467 -2.8437 -0.3543
 3827TIP3    H211488   2.465   2.446   1.969  0.0776  1.3959  0.3847
 3828TIP3   OH211489   3.442   3.660   1.156  0.3911  0.1507 -0.0421
 3828TIP3    H111490   3.421   3.578   1.202 -0.9737  0.8734  0.6923
 3828TIP3    H211491   3.478   3.717   1.224  0.1712  0.5766 -0.2778
 3829TIP3   OH211492   2.208   3.802   5.101 -0.5213  0.6864 -0.3262
 3829TIP3    H111493   2.277   3.764   5.155 -0.3858 -0.4175 -1.2255
 3829TIP3    H211494   2.161   3.861   5.160  0.5355  0.6679  0.5766
 3830TIP3   OH211495   5.885   2.683   0.696 -0.3378  0.5714  0.1396
 3830TIP3    H111496   5.858   2.772   0.671  0.7753  0.3308 -2.2262
 3830TIP3    H211497   5.977   2.677   0.669  0.0092 -0.9031  1.4775
 3831TIP3   OH211498   2.998   0.717   2.055 -0.2065 -0.0841 -0.1195
 3831TIP3    H111499   3.014   0.673   1.972 -1.6998 -1.1592  0.1158
 3831TIP3    H211500   2.943   0.656   2.104  0.5780  0.5512  1.6408
 3832TIP3   OH211501   5.821   5.688   3.828 -0.2884 -0.5039  0.1424
 3832TIP3    H111502   5.840   5.782   3.837 -0.8849  0.0424 -3.0327
 3832TIP3    H211503   5.903   5.649   3.800 -0.2632 -0.7548  0.5687
 3833TIP3   OH211504   3.909   5.599   1.610  0.2142  0.0428  0.0666
 3833TIP3    H111505   3.992   5.560   1.583  0.4111  0.9637 -0.7175
 3833TIP3    H211506   3.933   5.683   1.649 -0.2224 -0.4656  1.5007
 3834TIP3   OH211507   5.654   2.760   1.825  0.8316  0.3291 -0.6524
 3834TIP3    H111508   5.573   2.742   1.778 -0.8682 -2.2413  2.7733
 3834TIP3    H211509   5.669   2.682   1.878  3.9563  1.8995  1.1140
 3835TIP3   OH211510   0.668   5.080   2.650  0.2692 -0.7703  0.1186
 3835TIP3    H111511   0.740   5.040   2.602  1.9315  3.3756 -1.3258
 3835TIP3    H211512   0.596   5.085   2.586  0.4519 -0.4945 -0.0686
 3836TIP3   OH211513   4.941   4.473   3.862 -0.0355 -0.3379 -0.7685
 3836TIP3    H111514   4.901   4.521   3.789 -0.9756  0.2903  0.1411
 3836TIP3    H211515   4.939   4.381   3.833  0.4924 -0.0112 -1.9275
 3837TIP3   OH211516   4.432   1.788   3.195 -0.2685 -0.7219  0.0840
 3837TIP3    H111517   4.370   1.854   3.163  0.3234 -0.5158 -0.6953
 3837TIP3    H211518   4.407   1.772   3.286 -1.0598 -0.1765 -0.0326
 3838TIP3   OH211519   4.460   3.844   0.023  0.2320 -0.7008 -0.0817
 3838TIP3    H111520   4.510   3.781   0.074 -0.5499 -1.3283 -0.0827
 3838TIP3    H211521   4.398   3.882   0.085 -0.0390 -0.7340 -0.3291
 3839TIP3   OH211522   3.288   0.642   1.601  0.1251 -0.1615 -0.4031
 3839TIP3    H111523   3.279   0.738   1.601  1.0825 -0.0612 -0.6225
 3839TIP3    H211524   3.203   0.610   1.572 -0.9802  0.5332  1.8573
 3840TIP3   OH211525   5.072   5.309   3.171  0.2939 -0.3137 -0.5024
 3840TIP3    H111526   5.056   5.222   3.136 -0.7457 -0.4915  0.3671
 3840TIP3    H211527   5.118   5.355   3.101 -0.3264 -1.1388 -1.4732
 3841TIP3   OH211528   6.257   4.754   1.782  0.2179 -0.1595  0.3788
 3841TIP3    H111529   6.343   4.717   1.802  0.8870  0.2794 -1.4449
 3841TIP3    H211530   6.195   4.691   1.817  1.3161 -1.7817 -0.4385
 3842TIP3   OH211531   4.689   5.920   4.167 -0.2371  0.2629  0.7711
 3842TIP3    H111532   4.609   5.960   4.202  0.6445  0.2630  2.9842
 3842TIP3    H211533   4.728   5.987   4.112 -1.6097  0.3409 -0.1611
 3843TIP3   OH211534   1.922   1.518   2.058  0.5866 -0.0991  0.3246
 3843TIP3    H111535   2.006   1.527   2.103  0.6000  3.0383 -0.1120
 3843TIP3    H211536   1.857   1.544   2.124  0.2169  0.2541 -0.1754
 3844TIP3   OH211537   0.861   5.441   0.944 -0.2278  0.2802 -0.1341
 3844TIP3    H111538   0.882   5.354   0.910  0.4421  1.0013 -1.6904
 3844TIP3    H211539   0.766   5.447   0.937 -0.0773  0.7200 -2.9238
 3845TIP3   OH211540   4.825   0.173   2.423 -0.1465  0.2043 -0.3344
 3845TIP3    H111541   4.877   0.245   2.460 -1.0995 -0.0414  1.6204
 3845TIP3    H211542   4.751   0.216   2.381 -1.5305  0.4336  2.1218
 3846TIP3   OH211543   0.398   2.750   4.196 -0.0035 -0.0598  0.0199
 3846TIP3    H111544   0.469   2.694   4.164 -1.2153 -0.4177 -2.3158
 3846TIP3    H211545   0.378   2.716   4.283  3.9432  1.3786  1.7019
 3847TIP3   OH211546   1.917   5.361   2.344  0.6466  0.0611  0.2603
 3847TIP3    H111547   1.987   5.319   2.395  0.7313 -1.2166 -0.8731
 3847TIP3    H211548   1.962   5.429   2.294  0.6400  0.9952  1.4551
 3848TIP3   OH211549   0.357   2.202   1.652  0.2787 -0.2247  0.6641
 3848TIP3    H111550   0.434   2.154   1.621 -0.4581 -3.0235  2.7386
 3848TIP3    H211551   0.388   2.247   1.731  0.2837  0.5647  0.2302
 3849TIP3   OH211552   1.803   0.116   4.058  0.7831  0.2849 -0.3026
 3849TIP3    H111553   1.859   0.173   4.111  1.4437 -0.0022 -0.6744
 3849TIP3    H211554   1.848   0.110   3.974  1.0437 -1.2732 -0.0792
 3850TIP3   OH211555   4.496   0.117   2.972 -0.1847 -0.1540  0.3402
 3850TIP3    H111556   4.564   0.050   2.980  1.5301  1.5990  1.3690
 3850TIP3    H211557   4.414   0.068   2.966  0.9900 -2.3337  1.0838
 3851TIP3   OH211558   3.385   1.571   3.084 -0.0783 -0.6171  0.3112
 3851TIP3    H111559   3.399   1.492   3.032 -1.7196 -0.7756  0.0685
 3851TIP3    H211560   3.343   1.632   3.024 -1.3742 -0.5648  1.2295
 3852TIP3   OH211561   4.494   1.849   0.794  0.1148 -0.7012 -0.1570
 3852TIP3    H111562   4.582   1.823   0.765 -0.0756  1.1895 -2.8141
 3852TIP3    H211563   4.447   1.867   0.712 -1.0265  3.5969  1.2192
 3853TIP3   OH211564   1.887   5.011   3.495 -0.1730  0.1204 -0.4645
 3853TIP3    H111565   1.890   5.102   3.525 -0.8258 -0.4119  1.3271
 3853TIP3    H211566   1.817   4.971   3.546 -0.3026 -1.2485 -1.6663
 3854TIP3   OH211567   2.671   4.149   3.882  0.2720  0.3981 -0.0609
 3854TIP3    H111568   2.590   4.174   3.926 -0.1942 -0.9035 -0.1449
 3854TIP3    H211569   2.643   4.091   3.811  1.1620  1.0945 -1.0184
 3855TIP3   OH211570   4.232   0.120   4.927 -0.4094 -0.5470 -0.6773
 3855TIP3    H111571   4.177   0.165   4.991 -0.2343 -1.5349  0.1999
 3855TIP3    H211572   4.264   0.190   4.869 -0.2621  0.4404  0.5436
 3856TIP3   OH211573   0.299   1.557   4.062  0.0155  0.1926 -0.1379
 3856TIP3    H111574   0.380   1.608   4.071  0.9214 -1.1427 -0.5703
 3856TIP3    H211575   0.320   1.471   4.098 -1.5305  0.1153  0.6879
 3857TIP3   OH211576   4.785   2.103   3.440 -0.9519  0.2264 -0.9171
 3857TIP3    H111577   4.802   2.046   3.516  1.5488  0.1498 -1.4350
 3857TIP3    H211578   4.817   2.189   3.466  1.3012 -0.1133 -2.2914
 3858TIP3   OH211579   6.218   2.506   0.380 -0.4105 -0.3249  0.2727
 3858TIP3    H111580   6.166   2.446   0.326 -0.2750  0.0218 -0.2463
 3858TIP3    H211581   6.226   2.461   0.464  1.4970 -2.0476 -0.7202
 3859TIP3   OH211582   2.303   4.543   0.873 -0.2991  0.2569  0.3146
 3859TIP3    H111583   2.256   4.612   0.919 -1.2009 -0.5259  0.6026
 3859TIP3    H211584   2.395   4.558   0.893 -0.4868  1.3653  0.3711
 3860TIP3   OH211585   2.882   0.525   4.758 -0.4446 -0.3137 -0.0049
 3860TIP3    H111586   2.885   0.553   4.850  0.0186  0.8055 -0.3406
 3860TIP3    H211587   2.790   0.506   4.742 -0.4309 -1.1890  0.8731
 3861TIP3   OH211588   0.494   5.954   0.748 -0.3418  0.6265 -0.1935
 3861TIP3    H111589   0.544   5.887   0.702 -0.2829 -0.8129  1.8493
 3861TIP3    H211590   0.406   5.948   0.711 -0.8509 -1.9749  1.1935
 3862TIP3   OH211591   5.290   5.174   1.671  0.6348 -0.3846  0.6113
 3862TIP3    H111592   5.215   5.233   1.669 -0.5295 -1.8150 -1.2531
 3862TIP3    H211593   5.288   5.136   1.758  0.3322  0.9530  1.2195
 3863TIP3   OH211594   4.557   3.188   3.956  0.2777 -0.3572  0.2120
 3863TIP3    H111595   4.509   3.270   3.943 -2.0111 -1.5716  0.3465
 3863TIP3    H211596   4.491   3.120   3.940  1.6258 -2.1515  1.8398
 3864TIP3   OH211597   3.167   3.510   2.861  0.2028  1.0185 -0.1884
 3864TIP3    H111598   3.109   3.488   2.934 -0.1329  0.6922 -0.5454
 3864TIP3    H211599   3.253   3.479   2.888 -0.6171 -3.5296 -1.7404
 3865TIP3   OH211600   3.102   2.563   2.362  0.1258  0.0104 -0.4744
 3865TIP3    H111601   3.014   2.580   2.328 -0.3250 -0.4094  0.4654
 3865TIP3    H211602   3.094   2.483   2.412  0.9306  0.2542  0.0626
 3866TIP3   OH211603   5.652   0.277   3.931  0.3274 -0.0782 -0.1273
 3866TIP3    H111604   5.701   0.242   3.856  0.8531 -1.0450  0.6332
 3866TIP3    H211605   5.708   0.257   4.006 -2.0178 -3.0059  1.0439
 3867TIP3   OH211606   4.827   2.042   1.346  0.4464 -0.3161  0.5254
 3867TIP3    H111607   4.837   2.112   1.410 -2.3007  0.4900  0.2096
 3867TIP3    H211608   4.752   1.991   1.377 -0.6890 -0.1732 -1.7313
 3868TIP3   OH211609   4.792   4.904   4.384  0.2516  0.0932 -0.6704
 3868TIP3    H111610   4.805   4.978   4.326 -0.7244  0.7129 -0.1247
 3868TIP3    H211611   4.708   4.921   4.426  1.0731 -0.1617  1.1788
 3869TIP3   OH211612   2.762   3.779   2.778 -0.3033  0.0451  0.2903
 3869TIP3    H111613   2.817   3.825   2.842 -1.3721  0.1740  1.1524
 3869TIP3    H211614   2.801   3.692   2.772  0.0653  0.1639  0.8085
 3870TIP3   OH211615   2.286   4.367   1.678  0.0043 -0.3259 -0.3388
 3870TIP3    H111616   2.372   4.325   1.674 -0.4212 -1.1835 -0.7719
 3870TIP3    H211617   2.297   4.439   1.739  1.1824 -0.0837 -0.8123
 3871TIP3   OH211618   0.228   1.487   1.264  0.0522 -0.0395 -0.4806
 3871TIP3    H111619   0.195   1.518   1.179  0.1983 -0.4219 -0.6781
 3871TIP3    H211620   0.293   1.552   1.290 -0.7116  0.6209 -0.1824
 3872TIP3   OH211621   5.400   3.913   4.211 -0.1944  0.0041 -0.5306
 3872TIP3    H111622   5.324   3.919   4.154 -0.3133 -0.3690 -0.4161
 3872TIP3    H211623   5.476   3.922   4.153 -0.3243  0.3802 -0.6436
 3873TIP3   OH211624   2.622   3.232   3.843 -0.3746  0.1792  0.0802
 3873TIP3    H111625   2.670   3.198   3.768 -1.8991 -1.2877 -0.3090
 3873TIP3    H211626   2.686   3.235   3.914  0.7220  0.1198 -0.8837
 3874TIP3   OH211627   0.381   4.519   1.965 -0.3806 -0.0592  0.0456
 3874TIP3    H111628   0.432   4.471   1.899 -3.1851 -2.3361 -0.6775
 3874TIP3    H211629   0.425   4.499   2.047  0.8023 -0.6058 -0.6837
 3875TIP3   OH211630   1.303   1.946   4.469  0.4972  0.3365  0.9780
 3875TIP3    H111631   1.312   2.018   4.407 -0.2905  0.7645  1.3528
 3875TIP3    H211632   1.240   1.886   4.427  2.5729 -1.1218 -0.2236
 3876TIP3   OH211633   5.447   4.408   0.426 -0.5195  0.4496  0.9801
 3876TIP3    H111634   5.488   4.322   0.417  0.6488  0.7791  2.5661
 3876TIP3    H211635   5.519   4.466   0.454 -0.9940  2.2526 -1.2109
 3877TIP3   OH211636   4.992   4.607   1.382 -0.1089  0.9471 -0.6571
 3877TIP3    H111637   5.028   4.562   1.305  0.3049  0.6888 -0.3170
 3877TIP3    H211638   4.973   4.695   1.351  1.6456  1.3662 -0.6248
 3878TIP3   OH211639   0.454   1.853   4.690 -0.5677 -0.0258  0.0615
 3878TIP3    H111640   0.458   1.878   4.598 -0.4252 -1.5995 -0.3939
 3878TIP3    H211641   0.384   1.788   4.694 -0.8017  0.2711  1.1389
 3879TIP3   OH211642   1.654   1.402   5.209 -0.7228  0.3335 -0.2547
 3879TIP3    H111643   1.656   1.310   5.234  1.6250  0.2675 -0.4407
 3879TIP3    H211644   1.627   1.401   5.117  0.1421 -0.2639 -0.5166
 3880TIP3   OH211645   3.125   4.822   1.145 -0.0822 -0.2612  0.0089
 3880TIP3    H111646   3.140   4.761   1.074 -0.8664  0.5762 -0.9029
 3880TIP3    H211647   3.030   4.819   1.160 -0.3039  1.4965 -0.8021
 3881TIP3   OH211648   4.714   3.028   3.269  0.1028  0.6507  0.8247
 3881TIP3    H111649   4.619   3.040   3.273  0.0912  0.4633  1.1448
 3881TIP3    H211650   4.747   3.083   3.340  0.3032  1.4032  0.1659
 3882TIP3   OH211651   0.360   2.275   3.075 -0.2679  0.3597 -0.6763
 3882TIP3    H111652   0.394   2.252   2.988 -1.0026  0.6435 -1.0373
 3882TIP3    H211653   0.281   2.325   3.058 -2.3482 -2.4262  0.1378
 3883TIP3   OH211654   1.693   4.849   2.976  0.4508 -0.3663 -0.0360
 3883TIP3    H111655   1.603   4.823   2.998  0.6359 -0.6753  0.3805
 3883TIP3    H211656   1.705   4.933   3.021  1.3715 -1.7458  2.5600
 3884TIP3   OH211657   0.789   1.644   3.794 -0.4516 -0.6941  0.1459
 3884TIP3    H111658   0.857   1.700   3.759  0.0639 -0.2715  1.7354
 3884TIP3    H211659   0.787   1.664   3.887 -1.9642 -1.5352  0.3296
 3885TIP3   OH211660   2.652   2.297   1.420  0.2543 -0.0105 -0.2689
 3885TIP3    H111661   2.671   2.206   1.444  0.2578 -0.0967 -0.5864
 3885TIP3    H211662   2.581   2.323   1.479  0.6944 -0.0034  0.2648
 3886TIP3   OH211663   0.428   0.438   0.118  0.3704  0.0048 -0.5579
 3886TIP3    H111664   0.466   0.350   0.119  0.5175  0.0730 -0.2616
 3886TIP3    H211665   0.503   0.496   0.133  0.2715  0.1798 -0.7439
 3887TIP3   OH211666   5.537   1.818   2.293 -0.8621 -0.5845  0.3957
 3887TIP3    H111667   5.470   1.886   2.298 -0.6656 -0.3599  0.0670
 3887TIP3    H211668   5.570   1.810   2.383 -1.2537 -0.6231  0.5376
 3888TIP3   OH211669   1.511   3.098   3.598  0.0435  0.2221 -0.3863
 3888TIP3    H111670   1.481   3.051   3.521  1.8443  0.4384 -1.2770
 3888TIP3    H211671   1.562   3.171   3.563  0.8529  0.3593  1.0045
 3889TIP3   OH211672   5.293   0.034   3.320  0.2284 -0.1657 -0.9172
 3889TIP3    H111673   5.241   0.101   3.365  0.1480  0.4454 -1.8782
 3889TIP3    H211674   5.382   0.047   3.352 -0.0573 -0.7073  0.1556
 3890TIP3   OH211675   2.789   5.851   4.454 -0.0644  0.0831  0.2816
 3890TIP3    H111676   2.751   5.885   4.536 -1.2637  2.2980 -1.0639
 3890TIP3    H211677   2.863   5.909   4.437 -0.6770  0.5698 -0.8545
 3891TIP3   OH211678   0.856   1.897   1.686  0.0900 -0.2787  0.2456
 3891TIP3    H111679   0.945   1.907   1.652 -0.0720  3.7159  0.6077
 3891TIP3    H211680   0.866   1.895   1.781 -0.1275 -2.2797  0.2764
 3892TIP3   OH211681   0.197   0.633   4.990  0.2588 -0.2072 -0.4285
 3892TIP3    H111682   0.274   0.634   5.047 -0.0297  0.2096 -0.0438
 3892TIP3    H211683   0.126   0.603   5.047  0.0492 -0.1671 -0.6691
 3893TIP3   OH211684   3.842   5.213   2.110  0.1307  0.2307  0.2607
 3893TIP3    H111685   3.845   5.223   2.015 -0.8717 -0.8265  0.0944
 3893TIP3    H211686   3.883   5.128   2.126  1.4146  0.9298  0.9127
 3894TIP3   OH211687   3.273   5.899   0.176 -0.4959  0.3724  0.3866
 3894TIP3    H111688   3.367   5.901   0.158 -0.7630  0.4191 -1.2009
 3894TIP3    H211689   3.233   5.922   0.092 -1.9210  0.5716  1.0973
 3895TIP3   OH211690   5.752   1.615   1.347 -0.8949  0.0532 -0.2179
 3895TIP3    H111691   5.842   1.617   1.316 -1.2125  1.1171 -1.1482
 3895TIP3    H211692   5.737   1.524   1.372  0.2715 -0.2416 -0.5267
 3896TIP3   OH211693   1.587   5.606   0.006 -0.0566  0.1071 -0.5478
 3896TIP3    H111694   1.565   5.697   0.023  0.1741  0.1425 -0.4347
 3896TIP3    H211695   1.674   5.595   0.044  0.4334  0.1643 -1.6068
 3897TIP3   OH211696   2.099   5.123   4.609  0.9304 -0.0349  0.5215
 3897TIP3    H111697   2.116   5.115   4.515  1.7996  0.1991  0.6476
 3897TIP3    H211698   2.080   5.216   4.622  0.7194 -0.0840  0.5634
 3898TIP3   OH211699   3.139   4.948   4.359 -0.6331 -0.6061 -0.2735
 3898TIP3    H111700   3.219   4.903   4.333 -0.2208  0.1422 -0.3126
 3898TIP3    H211701   3.088   4.881   4.404  1.6526 -0.2218  3.2436
 3899TIP3   OH211702   0.915   2.352   2.841 -0.4805  0.0898  0.6219
 3899TIP3    H111703   1.004   2.354   2.877 -0.7489  0.4954  1.2852
 3899TIP3    H211704   0.878   2.270   2.874 -0.1241 -0.4256 -0.2357
 3900TIP3   OH211705   2.362   5.018   3.022 -0.7839  0.1532  0.1539
 3900TIP3    H111706   2.320   5.103   3.016  0.3357  0.7189  0.1036
 3900TIP3    H211707   2.332   4.970   2.944  1.1412  1.6965 -1.6489
 3901TIP3   OH211708   6.236   3.712   4.457 -0.3903 -0.5673 -0.4029
 3901TIP3    H111709   6.295   3.657   4.406  0.8108  0.3505 -0.0519
 3901TIP3    H211710   6.246   3.800   4.420 -0.2677 -0.0817  0.7264
 3902TIP3   OH211711   5.193   2.354   1.001 -0.3221  0.9491 -0.3390
 3902TIP3    H111712   5.282   2.334   0.972 -0.5034  1.1773 -1.0802
 3902TIP3    H211713   5.142   2.275   0.982 -0.2091  0.6729  0.4463
 3903TIP3   OH211714   3.177   0.054   1.507  0.0542 -0.2795  0.7421
 3903TIP3    H111715   3.116   0.088   1.441 -1.2469 -0.9146  1.5826
 3903TIP3    H211716   3.244   0.121   1.514 -2.0579  1.8529  1.8568
 3904TIP3   OH211717   1.265   4.967   0.364  0.5914  0.0108  0.3856
 3904TIP3    H111718   1.336   5.007   0.414  1.6556  0.1142 -1.1288
 3904TIP3    H211719   1.209   5.041   0.339  0.1742 -0.0161  1.2189
 3905TIP3   OH211720   2.187   2.203   3.911 -0.4927  0.3488  0.4921
 3905TIP3    H111721   2.142   2.132   3.866 -0.2683  1.1736 -1.1225
 3905TIP3    H211722   2.201   2.269   3.843  0.5237  1.3578  1.6313
 3906TIP3   OH211723   5.853   0.304   1.507  0.7467 -0.1479  0.2024
 3906TIP3    H111724   5.882   0.235   1.568  0.3029  0.0751  0.6706
 3906TIP3    H211725   5.761   0.283   1.490  0.2322  1.0374  1.3525
 3907TIP3   OH211726   5.532   5.563   0.909  0.0733 -0.1437  0.0310
 3907TIP3    H111727   5.593   5.619   0.861 -0.6811 -1.3251 -2.4990
 3907TIP3    H211728   5.497   5.619   0.978  1.6421  1.5076 -0.4241
 3908TIP3   OH211729   3.811   5.756  -0.035 -0.3229 -1.0664 -0.0514
 3908TIP3    H111730   3.816   5.691   0.035 -1.5900 -1.6619 -0.4851
 3908TIP3    H211731   3.846   5.836   0.004 -0.5107 -1.5237  1.0942
 3909TIP3   OH211732   1.164   4.693   2.698  0.1199 -0.3155  0.1467
 3909TIP3    H111733   1.078   4.703   2.657  0.1893 -1.4794 -0.3308
 3909TIP3    H211734   1.152   4.626   2.765  0.8798 -1.3204 -0.6822
 3910TIP3   OH211735   6.218   2.466   1.689  0.1389 -0.0250  0.4443
 3910TIP3    H111736   6.222   2.439   1.597  0.0749 -1.2905  0.8049
 3910TIP3    H211737   6.125   2.464   1.711  0.1103  0.6887  0.4389
 3911TIP3   OH211738   6.074   0.634   3.192 -0.3882  0.1482 -0.2203
 3911TIP3    H111739   6.125   0.634   3.111 -1.2575  1.2592 -0.8027
 3911TIP3    H211740   5.990   0.671   3.167 -0.2656  1.6762  1.4337
 3912TIP3   OH211741   2.100   3.277   0.358  0.2693  0.0114 -0.2033
 3912TIP3    H111742   2.188   3.253   0.387  0.7076 -0.3507 -1.7598
 3912TIP3    H211743   2.044   3.206   0.389  1.2342 -2.1197 -2.9770
 3913TIP3   OH211744   3.160   5.688   0.326  0.8168 -0.2868 -0.2884
 3913TIP3    H111745   3.214   5.610   0.328  2.0286  0.5292  1.8122
 3913TIP3    H211746   3.216   5.756   0.287  0.3003 -0.0830 -0.7001
 3914TIP3   OH211747   1.833   0.269   2.679 -0.1256 -0.6829  0.6968
 3914TIP3    H111748   1.887   0.344   2.708 -0.2840 -0.4642  0.4243
 3914TIP3    H211749   1.821   0.283   2.586 -0.5866 -0.7780  0.7411
 3915TIP3   OH211750   4.348   0.348   1.219 -0.3672 -0.2576  0.6538
 3915TIP3    H111751   4.374   0.425   1.168 -0.4330 -0.6182  0.0665
 3915TIP3    H211752   4.253   0.356   1.229 -0.2341  0.3326  1.5972
 3916TIP3   OH211753   5.344   5.268   4.046 -0.9979 -0.4102  0.1668
 3916TIP3    H111754   5.263   5.248   3.999 -0.3274 -1.0196 -0.7715
 3916TIP3    H211755   5.396   5.188   4.039  0.0142  0.2384  0.0418
 3917TIP3   OH211756   5.163   2.157   3.361 -0.1414  0.0030  0.1872
 3917TIP3    H111757   5.154   2.229   3.423 -0.0385 -0.0211  0.2297
 3917TIP3    H211758   5.248   2.172   3.318 -0.5834  0.4919 -0.5475
 3918TIP3   OH211759   3.029   0.420   0.831 -0.4804  0.5505  0.0610
 3918TIP3    H111760   3.077   0.487   0.880  0.4679 -0.7272  0.9448
 3918TIP3    H211761   3.098   0.368   0.790 -1.2368  1.0174 -1.9025
 3919TIP3   OH211762   0.740   3.086   1.562  0.3019  0.1249 -0.6747
 3919TIP3    H111763   0.729   3.030   1.484  1.5440 -1.1043 -0.0309
 3919TIP3    H211764   0.823   3.131   1.547 -0.9003  2.2418 -1.3929
 3920TIP3   OH211765   3.259   2.717   1.162 -0.6160 -0.4385  0.2587
 3920TIP3    H111766   3.200   2.642   1.161  0.1161 -1.0611  1.9161
 3920TIP3    H211767   3.225   2.774   1.092 -1.6143 -1.9440 -0.5464
 3921TIP3   OH211768   3.060   3.109   1.600 -0.4801  0.1421 -0.2861
 3921TIP3    H111769   3.087   3.031   1.552  0.5314  0.4847 -0.2891
 3921TIP3    H211770   3.137   3.166   1.600 -0.9551  0.8097  0.3980
 3922TIP3   OH211771   5.729   0.252  -0.017  0.4190 -0.3603 -0.3164
 3922TIP3    H111772   5.798   0.244   0.050  0.9313 -1.4543 -0.9459
 3922TIP3    H211773   5.688   0.337   0.002 -0.4231 -1.2348  2.2820
 3923TIP3   OH211774   2.861   5.342   3.178 -0.0325  1.0053  0.0321
 3923TIP3    H111775   2.940   5.381   3.215  0.5163  0.5900 -0.6835
 3923TIP3    H211776   2.866   5.362   3.085 -1.0595  1.4606  0.0574
 3924TIP3   OH211777   6.028   2.035   0.903  0.3436  0.1701  0.0344
 3924TIP3    H111778   5.997   2.123   0.884  0.1624 -0.0779 -0.8598
 3924TIP3    H211779   6.064   2.003   0.820  0.2633 -0.6554  0.3029
 3925TIP3   OH211780   2.880   0.766   3.327 -0.1970  0.5444  0.5384
 3925TIP3    H111781   2.833   0.690   3.362  0.6168  0.5948  1.8144
 3925TIP3    H211782   2.859   0.837   3.388 -0.4036  1.1865 -0.2612
 3926TIP3   OH211783   0.442   1.075   2.146  0.0243 -0.0168  0.1990
 3926TIP3    H111784   0.385   1.023   2.203 -0.5490 -0.1943 -0.5271
 3926TIP3    H211785   0.411   1.165   2.159 -3.1432 -0.3842 -3.0309
 3927TIP3   OH211786   5.282   2.614   3.282 -0.4359 -0.1573  0.4721
 3927TIP3    H111787   5.294   2.682   3.348 -1.9148 -0.2434  0.8668
 3927TIP3    H211788   5.362   2.617   3.230 -0.9360  2.7549 -0.3232
 3928TIP3   OH211789   0.885   1.261   4.632  0.4755  0.6599 -1.1144
 3928TIP3    H111790   0.823   1.213   4.577 -0.0646  1.5669 -1.3113
 3928TIP3    H211791   0.845   1.260   4.719  1.0319 -0.2402 -0.8547
 3929TIP3   OH211792   2.780   5.913   0.632  0.1172 -0.0027 -0.0516
 3929TIP3    H111793   2.802   6.005   0.649 -3.1419  0.9027 -0.0944
 3929TIP3    H211794   2.739   5.883   0.712 -0.2471 -0.9464 -0.5750
 3930TIP3   OH211795   3.135   2.006   3.708 -0.0915  0.3807 -0.2446
 3930TIP3    H111796   3.164   1.920   3.739 -0.4828  0.7686  1.2639
 3930TIP3    H211797   3.045   2.015   3.741 -0.8994  0.4688 -2.2755
 3931TIP3   OH211798   0.716   2.852   0.912 -0.1400 -0.0252 -0.2569
 3931TIP3    H111799   0.720   2.938   0.871 -1.8994 -0.7460 -2.0976
 3931TIP3    H211800   0.807   2.822   0.915  0.3078  1.1891 -1.1761
 3932TIP3   OH211801   2.787   1.938   2.470  0.5489 -0.2209  0.4131
 3932TIP3    H111802   2.808   2.031   2.474  0.7187 -0.1518 -1.4739
 3932TIP3    H211803   2.728   1.924   2.544  0.1601  1.4775  0.4557
 3933TIP3   OH211804   1.693   2.588   4.931 -0.1057 -0.1370 -0.2501
 3933TIP3    H111805   1.694   2.661   4.993 -0.0170 -0.4980  0.1856
 3933TIP3    H211806   1.780   2.588   4.893 -0.8426  1.4969 -2.0935
 3934TIP3   OH211807   5.289   1.901   3.355 -0.8731 -0.2495  0.1427
 3934TIP3    H111808   5.211   1.847   3.370 -0.1764 -0.8497  1.9706
 3934TIP3    H211809   5.257   1.991   3.358 -1.6408 -0.5069 -0.0940
 3935TIP3   OH211810   2.095   1.543   0.944  0.3476 -0.4979 -0.0411
 3935TIP3    H111811   2.145   1.568   1.022  0.1907  1.0420 -0.3868
 3935TIP3    H211812   2.112   1.614   0.881 -1.9966 -0.0707 -0.2934
 3936TIP3   OH211813   4.916   3.892   0.051  0.3824  0.8794 -0.6560
 3936TIP3    H111814   4.924   3.881  -0.044 -0.0133  2.4144 -0.8825
 3936TIP3    H211815   5.000   3.861   0.086  0.6267  0.5450 -1.5172
 3937TIP3   OH211816   3.387   3.504   2.634  0.5687 -0.4888 -0.8651
 3937TIP3    H111817   3.297   3.510   2.602  0.7145 -0.0020 -1.1957
 3937TIP3    H211818   3.378   3.471   2.723 -0.0609  1.0986 -0.3066
 3938TIP3   OH211819   1.129   1.516   0.972 -0.4413  0.1134  0.0658
 3938TIP3    H111820   1.127   1.605   1.008 -3.8162  0.7636 -1.3152
 3938TIP3    H211821   1.160   1.528   0.882  0.9077 -0.4422  0.4337
 3939TIP3   OH211822   6.170   2.054   4.757 -0.0426  0.4121  0.4690
 3939TIP3    H111823   6.093   2.004   4.785 -0.5357  0.2645 -1.0432
 3939TIP3    H211824   6.161   2.060   4.662  0.6964  2.2771  0.4786
 3940TIP3   OH211825   2.822   0.594   2.231 -0.1061  0.0524 -0.1521
 3940TIP3    H111826   2.819   0.519   2.289 -0.0601  1.3325  1.5764
 3940TIP3    H211827   2.736   0.634   2.237  0.7901  1.9479  1.5586
 3941TIP3   OH211828   0.059   1.839   3.277  0.3724 -0.0175  0.2935
 3941TIP3    H111829   0.069   1.772   3.209 -0.7733  0.5758 -0.4877
 3941TIP3    H211830  -0.035   1.845   3.293  0.3921  1.6925  0.0290
 3942TIP3   OH211831   0.117   0.725   0.515 -0.1602  0.0010 -0.3981
 3942TIP3    H111832   0.136   0.759   0.603  0.1825  1.1481 -0.8988
 3942TIP3    H211833   0.089   0.802   0.465  0.3117 -0.5114 -1.4829
 3943TIP3   OH211834   2.739   0.133   1.213  0.1076 -0.1959  0.5977
 3943TIP3    H111835   2.799   0.059   1.204 -0.6340 -0.6757 -0.8867
 3943TIP3    H211836   2.764   0.192   1.142 -1.0828 -0.3694  0.0016
 3944TIP3   OH211837   3.894   4.929   3.977  0.6555  0.1611  0.6144
 3944TIP3    H111838   3.956   4.937   4.050  2.2008 -1.2629 -0.4803
 3944TIP3    H211839   3.837   4.856   4.002  0.2569  0.5994  1.0125
 3945TIP3   OH211840   1.023   4.632   0.461  0.3350  0.3899  0.2033
 3945TIP3    H111841   1.082   4.633   0.385  0.8801  1.3408  0.6214
 3945TIP3    H211842   0.936   4.648   0.423  0.6230  1.0333 -0.2251
 3946TIP3   OH211843   5.251   3.212   1.599 -0.0404  0.3440  0.0289
 3946TIP3    H111844   5.317   3.243   1.537  0.5421 -0.4583  0.2234
 3946TIP3    H211845   5.291   3.135   1.639 -1.3610 -0.5500 -0.3183
 3947TIP3   OH211846   1.905   1.537   1.177  0.0218  0.3619  0.0214
 3947TIP3    H111847   1.938   1.627   1.169 -0.8621  0.6607 -0.4498
 3947TIP3    H211848   1.961   1.486   1.119 -0.5320  0.9261 -1.0572
 3948TIP3   OH211849   5.765   2.224   1.245  0.6273 -0.4717 -0.4955
 3948TIP3    H111850   5.693   2.170   1.212  1.8201 -1.1625 -2.0387
 3948TIP3    H211851   5.816   2.165   1.300 -0.2015  0.1501  1.0216
 3949TIP3   OH211852   0.574   2.632   2.155 -0.0162  0.5385  0.2846
 3949TIP3    H111853   0.557   2.655   2.246 -4.0010 -3.2066  0.8279
 3949TIP3    H211854   0.501   2.671   2.107 -0.1484 -0.7373 -0.5961
 3950TIP3   OH211855   1.650   2.884   4.245  0.1370  0.0188 -0.1500
 3950TIP3    H111856   1.651   2.896   4.340 -0.7790 -0.7302 -0.0248
 3950TIP3    H211857   1.655   2.972   4.209 -0.4353  0.3675  0.6098
 3951TIP3   OH211858   1.486   0.263   4.268  0.3642 -0.5767 -0.5372
 3951TIP3    H111859   1.574   0.297   4.282  0.3785 -0.6365 -0.4800
 3951TIP3    H211860   1.497   0.194   4.202  0.2068  0.1206 -1.3094
 3952TIP3   OH211861   1.075   0.350   4.028  0.3874 -0.1454  0.4320
 3952TIP3    H111862   1.149   0.355   3.967  0.0126  0.8282  0.0300
 3952TIP3    H211863   1.112   0.372   4.113  0.2597  2.2050 -0.0596
 3953TIP3   OH211864   4.088   3.519   1.446  0.0179 -0.1125 -0.1110
 3953TIP3    H111865   4.029   3.461   1.494 -0.1894 -0.4359 -0.7441
 3953TIP3    H211866   4.031   3.589   1.414  0.3458  0.7076  1.0472
 3954TIP3   OH211867   2.693   3.179   4.728  0.1031 -0.5050 -0.3298
 3954TIP3    H111868   2.627   3.111   4.720 -0.1003 -0.3222 -0.2059
 3954TIP3    H211869   2.727   3.191   4.639 -1.3787  0.7508 -0.7599
 3955TIP3   OH211870   3.877   0.826   0.701  0.2029  0.1276 -0.6944
 3955TIP3    H111871   3.838   0.783   0.624  1.1135  0.8881 -1.6207
 3955TIP3    H211872   3.929   0.897   0.664  1.4409 -0.0783  0.5791
 3956TIP3   OH211873   2.488   2.415   3.845  0.0444 -0.1844  0.0644
 3956TIP3    H111874   2.496   2.464   3.927 -1.3580 -0.8014  0.6198
 3956TIP3    H211875   2.492   2.481   3.776 -1.0602  0.6425  0.7604
 3957TIP3   OH211876   1.461   5.022   2.902 -0.4161 -0.2876 -0.2221
 3957TIP3    H111877   1.542   5.059   2.868 -0.1290 -0.5642  0.1625
 3957TIP3    H211878   1.456   4.935   2.861 -1.1853  0.2333 -1.2767
 3958TIP3   OH211879   1.132   3.067   3.642 -0.1622 -0.6778  0.0060
 3958TIP3    H111880   1.140   3.079   3.737 -2.8780 -2.3130  0.5482
 3958TIP3    H211881   1.100   2.978   3.632 -1.0600 -0.1575 -2.3739
 3959TIP3   OH211882   2.097   3.142   5.033  0.3950  0.1704  0.0430
 3959TIP3    H111883   2.098   3.052   5.000  0.4144 -0.4839  1.7233
 3959TIP3    H211884   2.009   3.174   5.011 -0.1027 -0.7441  0.6251
 3960TIP3   OH211885   3.280   1.268   3.203  0.1332  0.7537  0.1333
 3960TIP3    H111886   3.283   1.250   3.109 -0.1050 -0.8214  0.4047
 3960TIP3    H211887   3.368   1.300   3.223  0.3970  0.4523 -0.4999
 3961TIP3   OH211888   4.552   4.029   2.280  0.2020  0.0731  0.5031
 3961TIP3    H111889   4.600   4.103   2.318  1.9512  0.0192 -1.4457
 3961TIP3    H211890   4.461   4.045   2.305  0.5396  2.8126  0.3098
 3962TIP3   OH211891   4.181   2.268   2.223  0.2065  1.0057 -0.4175
 3962TIP3    H111892   4.230   2.282   2.304 -0.0133 -2.3845  0.4274
 3962TIP3    H211893   4.102   2.221   2.250  1.1794 -2.2390 -2.7119
 3963TIP3   OH211894   2.605   2.780   4.770 -0.4810 -0.3519  0.0934
 3963TIP3    H111895   2.656   2.790   4.850 -0.3216 -1.9755  0.2289
 3963TIP3    H211896   2.525   2.737   4.798 -1.1022  0.4329 -0.4167
 3964TIP3   OH211897   0.252   5.437   1.701 -0.3226 -0.4962  0.6990
 3964TIP3    H111898   0.238   5.523   1.741  3.1537  0.4844  0.1559
 3964TIP3    H211899   0.210   5.443   1.615  0.0936  0.7978  0.5601
 3965TIP3   OH211900   4.746   4.120   0.021 -0.8513 -0.2967  0.3739
 3965TIP3    H111901   4.785   4.033   0.012 -0.4755 -0.2742  1.5890
 3965TIP3    H211902   4.764   4.145   0.112 -1.7545  0.6674  0.3056
 3966TIP3   OH211903   6.072   5.519   1.032 -0.3472  0.0277  0.4504
 3966TIP3    H111904   6.115   5.605   1.036 -0.0436 -0.1389  0.8605
 3966TIP3    H211905   6.003   5.524   1.098 -1.3204  0.4795 -0.5680
 3967TIP3   OH211906   0.378   4.595   2.646  0.2573 -0.2155 -0.3717
 3967TIP3    H111907   0.290   4.602   2.683  0.0149  1.1418 -1.1321
 3967TIP3    H211908   0.401   4.685   2.623  1.9541 -0.5179  0.0349
 3968TIP3   OH211909   4.884   0.499   4.653  0.5516 -1.3574 -0.3982
 3968TIP3    H111910   4.852   0.554   4.724  1.6053 -1.8892  0.5077
 3968TIP3    H211911   4.873   0.553   4.574  0.3305 -0.3687  0.2938
 3969TIP3   OH211912   2.378   2.395   1.539  0.3525  0.5986 -0.0091
 3969TIP3    H111913   2.302   2.337   1.536  2.1099 -1.8197 -0.6826
 3969TIP3    H211914   2.394   2.408   1.633  0.5863 -1.0058  0.2099
 3970TIP3   OH211915   5.270   3.575  -0.023 -0.2613  0.1771  0.1335
 3970TIP3    H111916   5.319   3.647   0.016  2.8521 -1.6118 -0.1420
 3970TIP3    H211917   5.275   3.505   0.041  1.4123 -1.4745 -1.6858
 3971TIP3   OH211918   1.187   5.470   0.236 -0.7883 -0.3177  0.8297
 3971TIP3    H111919   1.248   5.518   0.292 -1.8937  0.8246  1.1140
 3971TIP3    H211920   1.223   5.479   0.148 -0.3467  0.0028  1.0398
 3972TIP3   OH211921   2.994   3.121   3.259 -0.3414 -0.3124  0.3771
 3972TIP3    H111922   2.996   3.111   3.163  0.6525 -2.0783  0.5370
 3972TIP3    H211923   3.033   3.040   3.292  0.3706  0.7309  2.2578
 3973TIP3   OH211924   1.998   5.213   2.100 -0.5915 -0.1107  0.1051
 3973TIP3    H111925   2.037   5.199   2.186 -2.5419  0.7729  1.1760
 3973TIP3    H211926   2.023   5.303   2.077  0.4622 -0.5595 -0.5728
 3974TIP3   OH211927   6.065   0.497   0.152  0.1958 -0.4462 -0.0989
 3974TIP3    H111928   6.050   0.547   0.233 -0.4492  0.3238 -0.6713
 3974TIP3    H211929   6.131   0.548   0.105  0.7439 -1.0193  0.0370
 3975TIP3   OH211930   4.964   2.656   3.398 -0.1287 -0.0914  0.0368
 3975TIP3    H111931   4.948   2.674   3.490 -0.8225  0.2438 -0.1454
 3975TIP3    H211932   4.991   2.564   3.396 -3.3727 -1.1438  0.2338
 3976TIP3   OH211933   0.967   2.671   1.699 -0.4441 -0.5240  0.6871
 3976TIP3    H111934   0.878   2.681   1.665  1.0202 -0.3930 -3.7145
 3976TIP3    H211935   0.992   2.759   1.728 -1.0906 -0.1088  0.0104
 3977TIP3   OH211936   2.317   5.742   4.417  0.1238  0.2285  0.2189
 3977TIP3    H111937   2.376   5.704   4.482 -1.1382 -1.5793  0.3696
 3977TIP3    H211938   2.246   5.780   4.470 -0.5139 -0.5609 -0.0553
 3978TIP3   OH211939   5.952   4.022   3.411  0.3712  0.3048  0.1104
 3978TIP3    H111940   5.978   4.086   3.477 -0.7842  1.2372 -0.3143
 3978TIP3    H211941   5.966   3.937   3.453 -1.0417  0.8826  1.8599
 3979TIP3   OH211942   3.452   2.890   4.522  0.0899 -0.0948  0.0878
 3979TIP3    H111943   3.535   2.875   4.478  0.9372  1.9762  0.8930
 3979TIP3    H211944   3.451   2.826   4.593  1.7422  0.8543  1.0079
 3980TIP3   OH211945   4.197   1.926   2.200  0.0912  0.2742  0.2500
 3980TIP3    H111946   4.184   1.832   2.214 -0.0422  0.3930  0.9475
 3980TIP3    H211947   4.158   1.942   2.114  0.6399 -0.4128 -0.1402
 3981TIP3   OH211948   0.798   2.947   4.845  0.1986  0.4480 -0.4298
 3981TIP3    H111949   0.865   2.879   4.845 -0.8376 -0.6018 -0.6640
 3981TIP3    H211950   0.843   3.025   4.879  2.2757  0.5537 -3.0657
 3982TIP3   OH211951   6.225   4.781   0.822  0.0868  0.3436  0.1200
 3982TIP3    H111952   6.230   4.846   0.752  1.8985 -0.0894 -0.2155
 3982TIP3    H211953   6.139   4.795   0.862 -0.0293  2.1700 -0.6634
 3983TIP3   OH211954   3.877   4.050   4.764  0.0724  0.6878 -0.6357
 3983TIP3    H111955   3.923   4.107   4.826 -0.7367 -1.0819  1.7520
 3983TIP3    H211956   3.923   3.966   4.769 -2.4645 -0.7349  0.8268
 3984TIP3   OH211957   6.155   3.214   0.961 -0.0394  0.4591 -0.0810
 3984TIP3    H111958   6.091   3.250   0.899  0.2346  1.2460  0.0912
 3984TIP3    H211959   6.122   3.126   0.979 -0.3066  0.3381 -1.0800
 3985TIP3   OH211960   1.918   4.709   4.228 -0.4779 -0.4140 -0.3222
 3985TIP3    H111961   1.912   4.801   4.203 -1.5685 -0.8229 -1.6587
 3985TIP3    H211962   1.828   4.677   4.227 -0.2281 -1.2812  1.0801
 3986TIP3   OH211963   2.024   0.129   4.786 -0.0330  0.1049  0.2015
 3986TIP3    H111964   2.009   0.069   4.859 -0.1402  0.0337  0.1222
 3986TIP3    H211965   2.028   0.215   4.827 -0.8502  0.1482  0.2152
 3987TIP3   OH211966   2.181   4.824   2.106 -0.2776 -0.1266  0.0041
 3987TIP3    H111967   2.219   4.882   2.040 -1.2229  0.7219  0.1684
 3987TIP3    H211968   2.087   4.846   2.106 -0.2894 -0.0416  1.6731
 3988TIP3   OH211969   5.784   0.714   4.354 -0.1380 -0.0606 -0.0731
 3988TIP3    H111970   5.738   0.656   4.293 -0.1440  0.9946 -1.1043
 3988TIP3    H211971   5.764   0.803   4.323 -0.4895  0.5313  1.7209
 3989TIP3   OH211972   4.274   4.630   0.710  0.2888 -0.0509  0.1141
 3989TIP3    H111973   4.185   4.604   0.685 -0.1216  0.3530  1.0768
 3989TIP3    H211974   4.302   4.689   0.640 -0.1367 -0.3132 -0.2842
 3990TIP3   OH211975   0.050   4.793   2.469  0.0844 -0.0320 -0.4638
 3990TIP3    H111976   0.092   4.859   2.524  1.3060 -1.1408 -0.0082
 3990TIP3    H211977  -0.041   4.791   2.499  0.2436  0.8337  0.1027
 3991TIP3   OH211978   1.989   2.340   3.434 -0.0055  0.3485 -0.4556
 3991TIP3    H111979   1.915   2.383   3.476  0.5184  1.5800 -0.7522
 3991TIP3    H211980   2.065   2.371   3.483  0.4541  0.4208 -1.2068
 3992TIP3   OH211981   5.809   2.945   4.736 -0.1689  0.2247  0.2036
 3992TIP3    H111982   5.894   2.989   4.741  0.4971 -1.1058  1.1305
 3992TIP3    H211983   5.805   2.912   4.646 -1.1326  2.9422 -0.8502
 3993TIP3   OH211984   2.411   2.979   2.494  0.3594  0.1033  0.0319
 3993TIP3    H111985   2.478   2.911   2.479 -0.6023 -1.2263  1.4553
 3993TIP3    H211986   2.459   3.061   2.486  1.3416 -0.5982 -3.0709
 3994TIP3   OH211987   2.674   1.260   2.325  0.0873  0.7654  0.3269
 3994TIP3    H111988   2.670   1.165   2.314  1.7017  0.6991  0.0546
 3994TIP3    H211989   2.662   1.274   2.419  0.5494  0.2303  0.4703
 3995TIP3   OH211990   0.745   0.895   0.332 -0.2489  0.3559 -0.6309
 3995TIP3    H111991   0.705   0.930   0.253 -1.4704  2.0280  0.6712
 3995TIP3    H211992   0.711   0.949   0.403  1.4222 -0.5836  0.9762
 3996TIP3   OH211993   4.984   0.454   3.361 -0.5690  0.2580 -0.2219
 3996TIP3    H111994   4.909   0.511   3.347 -0.6818  0.4827  1.1260
 3996TIP3    H211995   4.998   0.456   3.456  1.6669  0.9376 -0.4885
 3997TIP3   OH211996   5.333   2.933   2.636  0.1580  0.1848 -0.6263
 3997TIP3    H111997   5.312   2.847   2.674  1.9317 -0.5959 -1.3003
 3997TIP3    H211998   5.360   2.987   2.710  2.9972 -1.1356 -0.5644
 3998TIP3   OH211999   6.070   0.698   1.277  0.0963 -0.3473  0.1993
 3998TIP3    H112000   6.163   0.711   1.293  0.1710 -2.0182  1.3182
 3998TIP3    H212001   6.036   0.786   1.263  1.8153  0.2995 -0.1376
 3999TIP3   OH212002   3.566   1.401   0.995  0.3541  0.7980  0.0929
 3999TIP3    H112003   3.535   1.390   1.085  1.6166 -0.3229  0.4245
 3999TIP3    H212004   3.659   1.425   1.004  0.5042  0.6497 -0.9177
 4000TIP3   OH212005   3.680   4.750   3.977 -0.0004 -0.4208 -0.1715
 4000TIP3    H112006   3.650   4.690   3.909 -0.9697 -0.0170 -0.1161
 4000TIP3    H212007   3.677   4.700   4.058 -0.1976 -0.4822 -0.2183
 4001TIP3   OH212008   3.195   0.580   3.352  0.7433 -0.4361  0.1645
 4001TIP3    H112009   3.142   0.523   3.296 -0.3427  0.4634  0.2397
 4001TIP3    H212010   3.172   0.669   3.324  0.3146  0.0333  1.8791
 4002TIP3   OH212011   0.337   0.742   3.842 -0.2401 -0.5194 -0.6162
 4002TIP3    H112012   0.314   0.703   3.757 -2.4174 -0.3794 -0.1378
 4002TIP3    H212013   0.303   0.681   3.907 -2.5953  1.4742  0.1486
 4003TIP3   OH212014   4.359   5.648   2.490  0.3397 -0.5063 -0.2941
 4003TIP3    H112015   4.343   5.642   2.395  0.7067 -0.9524 -0.3283
 4003TIP3    H212016   4.328   5.736   2.513 -1.8944 -1.1869 -0.4132
 4004TIP3   OH212017   6.270   0.767   4.753 -0.0893  0.3342 -0.2908
 4004TIP3    H112018   6.175   0.769   4.743 -0.0504  0.2861 -0.6982
 4004TIP3    H212019   6.296   0.684   4.714 -0.0348 -0.4235  1.3034
 4005TIP3   OH212020   1.655   4.587   2.663 -0.4499  0.7403 -0.3898
 4005TIP3    H112021   1.744   4.610   2.638 -1.1413  2.5744 -1.3342
 4005TIP3    H212022   1.621   4.665   2.706 -1.5970  0.0559 -0.0040
 4006TIP3   OH212023   1.376   1.665   0.091  0.0679 -0.1488  0.1931
 4006TIP3    H112024   1.317   1.677   0.167  0.1323 -0.6416  0.3208
 4006TIP3    H212025   1.360   1.576   0.062 -1.2346  0.5738 -1.4645
 4007TIP3   OH212026   1.116   0.963   5.167  0.2077 -0.0719  0.6334
 4007TIP3    H112027   1.176   1.034   5.187  2.0803 -1.7689  1.3909
 4007TIP3    H212028   1.094   0.975   5.075  2.5348  0.0874  0.0327
 4008TIP3   OH212029   4.729   1.222   5.105 -0.1982  0.5122  0.1499
 4008TIP3    H112030   4.723   1.172   5.024 -0.4704  0.3438  0.2715
 4008TIP3    H212031   4.726   1.156   5.175 -0.6755  0.7038  0.3142
 4009TIP3   OH212032   5.268   5.283   3.629 -0.5146 -0.8315  0.0758
 4009TIP3    H112033   5.338   5.335   3.669 -1.3175 -0.3800  0.9306
 4009TIP3    H212034   5.314   5.219   3.574  0.5187  0.2888 -0.4020
 4010TIP3   OH212035   3.499   1.870   3.048 -0.3276 -0.0185  0.2962
 4010TIP3    H112036   3.507   1.943   3.109  0.2848  0.5652 -0.4600
 4010TIP3    H212037   3.489   1.912   2.962  0.2807 -0.8218 -0.1798
 4011TIP3   OH212038   5.480   2.542   5.010 -0.0155  0.6783 -0.5855
 4011TIP3    H112039   5.561   2.584   5.038  2.8878 -3.1679 -2.3501
 4011TIP3    H212040   5.462   2.476   5.077 -2.2744  1.9531  0.1783
 4012TIP3   OH212041   3.688   0.633   3.134 -0.4818 -0.1425  0.1859
 4012TIP3    H112042   3.748   0.686   3.082  0.6424 -1.1581  0.4122
 4012TIP3    H212043   3.610   0.626   3.079  0.1075  0.0642 -0.7086
 4013TIP3   OH212044   5.917   2.849   4.337  0.1841  0.3765  0.1084
 4013TIP3    H112045   5.928   2.906   4.413 -1.5414  1.7768 -0.6416
 4013TIP3    H212046   5.997   2.863   4.285  0.4203  1.0003  0.6322
 4014TIP3   OH212047   2.645   1.524   1.692  0.1120  0.0912 -0.9099
 4014TIP3    H112048   2.655   1.588   1.762 -0.4569 -0.3178 -0.4430
 4014TIP3    H212049   2.640   1.439   1.737  2.5289 -0.4937 -1.5993
 4015TIP3   OH212050   6.230   1.048   4.598  0.0918 -0.3260 -0.4123
 4015TIP3    H112051   6.287   0.986   4.643  1.0263  1.4819  1.0564
 4015TIP3    H212052   6.289   1.119   4.572 -0.8758 -0.1876 -2.3385
 4016TIP3   OH212053   4.600   0.367   4.994  0.1393 -0.8258  0.5361
 4016TIP3    H112054   4.602   0.458   5.022  1.5938  0.0972 -2.1126
 4016TIP3    H212055   4.507   0.347   4.981 -0.1324  1.6867 -2.5645
 4017TIP3   OH212056   4.962   3.625   2.438  0.0637  0.2703  0.1366
 4017TIP3    H112057   4.976   3.531   2.443  0.6750  0.4262  2.0839
 4017TIP3    H212058   4.944   3.641   2.346  1.2733 -1.5656 -0.4866
 4018TIP3   OH212059   3.578   2.570   2.159  0.6815 -0.0862 -0.0857
 4018TIP3    H112060   3.483   2.564   2.171  0.7943 -0.7260  0.5847
 4018TIP3    H212061   3.614   2.549   2.245  1.4830 -1.7074 -0.7864
 4019TIP3   OH212062   3.659   2.537   2.835 -0.4342  0.1133  0.1739
 4019TIP3    H112063   3.563   2.541   2.833 -0.5051 -1.2453 -0.3943
 4019TIP3    H212064   3.679   2.444   2.823  0.9802  0.4920 -0.6063
 4020TIP3   OH212065   2.955   2.269   0.135 -1.0395 -0.2090 -0.2057
 4020TIP3    H112066   2.930   2.182   0.166  1.3270 -1.0256 -0.3691
 4020TIP3    H212067   2.996   2.311   0.211 -0.8832  0.2064 -0.5159
 4021TIP3   OH212068   0.133   3.131   4.307 -0.0795  0.1920  0.1071
 4021TIP3    H112069   0.182   3.170   4.379 -1.1921  1.3762  0.2526
 4021TIP3    H212070   0.077   3.201   4.274 -0.5921 -0.7023 -1.0278
 4022TIP3   OH212071   4.214   2.439   4.756 -0.1352 -0.5787  0.6108
 4022TIP3    H112072   4.258   2.469   4.677 -0.5906 -2.5787 -0.4867
 4022TIP3    H212073   4.156   2.511   4.781 -0.0394  0.0580 -0.9209
 4023TIP3   OH212074   2.452   2.618   3.628 -0.1272  0.3544  1.1371
 4023TIP3    H112075   2.378   2.675   3.644  0.2213  0.9709  0.5877
 4023TIP3    H212076   2.527   2.662   3.669 -0.2875 -0.9702  3.0004
 4024TIP3   OH212077   1.496   0.913   4.262 -0.4077  0.0938 -0.1125
 4024TIP3    H112078   1.538   0.975   4.321  1.4740 -0.6558 -0.5991
 4024TIP3    H212079   1.411   0.896   4.303 -0.5720  2.1969  0.5334
 4025TIP3   OH212080   1.056   2.264   0.539  0.1639  0.4735 -0.3183
 4025TIP3    H112081   1.025   2.297   0.624 -2.4619  0.4689 -1.1633
 4025TIP3    H212082   1.123   2.200   0.561  0.0357  0.9627  1.7290
 4026TIP3   OH212083   4.793   0.155   3.381 -0.4394 -0.2719 -0.2587
 4026TIP3    H112084   4.823   0.214   3.450 -1.7849  0.0487  0.0946
 4026TIP3    H212085   4.750   0.212   3.318  0.5464 -0.5949 -1.2596
 4027TIP3   OH212086   3.457   2.178   2.392 -0.1147  0.6531  0.1891
 4027TIP3    H112087   3.411   2.097   2.411  0.7169  0.5898  2.1654
 4027TIP3    H212088   3.439   2.195   2.299 -1.8886 -0.7327  0.2388
 4028TIP3   OH212089   4.939   4.322   2.503 -0.1287  0.3332 -0.6925
 4028TIP3    H112090   5.004   4.390   2.489 -0.4346  0.6164 -0.7567
 4028TIP3    H212091   4.977   4.244   2.464 -0.4176  0.8058 -1.9695
 4029TIP3   OH212092   4.640   1.425   2.060  0.1850  0.2249 -0.1993
 4029TIP3    H112093   4.570   1.489   2.048 -0.4781 -0.4272  0.1068
 4029TIP3    H212094   4.598   1.353   2.107  0.7671 -0.7028 -1.0798
 4030TIP3   OH212095   5.716   1.263   2.766 -0.1286  0.1452  0.1806
 4030TIP3    H112096   5.803   1.222   2.764  0.2948  1.0290  0.1121
 4030TIP3    H212097   5.666   1.208   2.826  0.5247 -0.2829  0.3529
 4031TIP3   OH212098   5.934   2.692   1.134 -0.5084 -0.2205 -0.0302
 4031TIP3    H112099   5.856   2.665   1.086 -0.3559 -2.3594  0.8050
 4031TIP3    H212100   6.006   2.677   1.072 -0.4992 -1.1381  0.1816
 4032TIP3   OH212101   0.569   0.541   3.658 -0.0035  0.2107  0.3484
 4032TIP3    H112102   0.538   0.455   3.630  0.6122 -0.5414  1.8299
 4032TIP3    H212103   0.501   0.602   3.631 -0.0702 -0.6214 -1.4638
 4033TIP3   OH212104   4.241   0.715   1.649  0.6407 -0.1631 -0.1201
 4033TIP3    H112105   4.298   0.699   1.725  0.7507 -2.4739 -0.6095
 4033TIP3    H212106   4.187   0.790   1.675  1.6086 -0.0354  1.6972
 4034TIP3   OH212107   1.253   2.943   2.841  0.2882 -0.5714  0.3371
 4034TIP3    H112108   1.168   2.898   2.837  0.1037 -0.3407  1.4724
 4034TIP3    H212109   1.231   3.031   2.871  1.0364 -0.8187  1.6599
 4035TIP3   OH212110   3.558   3.668   0.404 -0.4463 -0.5954 -0.1390
 4035TIP3    H112111   3.576   3.622   0.485  0.6054  0.1144  0.0459
 4035TIP3    H212112   3.474   3.711   0.419 -0.3818 -0.6774  0.4767
 4036TIP3   OH212113   4.893   5.531   3.197 -0.6320  0.5799 -0.5745
 4036TIP3    H112114   4.937   5.446   3.184  1.4432  1.3784  0.6445
 4036TIP3    H212115   4.939   5.591   3.139 -0.4198  1.3511  0.3686
 4037TIP3   OH212116   4.774   1.012   1.798 -1.0457 -0.1067 -0.3048
 4037TIP3    H112117   4.748   1.008   1.706 -0.8021  2.1964 -0.5215
 4037TIP3    H212118   4.827   1.092   1.805  0.9611 -1.4554  1.3589
 4038TIP3   OH212119   5.930   4.341   3.974 -0.6769  0.3582  0.0115
 4038TIP3    H112120   5.870   4.355   4.047  0.7534  0.6824  1.1664
 4038TIP3    H212121   5.920   4.249   3.951 -0.6591  0.0868  1.0632
 4039TIP3   OH212122   5.668   5.127   1.335 -0.0335  0.2130 -0.3486
 4039TIP3    H112123   5.699   5.124   1.425  1.6228 -1.1930 -0.9203
 4039TIP3    H212124   5.682   5.218   1.308 -2.1497  1.0900  1.2939
 4040TIP3   OH212125   2.782   3.193   4.984  0.0154 -0.7095  0.6965
 4040TIP3    H112126   2.749   3.182   4.895  0.6809 -0.3093  0.3901
 4040TIP3    H212127   2.814   3.106   5.009  0.3885 -0.6886  0.3070
 4041TIP3   OH212128   3.836   2.875   3.414 -0.3199  0.2183  0.4637
 4041TIP3    H112129   3.853   2.966   3.437  0.4701  0.0329  0.6487
 4041TIP3    H212130   3.851   2.871   3.319  2.4409 -0.2849  0.8426
 4042TIP3   OH212131   3.212   0.054   2.966  0.9106  0.4599 -0.4537
 4042TIP3    H112132   3.272   0.129   2.966  1.5796 -0.0294 -1.8397
 4042TIP3    H212133   3.261  -0.015   2.921 -0.2110 -0.3729 -0.4247
 4043TIP3   OH212134   4.729   3.643   0.032  0.0137 -0.5196 -0.6682
 4043TIP3    H112135   4.693   3.677  -0.050  1.9821 -0.0461 -1.3948
 4043TIP3    H212136   4.792   3.709   0.059 -2.0348  0.3887  2.4238
 4044TIP3   OH212137   5.952   5.104   4.964  0.3440 -0.5588  0.5622
 4044TIP3    H112138   6.006   5.126   4.888  0.1476 -2.0042 -0.0252
 4044TIP3    H212139   6.009   5.122   5.039 -0.0601  2.6117  0.2472
 4045TIP3   OH212140   1.784   5.653   0.181 -0.1632 -0.5239 -0.2489
 4045TIP3    H112141   1.864   5.661   0.129 -1.2591  1.9843 -1.7743
 4045TIP3    H212142   1.810   5.683   0.268  0.6516  0.0139 -0.6552
 4046TIP3   OH212143   5.225   0.603   1.921  0.5179  0.0951  0.6860
 4046TIP3    H112144   5.144   0.614   1.872 -0.2375  0.5964  1.9953
 4046TIP3    H212145   5.246   0.691   1.952  1.1207 -0.1714  1.0424
 4047TIP3   OH212146   2.010   5.094   2.858 -0.0516  0.7653  0.0734
 4047TIP3    H112147   1.960   5.017   2.831 -0.6537  0.8758  0.8380
 4047TIP3    H212148   2.100   5.061   2.869 -0.4361 -0.0104  1.0797
 4048TIP3   OH212149   4.280   1.976   3.110  0.1279  0.2286 -0.3150
 4048TIP3    H112150   4.244   1.971   3.022 -0.3661  0.8452 -0.1524
 4048TIP3    H212151   4.204   1.966   3.168  0.7126 -2.5770  0.0958
 4049TIP3   OH212152   2.988   3.465   0.101 -0.0413  0.1820  0.0999
 4049TIP3    H112153   3.014   3.557   0.104 -0.4115  0.3409 -0.9334
 4049TIP3    H212154   2.937   3.451   0.181  0.2666  0.7933  0.4042
 4050TIP3   OH212155   4.478   0.150   0.645 -0.0374  0.1128 -0.0318
 4050TIP3    H112156   4.526   0.083   0.596  2.5805  1.3074  0.7147
 4050TIP3    H212157   4.400   0.167   0.592  0.0011 -2.3624 -1.0231
 4051TIP3   OH212158   4.712   0.607   3.584 -0.4013 -0.9268  0.0113
 4051TIP3    H112159   4.665   0.689   3.599  2.0455  0.2992  1.7165
 4051TIP3    H212160   4.740   0.612   3.492  1.3394  1.1612  0.5688
 4052TIP3   OH212161   0.591   5.221   4.147 -0.1482  0.0323 -0.4145
 4052TIP3    H112162   0.621   5.296   4.095 -1.2506 -0.1227 -1.3316
 4052TIP3    H212163   0.582   5.256   4.236  1.4679  0.3925 -0.3558
 4053TIP3   OH212164   3.710   2.856   2.496  0.3619 -0.1910  0.3373
 4053TIP3    H112165   3.729   2.950   2.495  0.6674 -0.1888 -2.6211
 4053TIP3    H212166   3.643   2.846   2.563  1.9560  1.7275  2.3896
 4054TIP3   OH212167   0.807   2.124   2.976  0.3300  0.0631 -0.4251
 4054TIP3    H112168   0.722   2.166   2.965  0.0057 -0.3914  0.2712
 4054TIP3    H212169   0.850   2.175   3.045 -0.2570 -0.9900  0.7698
 4055TIP3   OH212170   1.781   5.851   3.142 -0.0107 -0.2127  0.0512
 4055TIP3    H112171   1.739   5.805   3.069 -2.3411 -0.8347  1.6712
 4055TIP3    H212172   1.840   5.785   3.180  0.7779 -0.0643 -0.8592
 4056TIP3   OH212173   0.649   4.855   0.651 -0.3301  0.0400  0.3843
 4056TIP3    H112174   0.570   4.800   0.646  0.2057 -0.6674 -0.9532
 4056TIP3    H212175   0.721   4.793   0.639  0.4607  0.6563  1.7488
 4057TIP3   OH212176   2.410   3.458   0.665 -0.2064  0.2641  0.0252
 4057TIP3    H112177   2.318   3.480   0.652 -0.1958  0.2313 -0.1103
 4057TIP3    H212178   2.420   3.372   0.623 -0.3891 -0.2766  1.0794
 4058TIP3   OH212179   4.609   2.592   4.039  0.6740 -0.0185  0.4414
 4058TIP3    H112180   4.663   2.643   3.979 -0.0481  0.5541  0.2624
 4058TIP3    H212181   4.671   2.537   4.087  1.5355  1.3861  1.0120
 4059TIP3   OH212182   5.552   4.305   4.463  0.4380  0.3061 -0.0989
 4059TIP3    H112183   5.561   4.216   4.431 -0.4447  0.1292  0.1251
 4059TIP3    H212184   5.641   4.339   4.465  0.4913  0.6958 -3.7403
 4060TIP3   OH212185   5.556   2.707   0.285 -0.1945 -0.4600  0.4583
 4060TIP3    H112186   5.497   2.768   0.241  0.0371 -0.1776  0.5410
 4060TIP3    H212187   5.582   2.645   0.217 -1.9707 -1.6541  0.7901
 4061TIP3   OH212188   3.798   2.594   4.935  0.1868 -0.0315 -0.4661
 4061TIP3    H112189   3.847   2.582   5.017  1.2328 -4.2351 -1.4661
 4061TIP3    H212190   3.706   2.579   4.960  0.2272  0.8450  0.2541
 4062TIP3   OH212191   0.835   4.341   1.060 -0.3235 -0.9462 -0.7223
 4062TIP3    H112192   0.904   4.328   1.125 -1.3241 -0.1008  0.5846
 4062TIP3    H212193   0.844   4.433   1.034 -1.0689 -0.7757 -0.3894
 4063TIP3   OH212194   1.287   5.219   1.647  0.0146  0.6197  0.0074
 4063TIP3    H112195   1.338   5.257   1.575  0.9860  1.5719  1.1581
 4063TIP3    H212196   1.335   5.244   1.726  0.0136 -1.9496  0.9254
 4064TIP3   OH212197   4.842   0.980   2.210 -0.5592 -0.7324  0.3378
 4064TIP3    H112198   4.846   0.906   2.150 -0.3867 -0.6947  0.3020
 4064TIP3    H212199   4.766   0.962   2.266 -1.6409 -0.0190 -0.8568
 4065TIP3   OH212200   4.879   2.737   1.195  0.4520 -0.1011  0.2500
 4065TIP3    H112201   4.836   2.756   1.278 -0.4068 -1.1838  0.0812
 4065TIP3    H212202   4.919   2.820   1.168  0.6701  0.2848  1.6905
 4066TIP3   OH212203   0.582   1.467   1.156  0.5179  0.1747 -0.1911
 4066TIP3    H112204   0.521   1.394   1.143  0.4843  0.1854 -0.0945
 4066TIP3    H212205   0.582   1.482   1.251 -0.8886  1.5107 -0.3805
 4067TIP3   OH212206   6.228   5.203   1.498  0.1581 -0.5183 -0.6720
 4067TIP3    H112207   6.222   5.266   1.571  3.8535  2.5054 -2.6259
 4067TIP3    H212208   6.170   5.240   1.431  1.7015  0.4450 -1.5222
 4068TIP3   OH212209   1.841   0.017   1.700  0.0724  0.1044 -0.0726
 4068TIP3    H112210   1.855   0.036   1.608 -1.2480  0.5190 -0.1969
 4068TIP3    H212211   1.838   0.103   1.743  1.2272 -0.0980  0.4562
 4069TIP3   OH212212   6.302   5.885   4.052  0.1139 -0.2915  0.4315
 4069TIP3    H112213   6.362   5.961   4.051  0.6727 -0.6461 -2.7243
 4069TIP3    H212214   6.292   5.864   4.145  1.8107  2.1890  1.2833
 4070TIP3   OH212215   4.638   5.801   2.478  0.7582  0.3137 -0.5518
 4070TIP3    H112216   4.573   5.870   2.487  0.3655  0.0473 -1.2302
 4070TIP3    H212217   4.716   5.835   2.522 -0.0748  0.3124  0.9874
 4071TIP3   OH212218   3.592   4.108   4.008 -0.0034 -0.2201 -0.0659
 4071TIP3    H112219   3.661   4.171   4.030 -1.3587  1.7574 -1.2015
 4071TIP3    H212220   3.600   4.040   4.075  2.1608  0.6134  0.6180
 4072TIP3   OH212221   1.433   5.906   0.527  0.7822 -0.2321 -0.1376
 4072TIP3    H112222   1.359   5.868   0.573  0.7316  0.1709  0.1202
 4072TIP3    H212223   1.496   5.835   0.519  0.4629 -0.5146 -0.1522
 4073TIP3   OH212224   4.422   1.450   3.481  0.0106 -0.4261 -0.0657
 4073TIP3    H112225   4.516   1.464   3.482  0.1821 -1.1880  2.5639
 4073TIP3    H212226   4.406   1.386   3.551 -2.1240 -2.8303 -2.5029
 4074TIP3   OH212227   1.733   5.021   4.504 -0.1030 -0.1646  0.7032
 4074TIP3    H112228   1.759   5.106   4.468 -2.2504  1.1268  2.0016
 4074TIP3    H212229   1.746   4.959   4.432  4.2751  0.6190  0.5475
 4075TIP3   OH212230   5.324   3.603   1.168  0.0496  0.6295 -0.3140
 4075TIP3    H112231   5.405   3.580   1.213  0.4816  2.0870 -0.2838
 4075TIP3    H212232   5.284   3.671   1.224 -0.9739  0.2416 -0.5512
 4076TIP3   OH212233   2.180   1.267   3.983  0.0028  0.2292  0.2415
 4076TIP3    H112234   2.180   1.197   3.919 -1.4931 -0.4597  0.9481
 4076TIP3    H212235   2.116   1.240   4.049 -0.1782  1.9720  0.8479
 4077TIP3   OH212236   0.217   3.170   4.835  0.5602  0.1300  0.1700
 4077TIP3    H112237   0.243   3.231   4.903  0.1579 -0.5273  0.9380
 4077TIP3    H212238   0.287   3.173   4.771  1.3905  0.1057  1.0562
 4078TIP3   OH212239   1.154   4.132   2.111  0.1900 -0.8201  0.0667
 4078TIP3    H112240   1.230   4.125   2.169 -0.3142  0.8607  0.9852
 4078TIP3    H212241   1.080   4.148   2.170 -0.3393  1.0224 -1.0168
 4079TIP3   OH212242   6.360   2.388   2.966  0.5438  0.3116  0.5369
 4079TIP3    H112243   6.331   2.315   3.020  0.4726  0.6908  1.0164
 4079TIP3    H212244   6.286   2.448   2.964  0.4584  0.1983 -0.1785
 4080TIP3   OH212245   1.312   0.814   4.519  0.3308 -0.0227 -0.4227
 4080TIP3    H112246   1.297   0.778   4.607 -2.2539  1.2205 -0.2745
 4080TIP3    H212247   1.339   0.904   4.534  0.3971  0.0382 -0.8886
 4081TIP3   OH212248   0.771   0.702   3.714 -0.0440  0.1081  0.0104
 4081TIP3    H112249   0.822   0.645   3.772  1.2225  0.3782 -0.8102
 4081TIP3    H212250   0.695   0.649   3.689  0.3491 -0.6695  0.4445
 4082TIP3   OH212251   1.081   4.481   0.747 -0.1662  0.1975 -0.1768
 4082TIP3    H112252   1.089   4.514   0.657 -2.8799  0.9307 -0.2390
 4082TIP3    H212253   1.106   4.556   0.802  1.5845 -0.2798 -0.2780
 4083TIP3   OH212254   4.353   2.580   3.977  0.3098  0.1421 -0.1179
 4083TIP3    H112255   4.351   2.648   3.910 -1.2011  0.5616  0.3002
 4083TIP3    H212256   4.440   2.588   4.017  0.8869  0.4829 -1.3939
 4084TIP3   OH212257   6.288   5.124   2.675  0.9120 -0.2717 -0.3681
 4084TIP3    H112258   6.351   5.196   2.665  1.7122 -0.7626  0.9373
 4084TIP3    H212259   6.235   5.150   2.750  0.2971 -0.4209 -0.7426
 4085TIP3   OH212260   5.726   5.338   0.882 -0.4612  0.7702 -0.3561
 4085TIP3    H112261   5.734   5.433   0.874  0.5569  0.7765  0.5541
 4085TIP3    H212262   5.786   5.303   0.815 -0.0409  0.7852  0.0052
 4086TIP3   OH212263   2.227   4.281   4.934  0.2200 -0.1567  0.1326
 4086TIP3    H112264   2.249   4.348   4.998 -0.9053 -0.1514  0.5503
 4086TIP3    H212265   2.141   4.307   4.900  1.2430  0.4553 -2.2393
 4087TIP3   OH212266   0.601   4.796   4.717 -0.1558 -0.7012  0.4498
 4087TIP3    H112267   0.619   4.786   4.623 -1.3383  0.7506  0.0404
 4087TIP3    H212268   0.686   4.818   4.755  0.2581 -0.8693 -0.3440
 4088TIP3   OH212269   3.481   0.554   5.123 -0.1916  0.2399  0.0061
 4088TIP3    H112270   3.546   0.489   5.095  0.4020  1.2689 -1.1320
 4088TIP3    H212271   3.465   0.534   5.215 -0.3670 -1.7835 -0.4210
 4089TIP3   OH212272   3.304   2.395   3.597  1.2713 -0.0410  0.3301
 4089TIP3    H112273   3.330   2.436   3.514  1.0711  0.4077  0.4824
 4089TIP3    H212274   3.264   2.312   3.572  1.8870 -0.2571  0.0260
 4090TIP3   OH212275   6.083   5.608   4.928  0.4179 -0.4252  0.2974
 4090TIP3    H112276   6.075   5.556   4.849 -0.2725 -0.2829  0.2700
 4090TIP3    H212277   6.030   5.686   4.911  0.2250 -0.4162  0.9184
 4091TIP3   OH212278   2.593   2.603   2.863  0.0648  0.0909  0.2940
 4091TIP3    H112279   2.638   2.679   2.899  0.8983 -0.0718 -0.3680
 4091TIP3    H212280   2.507   2.636   2.838  1.3412  1.5972 -2.6215
 4092TIP3   OH212281   0.896   5.532   5.098 -0.0208  0.0320 -0.3657
 4092TIP3    H112282   0.934   5.553   5.183 -0.1224  0.6940 -0.4840
 4092TIP3    H212283   0.806   5.563   5.104 -0.2746 -0.6682 -0.4273
 4093TIP3   OH212284   0.418   5.433   4.846 -0.8329  0.5145 -0.4839
 4093TIP3    H112285   0.465   5.517   4.841 -2.4509  1.4404 -0.7344
 4093TIP3    H212286   0.335   5.454   4.888 -1.2570 -0.9856 -0.5160
 4094TIP3   OH212287   2.345   1.730   3.082 -0.3561 -0.1625 -0.7528
 4094TIP3    H112288   2.262   1.758   3.121 -0.7242 -0.7293 -1.1223
 4094TIP3    H212289   2.410   1.790   3.120 -0.8413 -0.0896 -0.0084
 4095TIP3   OH212290   5.443   1.772   4.787  0.1131 -0.1802 -0.1010
 4095TIP3    H112291   5.461   1.820   4.868 -0.0301 -0.9459  0.4017
 4095TIP3    H212292   5.530   1.748   4.754  0.1671 -0.0599 -0.0464
 4096TIP3   OH212293   2.754   3.634   2.539 -0.0526  0.7110 -0.7067
 4096TIP3    H112294   2.743   3.682   2.621  0.9289  0.0103 -0.1370
 4096TIP3    H212295   2.824   3.681   2.493 -1.8289  2.2108 -2.0379
 4097TIP3   OH212296   4.929   3.203   2.992  0.6154  0.1559 -0.5004
 4097TIP3    H112297   4.841   3.219   3.026  0.0153  1.2886 -2.4049
 4097TIP3    H212298   4.932   3.108   2.977  0.1052 -0.0373  0.5415
 4098TIP3   OH212299   5.747   0.949   0.128  0.3317  0.1501  0.1496
 4098TIP3    H112300   5.728   0.999   0.049  0.6264 -0.5230 -0.3586
 4098TIP3    H212301   5.790   1.012   0.186  2.0074  0.1564 -1.0342
 4099TIP3   OH212302   1.336   1.685   4.866 -0.3167  0.1258 -0.2207
 4099TIP3    H112303   1.327   1.779   4.855  0.0662  0.1356 -0.4518
 4099TIP3    H212304   1.296   1.647   4.788  0.4076  0.1291 -0.5999
 4100TIP3   OH212305   4.282   1.522   5.018  0.7799 -0.0945 -0.2032
 4100TIP3    H112306   4.191   1.541   4.994 -0.2102 -0.5911  2.7654
 4100TIP3    H212307   4.288   1.427   5.011  0.9700 -0.0895 -0.0838
 4101TIP3   OH212308   0.736   4.545   3.939 -0.3077  0.9186  0.9583
 4101TIP3    H112309   0.778   4.583   4.016 -0.7530  0.1225  1.6077
 4101TIP3    H212310   0.693   4.466   3.971 -0.8645  0.7996 -0.0281
 4102TIP3   OH212311   5.316   1.633   2.394  0.5899  0.8326  0.2110
 4102TIP3    H112312   5.408   1.650   2.411  0.1539  3.6537  0.2025
 4102TIP3    H212313   5.279   1.614   2.481  0.7812  2.0167  0.5683
 4103TIP3   OH212314   1.987   4.827   3.153 -0.4416 -0.3986  0.2538
 4103TIP3    H112315   1.903   4.781   3.154 -0.7640  0.1818  0.2673
 4103TIP3    H212316   1.965   4.919   3.168  0.4002 -0.5543  2.8328
 4104TIP3   OH212317   1.781   4.693   1.353 -0.3443 -0.1168  0.1908
 4104TIP3    H112318   1.720   4.689   1.280 -0.0720  0.7260 -0.0961
 4104TIP3    H212319   1.726   4.693   1.431 -0.6997  0.3307 -0.0562
 4105TIP3   OH212320   4.409   4.643   2.528 -0.0258 -0.2855  0.0712
 4105TIP3    H112321   4.356   4.715   2.493 -0.1936 -1.6780 -2.8420
 4105TIP3    H212322   4.348   4.594   2.583 -0.8148  0.0361 -0.4932
 4106TIP3   OH212323   3.990   5.161   2.699 -0.1156  0.2425 -0.2326
 4106TIP3    H112324   4.012   5.201   2.615 -1.4668 -0.2277 -0.8274
 4106TIP3    H212325   4.007   5.231   2.763  1.3188  0.4792 -0.8166
 4107TIP3   OH212326   2.662   5.416   2.109 -0.1864  0.3858  0.0599
 4107TIP3    H112327   2.612   5.424   2.190  3.4175  1.3676  2.4028
 4107TIP3    H212328   2.668   5.321   2.095 -0.6612  0.1845  1.0718
 4108TIP3   OH212329   4.177   1.738   0.216 -0.1137  0.2575  0.2109
 4108TIP3    H112330   4.160   1.712   0.125 -0.2131  0.3181  0.2123
 4108TIP3    H212331   4.247   1.803   0.210  0.5698 -0.4548  0.2517
 4109TIP3   OH212332   3.890   1.691   2.060 -0.2051  0.2862  0.2466
 4109TIP3    H112333   3.834   1.619   2.089 -1.7044  0.4304 -2.0384
 4109TIP3    H212334   3.833   1.746   2.008  1.1594  2.6403  1.0880
 4110TIP3   OH212335   2.666   2.857   2.895  0.1458 -0.1610  0.2010
 4110TIP3    H112336   2.585   2.904   2.911 -0.1195 -0.6521  0.3384
 4110TIP3    H212337   2.715   2.864   2.977  0.3579  0.3489  0.0355
 4111TIP3   OH212338   0.372   0.785   1.683  0.3992  0.2421 -0.0116
 4111TIP3    H112339   0.382   0.810   1.592 -0.1356 -2.6018 -0.9556
 4111TIP3    H212340   0.425   0.705   1.692 -0.6051 -0.2867  1.8018
 4112TIP3   OH212341   6.367   4.742   2.106 -0.1637  0.4293  0.3938
 4112TIP3    H112342   6.279   4.734   2.144 -0.1410 -1.4919  0.1713
 4112TIP3    H212343   6.376   4.663   2.052  1.3934  1.0168 -0.2486
 4113TIP3   OH212344   0.349   2.845   0.108  0.4469 -0.4655 -0.1801
 4113TIP3    H112345   0.306   2.828   0.024  1.0370 -0.1357 -0.5558
 4113TIP3    H212346   0.434   2.802   0.100  1.3647  1.3289 -0.5805
 4114TIP3   OH212347   0.435   5.245   1.761 -0.3055  0.1247 -0.0346
 4114TIP3    H112348   0.380   5.192   1.818 -1.3415  0.4689 -0.6803
 4114TIP3    H212349   0.381   5.322   1.740  0.5497  0.6405 -0.4179
 4115TIP3   OH212350   0.647   4.036   0.636  0.1502  0.1274  0.0041
 4115TIP3    H112351   0.639   3.963   0.697  0.1352  1.4693  1.6938
 4115TIP3    H212352   0.651   3.995   0.549  3.1069 -2.0690  1.0183
 4116TIP3   OH212353   5.766   5.559   1.837 -0.4228  0.1720  0.9394
 4116TIP3    H112354   5.791   5.651   1.831  2.3150 -0.4661  1.1132
 4116TIP3    H212355   5.734   5.536   1.750 -1.0503  1.2263  0.8730
 4117TIP3   OH212356   0.642   0.113   4.366  0.8827  0.1388  0.1213
 4117TIP3    H112357   0.585   0.108   4.444 -0.1924 -0.9102 -0.7045
 4117TIP3    H212358   0.600   0.179   4.311  1.4728  0.6528  0.2716
 4118TIP3   OH212359   5.018   0.356   5.143 -0.4041 -0.2164 -0.3036
 4118TIP3    H112360   4.999   0.264   5.125 -1.0254 -0.2433  0.4353
 4118TIP3    H212361   5.103   0.372   5.101  0.0749 -1.3303  0.1973
 4119TIP3   OH212362   6.361   5.262   2.169 -0.0099 -0.1440 -0.5920
 4119TIP3    H112363   6.389   5.173   2.190 -2.5029 -0.5803  1.4030
 4119TIP3    H212364   6.281   5.251   2.117 -1.7989  0.7856  1.7777
 4120TIP3   OH212365   5.973   3.684   1.375 -0.2193 -0.4582  0.0807
 4120TIP3    H112366   5.914   3.626   1.425 -1.0642  0.0635 -0.3055
 4120TIP3    H212367   6.051   3.690   1.430 -0.8995 -0.3825  1.0606
 4121TIP3   OH212368   5.423   1.639   1.546  0.0761  0.3908  0.2462
 4121TIP3    H112369   5.450   1.701   1.478 -0.9926  0.5436 -0.0475
 4121TIP3    H212370   5.437   1.685   1.628  1.4820  0.1673  0.1650
 4122TIP3   OH212371   5.808   4.107   1.209  0.3467 -0.6469  0.3356
 4122TIP3    H112372   5.831   4.015   1.201 -2.1242 -1.3372  0.4598
 4122TIP3    H212373   5.838   4.132   1.297  1.6142 -1.1109  0.0566
 4123TIP3   OH212374   5.689   3.685   0.989  0.4401 -0.6866  0.5270
 4123TIP3    H112375   5.728   3.723   0.910  2.3926 -1.6972  0.9376
 4123TIP3    H212376   5.733   3.731   1.061  1.9711 -2.7682  1.0126
 4124TIP3   OH212377   0.072   2.735   4.458  0.5202 -0.8716 -0.2618
 4124TIP3    H112378   0.115   2.818   4.475 -0.8003  0.0409 -1.1648
 4124TIP3    H212379   0.126   2.670   4.503  0.1761  0.7196  2.7585
 4125TIP3   OH212380   3.278   1.061   1.145 -0.1516 -0.1893 -0.0506
 4125TIP3    H112381   3.357   1.038   1.194 -1.4934 -1.5885  1.5742
 4125TIP3    H212382   3.300   1.042   1.054  1.6615  0.3349  0.2414
 4126TIP3   OH212383   5.282   1.287   0.929  0.3781  0.2997  0.4709
 4126TIP3    H112384   5.329   1.285   0.846  0.6858  0.8392  0.6269
 4126TIP3    H212385   5.347   1.315   0.993  0.2489 -0.5055  0.9677
 4127TIP3   OH212386   2.651   1.875   2.691  0.2875  0.6271  0.4781
 4127TIP3    H112387   2.616   1.934   2.758 -1.0594  0.0218  0.3443
 4127TIP3    H212388   2.575   1.824   2.663  0.9887  0.3564 -0.9827
 4128TIP3   OH212389   1.802   3.930   3.426  0.1068  0.0378 -0.0938
 4128TIP3    H112390   1.811   4.004   3.365 -0.2616 -0.8063 -1.1948
 4128TIP3    H212391   1.731   3.877   3.390  0.5433 -1.0061  0.5277
 4129TIP3   OH212392   4.053   2.538   1.058 -0.2825 -0.0152 -0.1993
 4129TIP3    H112393   4.082   2.574   1.141  1.3138 -0.3142 -0.6003
 4129TIP3    H212394   4.015   2.613   1.011  2.5710  1.1643 -0.8406
 4130TIP3   OH212395   4.748   5.991   1.085  0.2472 -0.1555  0.0694
 4130TIP3    H112396   4.740   6.036   1.170  0.7838 -0.9482  0.5533
 4130TIP3    H212397   4.672   5.934   1.080  0.9003 -1.1080  0.6457
 4131TIP3   OH212398   1.731   5.273   2.031 -0.2098  0.5439 -0.5958
 4131TIP3    H112399   1.681   5.205   2.075  1.2976 -0.6175 -0.5824
 4131TIP3    H212400   1.822   5.245   2.039  0.3119  1.5731 -2.2889
 4132TIP3   OH212401   1.067   3.055   3.232 -0.4142  0.2720 -0.6815
 4132TIP3    H112402   0.986   3.105   3.234 -0.1523  0.7077 -0.8005
 4132TIP3    H212403   1.054   2.985   3.296 -1.0003  0.1547 -0.9299
 4133TIP3   OH212404   4.042   2.619   4.832 -0.2448 -0.4148  0.5242
 4133TIP3    H112405   4.087   2.664   4.904 -1.2093  0.8484  0.3605
 4133TIP3    H212406   3.957   2.594   4.869 -0.7267  0.1913 -0.1520
 4134TIP3   OH212407   5.280   3.861   4.662  0.3935 -0.4499 -0.0113
 4134TIP3    H112408   5.308   3.942   4.619  0.2075 -0.3936 -0.0238
 4134TIP3    H212409   5.298   3.792   4.598  3.2406 -0.8061  1.0056
 4135TIP3   OH212410   2.696   1.649   0.942 -0.2614  0.3375 -0.2984
 4135TIP3    H112411   2.631   1.588   0.976  0.3612 -0.0434  0.2390
 4135TIP3    H212412   2.780   1.609   0.964  0.1863  1.9744  1.1692
 4136TIP3   OH212413   4.397   1.667   2.280  0.2794  0.4853 -0.0392
 4136TIP3    H112414   4.483   1.688   2.243  0.2273 -1.7880 -1.6480
 4136TIP3    H212415   4.335   1.690   2.211 -0.2689  0.6991  0.5200
 4137TIP3   OH212416   2.041   4.453   0.978 -0.0764 -0.0850  0.3716
 4137TIP3    H112417   2.045   4.480   1.069  0.1435 -1.0750  0.6697
 4137TIP3    H212418   2.127   4.477   0.942 -0.5148  1.2210  0.1364
 4138TIP3   OH212419   1.149   3.892   3.953  0.1942  0.2419 -0.6359
 4138TIP3    H112420   1.219   3.932   4.004  0.6077 -0.9562 -0.2468
 4138TIP3    H212421   1.078   3.880   4.016  0.0620  0.3769 -0.7586
 4139TIP3   OH212422   3.984   5.377   2.871  0.1325  0.6998  0.0018
 4139TIP3    H112423   3.890   5.392   2.858  0.2651  0.4584 -1.5070
 4139TIP3    H212424   4.011   5.444   2.933 -1.3803 -0.4152  1.9638
 4140TIP3   OH212425   0.010   1.326   1.207  0.4522 -0.1848  0.1732
 4140TIP3    H112426   0.040   1.385   1.276  2.6618 -1.7571  0.6919
 4140TIP3    H212427   0.067   1.345   1.132 -0.3367 -0.1130 -0.4226
 4141TIP3   OH212428   1.060   2.549   3.472 -0.6243 -0.5578 -0.3079
 4141TIP3    H112429   1.007   2.508   3.541  0.0123 -1.5653 -0.3928
 4141TIP3    H212430   1.092   2.476   3.420 -0.3297  0.1351 -1.1209
 4142TIP3   OH212431   6.118   2.817   0.034 -0.0769 -0.4408  0.3198
 4142TIP3    H112432   6.057   2.806   0.107  0.8857  0.2970  1.2805
 4142TIP3    H212433   6.127   2.912   0.024  0.5030 -0.5359 -0.1489
 4143TIP3   OH212434   0.884   1.290   1.849  0.4960  0.2097  0.2290
 4143TIP3    H112435   0.790   1.274   1.856  0.5023  0.4250  0.8099
 4143TIP3    H212436   0.917   1.214   1.801 -0.2846  1.1874 -1.9876
 4144TIP3   OH212437   2.177   0.328  -0.015  0.1766 -0.1284 -0.2698
 4144TIP3    H112438   2.179   0.351   0.078  1.2500  2.1573 -0.7827
 4144TIP3    H212439   2.085   0.340  -0.040 -0.4680 -2.3666  0.7865
 4145TIP3   OH212440   0.049   4.708   1.338  0.3272 -0.4841 -0.3594
 4145TIP3    H112441  -0.021   4.703   1.273  0.0949 -1.3494 -0.0578
 4145TIP3    H212442   0.025   4.782   1.393  1.6902  1.7256 -2.5378
 4146TIP3   OH212443   0.088   0.971   0.383 -0.9818 -0.6182  0.3632
 4146TIP3    H112444   0.105   1.063   0.398 -0.1207 -0.9247  1.4004
 4146TIP3    H212445   0.005   0.969   0.336 -1.4368  0.6499  1.0707
 4147TIP3   OH212446   3.693   1.760   4.585  0.4889 -0.4924 -0.3543
 4147TIP3    H112447   3.647   1.842   4.605 -0.1626 -0.5451 -1.5354
 4147TIP3    H212448   3.708   1.763   4.490  0.6050 -1.6558 -0.3880
 4148TIP3   OH212449   5.410   4.894   2.140  0.6829 -0.7279 -0.4084
 4148TIP3    H112450   5.477   4.952   2.178  1.3579 -1.2357 -0.8135
 4148TIP3    H212451   5.457   4.814   2.117 -0.0983 -1.1539 -0.5592
 4149TIP3   OH212452   6.191   3.189   4.974 -0.0255  0.2620  0.5056
 4149TIP3    H112453   6.246   3.176   4.897  0.9360  0.6056  1.1089
 4149TIP3    H212454   6.251   3.178   5.048 -0.7862  0.5924  1.1889
 4150TIP3   OH212455   2.182   0.168   1.611 -0.0924 -0.4094 -0.4768
 4150TIP3    H112456   2.271   0.143   1.636 -0.1795 -0.2999 -0.0486
 4150TIP3    H212457   2.128   0.145   1.687 -0.3408  0.0596 -0.5033
 4151TIP3   OH212458   1.319   5.918   2.738  0.1861  0.1389  0.1812
 4151TIP3    H112459   1.356   5.929   2.650 -2.1568 -0.6325 -0.9839
 4151TIP3    H212460   1.382   5.962   2.796  3.4369 -1.9378 -1.4349
 4152TIP3   OH212461   2.031   3.064   0.898 -0.1858  0.0330  0.5840
 4152TIP3    H112462   2.091   3.061   0.823  0.2803  0.6154  0.9293
 4152TIP3    H212463   2.006   3.155   0.905 -1.2000 -0.2253  0.3847
 4153TIP3   OH212464   2.585   1.016   0.207  0.1128  0.3759 -0.9124
 4153TIP3    H112465   2.570   0.969   0.125  0.8990  0.8729 -1.3586
 4153TIP3    H212466   2.521   1.087   0.206 -2.0118 -1.3825  0.3995
 4154TIP3   OH212467   0.074   2.875   2.200  0.1507  0.4629  0.3588
 4154TIP3    H112468   0.056   2.831   2.117  0.6284 -1.3871  1.1781
 4154TIP3    H212469   0.090   2.967   2.176  0.4340 -0.0544 -1.6025
 4155TIP3   OH212470   5.169   5.483   4.272  0.6159 -0.0176  0.0093
 4155TIP3    H112471   5.159   5.389   4.256 -1.7881  0.2442 -0.3960
 4155TIP3    H212472   5.158   5.493   4.366  1.8063 -0.2014  0.1875
 4156TIP3   OH212473   4.032   2.863   3.133  0.1527  0.4262 -0.3235
 4156TIP3    H112474   4.096   2.839   3.066  1.5996 -0.6275  1.3540
 4156TIP3    H212475   4.039   2.793   3.199 -1.8219  0.9665  0.5327
 4157TIP3   OH212476   6.150   1.963   1.761 -0.2947  0.0790  0.1392
 4157TIP3    H112477   6.102   2.018   1.823 -0.4238 -0.4802  0.5448
 4157TIP3    H212478   6.136   1.874   1.793 -0.2168 -0.2010 -0.5960
 4158TIP3   OH212479   3.031   0.900   1.207 -0.2252  0.3196  0.0971
 4158TIP3    H112480   3.047   0.959   1.133 -0.5024  1.1088  0.6504
 4158TIP3    H212481   3.109   0.845   1.212  0.3033  1.0490 -0.0572
 4159TIP3   OH212482   0.683   3.404   0.441 -0.0918  0.3401  0.1418
 4159TIP3    H112483   0.598   3.376   0.408 -0.4785  1.7246 -0.0945
 4159TIP3    H212484   0.730   3.434   0.363  0.3577  0.2361  0.3699
 4160TIP3   OH212485   0.669   0.318   2.199  0.1491 -0.0874  0.0227
 4160TIP3    H112486   0.632   0.406   2.214 -0.4816 -0.3415 -0.0245
 4160TIP3    H212487   0.758   0.335   2.171 -0.6287  0.6606 -2.2380
 4161TIP3   OH212488   1.136   3.271   4.540  0.0299 -0.4526  0.2063
 4161TIP3    H112489   1.188   3.240   4.614  0.4074  1.9597  1.0245
 4161TIP3    H212490   1.192   3.336   4.498 -0.6631 -0.9156 -1.5222
 4162TIP3   OH212491   2.306   4.337   2.860  0.2507  0.6910 -0.1955
 4162TIP3    H112492   2.297   4.242   2.875  0.5596  0.8157  0.8980
 4162TIP3    H212493   2.394   4.358   2.889  0.8467  1.0426 -2.1230
 4163TIP3   OH212494   5.659   4.351   2.579 -0.4376  0.0629 -0.4744
 4163TIP3    H112495   5.640   4.421   2.641 -0.0663  1.2511 -1.6603
 4163TIP3    H212496   5.602   4.368   2.504 -0.1149 -0.7202 -0.9176
 4164TIP3   OH212497   1.678   2.505   2.722  0.3119  1.0257 -0.1745
 4164TIP3    H112498   1.726   2.484   2.642  1.4530  0.1293  0.7061
 4164TIP3    H212499   1.741   2.549   2.778 -0.7625  2.6082 -0.1241
 4165TIP3   OH212500   6.244   1.470   3.949  0.0489 -0.6288  0.0061
 4165TIP3    H112501   6.316   1.472   3.885  1.0171  0.4188  1.0760
 4165TIP3    H212502   6.217   1.378   3.951 -0.3521 -0.6057 -2.2455
 4166TIP3   OH212503   5.850   0.403   1.840 -0.2689 -0.8477 -0.6090
 4166TIP3    H112504   5.878   0.312   1.829  0.1325 -0.8675  0.5224
 4166TIP3    H212505   5.918   0.455   1.796 -0.1346 -1.0525 -0.6423
 4167TIP3   OH212506   4.434   1.597   1.999  0.0149 -0.1441  0.2520
 4167TIP3    H112507   4.410   1.687   1.978 -0.3722 -0.3482 -0.2063
 4167TIP3    H212508   4.372   1.544   1.949  0.1884 -0.6635  0.5839
 4168TIP3   OH212509   0.373   5.402   0.517  0.2113  0.4742  0.2432
 4168TIP3    H112510   0.376   5.320   0.466  1.2485  0.9606 -0.5246
 4168TIP3    H212511   0.282   5.429   0.513  0.1854  0.2870 -1.0643
 4169TIP3   OH212512   4.805   2.725   3.900  0.1212  0.3031  0.7412
 4169TIP3    H112513   4.819   2.807   3.853  0.7141  0.4483  1.1680
 4169TIP3    H212514   4.878   2.719   3.961  0.6422 -1.0417  0.0239
 4170TIP3   OH212515   2.334   4.677   2.677  0.2877  0.0630  0.8861
 4170TIP3    H112516   2.270   4.683   2.606 -0.4862  2.0136  1.6714
 4170TIP3    H212517   2.296   4.614   2.738  0.6444 -1.1294 -0.0790
 4171TIP3   OH212518   4.787   4.180   0.560  0.0398  0.2035  0.9584
 4171TIP3    H112519   4.823   4.130   0.633 -1.7082 -0.7311  1.2424
 4171TIP3    H212520   4.787   4.271   0.590 -0.0844 -0.0965  1.8799
 4172TIP3   OH212521   3.191   2.808   1.415  0.3043 -0.2087 -0.3420
 4172TIP3    H112522   3.242   2.791   1.336 -0.9460 -0.8114 -1.0457
 4172TIP3    H212523   3.104   2.830   1.384 -0.2794 -0.7028  0.8740
 4173TIP3   OH212524   6.004  -0.002   0.103  0.5962 -0.4647 -0.0195
 4173TIP3    H112525   6.092   0.018   0.135  0.3894 -1.9498  1.6384
 4173TIP3    H212526   5.949   0.069   0.137  1.0072  0.0640 -0.4321
 4174TIP3   OH212527   3.946   1.237   1.607 -0.5571 -0.0265 -0.6007
 4174TIP3    H112528   4.035   1.262   1.581  0.0132 -1.2119  0.1576
 4174TIP3    H212529   3.938   1.266   1.697  0.1074 -2.3929  0.2922
 4175TIP3   OH212530   5.744   3.463   3.754 -0.3330 -0.9603 -0.2894
 4175TIP3    H112531   5.680   3.533   3.760  0.0329 -0.7324  1.2502
 4175TIP3    H212532   5.692   3.382   3.759 -0.7418 -0.8510 -1.9680
 4176TIP3   OH212533   6.242   2.039   0.163 -0.2798  0.3298  0.0821
 4176TIP3    H112534   6.329   2.076   0.149 -0.7295  0.7250 -1.8576
 4176TIP3    H212535   6.216   2.071   0.250  1.1271  0.9356  0.3024
 4177TIP3   OH212536   6.242   4.209   4.105 -0.5131  0.6626 -0.7617
 4177TIP3    H112537   6.223   4.151   4.031  0.6429 -0.9709  0.1725
 4177TIP3    H212538   6.328   4.245   4.085 -0.2262  0.2656 -0.2304
 4178TIP3   OH212539   6.311   0.570   2.324 -0.3740 -0.1825  0.4123
 4178TIP3    H112540   6.281   0.616   2.245 -0.3932  1.1352  1.1497
 4178TIP3    H212541   6.248   0.595   2.391  0.8601  0.5128  1.3573
 4179TIP3   OH212542   6.040   4.612   4.473 -0.0504 -0.0401  0.3424
 4179TIP3    H112543   5.987   4.566   4.408 -0.0319  0.2753  0.1007
 4179TIP3    H212544   5.991   4.692   4.491 -0.7595 -0.7453  1.7537
 4180TIP3   OH212545   2.027   5.317   2.657  0.3255  0.0104  0.3569
 4180TIP3    H112546   1.969   5.256   2.703 -0.0680 -0.5166 -0.8213
 4180TIP3    H212547   2.109   5.312   2.706 -0.3891  0.2685  1.6514
 4181TIP3   OH212548   1.775   4.452   3.916 -0.2364 -0.0953  0.2981
 4181TIP3    H112549   1.867   4.436   3.896 -0.8470 -3.4973 -0.4953
 4181TIP3    H212550   1.750   4.381   3.975 -2.2801  0.9171  0.7577
 4182TIP3   OH212551   4.451   2.672   3.159 -0.4127  0.0652 -0.5114
 4182TIP3    H112552   4.536   2.694   3.196 -1.1387 -0.6111  1.7503
 4182TIP3    H212553   4.389   2.686   3.230 -2.0272 -0.7411 -1.6741
 4183TIP3   OH212554   5.532   0.039   3.605 -0.2904  0.1650  0.4029
 4183TIP3    H112555   5.534   0.125   3.565 -0.5516 -0.1040 -0.1979
 4183TIP3    H212556   5.473   0.048   3.680  1.3947  1.0670  1.6904
 4184TIP3   OH212557   2.520   0.830   5.007  0.2037  0.2425 -0.5647
 4184TIP3    H112558   2.454   0.782   4.956 -0.6001 -0.4792  1.0924
 4184TIP3    H212559   2.470   0.874   5.076  1.5106 -1.0495  1.2795
 4185TIP3   OH212560   3.952   5.783   4.191  0.4353  0.0411  0.1669
 4185TIP3    H112561   3.992   5.803   4.107 -1.0061 -0.8138 -0.7642
 4185TIP3    H212562   4.016   5.728   4.236  1.6870  1.4183  0.1171
 4186TIP3   OH212563   5.841   1.849   2.450 -0.4736 -0.4969 -0.0195
 4186TIP3    H112564   5.860   1.817   2.361 -1.4627  0.2084 -0.5025
 4186TIP3    H212565   5.788   1.779   2.489 -1.7005  0.0379 -0.6880
 4187TIP3   OH212566   1.957   0.467   3.068  0.2402 -0.0219  0.3503
 4187TIP3    H112567   1.917   0.517   3.140 -1.7813 -1.1887  0.1077
 4187TIP3    H212568   1.945   0.376   3.093  0.1616 -0.4317 -1.1263
 4188TIP3   OH212569   2.201   1.278   0.884  0.1028 -0.5920 -0.3132
 4188TIP3    H112570   2.186   1.370   0.864 -1.9072 -0.4391  1.4617
 4188TIP3    H212571   2.259   1.279   0.959 -1.1533 -0.6488  0.6980
 4189TIP3   OH212572   2.998   4.703   4.431  0.0301  0.2093  0.0730
 4189TIP3    H112573   2.945   4.767   4.479 -0.8798  0.8891 -1.7463
 4189TIP3    H212574   2.945   4.623   4.432  0.2402  0.0720  0.6029
 4190TIP3   OH212575   2.589   5.140   2.064  0.0302 -0.3990  0.8209
 4190TIP3    H112576   2.504   5.180   2.082  0.7174  1.9663 -0.7601
 4190TIP3    H212577   2.571   5.075   1.995 -0.8474 -1.8682  2.3481
 4191TIP3   OH212578   5.809   5.196   4.665  0.1893  0.2914  0.9700
 4191TIP3    H112579   5.771   5.113   4.637  1.1027  1.2690 -4.0435
 4191TIP3    H212580   5.735   5.251   4.686 -0.7320 -0.3754 -0.3942
 4192TIP3   OH212581   6.284   4.944   2.898  0.1087 -0.3687  0.2801
 4192TIP3    H112582   6.319   4.874   2.952 -0.6313 -1.6469 -0.8243
 4192TIP3    H212583   6.288   4.910   2.808  0.9730  1.5362 -0.4602
 4193TIP3   OH212584   6.018   0.275   0.967 -0.1374 -0.0790 -0.4901
 4193TIP3    H112585   6.075   0.343   1.004 -0.5758 -0.4532  0.9662
 4193TIP3    H212586   5.947   0.323   0.926  0.9512  0.3809 -1.9238
 4194TIP3   OH212587   2.000   4.345   2.965  0.1615 -0.2893  0.3503
 4194TIP3    H112588   2.075   4.332   3.022 -0.4152 -0.5950  1.0541
 4194TIP3    H212589   1.966   4.257   2.949 -1.0218 -0.0546  1.3937
 4195TIP3   OH212590   3.598   4.643   0.980  0.2512 -0.1306 -0.6248
 4195TIP3    H112591   3.539   4.714   1.005  2.4577  1.1768  1.2887
 4195TIP3    H212592   3.622   4.661   0.890 -0.2686  0.7847 -0.5891
 4196TIP3   OH212593   5.812   1.530   4.025 -0.0414  0.3432  0.0055
 4196TIP3    H112594   5.733   1.580   4.046 -0.2120 -0.7658  2.2911
 4196TIP3    H212595   5.791   1.440   4.051  1.4831 -0.2610 -0.7260
 4197TIP3   OH212596   1.826   5.958   4.818 -0.0242 -0.0056  0.6999
 4197TIP3    H112597   1.825   5.882   4.876  0.9009 -1.0922 -0.6153
 4197TIP3    H212598   1.767   5.934   4.746 -0.3753  0.8760  0.6866
 4198TIP3   OH212599   2.338   5.594   3.303  0.4663  0.1327  0.1355
 4198TIP3    H112600   2.251   5.566   3.274  0.4134  0.8989 -0.4566
 4198TIP3    H212601   2.385   5.512   3.319 -0.3608 -0.2880  0.4780
 4199TIP3   OH212602   1.182   1.758   4.278  0.6253  0.0539 -0.4679
 4199TIP3    H112603   1.115   1.798   4.222 -1.4833 -1.5385  0.7933
 4199TIP3    H212604   1.238   1.709   4.217 -0.4655 -0.0986 -1.3811
 4200TIP3   OH212605   5.429   0.606   0.573  0.0326  0.0499  0.1960
 4200TIP3    H112606   5.487   0.674   0.541 -0.4650 -0.7824 -2.7722
 4200TIP3    H212607   5.342   0.646   0.574 -0.1778 -0.3482 -1.0212
 4201TIP3   OH212608   0.296   4.826   2.102 -0.2014 -0.4464  0.5649
 4201TIP3    H112609   0.325   4.770   2.030  0.4159  0.8268 -0.2141
 4201TIP3    H212610   0.207   4.797   2.120 -0.6675 -0.2793 -1.2720
 4202TIP3   OH212611   2.158   4.558   2.502 -0.0509 -0.3764 -0.0814
 4202TIP3    H112612   2.127   4.481   2.550  1.5162 -0.6654  0.5084
 4202TIP3    H212613   2.123   4.547   2.414 -0.8084 -1.1680  0.3016
 4203TIP3   OH212614   1.984   5.478   4.968  0.3182 -0.6621  0.0595
 4203TIP3    H112615   1.895   5.484   5.001  0.0084  0.1917 -0.8904
 4203TIP3    H212616   2.017   5.396   5.003 -0.1043  0.0141  2.1984
 4204TIP3   OH212617   4.102   0.013   1.846 -0.2067  0.5594  0.2448
 4204TIP3    H112618   4.013   0.014   1.883 -0.4073  1.4633 -0.2372
 4204TIP3    H212619   4.156   0.050   1.916  0.4935 -3.4720  2.1092
 4205TIP3   OH212620   4.640   3.636   1.679  0.5449 -0.6729  0.5636
 4205TIP3    H112621   4.576   3.699   1.645  1.4262  0.1974  0.4787
 4205TIP3    H212622   4.723   3.664   1.642  0.8354 -2.5109 -0.3390
 4206TIP3   OH212623   3.815   3.947   2.785 -0.1114 -0.6933 -0.0388
 4206TIP3    H112624   3.822   3.853   2.768 -0.5086 -0.4389 -1.8320
 4206TIP3    H212625   3.832   3.988   2.701 -0.9867  0.8041  0.4708
 4207TIP3   OH212626   0.763   0.205   5.005 -0.1299 -0.6141 -0.2500
 4207TIP3    H112627   0.834   0.270   5.009  0.6255 -1.3392 -1.3073
 4207TIP3    H212628   0.801   0.126   5.044 -0.8233 -0.6238  0.4280
 4208TIP3   OH212629   4.576   4.833   2.922 -0.0159 -0.1804  0.2532
 4208TIP3    H112630   4.610   4.884   2.995  0.2373  0.1443 -0.0885
 4208TIP3    H212631   4.652   4.816   2.867  0.1002 -1.7836  0.8557
 4209TIP3   OH212632   2.241   2.681   4.718  0.2888  0.3867 -0.2610
 4209TIP3    H112633   2.166   2.625   4.697  0.3446  0.4996 -0.7862
 4209TIP3    H212634   2.298   2.626   4.772  0.5073 -0.1833 -1.0559
 4210TIP3   OH212635   2.694   3.224   1.076  0.0626 -0.0674  0.2291
 4210TIP3    H112636   2.768   3.268   1.117  0.1720  0.4882 -0.5353
 4210TIP3    H212637   2.618   3.276   1.103 -0.3070 -1.6460  2.4555
 4211TIP3   OH212638   6.066   0.763   4.388 -0.4306  0.0925  0.0865
 4211TIP3    H112639   6.079   0.858   4.385  1.2789 -0.0985  0.5708
 4211TIP3    H212640   5.971   0.751   4.379 -0.5034  1.7446 -2.0593
 4212TIP3   OH212641   3.144   4.165   2.709  0.0150 -0.6294 -0.3275
 4212TIP3    H112642   3.113   4.247   2.670 -2.2859 -0.5549  1.4672
 4212TIP3    H212643   3.200   4.126   2.642 -0.2539  1.5481 -1.9140
 4213TIP3   OH212644   5.177   3.202   4.107  0.1291  0.8515 -0.3921
 4213TIP3    H112645   5.235   3.165   4.174  0.3990 -2.7807 -2.3640
 4213TIP3    H212646   5.092   3.208   4.150  0.4462 -0.7112  0.5499
 4214TIP3   OH212647   2.465   3.553   3.659  0.0455  0.5170 -0.1675
 4214TIP3    H112648   2.560   3.566   3.661  0.1233  0.1039  2.4718
 4214TIP3    H212649   2.448   3.512   3.574  2.6429 -2.2044  0.4547
 4215TIP3   OH212650   2.735   4.095   1.661  0.5039 -0.1890  0.0548
 4215TIP3    H112651   2.812   4.116   1.608  1.1646  1.3038  1.4913
 4215TIP3    H212652   2.772   4.062   1.743 -0.2850  1.7773  1.2672
 4216TIP3   OH212653   0.100   4.732   3.894 -0.2213  0.3277  0.7179
 4216TIP3    H112654   0.091   4.820   3.932 -2.5218 -0.1067  1.3689
 4216TIP3    H212655   0.057   4.674   3.957 -1.7891 -0.7959 -1.2435
 4217TIP3   OH212656   2.623   0.243   2.189  0.4452 -0.2269 -0.5342
 4217TIP3    H112657   2.703   0.246   2.240 -0.3390 -0.3185  0.7451
 4217TIP3    H212658   2.589   0.333   2.192  0.9390  0.0303 -1.8368
 4218TIP3   OH212659   2.038   1.208   4.621  0.0050  0.0246  0.0130
 4218TIP3    H112660   1.978   1.203   4.695  0.2584  1.8143  0.3801
 4218TIP3    H212661   1.994   1.263   4.557  0.2918 -0.5517 -0.7021
 4219TIP3   OH212662   0.605   0.320   1.796 -0.0074  0.1519  0.0454
 4219TIP3    H112663   0.533   0.284   1.849  1.5058 -0.1229  2.0556
 4219TIP3    H212664   0.683   0.276   1.830  1.3086  1.6945 -0.8733
 4220TIP3   OH212665   0.880   1.861   4.215  0.6618  0.0646 -0.6442
 4220TIP3    H112666   0.794   1.888   4.183 -0.5739 -2.1960  0.4927
 4220TIP3    H212667   0.919   1.940   4.251 -2.2316  0.6642  1.5191
 4221TIP3   OH212668   0.392   1.463   0.412  0.5257  0.5964  0.1008
 4221TIP3    H112669   0.420   1.499   0.497 -2.6716  3.1811  0.2802
 4221TIP3    H212670   0.410   1.533   0.350  0.1316 -0.0854 -0.7981
 4222TIP3   OH212671   4.483   4.224   1.910  0.1997  0.0193  0.0479
 4222TIP3    H112672   4.533   4.300   1.882  0.6608 -0.6673 -1.0497
 4222TIP3    H212673   4.426   4.257   1.980  1.7729  0.9316  0.9456
 4223TIP3   OH212674   0.399   0.917   1.447 -0.1018  0.3365  0.0684
 4223TIP3    H112675   0.324   0.973   1.463  0.6734  1.8396 -1.3336
 4223TIP3    H212676   0.390   0.888   1.357  0.1672 -0.7947  0.3887
 4224TIP3   OH212677   4.989   5.447   3.604 -0.1825  0.1042 -0.4757
 4224TIP3    H112678   5.073   5.443   3.558  0.0260 -0.8263 -0.0401
 4224TIP3    H212679   4.932   5.496   3.545  1.0873  2.2255 -0.0785
 4225TIP3   OH212680   6.158   3.175   2.843  0.1502  0.0215 -0.1126
 4225TIP3    H112681   6.241   3.131   2.861 -0.1495 -0.3553  0.3714
 4225TIP3    H212682   6.147   3.167   2.748  1.7293  1.9932 -0.5294
 4226TIP3   OH212683   3.406   2.120   1.380  0.4059  0.5619 -0.1584
 4226TIP3    H112684   3.383   2.212   1.370 -0.1526  0.4162 -0.2660
 4226TIP3    H212685   3.419   2.088   1.291 -0.9708  0.1579 -0.2404
 4227TIP3   OH212686   1.738   1.194   4.150 -0.4119 -0.2405  0.2999
 4227TIP3    H112687   1.686   1.263   4.191 -0.6282 -1.1613  1.6432
 4227TIP3    H212688   1.675   1.147   4.095 -0.4664  0.0809  0.0879
 4228TIP3   OH212689   1.239   2.683   1.555  0.4524 -0.7947 -0.1168
 4228TIP3    H112690   1.326   2.649   1.538 -0.3686 -2.5512 -1.0924
 4228TIP3    H212691   1.211   2.639   1.635  1.1891  1.3244  1.3959
 4229TIP3   OH212692   4.093   3.749   0.517 -0.5323 -0.1871 -0.3707
 4229TIP3    H112693   4.116   3.764   0.426  0.3450  1.3130  0.0658
 4229TIP3    H212694   4.004   3.715   0.514 -1.1510  1.4149 -1.7265
 4230TIP3   OH212695   3.390   2.521   2.798 -0.0759 -0.1567 -0.7869
 4230TIP3    H112696   3.305   2.563   2.790 -0.5300 -1.1129 -1.2483
 4230TIP3    H212697   3.384   2.444   2.741  1.2182 -0.0604 -1.0989
 4231TIP3   OH212698   0.063   3.716   1.816 -0.7604 -0.1602  0.1188
 4231TIP3    H112699   0.016   3.797   1.796  0.7663  0.4190 -1.3172
 4231TIP3    H212700   0.145   3.745   1.856  0.3421 -0.8907 -1.5032
 4232TIP3   OH212701   5.389   3.587   5.129 -0.2538 -0.0607  0.1007
 4232TIP3    H112702   5.327   3.566   5.200  0.9674 -1.0753  0.9222
 4232TIP3    H212703   5.446   3.511   5.124 -0.4910 -0.1490 -2.2396
 4233TIP3   OH212704   6.004   1.832   1.574 -0.0894  0.6479  0.1357
 4233TIP3    H112705   5.978   1.744   1.603  1.9601  0.2257  0.8172
 4233TIP3    H212706   6.052   1.869   1.647  2.6050  0.7330 -1.5385
 4234TIP3   OH212707   1.663   0.090   4.665 -0.4377 -0.0960 -0.1316
 4234TIP3    H112708   1.579   0.044   4.655 -0.2636 -0.2317 -0.9871
 4234TIP3    H212709   1.655   0.134   4.750 -1.4023 -0.0610 -0.2243
 4235TIP3   OH212710   4.476   3.811   1.581  0.2762 -0.1879  0.1551
 4235TIP3    H112711   4.401   3.867   1.598  0.6114  0.0214  0.9505
 4235TIP3    H212712   4.456   3.770   1.496 -1.0728 -0.7017  0.6922
 4236TIP3   OH212713   5.933   1.640   0.941  0.9030  0.7523 -0.0937
 4236TIP3    H112714   5.900   1.636   0.851  0.5093  0.5858  0.0542
 4236TIP3    H212715   5.933   1.733   0.963  1.3276  0.8248 -0.3820
 4237TIP3   OH212716   4.357   1.761   5.106  0.1564  0.3687  1.0351
 4237TIP3    H112717   4.309   1.684   5.075 -1.1677  0.3829  2.8613
 4237TIP3    H212718   4.444   1.751   5.068 -1.1748  0.2901 -2.3543
 4238TIP3   OH212719   4.186   2.269   0.018  0.1764 -0.0694  0.1503
 4238TIP3    H112720   4.140   2.345  -0.020  0.4232  1.3344  2.4676
 4238TIP3    H212721   4.126   2.196   0.006 -0.0472  0.4173 -2.2176
 4239TIP3   OH212722   2.462   4.563   4.342  0.6575  0.1245  0.1864
 4239TIP3    H112723   2.375   4.535   4.371  0.3622  0.1778 -0.6261
 4239TIP3    H212724   2.447   4.643   4.293  1.2483  0.4897  0.5812
 4240TIP3   OH212725   5.694   2.357   0.982  0.6120 -0.0755 -0.5219
 4240TIP3    H112726   5.709   2.303   1.060 -0.6026  0.8012  0.3681
 4240TIP3    H212727   5.599   2.355   0.970  0.4788  2.0874 -0.2590
 4241TIP3   OH212728   0.350   3.306   5.077 -0.1620  0.2260  0.2727
 4241TIP3    H112729   0.337   3.374   5.144  0.4749  0.0555  0.5825
 4241TIP3    H212730   0.428   3.336   5.029  0.5451 -0.6365  0.8636
 4242TIP3   OH212731   5.544   1.487   4.391 -0.2053  0.5096  0.2638
 4242TIP3    H112732   5.480   1.460   4.325  0.9001 -0.3408 -0.5098
 4242TIP3    H212733   5.493   1.501   4.470 -1.3452 -0.0948 -0.3348
 4243TIP3   OH212734   5.013   3.107   2.271 -0.8731  0.1212  0.2048
 4243TIP3    H112735   4.959   3.086   2.347 -0.4282 -1.0673  0.2048
 4243TIP3    H212736   4.977   3.054   2.200 -0.7808  0.6213 -0.2229
 4244TIP3   OH212737   5.342   0.440   1.719 -0.1053 -0.6459  0.1286
 4244TIP3    H112738   5.431   0.434   1.754 -0.0180  3.2624  1.1140
 4244TIP3    H212739   5.286   0.437   1.796 -0.6058 -0.4123 -0.2202
 4245TIP3   OH212740   3.520   0.597   1.705  0.3516  0.1793 -0.3789
 4245TIP3    H112741   3.439   0.643   1.682 -0.7283 -1.8850 -0.9777
 4245TIP3    H212742   3.496   0.545   1.782  0.8958 -0.9845 -0.9751
 4246TIP3   OH212743   3.702   5.940   2.550 -1.0363  0.0298 -0.0841
 4246TIP3    H112744   3.701   5.998   2.626  2.1717  0.2603 -0.0734
 4246TIP3    H212745   3.686   5.998   2.475 -0.9385  0.3848  0.1676
 4247TIP3   OH212746   5.987   0.117   0.742 -0.4619 -0.1572  0.5466
 4247TIP3    H112747   6.002   0.201   0.786 -2.9555  0.7442 -0.1623
 4247TIP3    H212748   5.950   0.061   0.810 -0.0047 -0.2758  0.7019
 4248TIP3   OH212749   1.874   2.879   4.868 -0.3899  0.3592 -0.5512
 4248TIP3    H112750   1.946   2.939   4.848 -0.1393 -0.5494 -2.6922
 4248TIP3    H212751   1.910   2.818   4.932  1.1830 -0.7214 -2.3554
 4249TIP3   OH212752   5.966   3.358   4.667 -0.0433  0.2370  0.1141
 4249TIP3    H112753   6.026   3.339   4.595  0.8869  2.1060  0.3413
 4249TIP3    H212754   5.893   3.404   4.626  0.7900  1.8815  0.4003
 4250TIP3   OH212755   4.116   2.036   3.855  0.0727 -0.1082  0.2038
 4250TIP3    H112756   4.188   2.088   3.822 -0.1134  0.1196  0.1538
 4250TIP3    H212757   4.144   2.007   3.942 -0.8444  2.2288  1.3558
 4251TIP3   OH212758   3.978   5.168   1.304 -0.6579  0.2909  0.1726
 4251TIP3    H112759   3.978   5.078   1.271 -3.9193 -0.5218  1.8938
 4251TIP3    H212760   4.000   5.159   1.397 -0.8320  1.3051  0.3252
 4252TIP3   OH212761   0.328   4.619   0.882  0.5766  0.2776 -0.4904
 4252TIP3    H112762   0.309   4.695   0.936  0.9901 -0.0187  0.0859
 4252TIP3    H212763   0.254   4.560   0.897 -0.4499  1.1197 -2.0148
 4253TIP3   OH212764   5.582   3.588   2.672 -0.4163  0.5765 -0.1975
 4253TIP3    H112765   5.519   3.641   2.720  1.1823  0.2216  2.5053
 4253TIP3    H212766   5.551   3.498   2.685 -0.6595  0.5566 -0.9139
 4254TIP3   OH212767   1.636   3.016   4.499 -0.0265  0.6074  0.2415
 4254TIP3    H112768   1.594   3.079   4.557 -0.9906 -2.9147  3.8705
 4254TIP3    H212769   1.728   3.017   4.524  0.9852  3.4867 -2.9034
 4255TIP3   OH212770   2.527   2.523   4.464  0.4974  0.2493 -0.4566
 4255TIP3    H112771   2.520   2.492   4.555  1.6310  1.4850  0.0772
 4255TIP3    H212772   2.613   2.564   4.459 -0.3578  2.0155 -1.5103
 4256TIP3   OH212773   4.476   1.369   0.162 -0.3863 -0.0444 -0.6779
 4256TIP3    H112774   4.389   1.372   0.200 -1.8251 -2.7964 -3.3456
 4256TIP3    H212775   4.472   1.429   0.087 -0.8134 -1.7238 -2.0792
 4257TIP3   OH212776   1.433   4.929   0.688  0.3152 -0.0816  0.2762
 4257TIP3    H112777   1.503   4.872   0.655 -0.2856 -0.4521 -0.3906
 4257TIP3    H212778   1.466   4.961   0.772  1.5832  0.3288 -0.3609
 4258TIP3   OH212779   0.799   5.737   1.460  1.0331 -0.0369 -0.2163
 4258TIP3    H112780   0.815   5.646   1.483  0.5913 -0.4869 -1.5991
 4258TIP3    H212781   0.827   5.787   1.537 -0.4566 -1.4301  1.3138
 4259TIP3   OH212782   3.610   0.403   2.367 -0.2943 -0.2523  0.9239
 4259TIP3    H112783   3.607   0.312   2.335 -0.2110  0.5701 -1.6447
 4259TIP3    H212784   3.701   0.415   2.395 -0.5477 -1.2288  2.2738
 4260TIP3   OH212785   3.267   4.922   3.802 -0.8308  0.2079 -0.0927
 4260TIP3    H112786   3.237   5.013   3.797 -0.9407  0.3170  1.7622
 4260TIP3    H212787   3.263   4.901   3.895  0.1450 -1.3908 -0.3768
 4261TIP3   OH212788   5.691   3.552   3.203 -0.7509 -0.0715 -0.0750
 4261TIP3    H112789   5.763   3.577   3.261  1.6883 -4.5471 -0.8106
 4261TIP3    H212790   5.634   3.498   3.258 -1.6748  0.4971 -0.4435
 4262TIP3   OH212791   3.307   3.227   1.591 -0.1322 -0.2238  0.2781
 4262TIP3    H112792   3.347   3.156   1.540 -1.7870  0.0714 -1.5315
 4262TIP3    H212793   3.350   3.306   1.559 -0.6593 -0.1049 -0.1397
 4263TIP3   OH212794   3.944   3.794   2.455  0.7423 -0.1496 -0.6600
 4263TIP3    H112795   3.901   3.745   2.385  1.7294 -1.6246 -0.2841
 4263TIP3    H212796   3.952   3.883   2.421  0.9581 -0.7769 -2.3354
 4264TIP3   OH212797   2.601   4.787   4.516  0.3115 -0.2227  0.0541
 4264TIP3    H112798   2.532   4.756   4.575  0.3658 -0.1577  0.1523
 4264TIP3    H212799   2.655   4.710   4.499  0.0502 -0.3400 -0.2510
 4265TIP3   OH212800   1.345   3.799   3.751 -0.1574 -0.1829  0.2730
 4265TIP3    H112801   1.301   3.721   3.718  1.9308 -1.2959 -0.0737
 4265TIP3    H212802   1.292   3.827   3.825 -1.2604 -1.5912  0.0583
 4266TIP3   OH212803   0.589   2.956   1.364 -0.2896  0.4846 -0.2990
 4266TIP3    H112804   0.526   2.890   1.392  0.4727  0.7734  2.2952
 4266TIP3    H212805   0.672   2.909   1.357 -0.1346  0.7706 -0.4348
 4267TIP3   OH212806   4.883   4.651   3.676  0.4173  0.2657  0.6698
 4267TIP3    H112807   4.953   4.610   3.625 -1.0759 -0.7057 -0.6546
 4267TIP3    H212808   4.928   4.721   3.725  2.1411  0.3165 -0.8802
 4268TIP3   OH212809   5.690   0.748   3.252  0.0442 -0.2775 -0.5151
 4268TIP3    H112810   5.758   0.745   3.185  1.1218  0.4787  0.5124
 4268TIP3    H212811   5.613   0.781   3.207  0.5025 -0.6208 -1.5763
 4269TIP3   OH212812   3.009   3.324   4.506  0.0320 -0.1052  0.9909
 4269TIP3    H112813   3.022   3.232   4.532 -0.3829 -0.1255  1.1498
 4269TIP3    H212814   3.077   3.372   4.553 -1.1653 -0.0424  2.8128
 4270TIP3   OH212815   3.398   4.256   2.025  0.0204  0.5189  0.2175
 4270TIP3    H112816   3.341   4.295   1.958  0.1398 -0.3359 -0.3980
 4270TIP3    H212817   3.482   4.246   1.981 -0.3591 -1.6454 -0.0947
 4271TIP3   OH212818   0.606   3.877   0.418  0.0299 -0.1039  0.2234
 4271TIP3    H112819   0.683   3.821   0.405 -1.0605 -2.3066  2.3850
 4271TIP3    H212820   0.534   3.829   0.376 -0.5297  0.9871 -0.1123
 4272TIP3   OH212821   1.326   2.525   5.128 -0.3013 -0.3541 -0.2218
 4272TIP3    H112822   1.418   2.500   5.133 -0.6068 -2.0712 -2.1782
 4272TIP3    H212823   1.282   2.448   5.094 -2.6456  0.1277  1.4534
 4273TIP3   OH212824   3.778   5.070   0.125  0.0326  0.4647 -0.1974
 4273TIP3    H112825   3.812   4.982   0.108 -1.1244  0.0369 -0.4439
 4273TIP3    H212826   3.739   5.064   0.212  0.2719  0.8320 -0.0663
 4274TIP3   OH212827   6.167   3.163   0.058  0.5736  0.0894 -0.1718
 4274TIP3    H112828   6.249   3.204   0.032  0.5000  0.1620 -0.2888
 4274TIP3    H212829   6.190   3.108   0.133  0.8306 -0.3012 -0.5296
 4275TIP3   OH212830   6.198   4.110   3.188 -0.4922 -0.2550 -0.0247
 4275TIP3    H112831   6.110   4.142   3.205 -1.3093 -2.4866  0.2288
 4275TIP3    H212832   6.247   4.130   3.268 -1.4557 -1.1378  0.8207
 4276TIP3   OH212833   3.157   5.044   4.925  0.0183 -0.4507  0.1341
 4276TIP3    H112834   3.146   5.024   4.832 -0.7282 -0.8461  0.2981
 4276TIP3    H212835   3.156   4.959   4.968 -1.1886 -0.1984  0.6454
 4277TIP3   OH212836   6.379   4.025   0.319 -0.0058 -0.2429  0.1060
 4277TIP3    H112837   6.313   4.058   0.258 -0.8173  0.0830  1.1267
 4277TIP3    H212838   6.328   3.977   0.384  0.8211 -0.3936  0.6505
 4278TIP3   OH212839   4.661   5.506   0.205  0.0901 -0.6166 -0.1862
 4278TIP3    H112840   4.748   5.466   0.208  1.0556  1.3501 -0.5016
 4278TIP3    H212841   4.602   5.437   0.236  1.9651 -1.4421  1.8099
 4279TIP3   OH212842   3.220   3.937   1.130 -0.1773  0.2889 -0.0947
 4279TIP3    H112843   3.301   3.982   1.155 -0.6088  1.8820 -1.3518
 4279TIP3    H212844   3.152   3.983   1.179 -0.5311  0.3946 -0.6813
 4280TIP3   OH212845   4.020   1.366   4.014  0.5329  0.3342 -0.1702
 4280TIP3    H112846   4.023   1.451   4.057 -2.4506  1.2114 -1.4172
 4280TIP3    H212847   3.960   1.314   4.067 -0.0608  0.0829 -1.0576
 4281TIP3   OH212848   2.908   4.180   2.501 -0.1862 -0.6501 -0.0604
 4281TIP3    H112849   2.914   4.199   2.407 -0.2501 -1.1874 -0.1784
 4281TIP3    H212850   2.954   4.252   2.543  0.4734 -0.7725 -0.5480
 4282TIP3   OH212851   5.530   3.054   1.698 -0.0397 -0.7270 -0.1009
 4282TIP3    H112852   5.518   3.127   1.760  0.7197 -1.6235  1.1651
 4282TIP3    H212853   5.622   3.060   1.673  0.1714 -1.5445  0.4341
 4283TIP3   OH212854   3.159   3.453   0.516 -0.4194 -0.2421  0.4036
 4283TIP3    H112855   3.184   3.519   0.450  2.1723 -0.3427  1.1626
 4283TIP3    H212856   3.151   3.372   0.466 -1.5810  0.2483 -0.2322
 4284TIP3   OH212857   2.093   5.260   5.113 -0.2128  0.4485 -0.2272
 4284TIP3    H112858   2.184   5.269   5.139 -0.7435 -0.8743  2.3762
 4284TIP3    H212859   2.086   5.172   5.076 -0.6380  0.0803  0.6958
 4285TIP3   OH212860   2.184   2.401   4.542  0.2800  0.3239  0.3481
 4285TIP3    H112861   2.273   2.392   4.577  0.8200 -0.9793 -1.2027
 4285TIP3    H212862   2.129   2.415   4.619  1.5166 -1.3247  1.5972
 4286TIP3   OH212863   3.977   5.267   0.917 -0.4563 -0.2760 -0.5823
 4286TIP3    H112864   3.905   5.306   0.966 -0.1410  1.1975 -1.2248
 4286TIP3    H212865   4.035   5.231   0.984 -1.1053 -0.2563  0.0073
 4287TIP3   OH212866   2.500   5.819   1.804 -0.2459  0.5177 -0.1269
 4287TIP3    H112867   2.560   5.749   1.829 -1.3042 -0.3203  0.1519
 4287TIP3    H212868   2.423   5.773   1.770 -0.3999  1.5775 -1.2900
 4288TIP3   OH212869   4.933   3.422   1.117 -0.4511 -0.4662  0.7852
 4288TIP3    H112870   4.882   3.422   1.198  1.7708 -2.1634  2.3093
 4288TIP3    H212871   5.010   3.369   1.137  0.9230  0.2689 -2.0182
 4289TIP3   OH212872   2.543   0.732   1.935  0.1569  0.3245 -0.2072
 4289TIP3    H112873   2.491   0.746   1.856  2.5670  0.4932 -1.8770
 4289TIP3    H212874   2.594   0.653   1.917  1.4115  0.8630  0.8138
 4290TIP3   OH212875   1.584   3.514   2.604  0.1181 -0.7816 -0.6745
 4290TIP3    H112876   1.581   3.608   2.621 -2.8424 -0.9606  0.3006
 4290TIP3    H212877   1.666   3.501   2.555  0.3856  2.3390 -1.2365
 4291TIP3   OH212878   5.128   5.507   4.859  0.7466 -0.2122  0.7535
 4291TIP3    H112879   5.064   5.572   4.889  1.4924  0.7969  0.2168
 4291TIP3    H212880   5.177   5.485   4.938  0.5781 -0.0134  0.9170
 4292TIP3   OH212881   3.213   3.180   2.679 -0.2001 -0.4839  0.2927
 4292TIP3    H112882   3.252   3.173   2.765  0.1704 -0.0549  0.1621
 4292TIP3    H212883   3.284   3.160   2.618  0.0895  1.2335  0.0190
 4293TIP3   OH212884   4.588   3.216   4.900  0.0165 -0.0855 -0.3260
 4293TIP3    H112885   4.662   3.198   4.958 -0.7701  1.9229  1.4447
 4293TIP3    H212886   4.626   3.262   4.825  0.5932  1.2043  0.7085
 4294TIP3   OH212887   0.616   5.509   3.021 -0.5193  0.2410  0.4053
 4294TIP3    H112888   0.646   5.469   3.102  4.3208  0.1941 -1.0939
 4294TIP3    H212889   0.613   5.602   3.040 -1.4744  0.0680  1.1512
 4295TIP3   OH212890   1.005   5.216   2.504  0.2722 -0.0054 -0.4832
 4295TIP3    H112891   0.955   5.260   2.436 -0.3964  2.1715  1.2936
 4295TIP3    H212892   0.964   5.130   2.512  2.5288 -1.8573 -5.0696
 4296TIP3   OH212893   5.205   5.790   1.287 -0.3077 -0.4155 -0.2452
 4296TIP3    H112894   5.256   5.717   1.250  0.2629 -0.7693  1.1586
 4296TIP3    H212895   5.269   5.838   1.340 -0.8631  0.6710 -0.5365
 4297TIP3   OH212896   3.785   0.202   4.888  0.3574  0.5728  1.1180
 4297TIP3    H112897   3.828   0.117   4.877  0.7141  0.7385  1.2161
 4297TIP3    H212898   3.719   0.205   4.819 -1.1130 -0.6680  2.3846
 4298TIP3   OH212899   3.765   1.896   3.409 -0.7416  0.2156  0.0650
 4298TIP3    H112900   3.740   1.807   3.383  1.3665 -0.2662 -0.5100
 4298TIP3    H212901   3.759   1.896   3.504 -0.1203 -0.7670  0.1139
 4299TIP3   OH212902   0.868   0.778   4.752  0.2673  0.2552 -0.0015
 4299TIP3    H112903   0.777   0.802   4.735 -0.1496 -1.3688 -0.2929
 4299TIP3    H212904   0.864   0.720   4.828  1.0976  0.4208  0.1803
 4300TIP3   OH212905   5.273   3.505   0.355  0.1582 -0.6629  0.0340
 4300TIP3    H112906   5.336   3.460   0.410 -0.2282 -1.3018 -0.0368
 4300TIP3    H212907   5.235   3.573   0.411 -0.0160 -1.1130  0.4600
 4301TIP3   OH212908   2.233   1.976   0.226  0.0562 -0.1775 -0.3709
 4301TIP3    H112909   2.164   2.036   0.199  0.5049  0.7850  0.5839
 4301TIP3    H212910   2.263   1.936   0.144 -0.2743  0.8684 -1.0181
 4302TIP3   OH212911   4.183   1.215   4.497 -0.2183 -0.0080  0.1965
 4302TIP3    H112912   4.145   1.275   4.433  0.1909 -0.0213 -0.0616
 4302TIP3    H212913   4.118   1.210   4.567 -0.1373  0.9836  0.3679
 4303TIP3   OH212914   1.641   3.357   2.962 -0.0644 -0.1162  0.1143
 4303TIP3    H112915   1.574   3.292   2.983 -0.2253 -0.6600 -1.8188
 4303TIP3    H212916   1.592   3.432   2.927  0.2633 -0.0364 -0.1875
 4304TIP3   OH212917   0.326   0.666   3.573  0.1125 -0.0338 -0.0357
 4304TIP3    H112918   0.265   0.736   3.552  1.0610  0.7655 -0.2000
 4304TIP3    H212919   0.332   0.613   3.493 -1.1073 -0.7155  0.2974
 4305TIP3   OH212920   3.996   1.816   2.558  0.3821  0.0771 -0.0444
 4305TIP3    H112921   4.067   1.758   2.531  1.3103  0.9865  0.4113
 4305TIP3    H212922   3.917   1.771   2.529  1.0322 -1.6933  0.7928
 4306TIP3   OH212923   0.193   3.480   4.704 -0.2300  0.3676 -0.8176
 4306TIP3    H112924   0.192   3.568   4.741  1.0368 -0.2534  0.8461
 4306TIP3    H212925   0.285   3.452   4.710 -0.8649 -1.7093  0.3990
 4307TIP3   OH212926   0.684   0.621   3.299  0.7747  0.1192 -0.5191
 4307TIP3    H112927   0.686   0.716   3.303  1.4135  0.1859 -1.9041
 4307TIP3    H212928   0.597   0.599   3.266  0.1465  0.1319  1.0330
 4308TIP3   OH212929   2.141   3.961   4.526  0.0548  0.3008 -0.3178
 4308TIP3    H112930   2.113   4.002   4.608  1.0221 -0.4620  0.4078
 4308TIP3    H212931   2.096   3.877   4.526 -0.4089  0.5399 -0.8764
 4309TIP3   OH212932   1.121   0.703   1.922  0.2535 -0.2852  0.0125
 4309TIP3    H112933   1.043   0.737   1.878  1.2018  1.5318 -0.3930
 4309TIP3    H212934   1.127   0.612   1.896 -0.5768  0.1130 -1.6571
 4310TIP3   OH212935   6.064   2.497   2.697 -0.4671 -1.2680  0.2835
 4310TIP3    H112936   6.064   2.429   2.764  1.7430 -0.9460  0.7081
 4310TIP3    H212937   6.076   2.579   2.747  0.5471 -0.9602 -0.4220
 4311TIP3   OH212938   0.306   0.281   2.693  0.3568 -0.1426  0.3497
 4311TIP3    H112939   0.311   0.221   2.619 -0.0190 -1.4480  1.3520
 4311TIP3    H212940   0.229   0.335   2.676 -1.9226 -2.8053  1.4370
 4312TIP3   OH212941   1.092   3.715   2.089  0.1092 -0.0857  0.6321
 4312TIP3    H112942   1.149   3.791   2.082 -0.7515  0.4855 -0.5012
 4312TIP3    H212943   1.006   3.751   2.112 -0.6930 -0.5064 -1.4453
 4313TIP3   OH212944   0.741   0.146   3.041 -0.4993  0.2870 -0.2984
 4313TIP3    H112945   0.704   0.212   2.983 -1.6374 -0.0121  0.0463
 4313TIP3    H212946   0.833   0.169   3.050 -0.1433  0.0313 -2.6634
 4314TIP3   OH212947   5.534   0.204   0.198 -0.3709  0.2712  0.3087
 4314TIP3    H112948   5.596   0.275   0.215 -0.1476  0.5906 -1.6759
 4314TIP3    H212949   5.589   0.127   0.184 -0.5703 -0.0655  1.2522
 4315TIP3   OH212950   3.458   5.308   0.733  0.4187 -0.1214 -0.2862
 4315TIP3    H112951   3.398   5.267   0.794  0.5699 -3.2152 -1.9766
 4315TIP3    H212952   3.541   5.262   0.746  0.5931 -0.5242 -2.3527
 4316TIP3   OH212953   5.185   0.674   1.299 -0.0789 -0.7107 -0.4250
 4316TIP3    H112954   5.208   0.723   1.220  0.4569  0.2054  0.2837
 4316TIP3    H212955   5.224   0.724   1.370 -1.1034 -1.1730  0.4890
 4317TIP3   OH212956   6.247   5.359   3.337  0.0425  0.2265  0.0976
 4317TIP3    H112957   6.171   5.394   3.385  0.3584  1.8374 -0.5194
 4317TIP3    H212958   6.236   5.264   3.342 -0.7151  0.3667  2.0971
 4318TIP3   OH212959   3.469   1.013   0.819 -0.3669  0.1335 -0.6410
 4318TIP3    H112960   3.496   1.012   0.727 -1.1139 -1.1065 -0.8656
 4318TIP3    H212961   3.545   0.980   0.866 -0.1740  0.2409 -0.8724
 4319TIP3   OH212962   0.156   5.298   1.406  0.7521 -0.1154 -0.9648
 4319TIP3    H112963   0.070   5.299   1.448  1.3759 -0.4022  0.3791
 4319TIP3    H212964   0.197   5.218   1.439  2.5066  1.3055  0.5203
 4320TIP3   OH212965   5.458   5.633   1.689  0.1520 -0.4580 -0.3006
 4320TIP3    H112966   5.486   5.724   1.704 -0.2443 -0.4668  0.6049
 4320TIP3    H212967   5.531   5.593   1.642  1.0887 -0.1288  0.8132
 4321TIP3   OH212968   2.771   3.089   0.755 -0.1326  0.2942  0.4830
 4321TIP3    H112969   2.824   3.161   0.722  0.0024 -0.1754 -0.3523
 4321TIP3    H212970   2.682   3.124   0.758 -0.5044 -0.2020 -2.2659
 4322TIP3   OH212971   2.729   0.945   4.260  0.3735 -0.2565 -0.0386
 4322TIP3    H112972   2.755   0.898   4.181  1.3939 -1.2520  0.8411
 4322TIP3    H212973   2.634   0.953   4.254  0.3376 -1.2093 -0.8770
 4323TIP3   OH212974   2.508   2.389   3.086  0.1839 -0.0155 -0.1766
 4323TIP3    H112975   2.566   2.425   3.019  0.2924 -1.1635 -0.7143
 4323TIP3    H212976   2.421   2.421   3.062  0.3009  0.0222 -0.5562
 4324TIP3   OH212977   5.555   3.531   4.281 -0.2502 -0.5007  0.1661
 4324TIP3    H112978   5.582   3.614   4.242  1.1989 -0.9921  0.0808
 4324TIP3    H212979   5.630   3.473   4.268  0.2283 -0.7901  3.3822
 4325TIP3   OH212980   0.039   0.280   0.697 -0.0855 -0.1025  0.4992
 4325TIP3    H112981  -0.009   0.278   0.614  0.0346  1.7190  0.3454
 4325TIP3    H212982  -0.014   0.226   0.757 -1.5707  0.6803 -0.0556
 4326TIP3   OH212983   0.519   4.442   3.039  0.6574 -0.3173 -0.4838
 4326TIP3    H112984   0.526   4.416   2.947  1.3037 -1.3218 -0.1792
 4326TIP3    H212985   0.608   4.433   3.073  0.2134 -1.1858  0.5328
 4327TIP3   OH212986   3.377   1.852   4.397 -0.6615 -0.0372 -0.2306
 4327TIP3    H112987   3.437   1.901   4.453 -0.6436 -0.5350  0.1880
 4327TIP3    H212988   3.309   1.916   4.373 -1.6244 -0.2252  1.7734
 4328TIP3   OH212989   5.745   3.893   2.193 -0.0007  0.2458  0.0762
 4328TIP3    H112990   5.676   3.834   2.162 -1.1312  2.1302 -1.1378
 4328TIP3    H212991   5.704   3.943   2.263 -0.3951  2.3041 -1.5240
 4329TIP3   OH212992   3.737   4.415   1.237  0.2032 -0.7582 -0.2183
 4329TIP3    H112993   3.681   4.367   1.298 -0.0126 -0.1026  0.1016
 4329TIP3    H212994   3.716   4.507   1.251 -0.7777 -0.6372 -2.1961
 4330TIP3   OH212995   3.154   0.621   2.935 -0.7521  0.3967  0.1078
 4330TIP3    H112996   3.123   0.574   3.013 -0.2459  0.5461  0.4034
 4330TIP3    H212997   3.143   0.558   2.864  1.5830 -0.8861  0.7663
 4331TIP3   OH212998   0.928   1.805   1.404  0.2409  0.0830  0.3282
 4331TIP3    H112999   0.890   1.722   1.433 -0.0163  0.7942  2.1917
 4331TIP3    H213000   0.933   1.797   1.309  1.3377 -2.5451  0.4946
 4332TIP3   OH213001   2.933   4.697   0.961  0.1051 -0.3762 -0.3768
 4332TIP3    H113002   3.021   4.688   0.924 -0.5716 -1.4587 -1.8309
 4332TIP3    H213003   2.892   4.612   0.948 -0.6843 -0.3742  1.6891
 4333TIP3   OH213004   2.239   1.765   4.845 -0.0185 -0.1088  0.0309
 4333TIP3    H113005   2.221   1.739   4.755  3.4808  1.0324 -1.1421
 4333TIP3    H213006   2.231   1.684   4.895 -0.1811 -1.1634 -1.6277
 4334TIP3   OH213007   2.781   2.654   4.628 -0.3992 -0.3924 -1.0726
 4334TIP3    H113008   2.704   2.616   4.671 -0.8618  0.7564 -0.8482
 4334TIP3    H213009   2.796   2.736   4.676 -0.3500  0.4561 -2.4937
 4335TIP3   OH213010   5.163   3.658   2.696  0.3929 -0.3382  0.4700
 4335TIP3    H113011   5.106   3.617   2.761 -0.5839 -0.6546 -0.5528
 4335TIP3    H213012   5.135   3.749   2.693  0.6074 -0.2650  0.6685
 4336TIP3   OH213013   0.070   0.769   1.803  0.2527 -0.5979  0.1101
 4336TIP3    H113014   0.070   0.680   1.766 -0.1171 -0.2779 -0.6679
 4336TIP3    H213015   0.162   0.796   1.797  0.3365 -0.8606  0.1793
 4337TIP3   OH213016   4.564   3.818   4.957  0.0735  1.1039  0.0611
 4337TIP3    H113017   4.515   3.866   4.890  1.0030  1.5461 -0.3067
 4337TIP3    H213018   4.656   3.838   4.940  0.3346  1.2096  1.4652
 4338TIP3   OH213019   3.680   4.549   2.621 -0.0373 -0.3992 -0.4421
 4338TIP3    H113020   3.724   4.525   2.702 -0.3204 -0.5247 -0.3262
 4338TIP3    H213021   3.722   4.631   2.594  1.7611 -1.5807 -1.4516
 4339TIP3   OH213022   5.778   2.661   4.187 -0.1477  0.6114  0.0959
 4339TIP3    H113023   5.823   2.717   4.251  0.4265 -0.3360  0.5455
 4339TIP3    H213024   5.758   2.720   4.114  0.3056  1.4346  0.6163
 4340TIP3   OH213025   1.481   2.329   2.124 -0.2060  0.3571 -0.2910
 4340TIP3    H113026   1.392   2.313   2.152 -0.0499 -0.2902 -0.1535
 4340TIP3    H213027   1.507   2.249   2.079  0.0404  0.8310 -1.0261
 4341TIP3   OH213028   6.000   0.059   4.138 -0.7003 -0.2618  0.1319
 4341TIP3    H113029   5.974  -0.032   4.122 -0.6591 -0.4627  1.1415
 4341TIP3    H213030   6.083   0.053   4.186 -1.7360  0.2241  2.1134
 4342TIP3   OH213031   1.416   3.245   0.436 -0.0666  0.3800  0.2800
 4342TIP3    H113032   1.324   3.249   0.461  0.0649 -0.0920  0.8782
 4342TIP3    H213033   1.417   3.257   0.341 -0.8998 -1.3199  0.0206
 4343TIP3   OH213034   3.206   0.928   0.851  0.2288 -0.0744  0.2738
 4343TIP3    H113035   3.298   0.949   0.869  0.2319  0.6690 -0.5268
 4343TIP3    H213036   3.173   1.005   0.804 -0.2761 -1.1205 -1.1519
 4344TIP3   OH213037   5.168   4.289   1.669  0.8907 -0.4179  0.7094
 4344TIP3    H113038   5.097   4.241   1.711 -0.0125  0.5414  0.3355
 4344TIP3    H213039   5.179   4.247   1.584  0.9181 -0.7186  0.8637
 4345TIP3   OH213040   1.368   2.166   1.586 -0.2979  0.1405  0.1222
 4345TIP3    H113041   1.359   2.192   1.678 -1.8317 -0.0255  0.0442
 4345TIP3    H213042   1.344   2.245   1.537  0.0769  0.0972 -0.1315
 4346TIP3   OH213043   5.528   5.013   4.324 -0.4548  0.4964  0.2946
 4346TIP3    H113044   5.538   5.043   4.234 -0.6507 -1.1063 -0.3113
 4346TIP3    H213045   5.448   5.054   4.355 -0.9898  0.1977 -0.6655
 4347TIP3   OH213046   5.447   0.206   0.881  0.6526  0.1241 -0.1729
 4347TIP3    H113047   5.432   0.184   0.973  2.5241  0.3483  0.2143
 4347TIP3    H213048   5.383   0.274   0.863  1.5843  1.5742  1.5984
 4348TIP3   OH213049   1.206   5.125   3.383  0.3275 -0.2676  0.0810
 4348TIP3    H113050   1.193   5.220   3.376 -0.2444 -0.2972  0.6803
 4348TIP3    H213051   1.186   5.092   3.295 -0.6677  0.0410  0.1752
 4349TIP3   OH213052   2.793   3.531   3.205  0.1612  0.1073 -0.5247
 4349TIP3    H113053   2.698   3.521   3.192 -0.3799 -0.0595  2.6972
 4349TIP3    H213054   2.802   3.615   3.249  1.2090 -0.8370  1.1838
 4350TIP3   OH213055   0.024   2.577   2.575  0.0313  0.2327  0.4360
 4350TIP3    H113056   0.078   2.624   2.511  1.4575 -1.9261 -0.0470
 4350TIP3    H213057   0.005   2.642   2.643  2.1580  1.4457 -0.0388
 4351TIP3   OH213058   5.823   0.968   0.546  0.0359 -0.3753  0.4375
 4351TIP3    H113059   5.750   1.021   0.578  0.1435  1.2484 -1.8337
 4351TIP3    H213060   5.893   1.031   0.529  0.5035 -1.3471 -1.4253
 4352TIP3   OH213061   4.895   2.968   3.777 -0.7928  0.1620  0.1570
 4352TIP3    H113062   4.876   3.042   3.834 -0.5746  0.9453 -0.7619
 4352TIP3    H213063   4.983   2.986   3.743 -0.4954 -0.8208  0.3889
 4353TIP3   OH213064   4.781   5.288   0.793 -0.0162  0.2780  0.0438
 4353TIP3    H113065   4.805   5.233   0.718 -2.5229 -0.6618 -0.1667
 4353TIP3    H213066   4.714   5.347   0.759  0.3509  1.3227  1.0683
 4354TIP3   OH213067   0.837   2.488   0.481 -0.1711  0.3732 -0.1821
 4354TIP3    H113068   0.922   2.455   0.508 -1.1149  0.7729  3.9991
 4354TIP3    H213069   0.793   2.413   0.441  1.1897 -0.6003  0.1003
 4355TIP3   OH213070   5.494   2.883   2.048 -0.1617  0.6232  0.1426
 4355TIP3    H113071   5.551   2.877   1.971  2.4036  0.0772  1.9911
 4355TIP3    H213072   5.512   2.970   2.084 -1.3389  0.8696  0.1824
 4356TIP3   OH213073   0.114   3.249   3.416  0.5586 -0.2765 -0.5428
 4356TIP3    H113074   0.039   3.226   3.470  0.2626  0.3422 -0.6804
 4356TIP3    H213075   0.111   3.186   3.343  0.6813 -0.8012 -0.0979
 4357TIP3   OH213076   1.339   5.926   1.779 -0.1374  0.3370  0.2999
 4357TIP3    H113077   1.413   5.919   1.719 -0.1921  1.0027  0.1384
 4357TIP3    H213078   1.278   5.985   1.734  0.1015  1.3723  1.2855
 4358TIP3   OH213079   4.963   1.985   0.400 -0.4271  0.1559 -0.6127
 4358TIP3    H113080   4.899   1.959   0.333 -1.4268  0.7991  0.0613
 4358TIP3    H213081   4.910   2.023   0.470  0.4374 -1.7214  1.1771
 4359TIP3   OH213082   1.413   3.440   1.246  0.0324 -0.0387  0.2325
 4359TIP3    H113083   1.429   3.426   1.339  1.0456 -1.5000 -0.1178
 4359TIP3    H213084   1.425   3.354   1.207 -0.0563  0.6135 -1.2980
 4360TIP3   OH213085   4.510   4.433   3.072  0.4802  0.4946  0.2337
 4360TIP3    H113086   4.420   4.459   3.053  0.4916  0.7718  0.5367
 4360TIP3    H213087   4.520   4.347   3.030  0.5194  1.0758 -0.9819
 4361TIP3   OH213088   3.667   4.094   0.656 -0.0026  0.1946  0.1480
 4361TIP3    H113089   3.613   4.030   0.703 -1.4781  1.8804  0.8856
 4361TIP3    H213090   3.667   4.171   0.713 -0.6672  1.8323 -1.9380
 4362TIP3   OH213091   5.138   4.075   4.103  0.4123 -0.1299 -0.1121
 4362TIP3    H113092   5.171   4.060   4.014 -1.0550  0.2265 -0.7580
 4362TIP3    H213093   5.154   4.168   4.118 -0.8226  0.1955 -0.6855
 4363TIP3   OH213094   1.697   1.223   0.342 -0.2460  0.0641  0.0215
 4363TIP3    H113095   1.649   1.306   0.345 -0.5843 -0.1214 -0.2455
 4363TIP3    H213096   1.789   1.249   0.346 -0.3676  0.3485  2.1703
 4364TIP3   OH213097   4.940   2.908   2.096 -0.3799 -0.2621 -0.3275
 4364TIP3    H113098   4.850   2.889   2.120 -0.2824 -0.3111  0.0153
 4364TIP3    H213099   4.943   2.900   2.001 -0.0136 -3.3542 -0.1371
 4365TIP3   OH213100   0.872   5.927   1.247  0.2187 -0.2127  0.0550
 4365TIP3    H113101   0.947   5.876   1.217 -0.9350 -1.3214 -1.0518
 4365TIP3    H213102   0.836   5.877   1.320 -0.1939 -0.3403 -0.2360
 4366TIP3   OH213103   1.447   2.639   4.189 -0.1583 -0.3745 -0.3064
 4366TIP3    H113104   1.367   2.691   4.200  0.5550  0.8231 -0.5372
 4366TIP3    H213105   1.516   2.704   4.176  1.1173 -1.3004  1.3644
 4367TIP3   OH213106   0.721   4.109   2.993 -0.6513  0.1807  0.3613
 4367TIP3    H113107   0.791   4.083   3.053 -1.1859 -1.8232  0.1925
 4367TIP3    H213108   0.641   4.096   3.043 -0.9920  0.6803 -0.0508
 4368TIP3   OH213109   3.996   5.455   1.887 -0.0122 -0.1685  0.3648
 4368TIP3    H113110   3.975   5.543   1.859 -0.1845 -0.1826  0.4458
 4368TIP3    H213111   4.090   5.457   1.906 -0.1641  0.2016  1.1030
 4369TIP3   OH213112   1.172   1.899   2.602  0.2237  0.2284 -0.7466
 4369TIP3    H113113   1.220   1.834   2.654  0.4279  0.2122 -0.9548
 4369TIP3    H213114   1.186   1.981   2.649  1.6191  0.4815 -1.5396
 4370TIP3   OH213115   5.057   5.443   0.782  0.2619  0.3612 -0.2440
 4370TIP3    H113116   5.046   5.534   0.756 -1.2661  0.2995  0.0755
 4370TIP3    H213117   4.970   5.405   0.775  0.6728 -0.8176  0.5819
 4371TIP3   OH213118   3.864   4.044   1.843 -0.3194  0.3944 -0.3410
 4371TIP3    H113119   3.918   4.038   1.764 -1.0032  0.2983 -0.8081
 4371TIP3    H213120   3.831   3.955   1.856  0.4069  0.2321  0.5043
 4372TIP3   OH213121   4.403   3.957   0.295 -0.0022 -0.3588  0.0975
 4372TIP3    H113122   4.318   4.001   0.302  1.2254  2.2056 -0.1183
 4372TIP3    H213123   4.467   4.024   0.319  1.9675 -2.4097  0.9405
 4373TIP3   OH213124   0.102   5.321   1.022  0.1918 -0.2791 -0.3637
 4373TIP3    H113125   0.105   5.414   1.046 -1.4580 -0.8846  2.5584
 4373TIP3    H213126   0.189   5.288   1.045 -0.0860  0.0228  1.2528
 4374TIP3   OH213127   5.026   3.572   2.114  0.0839 -0.0861 -0.2844
 4374TIP3    H113128   5.093   3.504   2.114 -1.1060 -1.3209 -1.1861
 4374TIP3    H213129   5.021   3.601   2.023 -0.4247  0.1758 -0.1783
 4375TIP3   OH213130   5.914   4.304   4.740  0.0612 -0.3281  0.2780
 4375TIP3    H113131   5.862   4.380   4.768  1.7410  1.0446 -0.1518
 4375TIP3    H213132   5.983   4.297   4.806  0.6029 -0.7521 -0.3176
 4376TIP3   OH213133   5.588   4.717   4.299  0.2523  0.0568 -0.1127
 4376TIP3    H113134   5.547   4.792   4.257  1.9221  0.8256 -0.4190
 4376TIP3    H213135   5.631   4.670   4.228 -0.8557 -1.2968  0.0506
 4377TIP3   OH213136   3.189   4.666   0.869 -0.6032 -0.0273  0.4758
 4377TIP3    H113137   3.214   4.585   0.825 -1.1539  0.5229 -0.9406
 4377TIP3    H213138   3.205   4.734   0.803 -0.1713  1.0159  1.6243
 4378TIP3   OH213139   1.050   2.191   4.577 -0.8302 -0.7196 -0.4252
 4378TIP3    H113140   1.021   2.146   4.497  0.2643 -0.7308 -0.8292
 4378TIP3    H213141   1.090   2.272   4.546 -2.6268  0.4995  0.2864
 4379TIP3   OH213142   2.232   1.858   1.335  0.6966  0.6879 -0.0526
 4379TIP3    H113143   2.302   1.855   1.270  2.0331  0.3824  1.3441
 4379TIP3    H213144   2.277   1.871   1.419 -1.0296  1.9983  0.7335
 4380TIP3   OH213145   6.122   0.918   2.874  0.2699 -0.3649 -0.0466
 4380TIP3    H113146   6.181   0.992   2.862  0.9345 -0.9534 -0.5404
 4380TIP3    H213147   6.141   0.886   2.962  0.3142 -0.2266 -0.0061
 4381TIP3   OH213148   2.639   2.248   2.819 -0.3881 -0.4480 -0.2280
 4381TIP3    H113149   2.555   2.202   2.821 -1.0161  0.6282 -0.8367
 4381TIP3    H213150   2.662   2.252   2.727  0.5991 -1.1694 -0.0283
 4382TIP3   OH213151   5.161   0.880   4.873  0.0920  0.4031  0.3723
 4382TIP3    H113152   5.128   0.859   4.786 -0.6004  0.6396  0.5706
 4382TIP3    H213153   5.193   0.797   4.908  2.0025  0.5941 -0.7661
 4383TIP3   OH213154   4.361   0.086   0.316 -0.1809 -0.6570  0.3012
 4383TIP3    H113155   4.421   0.160   0.315 -0.8829 -0.0599  0.8776
 4383TIP3    H213156   4.393   0.027   0.247  0.1457  0.3724 -0.4484
 4384TIP3   OH213157   1.170   1.626   2.408 -0.4278 -0.1254  0.2663
 4384TIP3    H113158   1.216   1.700   2.369  0.4007 -1.5311 -1.5410
 4384TIP3    H213159   1.120   1.587   2.336 -0.3781 -1.6735  1.0276
 4385TIP3   OH213160   4.182   0.459   2.561 -0.2164  0.1978 -0.0775
 4385TIP3    H113161   4.162   0.391   2.626  1.4716  1.6998  2.1558
 4385TIP3    H213162   4.256   0.424   2.512  0.7563  0.4500  1.1759
 4386TIP3   OH213163   2.283   5.921   5.067 -0.2832 -0.3568 -0.1780
 4386TIP3    H113164   2.206   5.866   5.082  0.0787 -0.3926  1.6970
 4386TIP3    H213165   2.247   6.000   5.027 -1.1493 -0.8199 -0.3502
 4387TIP3   OH213166   0.195   5.125   2.977 -0.4163  0.3093  0.3386
 4387TIP3    H113167   0.155   5.046   2.939 -1.2537  1.2542 -0.8124
 4387TIP3    H213168   0.153   5.133   3.063 -0.3077 -0.5030  0.4810
 4388TIP3   OH213169   4.543   5.029   4.931 -0.0947 -0.0122 -0.3067
 4388TIP3    H113170   4.502   4.944   4.915 -2.1560  0.5249  1.7216
 4388TIP3    H213171   4.568   5.027   5.023 -1.3896  1.9912  0.1535
 4389TIP3   OH213172   4.394   4.066   3.950 -0.2753 -0.3434  0.5827
 4389TIP3    H113173   4.329   4.074   4.021  1.5079  1.3527  2.1501
 4389TIP3    H213174   4.473   4.034   3.993  0.7595  0.3596 -0.7127
 4390TIP3   OH213175   2.096   0.708   2.779  0.2674 -0.1442 -0.3399
 4390TIP3    H113176   2.039   0.784   2.771 -0.7119 -0.8148  0.0628
 4390TIP3    H213177   2.180   0.743   2.809 -0.5891  0.6122  1.2292
 4391TIP3   OH213178   1.421   2.437   3.774 -0.0372 -0.5091  0.1357
 4391TIP3    H113179   1.513   2.414   3.765  0.6463  1.8498  0.2869
 4391TIP3    H213180   1.381   2.411   3.691  0.4014 -2.8339  0.5911
 4392TIP3   OH213181   4.500   3.820   4.084  0.4357 -0.3082 -0.1532
 4392TIP3    H113182   4.414   3.778   4.078  0.3135  0.0791 -1.3930
 4392TIP3    H213183   4.548   3.787   4.008  1.5464 -0.8428  0.7518
 4393TIP3   OH213184   6.059   5.209   4.759  0.5348  0.7844  0.0452
 4393TIP3    H113185   5.979   5.187   4.710  0.7453 -0.1457  0.0917
 4393TIP3    H213186   6.075   5.301   4.739 -0.5298  0.9771  0.0053
 4394TIP3   OH213187   3.108   4.372   4.381 -0.6279  0.2198  0.3355
 4394TIP3    H113188   3.099   4.416   4.297  2.1286  0.2846  0.0091
 4394TIP3    H213189   3.154   4.290   4.361  0.5087  0.4481  1.8025
 4395TIP3   OH213190   1.882   3.388   4.775  0.8331 -0.0718  0.2371
 4395TIP3    H113191   1.950   3.343   4.725 -0.3464 -0.3535 -1.1976
 4395TIP3    H213192   1.829   3.317   4.812  0.5303  0.1317  0.1998
 4396TIP3   OH213193   6.070   0.340   3.133 -0.3861 -0.3998 -0.2542
 4396TIP3    H113194   6.060   0.421   3.183  1.4832  0.0060 -0.4543
 4396TIP3    H213195   6.040   0.271   3.192 -0.7651  0.3222  0.4125
 4397TIP3   OH213196   2.244   4.067   3.593  0.4561 -0.2664 -0.1433
 4397TIP3    H113197   2.330   4.027   3.597  0.2922 -0.8161 -1.5680
 4397TIP3    H213198   2.231   4.088   3.501 -1.8253 -2.2311 -0.3587
 4398TIP3   OH213199   3.400   1.862   2.725  0.4734 -0.1884  0.6417
 4398TIP3    H113200   3.456   1.939   2.736 -0.4630  0.5227  0.5927
 4398TIP3    H213201   3.351   1.881   2.645  0.4963 -1.0129  0.4309
 4399TIP3   OH213202   3.622   0.684   4.338  0.1450 -0.3055 -0.3050
 4399TIP3    H113203   3.702   0.695   4.287  0.0025 -1.7083 -0.8856
 4399TIP3    H213204   3.641   0.609   4.395 -0.4760 -0.1437  0.1181
 4400TIP3   OH213205   4.090   4.018   1.638 -0.1997 -0.1226 -0.2317
 4400TIP3    H113206   4.092   3.926   1.662  1.5980 -1.0693 -3.4418
 4400TIP3    H213207   4.180   4.048   1.649 -0.9537  1.6287  1.7751
 4401TIP3   OH213208   2.610   3.290   1.442 -0.5727  0.2078  1.2318
 4401TIP3    H113209   2.703   3.284   1.460 -0.4023  0.7742  0.6065
 4401TIP3    H213210   2.595   3.383   1.422 -0.5913 -0.3557 -2.0556
 4402TIP3   OH213211   2.421   3.349   1.085 -0.4919  0.3186 -0.0221
 4402TIP3    H113212   2.395   3.349   1.177 -1.4794  1.7586 -0.2729
 4402TIP3    H213213   2.340   3.368   1.037  0.4242  1.9066 -1.0232
 4403TIP3   OH213214   1.618   0.848   1.315  0.4195  0.3214  0.0894
 4403TIP3    H113215   1.575   0.862   1.231  0.6176  0.6172  0.0356
 4403TIP3    H213216   1.547   0.857   1.379  0.7254  2.8945  0.1614
 4404TIP3   OH213217   2.626   5.595   2.543 -0.0289  0.2393 -0.5288
 4404TIP3    H113218   2.680   5.673   2.557  0.2498 -0.1441  0.6737
 4404TIP3    H213219   2.689   5.527   2.518 -0.2244  0.3006 -1.1996
 4405TIP3   OH213220   0.882   5.104   4.367  0.5610  0.1510  0.6784
 4405TIP3    H113221   0.945   5.174   4.353  3.2461 -1.4947  3.2453
 4405TIP3    H213222   0.839   5.126   4.450 -1.4586  0.6309 -0.4357
 4406TIP3   OH213223   6.147   1.308   5.165 -0.1357 -0.0500 -0.2816
 4406TIP3    H113224   6.143   1.404   5.161  0.6136  0.0294  0.5845
 4406TIP3    H213225   6.083   1.279   5.100 -2.2570  1.0488  1.1608
 4407TIP3   OH213226   4.462   4.406   1.248 -0.3394  0.1800  0.4812
 4407TIP3    H113227   4.467   4.339   1.316  0.0597  0.8477  1.1261
 4407TIP3    H213228   4.537   4.464   1.266 -0.4730  0.5990 -0.2747
 4408TIP3   OH213229   6.341   5.804   0.690 -0.0151  0.0603 -0.1300
 4408TIP3    H113230   6.312   5.782   0.602 -0.7362 -0.2850  0.1877
 4408TIP3    H213231   6.358   5.720   0.732 -0.7800  0.1808  0.4258
 4409TIP3   OH213232   2.778   1.322   3.551  0.1536 -0.4526 -0.3070
 4409TIP3    H113233   2.701   1.278   3.586  1.4883 -1.9205  0.9354
 4409TIP3    H213234   2.791   1.282   3.465  0.2179 -1.1018 -0.0042
 4410TIP3   OH213235   0.135   5.956   4.513 -0.3687  0.1301 -0.1622
 4410TIP3    H113236   0.062   6.018   4.518  0.0026  0.6089 -0.6176
 4410TIP3    H213237   0.146   5.939   4.420  0.1277  0.0961 -0.0998
 4411TIP3   OH213238   2.994   1.755   2.423  0.1210 -0.0617 -0.1187
 4411TIP3    H113239   2.964   1.671   2.457  0.0889  0.5794  1.5528
 4411TIP3    H213240   2.921   1.815   2.438  1.2130  0.9308  1.6000
 4412TIP3   OH213241   0.581   2.187   2.762  0.2333  0.5860  0.4735
 4412TIP3    H113242   0.650   2.164   2.700  0.0702 -0.5476  0.6958
 4412TIP3    H213243   0.517   2.234   2.710  0.9680  1.2825  0.1747
 4413TIP3   OH213244   0.278   4.227   3.584  0.0160  0.1816 -0.1587
 4413TIP3    H113245   0.350   4.285   3.561 -0.9239  1.3576 -0.2159
 4413TIP3    H213246   0.200   4.281   3.575 -0.9812 -1.3537 -1.1079
 4414TIP3   OH213247   3.771   3.816   1.950  0.2218 -0.2547  0.4862
 4414TIP3    H113248   3.735   3.795   1.864  0.3163  1.2339  0.0547
 4414TIP3    H213249   3.698   3.854   1.998  0.4432 -0.0851  0.6914
 4415TIP3   OH213250   4.833   2.501   1.448 -0.3085  0.6792  0.1477
 4415TIP3    H113251   4.830   2.445   1.371  0.3233  1.3997 -0.4167
 4415TIP3    H213252   4.756   2.557   1.440 -1.3976 -0.5977  1.1304
 4416TIP3   OH213253   0.032   4.540   3.095 -0.1453  0.0809 -0.0877
 4416TIP3    H113254   0.098   4.473   3.077  2.7983  2.7566 -0.0778
 4416TIP3    H213255  -0.030   4.533   3.022  1.4442 -1.0648 -1.3979
 4417TIP3   OH213256   4.397   4.893   2.365 -0.2803 -0.1377 -0.2418
 4417TIP3    H113257   4.445   4.839   2.302  2.6072  1.9937 -0.0558
 4417TIP3    H213258   4.334   4.941   2.312 -0.7635 -1.3998 -0.8489
 4418TIP3   OH213259   5.728   4.213   0.568  0.0252  0.5940 -0.1611
 4418TIP3    H113260   5.777   4.219   0.650 -0.6223  0.5945  0.2372
 4418TIP3    H213261   5.657   4.152   0.588 -0.4501  1.0185 -0.5602
 4419TIP3   OH213262   6.205   5.086   3.312  0.1528  0.1168 -0.3606
 4419TIP3    H113263   6.268   5.042   3.369  0.4160  0.3834 -0.4485
 4419TIP3    H213264   6.180   5.019   3.248 -1.3529 -0.7129  0.9884
 4420TIP3   OH213265   1.090   5.816   1.122  0.1990 -0.7364  0.1870
 4420TIP3    H113266   1.011   5.781   1.081  0.2890 -0.3971 -0.2778
 4420TIP3    H213267   1.162   5.779   1.071  0.2874  0.4995 -0.6321
 4421TIP3   OH213268   4.971   5.029   3.039 -0.0231  0.0777  0.0865
 4421TIP3    H113269   5.025   4.959   3.075  0.6680  1.4673  1.8797
 4421TIP3    H213270   4.889   5.023   3.086 -0.5666 -0.4906 -0.8970
 4422TIP3   OH213271   1.234   2.096   2.770 -0.1973 -0.1764 -0.2307
 4422TIP3    H113272   1.177   2.058   2.837 -1.5446  2.3129  0.1686
 4422TIP3    H213273   1.306   2.136   2.819 -0.5155  0.5559 -0.3452
 4423TIP3   OH213274   2.644   2.517   5.068 -0.0146  0.1491 -0.1170
 4423TIP3    H113275   2.613   2.452   5.132  2.0099  0.2709  1.0808
 4423TIP3    H213276   2.570   2.577   5.057 -0.9144 -0.7071  0.9992
 4424TIP3   OH213277   0.796   3.759   1.509 -0.3006 -0.4441 -0.7359
 4424TIP3    H113278   0.758   3.744   1.595  0.3239 -2.3783 -0.7608
 4424TIP3    H213279   0.781   3.852   1.492 -0.5297 -0.0534  1.3956
 4425TIP3   OH213280   0.520   3.594   4.906  0.3204 -0.5509 -0.0645
 4425TIP3    H113281   0.526   3.518   4.849  0.8080  0.4687 -1.4316
 4425TIP3    H213282   0.571   3.571   4.983  1.5414 -1.1369 -1.0187
 4426TIP3   OH213283   1.792   3.522   0.479 -0.2147 -0.8351  0.0713
 4426TIP3    H113284   1.873   3.536   0.528 -1.5578  0.7250  1.9997
 4426TIP3    H213285   1.756   3.441   0.516 -0.6473 -0.2891  0.8696
 4427TIP3   OH213286   5.424   5.045   3.200  0.5885  0.2397 -0.6650
 4427TIP3    H113287   5.367   5.043   3.123  1.8529  0.8811 -1.6769
 4427TIP3    H213288   5.416   4.957   3.238 -0.1604 -0.0516 -1.4647
 4428TIP3   OH213289   2.925   4.970   1.559 -0.1308 -0.3476 -0.4024
 4428TIP3    H113290   2.999   4.910   1.553  0.6759  0.7477 -2.5483
 4428TIP3    H213291   2.963   5.053   1.587 -0.8861 -0.2486  0.3922
 4429TIP3   OH213292   5.515   5.406   0.425  0.5988  0.2650  0.1672
 4429TIP3    H113293   5.490   5.317   0.404 -1.1897  0.7834 -0.0452
 4429TIP3    H213294   5.505   5.412   0.520  0.9638  0.1873  0.2144
 4430TIP3   OH213295   0.250   0.504   3.958  0.1118  0.7448  0.1932
 4430TIP3    H113296   0.243   0.498   3.863  1.4477  1.1217  0.0402
 4430TIP3    H213297   0.264   0.414   3.987  1.3590  0.7940 -0.1657
 4431TIP3   OH213298   3.465   1.660   0.259  0.0978 -0.2506  0.0385
 4431TIP3    H113299   3.498   1.608   0.333 -1.1466 -0.6776  0.3308
 4431TIP3    H213300   3.460   1.598   0.187  1.7315  0.2685 -0.5706
 4432TIP3   OH213301   4.247   5.667   1.779  0.0759 -0.0864 -0.3095
 4432TIP3    H113302   4.222   5.738   1.839 -2.1941 -1.6619  0.8137
 4432TIP3    H213303   4.317   5.621   1.825  0.2563  0.3426 -0.1507
 4433TIP3   OH213304   4.843   0.321   1.646 -0.6733  0.2348 -0.0364
 4433TIP3    H113305   4.861   0.311   1.740 -0.3051 -1.0224 -0.2303
 4433TIP3    H213306   4.771   0.261   1.628  0.2280 -0.6303 -0.8368
 4434TIP3   OH213307   3.376   1.266   0.828  0.0239  0.2064  0.1236
 4434TIP3    H113308   3.392   1.174   0.808  0.5000  0.6268 -1.5433
 4434TIP3    H213309   3.453   1.292   0.879  1.2798  0.3571 -1.7528
 4435TIP3   OH213310   0.479   3.271   0.702  0.8672  0.4339 -0.4487
 4435TIP3    H113311   0.401   3.216   0.711  2.1864 -1.4734 -0.1426
 4435TIP3    H213312   0.511   3.252   0.614  1.5441  0.4417 -0.2038
 4436TIP3   OH213313   0.470   4.116   3.173  0.3062 -0.6927 -0.4315
 4436TIP3    H113314   0.381   4.109   3.140  0.3152  1.9678 -1.2494
 4436TIP3    H213315   0.478   4.207   3.202  2.5361 -1.0553  0.3109
 4437TIP3   OH213316   0.473   4.705   4.000 -0.1485  0.0372 -0.4842
 4437TIP3    H113317   0.559   4.697   4.041 -0.7459 -1.7569  0.5647
 4437TIP3    H213318   0.450   4.797   4.009  0.1884 -0.0574  2.4350
 4438TIP3   OH213319   5.380   2.396   4.803 -0.1248  0.2607  0.2018
 4438TIP3    H113320   5.414   2.472   4.851 -0.9020  1.2339 -0.7450
 4438TIP3    H213321   5.350   2.432   4.719 -1.8555 -0.8444  0.2952
 4439TIP3   OH213322   4.880   5.050   2.143 -0.3033  0.6958  0.1467
 4439TIP3    H113323   4.908   5.119   2.083  0.6401 -1.2390 -1.7974
 4439TIP3    H213324   4.858   5.096   2.224  1.2812  3.1561 -0.6896
 4440TIP3   OH213325   0.542   4.388   1.783 -0.1545  0.3466 -0.2866
 4440TIP3    H113326   0.611   4.358   1.724  0.1386 -0.9693  0.6777
 4440TIP3    H213327   0.462   4.389   1.730 -0.2322 -2.4768 -0.3323
 4441TIP3   OH213328   0.424   3.624   0.369 -0.3461  0.0242  0.0443
 4441TIP3    H113329   0.462   3.537   0.357 -0.2444 -0.1468  1.4559
 4441TIP3    H213330   0.379   3.642   0.287  0.8956 -0.7182 -0.8344
 4442TIP3   OH213331   3.725   5.572   3.733  0.4584 -0.0222  0.0812
 4442TIP3    H113332   3.778   5.502   3.694  0.9180  0.6129 -0.4740
 4442TIP3    H213333   3.781   5.649   3.727 -0.4159  0.5955 -0.2191
 4443TIP3   OH213334   5.089   2.555   4.771 -0.1427  0.3296  0.1982
 4443TIP3    H113335   5.085   2.465   4.803 -2.8100  0.2143 -0.2145
 4443TIP3    H213336   5.151   2.599   4.829  0.9114 -1.6473  0.6544
 4444TIP3   OH213337   3.490   3.697   3.366 -0.0765 -0.0630  0.4198
 4444TIP3    H113338   3.507   3.631   3.433  0.4237 -0.5006 -0.1225
 4444TIP3    H213339   3.466   3.647   3.288  1.1386  0.3234 -0.2493
 4445TIP3   OH213340   4.004   4.047   0.990  0.0626 -0.0163 -0.0293
 4445TIP3    H113341   4.019   3.967   0.939  0.6832  1.2431 -1.9174
 4445TIP3    H213342   3.979   4.113   0.925 -1.0776  1.2016  1.5547
 4446TIP3   OH213343   1.046   2.003   2.166 -0.2591 -0.0300  0.6085
 4446TIP3    H113344   0.994   2.075   2.131 -1.5131 -1.0585  0.2418
 4446TIP3    H213345   1.071   1.952   2.089  3.0365  1.4371  0.5315
 4447TIP3   OH213346   1.673   2.707   2.403  0.8305  0.3419  0.2420
 4447TIP3    H113347   1.709   2.674   2.485  1.1461  0.6201  0.2180
 4447TIP3    H213348   1.739   2.682   2.337 -0.7590 -2.5467 -0.4293
 4448TIP3   OH213349   2.528   3.550   4.989 -0.1450  0.1803 -0.1750
 4448TIP3    H113350   2.497   3.572   5.076  1.4702  1.3453  0.1421
 4448TIP3    H213351   2.451   3.560   4.933 -0.8487  0.8754  0.8774
 4449TIP3   OH213352   6.034   2.507   3.773  0.2675  0.1050 -0.3603
 4449TIP3    H113353   5.958   2.451   3.789  1.5935 -1.4432  0.9865
 4449TIP3    H213354   6.105   2.445   3.757  1.3408  1.4966 -1.1307
 4450TIP3   OH213355   2.660   2.061   4.279 -0.1739 -0.0374  0.1260
 4450TIP3    H113356   2.678   2.115   4.356 -1.0219  1.3498 -0.6105
 4450TIP3    H213357   2.609   1.987   4.313 -0.0200  0.2368  0.9760
 4451TIP3   OH213358   6.184   5.842   0.209 -0.4591 -0.3184  0.3551
 4451TIP3    H113359   6.227   5.756   0.211 -0.5342 -0.4386 -1.3253
 4451TIP3    H213360   6.253   5.904   0.234  0.2913 -0.6615 -0.7649
 4452TIP3   OH213361   4.741   3.450   1.314  0.2422 -0.6121  0.4070
 4452TIP3    H113362   4.713   3.460   1.405  0.0317  0.0164  0.2846
 4452TIP3    H213363   4.664   3.418   1.268 -1.1275  3.1563 -0.3438
 4453TIP3   OH213364   5.067   1.939   2.601 -0.0683  0.3681  0.1531
 4453TIP3    H113365   5.031   1.938   2.690  1.2138 -2.4072  0.7649
 4453TIP3    H213366   5.036   2.021   2.563 -3.0898  0.2989  2.1421
 4454TIP3   OH213367   5.771   5.161   1.622  0.0364 -0.4486  0.2351
 4454TIP3    H113368   5.700   5.119   1.671 -0.0078 -1.1876 -0.4360
 4454TIP3    H213369   5.736   5.248   1.600 -0.3223 -0.4803  0.6527
 4455TIP3   OH213370   1.296   3.730   2.414 -0.1048  0.4060  0.8193
 4455TIP3    H113371   1.224   3.695   2.467 -1.3881  1.2280 -0.3514
 4455TIP3    H213372   1.304   3.821   2.442  0.1958  0.4431  0.6138
 4456TIP3   OH213373   6.310   3.208   0.679  0.4746  0.2735  0.0607
 4456TIP3    H113374   6.221   3.239   0.663  0.8767  1.5257  0.1292
 4456TIP3    H213375   6.299   3.131   0.735 -0.5276  0.9700  0.8487
 4457TIP3   OH213376   4.832   3.225   3.891  0.0255  0.0384 -0.1384
 4457TIP3    H113377   4.740   3.211   3.915  0.1473 -1.4289 -0.4115
 4457TIP3    H213378   4.829   3.296   3.827 -0.6641  1.5313  1.4791
 4458TIP3   OH213379   2.643   4.788   1.309  0.0688  0.4403 -0.5155
 4458TIP3    H113380   2.568   4.836   1.344  0.8204  1.3138 -0.0579
 4458TIP3    H213381   2.702   4.856   1.276  1.2960 -0.1313  0.4176
 4459TIP3   OH213382   0.807   4.943   0.354  0.4689  0.4935 -0.0683
 4459TIP3    H113383   0.718   4.910   0.338 -0.6659  2.1250  2.3148
 4459TIP3    H213384   0.862   4.865   0.351 -0.8889 -0.4818 -2.2426
 4460TIP3   OH213385   0.935   5.098   1.918  0.2111 -0.0089 -0.4503
 4460TIP3    H113386   0.957   5.190   1.905  1.0882 -0.3931 -1.9355
 4460TIP3    H213387   0.855   5.085   1.867  0.4852 -0.2218 -0.8314
 4461TIP3   OH213388   3.704   0.365   2.706  0.5445 -0.6767 -0.0948
 4461TIP3    H113389   3.664   0.279   2.690  0.6754 -0.9511  0.9959
 4461TIP3    H213390   3.736   0.393   2.620 -0.2623 -1.3312 -0.6148
 4462TIP3   OH213391   0.900   0.672   4.477  0.2061 -0.5799 -0.5320
 4462TIP3    H113392   0.915   0.714   4.561  1.8819 -1.2604 -0.4518
 4462TIP3    H213393   0.865   0.586   4.498  1.1860 -0.9819 -0.4691
 4463TIP3   OH213394   1.340   1.133   1.591 -0.2656 -0.0613 -0.4321
 4463TIP3    H113395   1.342   1.222   1.625  1.4455 -0.2793  0.1170
 4463TIP3    H213396   1.407   1.087   1.641 -0.5212 -1.4367 -1.3196
 4464TIP3   OH213397   2.938   5.717   1.635 -0.0519  0.0813 -0.5640
 4464TIP3    H113398   2.876   5.790   1.640 -1.8884 -1.4109 -0.3575
 4464TIP3    H213399   2.935   5.688   1.544 -0.4234 -0.6138 -0.3375
 4465TIP3   OH213400   5.745   5.098   3.397 -0.5596 -0.3814  0.1911
 4465TIP3    H113401   5.833   5.069   3.423 -1.2213 -0.2322  2.8479
 4465TIP3    H213402   5.686   5.032   3.433 -1.6028 -0.3054 -1.2844
 4466TIP3   OH213403   1.207   1.017   3.992 -0.3393  0.1645 -0.4845
 4466TIP3    H113404   1.214   0.932   3.948 -1.7873  0.0684 -0.5816
 4466TIP3    H213405   1.185   0.995   4.083  2.5944  0.3614  0.3741
 4467TIP3   OH213406   5.303   4.968   3.735 -0.1861 -0.3358  0.2447
 4467TIP3    H113407   5.353   5.028   3.790  0.3674 -1.7921  1.3896
 4467TIP3    H213408   5.319   4.998   3.646 -1.0324  2.0284  0.8150
 4468TIP3   OH213409   4.956   2.563   1.725  0.1667 -0.2666  0.8970
 4468TIP3    H113410   4.870   2.539   1.761 -1.4681  3.2745 -0.2033
 4468TIP3    H213411   4.945   2.557   1.631  1.2865 -0.0940  0.7433
 4469TIP3   OH213412   1.759   1.600   0.571 -0.8839 -0.9411 -0.0672
 4469TIP3    H113413   1.760   1.694   0.557  3.1839 -1.0145 -1.7373
 4469TIP3    H213414   1.797   1.587   0.658 -0.7212 -1.0359 -0.1506
 4470TIP3   OH213415   2.702   3.835   2.235 -0.4834 -0.1424 -0.2247
 4470TIP3    H113416   2.698   3.743   2.259  0.5241  0.3252  1.9807
 4470TIP3    H213417   2.765   3.873   2.297  0.5008  1.6824 -2.2154
 4471TIP3   OH213418   2.537   2.863   3.944  0.0933 -0.1560  0.0203
 4471TIP3    H113419   2.459   2.892   3.898 -0.2924 -0.4887  0.4487
 4471TIP3    H213420   2.524   2.895   4.034  1.4752  1.7110 -0.3710
 4472TIP3   OH213421   0.372   0.121   0.503 -0.1705 -0.1291  0.7590
 4472TIP3    H113422   0.399   0.206   0.467 -0.0028 -0.6564 -0.3808
 4472TIP3    H213423   0.439   0.101   0.568  0.0987  0.3435  0.6319
 4473TIP3   OH213424   4.049   4.682   0.454  0.2440 -0.2435  0.4382
 4473TIP3    H113425   4.081   4.773   0.461 -0.0689 -0.0432 -0.5638
 4473TIP3    H213426   4.118   4.637   0.405 -0.7143  0.0722 -1.2987
 4474TIP3   OH213427   5.474   1.398   1.089 -0.5749 -0.1340  0.4260
 4474TIP3    H113428   5.485   1.492   1.074 -0.7705 -0.1225  0.3497
 4474TIP3    H213429   5.545   1.375   1.149 -0.6223  0.0931  0.5715
 4475TIP3   OH213430   1.909   4.669   2.586 -0.2377  0.6272 -0.1914
 4475TIP3    H113431   1.915   4.725   2.509 -0.7182  0.4575 -0.3545
 4475TIP3    H213432   1.976   4.602   2.573 -1.7543 -0.7068 -1.5437
 4476TIP3   OH213433   5.412   0.248   3.062 -0.0540  0.7455 -0.6272
 4476TIP3    H113434   5.398   0.303   3.139  0.3140  0.8029 -0.6014
 4476TIP3    H213435   5.359   0.290   2.994 -2.1144 -0.5155  0.1284
 4477TIP3   OH213436   3.581   1.650   2.754 -0.0106  0.1618 -0.2261
 4477TIP3    H113437   3.536   1.576   2.794 -0.5135  1.9817  2.9642
 4477TIP3    H213438   3.511   1.710   2.728  0.4179  0.6705 -0.2353
 4478TIP3   OH213439   3.444   2.981   1.194 -0.0898  0.2814 -0.2933
 4478TIP3    H113440   3.397   2.953   1.116 -1.9392  0.0021  0.8648
 4478TIP3    H213441   3.504   2.909   1.213 -0.9268 -0.4574 -0.4238
 4479TIP3   OH213442   1.575   1.103   4.445  0.3425 -0.1712 -0.5183
 4479TIP3    H113443   1.525   1.086   4.525 -0.2313 -1.4516 -1.1291
 4479TIP3    H213444   1.585   1.199   4.444  0.3681 -0.1247  1.0706
 4480TIP3   OH213445   5.498   1.916   5.041 -0.4020 -0.2868 -0.2493
 4480TIP3    H113446   5.562   1.923   5.112  0.5270 -2.0649 -0.8652
 4480TIP3    H213447   5.459   2.003   5.035  1.4040  0.6255  0.6508
 4481TIP3   OH213448   1.615   2.202   4.668 -0.4166 -0.3185 -0.1008
 4481TIP3    H113449   1.560   2.172   4.739 -0.0462  0.1530  0.3956
 4481TIP3    H213450   1.562   2.266   4.621 -0.4161 -0.1266  0.1624
 4482TIP3   OH213451   0.714   1.340   2.182 -0.8261  0.3838  0.6210
 4482TIP3    H113452   0.692   1.267   2.240 -1.2138  1.2543  1.6028
 4482TIP3    H213453   0.694   1.308   2.094  1.8451 -1.7736  0.6735
 4483TIP3   OH213454   6.248   1.346   4.760 -0.1441 -0.4254 -0.0490
 4483TIP3    H113455   6.226   1.402   4.834 -1.2071 -1.1959  0.2357
 4483TIP3    H213456   6.163   1.320   4.724  0.3264  0.7587 -2.1904
 4484TIP3   OH213457   4.087   1.114   3.921 -0.0389 -0.2720 -0.3028
 4484TIP3    H113458   4.090   1.208   3.936 -0.8351 -0.5201  1.6658
 4484TIP3    H213459   4.170   1.081   3.954 -0.1988 -0.3772 -0.0016
 4485TIP3   OH213460   6.282   4.970   0.611 -0.1484 -0.4696  0.0094
 4485TIP3    H113461   6.368   4.961   0.570 -0.8742 -1.4682 -1.3295
 4485TIP3    H213462   6.232   5.024   0.550 -1.2045 -1.8771 -0.4199
 4486TIP3   OH213463   2.141   3.862   4.217  0.3936  0.6260  0.9751
 4486TIP3    H113464   2.112   3.771   4.227  0.5099  0.5292  0.4552
 4486TIP3    H213465   2.226   3.865   4.260 -0.0848  0.7574  1.9476
 4487TIP3   OH213466   1.974   4.964   2.013  0.3261 -0.1302 -0.0643
 4487TIP3    H113467   1.999   5.056   2.025 -0.2760 -0.2880  3.0274
 4487TIP3    H213468   1.882   4.968   1.985  0.6216  0.1808 -1.0579
 4488TIP3   OH213469   3.612   0.748   3.683  0.1080  0.0747  0.7064
 4488TIP3    H113470   3.665   0.785   3.613 -0.4499 -1.3244 -0.4858
 4488TIP3    H213471   3.525   0.736   3.645  0.1829 -2.1477  1.0975
 4489TIP3   OH213472   6.373   0.080   3.712 -0.7887 -0.0075  0.0284
 4489TIP3    H113473   6.375   0.175   3.704 -0.4422  0.0278  0.4616
 4489TIP3    H213474   6.294   0.053   3.665 -0.1339  0.3624 -1.3471
 4490TIP3   OH213475   4.324   3.568   2.246 -0.0246 -0.5204  0.4685
 4490TIP3    H113476   4.247   3.619   2.271 -0.1641 -0.8867  0.7922
 4490TIP3    H213477   4.393   3.598   2.306  0.1212 -0.1229  0.1161
 4491TIP3   OH213478   4.910   4.542   4.754  0.0445  0.4676  0.1512
 4491TIP3    H113479   4.982   4.528   4.693  0.4529  2.4632  0.1111
 4491TIP3    H213480   4.840   4.578   4.701 -0.6221 -0.4647  0.3835
 4492TIP3   OH213481   2.774   2.432   4.854 -0.1781  0.5825  0.8803
 4492TIP3    H113482   2.712   2.457   4.923 -0.8511  1.5844 -0.0543
 4492TIP3    H213483   2.857   2.417   4.901 -1.0280 -0.4764  2.1100
 4493TIP3   OH213484   5.248   1.697   3.003  0.6403 -0.0030 -0.1031
 4493TIP3    H113485   5.160   1.671   3.030  1.3655 -2.5850 -0.0290
 4493TIP3    H213486   5.240   1.791   2.984 -2.2765 -0.2800 -0.7140
 4494TIP3   OH213487   4.464   5.157   3.057 -0.3913  0.5158  0.0182
 4494TIP3    H113488   4.379   5.179   3.017  0.4957 -0.2195 -2.4666
 4494TIP3    H213489   4.491   5.238   3.101 -2.4512  0.6979  1.1065
 4495TIP3   OH213490   1.909   5.200   4.349  0.4170  0.3463 -0.4322
 4495TIP3    H113491   2.003   5.181   4.357  0.7365  2.1976  1.0515
 4495TIP3    H213492   1.903   5.295   4.364 -1.5851  0.4696 -1.7304
 4496TIP3   OH213493   5.271   4.515   3.312  0.0799 -0.5010  0.2227
 4496TIP3    H113494   5.276   4.470   3.227  0.7198 -0.1837  0.0900
 4496TIP3    H213495   5.236   4.450   3.372 -1.3178 -0.4416 -0.4941
 4497TIP3   OH213496   3.618   3.490   2.115 -0.7744  0.2779 -0.1590
 4497TIP3    H113497   3.647   3.569   2.162  0.9270  0.2205 -1.0231
 4497TIP3    H213498   3.664   3.418   2.158 -1.7701 -0.1863  0.1662
 4498TIP3   OH213499   0.040   3.317  -0.016  0.1212 -0.3791  0.3893
 4498TIP3    H113500   0.061   3.320   0.077  2.2875 -0.2131 -0.0505
 4498TIP3    H213501   0.066   3.403  -0.049 -2.6950  0.4093 -0.0334
 4499TIP3   OH213502   0.913   1.932   0.448 -0.3666 -0.1432 -0.2964
 4499TIP3    H113503   0.949   1.883   0.521  0.2258  2.6021  1.3917
 4499TIP3    H213504   0.989   1.951   0.392 -0.1896  0.6714  0.2055
 4500TIP3   OH213505   2.200   4.720   3.714 -0.0398 -0.6980 -0.7180
 4500TIP3    H113506   2.159   4.806   3.724 -0.2822 -0.9137  0.2317
 4500TIP3    H213507   2.221   4.693   3.803 -0.6617 -1.9698 -0.9387
 4501TIP3   OH213508   4.081   0.606   2.205  0.0714  0.5172 -0.5153
 4501TIP3    H113509   4.046   0.648   2.284  0.8296  0.8132 -0.3221
 4501TIP3    H213510   4.024   0.531   2.190  0.3442  0.0231  0.7491
 4502TIP3   OH213511   2.345   5.580   1.122  0.1894 -0.0940 -0.4830
 4502TIP3    H113512   2.399   5.595   1.199  1.3702 -0.7697 -1.1458
 4502TIP3    H213513   2.290   5.505   1.146  0.7402 -0.4710 -0.3808
 4503TIP3   OH213514   3.702   1.323   2.582 -0.6544 -0.7222  0.3217
 4503TIP3    H113515   3.750   1.361   2.656 -2.3673  0.3963  0.9034
 4503TIP3    H213516   3.693   1.395   2.520 -1.8498 -0.8172  0.3716
 4504TIP3   OH213517   0.340   3.089   1.379  0.0853  0.2449  0.2655
 4504TIP3    H113518   0.421   3.138   1.394  0.5436  0.3910 -2.1818
 4504TIP3    H213519   0.359   3.036   1.301 -2.4449  1.0095 -0.9700
 4505TIP3   OH213520   1.672   1.376   2.328 -0.6605 -0.1342  0.3091
 4505TIP3    H113521   1.641   1.344   2.244 -0.1467  0.5200 -0.1353
 4505TIP3    H213522   1.595   1.373   2.385 -1.0298 -0.4875 -0.2090
 4506TIP3   OH213523   0.142   0.116   3.321 -0.1344 -0.1071  0.1683
 4506TIP3    H113524   0.092   0.197   3.312  0.8500  0.4949 -0.1255
 4506TIP3    H213525   0.081   0.054   3.362 -1.7614 -0.0455 -2.0000
 4507TIP3   OH213526   1.709   4.184   1.549 -0.0487  0.1929 -0.0246
 4507TIP3    H113527   1.666   4.137   1.621  2.2714  0.6450  1.7943
 4507TIP3    H213528   1.698   4.276   1.570  0.7987  0.3290 -0.1504
 4508TIP3   OH213529   4.690   5.533   3.867  0.1735 -0.5853  0.5197
 4508TIP3    H113530   4.616   5.494   3.915  1.0464 -0.8293  1.7083
 4508TIP3    H213531   4.652   5.558   3.783 -1.6840  0.8505  1.6955
 4509TIP3   OH213532   4.866   1.715   1.497 -0.1588 -0.4650 -0.3720
 4509TIP3    H113533   4.929   1.744   1.432  1.5165 -2.7316  0.1067
 4509TIP3    H213534   4.804   1.787   1.505  0.6392  0.6328 -3.0724
 4510TIP3   OH213535   4.400   0.152   1.411  0.3142  0.1595 -0.3844
 4510TIP3    H113536   4.321   0.110   1.446  0.1349  0.1179 -0.8309
 4510TIP3    H213537   4.367   0.227   1.361  0.5157 -0.1941 -1.0579
 4511TIP3   OH213538   3.203   4.413   1.853  0.2649  0.3839 -0.6486
 4511TIP3    H113539   3.150   4.479   1.898  0.8289  0.6424 -0.3507
 4511TIP3    H213540   3.246   4.461   1.782 -1.6961 -0.2925 -2.4110
 4512TIP3   OH213541   1.228   1.921   4.790 -0.3249  0.1706 -0.6585
 4512TIP3    H113542   1.203   1.941   4.700 -0.3062 -1.1914 -0.9971
 4512TIP3    H213543   1.155   1.953   4.843 -0.1444  1.3666 -1.1102
 4513TIP3   OH213544   0.805   5.357   0.033  0.6784  0.0273 -0.5558
 4513TIP3    H113545   0.828   5.269   0.062  0.5828 -0.2165 -1.2244
 4513TIP3    H213546   0.836   5.363  -0.057 -0.2757  0.2994 -0.8806
 4514TIP3   OH213547   1.051   4.146   3.361 -0.5549 -0.3433  0.2137
 4514TIP3    H113548   1.137   4.126   3.325 -0.5061 -1.3097  0.8186
 4514TIP3    H213549   0.996   4.073   3.332 -1.2307  0.3933 -0.3681
 4515TIP3   OH213550   3.107   1.458   3.290  0.3103 -0.2479 -0.7508
 4515TIP3    H113551   3.102   1.427   3.380 -3.1160 -0.8614 -1.0001
 4515TIP3    H213552   3.160   1.393   3.245 -0.0252 -1.3265  0.3654
 4516TIP3   OH213553   6.066   4.158   0.734 -0.9219 -0.6014 -0.2599
 4516TIP3    H113554   5.985   4.196   0.766  0.0753  0.0447  1.6819
 4516TIP3    H213555   6.135   4.209   0.777  0.5290 -0.7445 -2.2959
 4517TIP3   OH213556   0.127   5.795   2.830 -0.4937  0.6140  0.0753
 4517TIP3    H113557   0.175   5.878   2.835 -2.1162  1.5798  0.6612
 4517TIP3    H213558   0.055   5.814   2.769 -1.2947 -0.1238  0.7595
 4518TIP3   OH213559   4.457   4.970   1.075 -0.0947  0.5036  0.2587
 4518TIP3    H113560   4.488   5.060   1.067 -0.7019  0.5901 -1.9818
 4518TIP3    H213561   4.460   4.936   0.985 -2.9817 -0.6457  0.4794
 4519TIP3   OH213562   2.486   4.099   0.507  0.3915 -0.1984 -0.0775
 4519TIP3    H113563   2.533   4.056   0.578 -2.2181 -0.7360  1.4934
 4519TIP3    H213564   2.394   4.075   0.522 -0.4157  0.8141 -2.8733
 4520TIP3   OH213565   0.262   5.012   0.702  0.0181 -0.2115  0.2237
 4520TIP3    H113566   0.239   4.968   0.620  0.2739 -0.3547  0.2295
 4520TIP3    H213567   0.223   5.099   0.694  2.1839  0.7115 -1.1594
 4521TIP3   OH213568   3.587   0.764   0.132 -0.2817  0.2058 -0.3587
 4521TIP3    H113569   3.665   0.807   0.098 -0.0847 -0.8417 -1.2832
 4521TIP3    H213570   3.620   0.688   0.180 -0.7269 -1.6705 -2.7801
 4522TIP3   OH213571   0.746   2.330   4.796 -0.1114 -0.0214 -0.1376
 4522TIP3    H113572   0.805   2.363   4.864 -2.9147 -0.5902  2.7789
 4522TIP3    H213573   0.747   2.235   4.808 -1.3296 -0.0582 -0.2658
 4523TIP3   OH213574   0.788   3.667   5.083  0.2193 -0.1203 -0.0101
 4523TIP3    H113575   0.773   3.580   5.119 -0.5107  0.3560  0.9034
 4523TIP3    H213576   0.864   3.657   5.026  1.7159 -0.8863  1.9696
 4524TIP3   OH213577   4.194   2.417   1.727  0.4234 -0.2327  0.1067
 4524TIP3    H113578   4.212   2.349   1.792 -0.7092 -0.5683  0.0936
 4524TIP3    H213579   4.177   2.496   1.778 -0.2805 -0.4514  0.2167
 4525TIP3   OH213580   0.587   2.175   0.869  0.4830  0.1966 -0.0629
 4525TIP3    H113581   0.518   2.148   0.929 -0.0150 -0.3820 -0.8936
 4525TIP3    H213582   0.635   2.094   0.849 -0.3136  0.0875 -1.6604
 4526TIP3   OH213583   6.228   3.556   2.247  0.0664 -0.1950 -0.1278
 4526TIP3    H113584   6.232   3.619   2.319 -2.1688  1.2874 -1.2093
 4526TIP3    H213585   6.320   3.539   2.225  0.7939 -0.4309  2.7824
 4527TIP3   OH213586   6.177   4.710   1.148  0.0611  0.2627  0.2659
 4527TIP3    H113587   6.115   4.695   1.077 -0.7186 -0.3732  1.0726
 4527TIP3    H213588   6.162   4.801   1.173 -0.0370  0.3292 -0.0286
 4528TIP3   OH213589   3.721   5.389   1.916 -0.5473  0.0647 -0.3764
 4528TIP3    H113590   3.813   5.395   1.944 -0.4946  0.5032 -0.6289
 4528TIP3    H213591   3.717   5.442   1.836 -0.9812 -0.1023 -0.4681
 4529TIP3   OH213592   5.502   4.250   4.023  0.0561  0.5079 -0.1435
 4529TIP3    H113593   5.533   4.289   3.941  0.0724  0.9173  0.0517
 4529TIP3    H213594   5.508   4.156   4.009  0.8976  0.5819 -0.2924
 4530TIP3   OH213595   4.208   4.576   4.335  0.0298 -0.2097 -0.3400
 4530TIP3    H113596   4.211   4.534   4.421 -2.2263 -0.4145 -0.2853
 4530TIP3    H213597   4.121   4.616   4.332 -0.6945 -1.7339 -3.1826
 4531TIP3   OH213598   0.780   1.032   1.015  0.0101  0.5454  0.4911
 4531TIP3    H113599   0.822   1.057   1.098  1.0889 -0.1989  0.2029
 4531TIP3    H213600   0.765   0.938   1.024 -1.7020  0.8021  0.5983
 4532TIP3   OH213601   1.226   0.235   2.060  0.0663 -0.0431 -0.2030
 4532TIP3    H113602   1.306   0.205   2.104  0.0048  0.3088  0.1515
 4532TIP3    H213603   1.238   0.329   2.050 -0.7444  0.1805  0.7932
 4533TIP3   OH213604   0.019   1.618   4.492 -0.1579  0.1372  0.3598
 4533TIP3    H113605   0.112   1.637   4.499  0.1098 -0.1690 -1.7411
 4533TIP3    H213606   0.014   1.544   4.431 -1.6930 -0.9574  1.7363
 4534TIP3   OH213607   4.119   5.452   3.300 -0.2172  0.0756  0.4675
 4534TIP3    H113608   4.084   5.363   3.294 -1.2577  0.3107  2.2864
 4534TIP3    H213609   4.177   5.451   3.376  0.1519  0.8417  0.2137
 4535TIP3   OH213610   3.295   2.186   0.390 -0.2288  0.3384 -0.2941
 4535TIP3    H113611   3.274   2.279   0.391  1.8786  0.8608 -0.1989
 4535TIP3    H213612   3.212   2.143   0.371 -1.7271  2.0778  1.7666
 4536TIP3   OH213613   1.748   4.255   4.397  0.1684  0.6561  0.2496
 4536TIP3    H113614   1.677   4.212   4.445 -0.2547 -0.4436 -1.2921
 4536TIP3    H213615   1.826   4.204   4.420 -0.0948 -0.1028 -0.4564
 4537TIP3   OH213616   4.904   3.469   3.760 -0.3580  0.0871  0.5551
 4537TIP3    H113617   4.927   3.545   3.813  0.0815  0.2071  0.1979
 4537TIP3    H213618   4.892   3.503   3.672  0.0413 -0.2863  0.3508
 4538TIP3   OH213619   4.802   1.896   3.988  0.8541 -0.1001 -0.2947
 4538TIP3    H113620   4.797   1.980   3.942  0.7057  0.2955  0.4337
 4538TIP3    H213621   4.716   1.885   4.028  0.9355 -0.5152 -0.2302
 4539TIP3   OH213622   1.849   3.717   2.105 -0.2866 -0.1854  0.3087
 4539TIP3    H113623   1.852   3.649   2.173 -0.8530  1.2904  1.8970
 4539TIP3    H213624   1.888   3.794   2.147  0.5338  0.4465 -1.5110
 4540TIP3   OH213625   4.283   2.529   2.235 -0.0844  0.4126 -0.3400
 4540TIP3    H113626   4.229   2.451   2.224 -0.1489  0.2717  0.8018
 4540TIP3    H213627   4.362   2.497   2.279  0.6099  0.7383 -1.3277
 4541TIP3   OH213628   6.328   3.277   3.986  0.2744 -0.0106 -0.5416
 4541TIP3    H113629   6.301   3.220   3.915 -1.3059 -0.7545  0.5819
 4541TIP3    H213630   6.423   3.278   3.983  0.2716 -1.4832 -1.5280
 4542TIP3   OH213631   3.755   3.852   3.452 -0.7911  0.6346  0.2395
 4542TIP3    H113632   3.792   3.768   3.425  0.8126  1.5785 -0.6509
 4542TIP3    H213633   3.661   3.842   3.441 -0.7033 -1.2849  0.9116
 4543TIP3   OH213634   5.807   4.529   4.864  0.4579 -0.0392 -0.0073
 4543TIP3    H113635   5.733   4.545   4.922  2.3951  1.0859  2.3194
 4543TIP3    H213636   5.818   4.612   4.817  0.5805 -0.0283  0.0423
 4544TIP3   OH213637   4.361   1.265   4.927  0.0826  0.7035  0.6633
 4544TIP3    H113638   4.271   1.271   4.896  0.0624  0.1812  0.6110
 4544TIP3    H213639   4.365   1.182   4.976  0.9007 -0.0591 -0.6149
 4545TIP3   OH213640   3.854   0.520   3.678 -0.2780 -0.3156 -0.1573
 4545TIP3    H113641   3.883   0.611   3.681 -0.4079 -0.2836  0.1569
 4545TIP3    H213642   3.850   0.493   3.770  1.1761 -1.0851 -0.2912
 4546TIP3   OH213643   0.277   4.381   1.574 -0.1822 -0.1762 -0.1658
 4546TIP3    H113644   0.191   4.343   1.589  0.7077 -2.4396 -0.4175
 4546TIP3    H213645   0.263   4.446   1.505 -1.4749 -1.5647 -1.2805
 4547TIP3   OH213646   4.102   5.626   2.290 -0.2150 -0.0477  0.1510
 4547TIP3    H113647   4.017   5.593   2.318 -1.2895  0.8640 -1.8312
 4547TIP3    H213648   4.104   5.717   2.320  0.3298 -0.2421  0.7163
 4548TIP3   OH213649   1.995   5.702   1.983 -0.5115 -0.4358 -0.1822
 4548TIP3    H113650   1.945   5.630   1.945 -0.0594  0.6027 -2.9692
 4548TIP3    H213651   1.985   5.774   1.921  0.5135  1.3620  1.6035
 4549TIP3   OH213652   5.821   5.827   3.318 -0.0251 -0.1178 -0.8153
 4549TIP3    H113653   5.879   5.752   3.310  1.1599  0.4938  1.2672
 4549TIP3    H213654   5.771   5.810   3.398  0.4992  1.4203 -0.1256
 4550TIP3   OH213655   5.529   3.493   0.184 -0.2832  0.0862  0.3123
 4550TIP3    H113656   5.470   3.568   0.175 -1.3757 -0.5652  1.6503
 4550TIP3    H213657   5.504   3.452   0.267 -1.0267 -2.8571 -1.2008
 4551TIP3   OH213658   6.043   0.953   3.486  0.2759  0.1303  0.3890
 4551TIP3    H113659   6.065   0.862   3.506  2.5197  0.0006 -2.1723
 4551TIP3    H213660   6.125   1.001   3.498 -0.9359  1.9857  2.0526
 4552TIP3   OH213661   0.181   0.329   0.111 -0.1562  0.3519 -0.1566
 4552TIP3    H113662   0.269   0.366   0.121 -0.3117  0.6528  0.1527
 4552TIP3    H213663   0.152   0.359   0.025  0.9121 -1.6398 -1.2919
 4553TIP3   OH213664   4.410   2.682   1.801  0.7372  0.0088 -0.3261
 4553TIP3    H113665   4.349   2.742   1.844  2.0021  0.3951  1.0218
 4553TIP3    H213666   4.409   2.603   1.855  1.4139  0.0224 -0.2784
 4554TIP3   OH213667   4.409   2.948   4.929 -0.4034 -0.2793  0.5165
 4554TIP3    H113668   4.333   2.909   4.885 -0.0561  0.3880 -0.7269
 4554TIP3    H213669   4.387   3.041   4.938  0.1827 -0.1180  0.3288
 4555TIP3   OH213670   3.665   3.831   0.084  0.0657 -0.1931 -0.0197
 4555TIP3    H113671   3.712   3.894   0.029  1.4656 -2.3329 -1.4683
 4555TIP3    H213672   3.594   3.881   0.124 -0.3247  1.7778 -2.8843
 4556TIP3   OH213673   4.503   3.745   4.420 -0.1641  0.2693  0.3166
 4556TIP3    H113674   4.596   3.765   4.429 -0.3337  0.3934  1.9996
 4556TIP3    H213675   4.484   3.763   4.328  1.7223 -0.8441 -0.3588
 4557TIP3   OH213676   2.592   3.676   4.228 -0.0536 -0.0525  0.0939
 4557TIP3    H113677   2.562   3.597   4.272  2.3271 -1.3785 -0.5151
 4557TIP3    H213678   2.688   3.672   4.233  0.1596  2.6726 -0.1822
 4558TIP3   OH213679   0.220   0.275   1.150  0.3108 -0.2660  0.0709
 4558TIP3    H113680   0.244   0.229   1.231  1.1728  0.0890  0.0205
 4558TIP3    H213681   0.132   0.243   1.131  0.4023 -0.9507  0.7210
 4559TIP3   OH213682   5.473   2.365   4.344  0.0162 -0.4422 -0.0816
 4559TIP3    H113683   5.506   2.453   4.361 -0.1986 -0.0461 -1.5349
 4559TIP3    H213684   5.486   2.317   4.426  1.0495  0.6593  0.4210
 4560TIP3   OH213685   4.242   1.745   0.590  0.3430  0.3643 -0.4078
 4560TIP3    H113686   4.166   1.750   0.533 -1.0977 -1.5546  1.1933
 4560TIP3    H213687   4.288   1.666   0.564  0.3030  0.0917  0.3052
 4561TIP3   OH213688   4.315   5.197   0.604  0.4041  0.3960  0.2256
 4561TIP3    H113689   4.288   5.140   0.677  0.0014  0.9003  0.4851
 4561TIP3    H213690   4.400   5.164   0.578  1.1401  0.9752  1.7713
 4562TIP3   OH213691   5.397   5.270   2.317 -0.0784 -0.5717  0.1711
 4562TIP3    H113692   5.415   5.177   2.302  0.7488 -0.3016 -0.5302
 4562TIP3    H213693   5.475   5.303   2.361  0.0808  0.0188 -0.5338
 4563TIP3   OH213694   2.433   0.415   0.490 -0.0924 -0.2485  0.2851
 4563TIP3    H113695   2.409   0.457   0.407  0.4822 -0.0004  0.2402
 4563TIP3    H213696   2.500   0.351   0.466  0.9235  0.6305  0.7083
 4564TIP3   OH213697   4.394   2.267   1.171  0.5977 -0.4971  0.0517
 4564TIP3    H113698   4.389   2.362   1.165 -0.0409 -0.5397 -0.1818
 4564TIP3    H213699   4.317   2.236   1.123  0.8879 -1.1350 -0.0099
 4565TIP3   OH213700  -0.004   3.179   2.379  0.1420  0.4031 -0.0297
 4565TIP3    H113701   0.054   3.178   2.303 -1.5667  1.0339 -1.4034
 4565TIP3    H213702  -0.026   3.087   2.395 -0.1155  0.3242 -0.8179
 4566TIP3   OH213703   2.717   4.220   4.744  0.2788  0.5151  0.2658
 4566TIP3    H113704   2.799   4.226   4.794  1.0692 -0.4172 -0.8446
 4566TIP3    H213705   2.742   4.244   4.655 -1.1578  2.4307  0.3243
 4567TIP3   OH213706   1.126   4.510   2.873 -0.3556  0.0079  0.2402
 4567TIP3    H113707   1.160   4.421   2.883 -2.6789 -0.8279  1.2595
 4567TIP3    H213708   1.111   4.541   2.962  2.1257  2.2135  0.0195
 4568TIP3   OH213709   5.334   2.856   4.565 -0.5700 -0.7505 -0.1243
 4568TIP3    H113710   5.346   2.922   4.633  0.9835  0.0397 -1.0975
 4568TIP3    H213711   5.253   2.811   4.589 -0.8932  0.5347  1.3699
 4569TIP3   OH213712   1.259   1.488   2.640  0.1207  0.3409 -0.2976
 4569TIP3    H113713   1.310   1.566   2.664 -0.4240  0.6065  0.0247
 4569TIP3    H213714   1.193   1.520   2.579 -0.7841  0.3441  0.6592
 4570TIP3   OH213715   0.891   5.743   0.960 -0.4260 -0.3051  0.3306
 4570TIP3    H113716   0.821   5.808   0.951  0.2837  0.4367 -0.0254
 4570TIP3    H213717   0.851   5.660   0.934 -1.0885  0.1586 -0.1626
 4571TIP3   OH213718   1.380   5.351   3.046  0.3469 -0.0265 -0.0626
 4571TIP3    H113719   1.334   5.371   3.127 -1.1024  1.8591 -1.2612
 4571TIP3    H213720   1.329   5.281   3.005 -0.0439  0.3483 -0.2257
 4572TIP3   OH213721   4.355   5.554   2.249 -0.3233 -0.1691  1.0007
 4572TIP3    H113722   4.260   5.538   2.250 -0.2941 -0.3746  0.7061
 4572TIP3    H213723   4.393   5.478   2.292  0.1107 -3.1510 -3.9178
 4573TIP3   OH213724   4.405   0.665   0.635  0.1720 -0.3332 -0.4371
 4573TIP3    H113725   4.394   0.754   0.669  0.8735 -0.4903  0.2381
 4573TIP3    H213726   4.463   0.622   0.698 -0.3027 -1.3301 -0.6625
 4574TIP3   OH213727   1.155   3.089   3.944  0.0634 -0.8668 -0.0976
 4574TIP3    H113728   1.081   3.056   3.995 -0.1769  0.1517  0.2260
 4574TIP3    H213729   1.226   3.027   3.962 -0.3375 -1.1260  0.6215
 4575TIP3   OH213730   4.507   3.325   1.243 -0.5981 -0.0120 -0.0905
 4575TIP3    H113731   4.500   3.359   1.332 -1.3753  1.4775 -0.6839
 4575TIP3    H213732   4.436   3.261   1.237 -1.2981  0.7344  0.0173
 4576TIP3   OH213733   1.034   5.349   0.549 -0.2468  0.1690  0.0597
 4576TIP3    H113734   0.958   5.403   0.565 -0.0178  0.6371 -0.4056
 4576TIP3    H213735   1.005   5.260   0.570 -0.6397  0.4548  0.7669
 4577TIP3   OH213736   5.489   2.058   1.943  0.0289  0.0027 -0.0350
 4577TIP3    H113737   5.572   2.062   1.896  0.5081 -0.9398  0.6789
 4577TIP3    H213738   5.485   2.140   1.992 -0.4815  0.9955 -1.6676
 4578TIP3   OH213739   3.771   3.673   3.715 -0.1373  0.1626  0.2667
 4578TIP3    H113740   3.746   3.581   3.726 -0.6564 -0.3207 -3.7325
 4578TIP3    H213741   3.692   3.716   3.683  0.2959  1.9001  1.4130
 4579TIP3   OH213742   3.971   1.451   2.311  0.5965  0.2286 -0.0668
 4579TIP3    H113743   4.003   1.383   2.252  1.4993  0.9906 -0.4786
 4579TIP3    H213744   3.981   1.414   2.399 -1.8875 -1.3973 -0.3810
 4580TIP3   OH213745   5.569   4.695   2.072  0.4812  0.5231  0.1654
 4580TIP3    H113746   5.648   4.688   2.125 -0.7213  2.2136  2.3650
 4580TIP3    H213747   5.530   4.607   2.075  1.0591  0.2830  1.1073
 4581TIP3   OH213748   5.466   5.383   0.708  0.5295  0.2591 -0.0891
 4581TIP3    H113749   5.487   5.463   0.757 -0.5878 -0.0453  0.9420
 4581TIP3    H213750   5.524   5.316   0.745 -1.0998 -0.2418  1.7156
 4582TIP3   OH213751   4.570   4.461   2.704  0.0957 -0.4588  0.1356
 4582TIP3    H113752   4.590   4.494   2.616 -0.2389  2.1965  0.9400
 4582TIP3    H213753   4.474   4.461   2.708  0.0753  1.5161  1.0990
 4583TIP3   OH213754   0.716   2.128   5.048  0.2608  0.7338  0.0263
 4583TIP3    H113755   0.640   2.186   5.041 -0.0002  0.4355  0.3361
 4583TIP3    H213756   0.717   2.082   4.964 -0.5367 -0.0168  0.4053
 4584TIP3   OH213757   0.855   4.118   0.918 -0.0213  0.1051  0.0152
 4584TIP3    H113758   0.880   4.129   0.827  1.0585 -0.9589  0.1561
 4584TIP3    H213759   0.884   4.199   0.961 -0.0963  0.4023 -0.4888
 4585TIP3   OH213760   3.784   1.921   1.843 -1.1058 -0.4220 -0.4152
 4585TIP3    H113761   3.706   1.894   1.892 -1.4725  2.3011  0.6553
 4585TIP3    H213762   3.837   1.968   1.906  1.2195 -1.7287 -1.2892
 4586TIP3   OH213763   3.246   3.131   4.886  0.2483  0.2062 -0.5647
 4586TIP3    H113764   3.246   3.197   4.955 -2.3571 -0.5112  0.2336
 4586TIP3    H213765   3.333   3.093   4.890  0.3682  0.5506  1.9901
 4587TIP3   OH213766   4.722   0.594   1.743 -0.5116 -0.5581  0.1698
 4587TIP3    H113767   4.691   0.609   1.832 -0.4064  0.5588  0.0370
 4587TIP3    H213768   4.669   0.653   1.689  0.4122 -0.1616 -0.3270
 4588TIP3   OH213769   5.536   0.023   2.971  0.0236  0.2267 -0.0386
 4588TIP3    H113770   5.496   0.106   2.998 -1.6221  0.0201 -1.6986
 4588TIP3    H213771   5.627   0.046   2.952  0.1533  1.1911  1.5100
 4589TIP3   OH213772   3.866   5.130   3.746  0.1202 -0.1768 -0.3078
 4589TIP3    H113773   3.844   5.073   3.820  2.4707 -1.1968 -0.2989
 4589TIP3    H213774   3.782   5.167   3.719 -0.9955 -0.7508  2.0476
 4590TIP3   OH213775   1.305   3.328   3.878 -0.1295 -0.0923  0.3712
 4590TIP3    H113776   1.256   3.377   3.813 -0.4362 -0.7030  0.1347
 4590TIP3    H213777   1.254   3.248   3.891  0.8521 -0.7879  0.0423
 4591TIP3   OH213778   0.105   3.417   0.753 -0.6132 -0.3743 -0.1216
 4591TIP3    H113779   0.042   3.350   0.727 -1.4243  0.0814  0.6285
 4591TIP3    H213780   0.123   3.398   0.845  0.3458 -0.4892 -0.3217
 4592TIP3   OH213781   4.650   2.003   2.968 -0.8629  0.2602 -0.1162
 4592TIP3    H113782   4.670   2.085   2.922  0.1160  0.0642 -0.0458
 4592TIP3    H213783   4.575   1.967   2.920 -0.3723  0.4651 -1.0676
 4593TIP3   OH213784   2.802   4.250   5.026  0.0387  0.3657  0.5188
 4593TIP3    H113785   2.839   4.163   5.011 -2.2115 -0.6676  0.6142
 4593TIP3    H213786   2.759   4.244   5.111 -2.6428  0.6297 -0.7344
 4594TIP3   OH213787   3.988   4.269   3.722 -0.3948 -0.3878 -0.1601
 4594TIP3    H113788   3.956   4.182   3.696  2.4430 -2.1850  1.7082
 4594TIP3    H213789   3.979   4.270   3.817  2.1584  0.1195  0.1662
 4595TIP3   OH213790   1.217   5.403   3.290  0.5066  0.3751  0.4589
 4595TIP3    H113791   1.145   5.397   3.228  0.1493  0.3534  0.8769
 4595TIP3    H213792   1.237   5.497   3.295 -0.1337  0.4890  1.0700
 4596TIP3   OH213793   2.497   2.107   2.341 -0.1073  0.1159  0.0327
 4596TIP3    H113794   2.551   2.172   2.297 -0.0256  0.7321  1.0113
 4596TIP3    H213795   2.415   2.153   2.362 -0.4268 -0.3740 -0.1241
 4597TIP3   OH213796   2.219   1.855   2.143 -0.2162 -0.3866  0.0196
 4597TIP3    H113797   2.228   1.817   2.055 -0.2140  0.0367 -0.1681
 4597TIP3    H213798   2.129   1.888   2.145  0.6145  2.2228 -0.9151
 4598TIP3   OH213799   2.129   4.493   2.239 -0.0362  0.2401  0.1842
 4598TIP3    H113800   2.049   4.526   2.197  0.4898  2.0301  0.5163
 4598TIP3    H213801   2.171   4.441   2.171 -0.7007  0.5989 -0.5228
 4599TIP3   OH213802   2.187   3.775   1.082  0.3370 -0.1388  0.2606
 4599TIP3    H113803   2.263   3.780   1.139 -0.3509 -0.3506  1.2235
 4599TIP3    H213804   2.113   3.769   1.142 -0.3633 -0.9517 -0.6546
 4600TIP3   OH213805   5.249   4.681   3.705  0.1775 -0.5108 -0.1435
 4600TIP3    H113806   5.257   4.776   3.712  0.0282 -0.5387  0.4264
 4600TIP3    H213807   5.207   4.667   3.620  0.8504 -0.1027 -0.5548
 4601TIP3   OH213808   0.721   1.673   0.306 -0.0544 -0.2109  0.6934
 4601TIP3    H113809   0.633   1.680   0.270  0.8056  0.5601 -1.3720
 4601TIP3    H213810   0.736   1.756   0.350 -0.8811 -0.9322  2.4715
 4602TIP3   OH213811   1.127   5.452   1.707  0.3485 -0.4571 -0.0980
 4602TIP3    H113812   1.186   5.509   1.756 -0.7946  0.3678  0.3831
 4602TIP3    H213813   1.184   5.386   1.668  1.4334 -0.5473  1.5145
 4603TIP3   OH213814   1.874   5.726   1.121  0.0547 -0.1950 -0.0496
 4603TIP3    H113815   1.892   5.632   1.119 -0.2171 -0.3650  2.4513
 4603TIP3    H213816   1.781   5.732   1.142 -0.1927  0.6837 -1.2500
 4604TIP3   OH213817   3.812   5.944   0.955  0.3072 -0.3489  0.7537
 4604TIP3    H113818   3.722   5.921   0.977  0.5723 -0.8853  1.3160
 4604TIP3    H213819   3.861   5.863   0.967  0.9845  0.1062  1.1595
 4605TIP3   OH213820   3.252   1.733   3.329  0.7657  0.3025 -0.2153
 4605TIP3    H113821   3.161   1.703   3.328  0.8448  0.0677 -0.3122
 4605TIP3    H213822   3.270   1.749   3.422  1.5124 -2.3677  0.1655
 4606TIP3   OH213823   5.775   1.245   3.869 -0.0498 -0.3643  0.1813
 4606TIP3    H113824   5.690   1.254   3.913  0.9257 -0.3982  2.1700
 4606TIP3    H213825   5.776   1.316   3.804 -1.8128 -0.7329 -0.3118
 4607TIP3   OH213826   3.322   3.848   0.375 -0.4445 -0.1203 -0.1195
 4607TIP3    H113827   3.234   3.811   0.364 -0.4205 -0.1835 -0.0977
 4607TIP3    H213828   3.321   3.887   0.462 -0.6302  0.3645 -0.3343
 4608TIP3   OH213829   4.465   1.046   4.484  0.2575 -0.6868 -0.6852
 4608TIP3    H113830   4.442   0.955   4.468 -0.2021 -0.8754  0.9455
 4608TIP3    H213831   4.383   1.088   4.508  0.7134 -0.1781  0.0025
 4609TIP3   OH213832   5.006   0.279   3.154 -0.2632  0.2445 -0.6526
 4609TIP3    H113833   4.960   0.203   3.190 -0.5046  0.0819 -1.2943
 4609TIP3    H213834   5.013   0.340   3.228  1.7152 -1.1790  0.4593
 4610TIP3   OH213835   3.735   1.238   2.023 -0.1423 -0.1876 -0.7049
 4610TIP3    H113836   3.812   1.253   1.969  1.2603  0.9610  1.4994
 4610TIP3    H213837   3.703   1.326   2.044 -0.7655 -0.6102  0.1710
 4611TIP3   OH213838   0.425   3.367   1.904  0.5338 -0.1448 -0.2625
 4611TIP3    H113839   0.357   3.385   1.968 -0.5766  1.5654 -1.8121
 4611TIP3    H213840   0.389   3.297   1.849 -0.7732  1.8121 -2.0474
 4612TIP3   OH213841   1.454   2.210   0.389 -0.3567  1.1059  0.3941
 4612TIP3    H113842   1.436   2.171   0.303  1.5264  1.4548 -0.2186
 4612TIP3    H213843   1.378   2.187   0.442 -1.3301  0.4169 -1.2068
 4613TIP3   OH213844   1.196   0.577   0.065  0.0934 -0.6971 -0.4095
 4613TIP3    H113845   1.258   0.545   0.130 -0.2447 -1.3042 -0.3812
 4613TIP3    H213846   1.249   0.593  -0.013  0.5148  0.1352  0.0461
 4614TIP3   OH213847   1.870   2.844   2.022  0.1614 -0.1549  0.1549
 4614TIP3    H113848   1.932   2.899   2.068  1.0252  0.5929 -1.7879
 4614TIP3    H213849   1.802   2.824   2.087  2.1196 -0.5722  2.1894
 4615TIP3   OH213850   6.172   2.677   0.656  0.0033  0.0499  0.2628
 4615TIP3    H113851   6.186   2.582   0.664 -0.4185  0.1114  2.2129
 4615TIP3    H213852   6.259   2.714   0.645  0.2258 -0.5151  0.0963
 4616TIP3   OH213853   2.365   0.035   2.948  0.1839  0.1828  0.5801
 4616TIP3    H113854   2.356  -0.047   2.996 -1.2749  0.1639  0.3281
 4616TIP3    H213855   2.453   0.066   2.969  0.6394 -1.2700  0.9439
 4617TIP3   OH213856   5.674   2.786   3.978  0.0107  0.1171  0.0271
 4617TIP3    H113857   5.719   2.870   3.979 -0.2767  0.2641  0.5744
 4617TIP3    H213858   5.696   2.748   3.892 -1.2123  1.4697 -0.9244
 4618TIP3   OH213859   0.733   3.599   3.738 -0.3123 -0.3387  0.2611
 4618TIP3    H113860   0.647   3.576   3.702 -0.0973 -0.4655 -0.1698
 4618TIP3    H213861   0.762   3.520   3.783 -0.0611 -0.5630 -0.2868
 4619TIP3   OH213862   4.214   3.881   1.411  0.9657 -0.3030  0.2257
 4619TIP3    H113863   4.163   3.930   1.476  1.1760  1.3160 -0.7689
 4619TIP3    H213864   4.183   3.791   1.419  1.7273 -0.3987  3.2935
 4620TIP3   OH213865   1.343   2.575   3.283 -0.0663 -0.2081  0.0806
 4620TIP3    H113866   1.296   2.624   3.215 -0.4564  0.1237  0.5757
 4620TIP3    H213867   1.341   2.484   3.252  0.5574  0.0640 -0.7869
 4621TIP3   OH213868   0.240   3.623   3.606 -0.4420  0.6402 -0.0385
 4621TIP3    H113869   0.304   3.673   3.657 -0.8888  0.8652  0.3129
 4621TIP3    H213870   0.191   3.690   3.558  2.2657  0.3478 -3.6503
 4622TIP3   OH213871   1.600   5.475   1.184 -0.2125  0.6887  0.3399
 4622TIP3    H113872   1.526   5.524   1.220 -0.3016  1.0719 -0.3463
 4622TIP3    H213873   1.592   5.485   1.089  0.0896 -0.1943  0.2107
 4623TIP3   OH213874   4.855   2.934   3.052 -0.0429 -0.1719  0.6533
 4623TIP3    H113875   4.782   2.963   3.107 -0.2747  0.8801 -0.1824
 4623TIP3    H213876   4.923   2.909   3.115 -1.0393 -0.9902  1.4403
 4624TIP3   OH213877   5.376   3.796   2.465  0.2422  0.4978  0.1901
 4624TIP3    H113878   5.288   3.795   2.428  0.2226 -2.3037  0.1293
 4624TIP3    H213879   5.363   3.791   2.560  0.3221  0.1904  0.1865
 4625TIP3   OH213880   1.334   2.886   3.978  0.0615 -0.4612  0.2045
 4625TIP3    H113881   1.306   2.879   4.070 -0.0149 -0.5658  0.1743
 4625TIP3    H213882   1.429   2.879   3.981  0.1453  0.6049  0.3749
 4626TIP3   OH213883   3.525   1.765   2.302  0.1899  0.2051 -0.1617
 4626TIP3    H113884   3.561   1.693   2.353  0.2546 -0.7162 -1.4461
 4626TIP3    H213885   3.432   1.768   2.325 -0.1726 -1.3771 -1.2707
 4627TIP3   OH213886   3.183   1.357   0.155 -0.2334  0.1425 -0.2631
 4627TIP3    H113887   3.119   1.340   0.086 -0.4336  1.8002 -0.5241
 4627TIP3    H213888   3.187   1.452   0.161  0.1281  0.0353  1.7141
 4628TIP3   OH213889   5.938   4.927   3.574  0.0024 -0.0058  0.3492
 4628TIP3    H113890   5.853   4.889   3.594 -0.5320  1.6090  1.3972
 4628TIP3    H213891   5.975   4.870   3.507 -1.2667 -1.5777  0.9248
 4629TIP3   OH213892   0.129   4.908   0.167  0.3622  0.0368 -0.1636
 4629TIP3    H113893   0.123   4.858   0.086 -0.0782 -2.0530  1.0876
 4629TIP3    H213894   0.082   4.990   0.148 -0.1731 -0.6220 -1.8526
 4630TIP3   OH213895   4.176   2.623   1.297 -0.1526  0.6140  0.1871
 4630TIP3    H113896   4.266   2.596   1.312  0.1178  1.1441 -0.4492
 4630TIP3    H213897   4.126   2.578   1.366  0.4376 -0.5333 -0.1087
 4631TIP3   OH213898   3.756   3.117   4.435 -0.2401  0.4464  0.0965
 4631TIP3    H113899   3.752   3.047   4.371 -0.5489  0.3020  0.2729
 4631TIP3    H213900   3.721   3.194   4.389  0.8677  0.6983 -0.3651
 4632TIP3   OH213901   4.045   4.297   4.837  0.0079  0.1792  0.3895
 4632TIP3    H113902   4.048   4.349   4.917  0.7296  0.0689  0.4404
 4632TIP3    H213903   4.136   4.270   4.822  0.1581  1.4428 -1.2744
 4633TIP3   OH213904   5.687   4.618   4.545 -0.0041 -0.1519 -0.1385
 4633TIP3    H113905   5.752   4.551   4.526  0.8861  0.9960 -1.2920
 4633TIP3    H213906   5.652   4.645   4.460 -2.2443 -0.9228  0.4471
 4634TIP3   OH213907   3.721   0.195   1.795  0.2160  0.0110 -0.0473
 4634TIP3    H113908   3.798   0.178   1.741  0.0513 -0.7303 -0.0595
 4634TIP3    H213909   3.752   0.189   1.885 -0.2213 -2.4326  0.0014
 4635TIP3   OH213910   1.665   1.910   3.817 -0.0195  0.5454  0.4106
 4635TIP3    H113911   1.632   1.846   3.754  0.0576  1.0127 -0.1209
 4635TIP3    H213912   1.759   1.895   3.820  0.0946  1.0631 -0.2297
 4636TIP3   OH213913   4.423   0.579   0.976  0.6237  0.1231  0.1590
 4636TIP3    H113914   4.475   0.644   0.928  1.6862 -1.7322 -1.3297
 4636TIP3    H213915   4.435   0.497   0.928 -2.2178 -0.8245  0.8451
 4637TIP3   OH213916   4.264   1.158   3.142  0.4163 -0.4438 -0.1034
 4637TIP3    H113917   4.186   1.185   3.191  0.2214 -0.4439 -0.4074
 4637TIP3    H213918   4.327   1.228   3.156 -0.2258  0.3895 -1.2260
 4638TIP3   OH213919   4.252   5.340   4.317  0.6146 -0.2833 -0.2178
 4638TIP3    H113920   4.344   5.353   4.295  0.1220  0.9151 -1.7691
 4638TIP3    H213921   4.252   5.322   4.412  2.3426  0.7467  0.0179
 4639TIP3   OH213922   0.113   1.573   5.205  0.1106  0.2101 -0.4128
 4639TIP3    H113923   0.106   1.495   5.149 -0.0729  0.3022 -0.5217
 4639TIP3    H213924   0.204   1.600   5.196  0.2481 -0.1596 -0.1454
 4640TIP3   OH213925   2.046   2.194   4.144  0.1296  0.5362 -0.2305
 4640TIP3    H113926   2.081   2.183   4.232  0.5790  0.3832 -0.4273
 4640TIP3    H213927   2.123   2.199   4.088 -0.1737 -0.1529 -0.7106
 4641TIP3   OH213928   1.485   4.943   5.074  0.4641  0.2082 -0.1220
 4641TIP3    H113929   1.552   4.968   5.137  2.4130 -1.0548 -1.5565
 4641TIP3    H213930   1.419   4.896   5.126 -0.1772  2.7470  1.5609
 4642TIP3   OH213931   1.914   5.311   0.608  0.5267  0.0486 -0.1710
 4642TIP3    H113932   1.912   5.276   0.519  0.9787  1.0578 -0.6032
 4642TIP3    H213933   1.945   5.239   0.662  1.2533 -0.2823 -1.0008
 4643TIP3   OH213934   2.886   5.695   0.165  0.2400 -0.3068  0.1566
 4643TIP3    H113935   2.796   5.691   0.133  0.3630 -0.6770 -0.1497
 4643TIP3    H213936   2.932   5.748   0.100  0.2895 -0.2920  0.2033
 4644TIP3   OH213937   3.496   3.774   3.686 -0.5401 -0.6060  0.0716
 4644TIP3    H113938   3.484   3.775   3.781 -2.2864 -1.1802 -0.1026
 4644TIP3    H213939   3.466   3.687   3.659  0.3567 -0.6086 -0.9628
 4645TIP3   OH213940   2.730   0.952   0.485 -0.5731  0.5949 -0.0925
 4645TIP3    H113941   2.657   0.932   0.542 -1.8401  1.7006 -1.2562
 4645TIP3    H213942   2.690   0.982   0.403  1.1672  1.2890 -0.7485
 4646TIP3   OH213943   0.137   5.785   1.502  0.5770 -0.2829 -0.1806
 4646TIP3    H113944   0.075   5.845   1.461  1.2887 -0.6681 -1.9576
 4646TIP3    H213945   0.149   5.716   1.437  0.7336 -1.6943  1.3002
 4647TIP3   OH213946   0.563   5.450   4.392  0.0312  0.2332  0.4166
 4647TIP3    H113947   0.519   5.395   4.456 -0.9802  0.1755 -0.3192
 4647TIP3    H213948   0.602   5.520   4.445 -0.1967 -0.1876  1.1625
 4648TIP3   OH213949   3.298   3.611   2.340 -0.3875 -0.2856 -0.5272
 4648TIP3    H113950   3.235   3.557   2.387 -0.8809 -0.3720 -1.2661
 4648TIP3    H213951   3.245   3.680   2.299  0.0614 -0.0463 -0.7137
 4649TIP3   OH213952   2.701   1.523   4.794  0.0878  0.1492  0.5574
 4649TIP3    H113953   2.633   1.457   4.782 -1.0050  1.4334 -0.7397
 4649TIP3    H213954   2.664   1.603   4.756  1.8373  1.2131  0.9583
 4650TIP3   OH213955   5.737   0.885   1.777 -0.2927 -0.2389 -0.0470
 4650TIP3    H113956   5.694   0.834   1.847 -0.4565  0.9683  0.7650
 4650TIP3    H213957   5.734   0.827   1.701 -1.9663 -0.8095  0.3938
 4651TIP3   OH213958   5.376   1.982   4.616  0.0715 -0.2951 -0.3773
 4651TIP3    H113959   5.399   1.916   4.682  0.0001 -0.6779 -0.7327
 4651TIP3    H213960   5.287   1.959   4.589 -0.2436  0.3896  0.0303
 4652TIP3   OH213961   3.007   2.311   4.762 -0.0272  1.1864 -0.4550
 4652TIP3    H113962   3.041   2.368   4.692 -0.4790  1.1840 -0.6822
 4652TIP3    H213963   2.913   2.310   4.747  0.0616 -0.4803 -1.1029
 4653TIP3   OH213964   3.936   3.997   0.629  0.3767 -0.0289  0.1640
 4653TIP3    H113965   3.844   3.972   0.636  0.6068 -1.3481 -1.1663
 4653TIP3    H213966   3.984   3.925   0.670  0.8484  0.5267  0.6159
 4654TIP3   OH213967   0.604   3.921   4.769  0.4405 -0.3028 -0.0144
 4654TIP3    H113968   0.574   3.943   4.681 -0.7708  1.8255  0.8626
 4654TIP3    H213969   0.540   3.960   4.827  0.2050 -3.1743  1.8643
 4655TIP3   OH213970   4.774   3.913   0.323  0.3033 -0.3025 -0.3244
 4655TIP3    H113971   4.804   4.003   0.337  0.2002 -0.0235 -1.7290
 4655TIP3    H213972   4.801   3.893   0.233 -0.3945 -1.3878 -0.3078
 4656TIP3   OH213973   3.848   2.050   2.782 -0.2131  0.5267 -0.5176
 4656TIP3    H113974   3.816   2.003   2.859 -0.8306 -0.5630 -1.4205
 4656TIP3    H213975   3.831   1.991   2.709  0.6609  1.4107 -1.4619
 4657TIP3   OH213976   4.401   0.925   3.087 -0.8177 -0.3237  0.4717
 4657TIP3    H113977   4.355   0.846   3.117 -0.8137 -0.8050 -0.7626
 4657TIP3    H213978   4.339   0.996   3.103 -0.7595 -0.5255  1.7492
 4658TIP3   OH213979   3.205   3.315   4.292  0.2467 -0.2261  0.1089
 4658TIP3    H113980   3.209   3.375   4.367 -0.2231  0.7309 -0.5965
 4658TIP3    H213981   3.295   3.285   4.280  0.6398  0.9295  0.0355
 4659TIP3   OH213982   6.100   2.986   2.343 -0.6026  0.1530 -0.2749
 4659TIP3    H113983   6.150   2.904   2.343 -0.1457  0.3662 -2.7841
 4659TIP3    H213984   6.015   2.962   2.306 -1.4348  0.3513  1.3959
 4660TIP3   OH213985   5.876   2.413   1.434 -0.6777 -0.4948  0.4623
 4660TIP3    H113986   5.794   2.442   1.394  0.2670  1.0108 -0.4877
 4660TIP3    H213987   5.882   2.320   1.413 -1.4270 -0.2887 -0.7615
 4661TIP3   OH213988   5.460   3.971   1.203 -0.5777  0.1417  0.2130
 4661TIP3    H113989   5.381   3.919   1.222 -0.9768  0.6295 -0.0960
 4661TIP3    H213990   5.471   3.965   1.109  1.5184 -2.4336  0.5111
 4662TIP3   OH213991   5.572   1.884   0.896  0.3847 -0.0769  0.2089
 4662TIP3    H113992   5.652   1.869   0.946  0.1284  0.3794  0.7659
 4662TIP3    H213993   5.600   1.938   0.821  0.9344 -1.5272 -0.6795
 4663TIP3   OH213994   4.875   4.790   0.888  0.8732 -0.1333 -0.1447
 4663TIP3    H113995   4.900   4.718   0.829  0.4498 -0.9852  0.7054
 4663TIP3    H213996   4.781   4.783   0.897  0.7936  0.6821 -0.2279
 4664TIP3   OH213997   3.760   5.604   0.539  0.4696  0.2478  0.2449
 4664TIP3    H113998   3.821   5.545   0.583 -0.9941 -2.1970 -0.8065
 4664TIP3    H213999   3.721   5.654   0.611  3.6367  2.0209  0.9511
 4665TIP3   OH214000   1.512   5.273   0.773  0.4631 -0.0544 -0.2173
 4665TIP3    H114001   1.427   5.292   0.733  0.0989  0.4524  0.7622
 4665TIP3    H214002   1.494   5.201   0.834  0.8954 -0.4565 -0.5596
 4666TIP3   OH214003   2.793   0.366   2.400  0.5255 -0.0104 -0.1116
 4666TIP3    H114004   2.701   0.365   2.429  0.0363 -1.2564 -1.5940
 4666TIP3    H214005   2.843   0.373   2.481 -0.8099 -1.9466  0.9542
 4667TIP3   OH214006   2.573   0.805   0.672  0.0119 -0.2379 -0.0486
 4667TIP3    H114007   2.596   0.728   0.725 -1.4474 -1.1841 -0.6954
 4667TIP3    H214008   2.562   0.876   0.735 -1.8284 -1.3766  1.0090
 4668TIP3   OH214009   4.750   4.480   1.263 -0.0779 -0.8755  0.0163
 4668TIP3    H114010   4.775   4.388   1.260  1.4716 -0.4664 -0.3791
 4668TIP3    H214011   4.816   4.522   1.317  0.1086  0.2452 -1.0274
 4669TIP3   OH214012   4.382   5.593   4.142 -0.4999  0.1749 -0.2926
 4669TIP3    H114013   4.468   5.628   4.163 -1.0689  0.8999  0.9770
 4669TIP3    H214014   4.382   5.583   4.047  0.0430  2.7683 -0.6370
 4670TIP3   OH214015   0.328   4.578   3.383  0.2145 -0.0202  0.3772
 4670TIP3    H114016   0.245   4.590   3.428  0.5498 -0.0515  1.0122
 4670TIP3    H214017   0.375   4.660   3.397 -0.3688  0.6771 -1.4293
 4671TIP3   OH214018   0.943   3.303   1.914 -0.0495 -0.0623  0.4819
 4671TIP3    H114019   0.915   3.357   1.839  0.0961 -0.9896 -0.2551
 4671TIP3    H214020   0.861   3.281   1.959  0.0160  2.9246  2.3857
 4672TIP3   OH214021   2.748   4.201   2.856 -0.4020  0.0908  0.4003
 4672TIP3    H114022   2.751   4.252   2.775 -1.4026 -1.8552 -0.9208
 4672TIP3    H214023   2.833   4.218   2.898 -1.2298  4.0726  0.8971
 4673TIP3   OH214024   5.110   0.940   0.182 -0.1772  0.5878  0.3136
 4673TIP3    H114025   5.095   0.849   0.205  0.5148  0.1806 -0.7499
 4673TIP3    H214026   5.149   0.979   0.260  2.9147 -0.9351 -0.3235
 4674TIP3   OH214027   5.855   5.850   1.105  0.2589  0.1099  0.4224
 4674TIP3    H114028   5.864   5.925   1.163 -1.0949 -0.0913  0.9357
 4674TIP3    H214029   5.761   5.845   1.087  0.5386 -0.4317 -0.9937
 4675TIP3   OH214030   0.659   2.017   1.952 -0.1843  0.2389 -0.0429
 4675TIP3    H114031   0.627   2.009   1.863 -0.9245  1.7462  0.0588
 4675TIP3    H214032   0.728   1.950   1.959 -0.5953 -0.3771 -1.4957
 4676TIP3   OH214033   1.471   5.322   2.356  0.1027  0.2792 -0.0779
 4676TIP3    H114034   1.450   5.300   2.447  1.2992  1.7163  0.5926
 4676TIP3    H214035   1.420   5.400   2.338 -1.7187 -1.1195 -1.3902
 4677TIP3   OH214036   1.718   4.859   1.033 -0.2678  0.4832  0.2241
 4677TIP3    H114037   1.750   4.932   1.086 -0.5074 -0.2569  1.4334
 4677TIP3    H214038   1.795   4.830   0.984  0.1530  0.7035  0.7405
 4678TIP3   OH214039   0.613   3.728   2.462 -1.2372 -0.1775  0.3837
 4678TIP3    H114040   0.570   3.733   2.377  1.1676 -0.4500 -0.9289
 4678TIP3    H214041   0.633   3.636   2.475  0.4024  0.0960  0.1168
 4679TIP3   OH214042   6.095   2.004   5.165 -0.1333  0.0057 -0.0542
 4679TIP3    H114043   6.026   2.017   5.230 -0.1424 -1.7322  0.3360
 4679TIP3    H214044   6.063   2.049   5.087 -1.3657 -0.1118  0.3560
 4680TIP3   OH214045   2.445   2.388   4.247  0.0239  0.3794  0.1664
 4680TIP3    H114046   2.482   2.450   4.311  1.3234  0.9357 -1.0742
 4680TIP3    H214047   2.469   2.424   4.162  2.4618 -2.6741 -0.6401
 4681TIP3   OH214048   3.171   0.915   4.233 -0.0054 -0.0204  0.2179
 4681TIP3    H114049   3.105   0.894   4.299 -2.2991  3.0308 -0.8579
 4681TIP3    H214050   3.172   0.839   4.175 -0.3167 -1.3979  1.9267
 4682TIP3   OH214051   4.054   4.633   1.365 -0.6827 -0.2030  0.1264
 4682TIP3    H114052   4.134   4.580   1.360 -0.5166  0.1341 -2.2086
 4682TIP3    H214053   3.999   4.588   1.428  0.0764 -2.3020 -0.6021
 4683TIP3   OH214054   5.727   4.244   2.275 -0.2325 -0.2308  0.5718
 4683TIP3    H114055   5.653   4.194   2.311 -0.3981  0.5209  1.2955
 4683TIP3    H214056   5.718   4.234   2.180  0.0138 -1.9545  0.7003
 4684TIP3   OH214057   5.119   2.917   1.632  0.4761 -0.3672  0.2910
 4684TIP3    H114058   5.178   2.912   1.557  1.4410  1.7808  0.8303
 4684TIP3    H214059   5.068   2.997   1.617  1.4747  0.7460  2.4075
 4685TIP3   OH214060   0.381   4.202   4.156  0.1829  0.4000  0.4093
 4685TIP3    H114061   0.389   4.111   4.127  2.1129  1.0212 -1.2177
 4685TIP3    H214062   0.318   4.241   4.096 -0.4289  0.2363  0.9304
 4686TIP3   OH214063   1.165   4.283   3.119  0.2934 -0.4083 -0.0029
 4686TIP3    H114064   1.151   4.342   3.193  0.0303 -0.3718 -0.0812
 4686TIP3    H214065   1.230   4.220   3.151 -0.2004 -0.7050  0.4391
 4687TIP3   OH214066   2.133   2.943   1.347  0.7036 -0.3160  0.7951
 4687TIP3    H114067   2.190   2.971   1.419  0.9266  0.1934  0.4244
 4687TIP3    H214068   2.137   3.014   1.284 -0.0611 -0.4426  0.5953
 4688TIP3   OH214069   4.319   1.113   2.855  0.4226  0.1447  0.6588
 4688TIP3    H114070   4.302   1.207   2.850 -1.9184 -0.0078  3.4363
 4688TIP3    H214071   4.283   1.086   2.939  0.1312 -3.4463 -0.4494
 4689TIP3   OH214072   1.985   5.605   2.232 -0.0115  0.0933  0.1960
 4689TIP3    H114073   1.995   5.644   2.145  0.7541  0.2137  0.3275
 4689TIP3    H214074   1.910   5.651   2.270  0.5629  1.1073  0.1560
 4690TIP3   OH214075   6.312   5.706   4.713  0.6820  0.3459  0.5270
 4690TIP3    H114076   6.242   5.768   4.694 -0.8175 -1.1625  0.8981
 4690TIP3    H214077   6.327   5.661   4.630  0.9293  0.3846  0.5501
 4691TIP3   OH214078   4.109   0.094   3.910  0.3040  0.4427  0.1331
 4691TIP3    H114079   4.128   0.092   4.003  0.2882 -0.6107  0.1182
 4691TIP3    H214080   4.014   0.106   3.904  0.3532  0.9254  0.2362
 4692TIP3   OH214081   1.741   3.532   5.065 -0.2087  0.0052  0.0567
 4692TIP3    H114082   1.706   3.494   5.145 -1.4812 -0.6251 -0.7522
 4692TIP3    H214083   1.835   3.542   5.082 -0.3231 -0.8292  1.3381
 4693TIP3   OH214084   1.724   0.989   0.198 -0.2339  0.0466 -0.1060
 4693TIP3    H114085   1.642   0.952   0.230 -2.7705  1.8942 -3.7292
 4693TIP3    H214086   1.721   1.081   0.225 -0.7349  0.7603 -2.4003
 4694TIP3   OH214087   6.071   1.716   1.851  0.2830 -0.3871 -0.4987
 4694TIP3    H114088   5.976   1.725   1.840  0.0171 -1.1522  0.9596
 4694TIP3    H214089   6.081   1.663   1.930  1.9634  2.0894  1.0614
 4695TIP3   OH214090   2.599   0.101   2.510  0.1061  0.1360 -0.1824
 4695TIP3    H114091   2.582   0.186   2.551  0.7275 -0.1052  0.6020
 4695TIP3    H214092   2.527   0.089   2.449 -1.7099 -0.1525  1.9022
 4696TIP3   OH214093   1.058   3.776   3.714 -0.3217  0.1583  1.2304
 4696TIP3    H114094   1.026   3.851   3.664 -0.2175  0.7919  2.0998
 4696TIP3    H214095   1.095   3.814   3.794  1.6422 -0.6234  0.7607
 4697TIP3   OH214096   1.121   1.168   4.764 -0.4463 -0.5273 -0.0052
 4697TIP3    H114097   1.055   1.194   4.700  2.0446  0.0842 -2.5360
 4697TIP3    H214098   1.146   1.250   4.808  0.4185 -0.2494 -0.9554
 4698TIP3   OH214099   4.739   1.470   2.648 -0.1617 -0.3245  0.1525
 4698TIP3    H114100   4.722   1.478   2.741  1.3753  1.4026  0.3376
 4698TIP3    H214101   4.654   1.484   2.606 -0.4387  1.3768  1.2166
 4699TIP3   OH214102   5.750   3.884   1.889  0.6833  0.5739 -0.3462
 4699TIP3    H114103   5.772   3.907   1.979  0.8735  1.6024 -0.6417
 4699TIP3    H214104   5.763   3.965   1.839  0.8613 -0.0497 -1.3500
 4700TIP3   OH214105   5.158   2.869   0.760 -0.4182 -0.1973  0.6154
 4700TIP3    H114106   5.094   2.797   0.761  0.2771 -0.8256  1.5294
 4700TIP3    H214107   5.118   2.938   0.813 -0.5906 -0.3547  0.6918
 4701TIP3   OH214108   6.193   1.672   1.178  0.7155 -0.1131 -0.4424
 4701TIP3    H114109   6.213   1.641   1.089 -2.2475 -0.9021 -0.9623
 4701TIP3    H214110   6.189   1.591   1.230  0.2762  0.1318 -0.0968
 4702TIP3   OH214111   1.124   3.276   5.022 -0.4348 -0.4870 -0.3742
 4702TIP3    H114112   1.119   3.323   5.105  1.6226 -1.7170  0.5369
 4702TIP3    H214113   1.184   3.328   4.968  0.4611 -1.0932 -0.0025
 4703TIP3   OH214114   4.196   5.277   5.147  0.4588  0.0276  0.5220
 4703TIP3    H114115   4.173   5.215   5.078  1.6404 -1.6688  1.5641
 4703TIP3    H214116   4.291   5.283   5.144  0.3681  2.0082  0.3310
 4704TIP3   OH214117   3.245   4.186   5.019  0.3767  0.4450 -0.5167
 4704TIP3    H114118   3.180   4.138   5.071  0.8514 -0.2841 -0.5779
 4704TIP3    H214119   3.196   4.261   4.984 -0.1394  0.5429  0.3583
 4705TIP3   OH214120   2.418   5.958   3.666  0.4277  0.1744 -0.0358
 4705TIP3    H114121   2.503   5.978   3.705  0.5075  0.3522 -0.2993
 4705TIP3    H214122   2.417   5.863   3.658  0.8980  0.2247 -0.6984
 4706TIP3   OH214123   4.615   0.301   3.160  0.0121 -0.2444  0.3906
 4706TIP3    H114124   4.590   0.251   3.082  0.8422  0.8215 -0.5935
 4706TIP3    H214125   4.677   0.367   3.128 -0.0254  0.5607  1.8708
 4707TIP3   OH214126   5.390   5.881   0.328  0.5237  0.2446  0.1478
 4707TIP3    H114127   5.464   5.822   0.343  0.0957 -0.6949 -1.2061
 4707TIP3    H214128   5.317   5.823   0.309 -0.1448  1.1942 -0.2416
 4708TIP3   OH214129   2.037   3.939   0.837  0.4596 -0.5442 -0.0839
 4708TIP3    H114130   2.008   3.856   0.800  1.0225 -1.5496  1.6541
 4708TIP3    H214131   1.978   3.956   0.910 -0.4109  1.2312 -1.1316
 4709TIP3   OH214132   3.867   2.259   1.305 -0.6350  0.0183 -0.0667
 4709TIP3    H114133   3.832   2.346   1.290  0.5155  0.5819  0.3527
 4709TIP3    H214134   3.828   2.231   1.388 -1.2402  0.0052 -0.3556
 4710TIP3   OH214135   0.951   1.306   0.877 -0.4216 -0.5718 -0.3214
 4710TIP3    H114136   0.953   1.213   0.898  0.7678 -0.5079 -0.0935
 4710TIP3    H214137   1.005   1.347   0.944  1.4796 -0.0845 -2.0530
 4711TIP3   OH214138   1.834   0.831   4.172  0.3529 -0.1530 -0.0919
 4711TIP3    H114139   1.786   0.776   4.234 -2.1445  1.1106 -0.7784
 4711TIP3    H214140   1.853   0.911   4.221 -0.2306  0.2231 -0.4696
 4712TIP3   OH214141   2.395   2.076   1.775 -0.3144 -0.1936  0.0322
 4712TIP3    H114142   2.483   2.114   1.780 -0.5001  0.1283  1.2687
 4712TIP3    H214143   2.370   2.063   1.866 -1.0658 -1.4353 -0.3247
 4713TIP3   OH214144   1.743   2.656   1.287 -0.2115  0.4369 -0.6865
 4713TIP3    H114145   1.672   2.669   1.350  0.8670 -0.5299  0.8116
 4713TIP3    H214146   1.700   2.626   1.208 -1.5154  0.3025  0.0494
 4714TIP3   OH214147   6.180   1.567   0.342 -0.2834  0.0734  0.0007
 4714TIP3    H114148   6.205   1.651   0.302 -1.0176  0.0945 -0.4296
 4714TIP3    H214149   6.088   1.556   0.319  0.2943 -1.8253 -1.7036
 4715TIP3   OH214150   1.919   0.009   2.590 -0.2030 -0.4266  0.1491
 4715TIP3    H114151   2.011   0.025   2.611 -0.1551  0.5137 -0.7220
 4715TIP3    H214152   1.870   0.063   2.651 -0.1939 -1.0032  0.6796
 4716TIP3   OH214153   3.187   2.873   4.453 -0.2187 -0.3812 -0.3266
 4716TIP3    H114154   3.159   2.951   4.501  1.9166 -0.2924  0.9084
 4716TIP3    H214155   3.283   2.875   4.458 -0.0297 -1.8715 -2.2717
 4717TIP3   OH214156   2.361   1.939   3.524 -0.3390  0.9821  0.1464
 4717TIP3    H114157   2.384   1.944   3.617  2.0568  0.1611 -0.3508
 4717TIP3    H214158   2.386   2.024   3.489 -1.0774  1.2257  0.1804
 4718TIP3   OH214159   0.400   1.268   1.221  0.3045 -0.2552  0.2498
 4718TIP3    H114160   0.336   1.239   1.156  1.3105 -0.9396 -0.4552
 4718TIP3    H214161   0.358   1.343   1.264 -0.1998  0.4910 -1.4827
 4719TIP3   OH214162   0.543   3.921   3.553  0.6596 -0.1617  0.4281
 4719TIP3    H114163   0.487   3.953   3.482  0.4232 -2.7809 -0.6788
 4719TIP3    H214164   0.573   3.835   3.524  3.7587  0.2876  1.8308
 4720TIP3   OH214165   3.337   2.491   4.354  0.1128 -0.3440  0.7164
 4720TIP3    H114166   3.410   2.504   4.293  0.0731 -2.4962  0.1495
 4720TIP3    H214167   3.297   2.408   4.327 -2.8579  0.9370  0.7263
 4721TIP3   OH214168   0.588   5.666   4.575  0.3986 -0.2173 -0.8044
 4721TIP3    H114169   0.622   5.638   4.660 -3.3680 -0.2492  0.9042
 4721TIP3    H214170   0.596   5.761   4.577  0.6022 -0.2380 -0.5566
 4722TIP3   OH214171   3.133   0.301   4.176 -0.0148  0.2197  0.3475
 4722TIP3    H114172   3.222   0.266   4.172  0.0025  0.2987 -0.0160
 4722TIP3    H214173   3.111   0.300   4.269  0.3793  0.2293  0.4437
 4723TIP3   OH214174   4.561   4.781   2.178  0.4678  0.2328 -0.3624
 4723TIP3    H114175   4.510   4.738   2.109  1.5537 -2.5931  0.4725
 4723TIP3    H214176   4.650   4.784   2.144  0.6744  0.5466  0.1892
 4724TIP3   OH214177   5.660   4.220   2.980 -0.1321  0.6893 -0.1248
 4724TIP3    H114178   5.748   4.239   3.011  0.5555  1.1808 -2.2177
 4724TIP3    H214179   5.610   4.201   3.059  1.9502 -0.0792  1.0865
 4725TIP3   OH214180   5.037   1.415   2.823  0.2724  0.0046 -0.3529
 4725TIP3    H114181   5.051   1.488   2.763  0.1058  0.6128  0.3335
 4725TIP3    H214182   5.088   1.437   2.901  0.9079 -1.0206 -0.4527
 4726TIP3   OH214183   0.921   1.072  -0.003 -0.2910 -0.2778  0.3950
 4726TIP3    H114184   0.995   1.042   0.050 -0.2459 -0.1729  0.3903
 4726TIP3    H214185   0.899   1.158   0.033 -0.3094 -0.2396  0.2915
 4727TIP3   OH214186   0.842   1.372   3.347 -0.1926  0.1923  0.1923
 4727TIP3    H114187   0.854   1.325   3.429  0.8780  2.1838  1.2715
 4727TIP3    H214188   0.760   1.420   3.358 -0.3665 -0.0284 -0.1493
 4728TIP3   OH214189   4.527   1.651   0.427  0.6045  0.4073 -0.0183
 4728TIP3    H114190   4.475   1.576   0.456  0.6610 -0.2843 -1.6073
 4728TIP3    H214191   4.571   1.682   0.506  0.1510 -0.8964  0.7733
 4729TIP3   OH214192   3.074   5.615   3.067 -0.2545 -0.4259 -0.1810
 4729TIP3    H114193   3.138   5.676   3.105 -1.7860  0.5048  1.0337
 4729TIP3    H214194   3.064   5.645   2.976 -2.7209  2.8242  0.9752
 4730TIP3   OH214195   4.993   4.557   2.901 -0.8379 -0.7386  0.0893
 4730TIP3    H114196   5.026   4.506   2.827 -1.7507 -1.4700  0.1711
 4730TIP3    H214197   4.899   4.538   2.904 -0.8745 -0.4801  1.2412
 4731TIP3   OH214198   6.140   5.183   2.006 -0.6788 -0.2799 -0.2877
 4731TIP3    H114199   6.111   5.094   1.982  0.7724 -0.2236 -2.5247
 4731TIP3    H214200   6.083   5.241   1.956 -0.1680 -0.0337 -0.5931
 4732TIP3   OH214201   5.743   0.894   4.620 -0.4172  0.1456  0.2788
 4732TIP3    H114202   5.658   0.860   4.650 -1.2083  0.6756 -1.2823
 4732TIP3    H214203   5.739   0.888   4.525  1.3480  0.1145  0.1777
 4733TIP3   OH214204   3.670   5.149   0.800 -0.2566  0.2913  0.3500
 4733TIP3    H114205   3.711   5.138   0.886 -1.9873 -1.6730  0.9945
 4733TIP3    H214206   3.742   5.138   0.738  0.6973 -0.1152  1.4846
 4734TIP3   OH214207   3.500   3.052   1.465 -0.6870  0.2772 -0.1528
 4734TIP3    H114208   3.578   3.090   1.506  0.0843 -0.5852 -0.7569
 4734TIP3    H214209   3.522   3.047   1.372 -0.8385 -1.3687 -0.1361
 4735TIP3   OH214210   4.612   3.393   3.450 -0.3942  0.1826  0.4169
 4735TIP3    H114211   4.536   3.450   3.438 -1.3910 -1.1473  0.1550
 4735TIP3    H214212   4.575   3.305   3.462  1.1179 -0.5753 -0.1617
 4736TIP3   OH214213   1.549   5.501   0.913 -0.2383  0.1116  0.2818
 4736TIP3    H114214   1.559   5.454   0.830 -2.2259  0.0442  0.0366
 4736TIP3    H214215   1.576   5.591   0.893 -0.6015  0.0709 -0.4192
 4737TIP3   OH214216   2.998   3.428   3.774 -0.0315  0.1050  0.0260
 4737TIP3    H114217   3.013   3.489   3.702 -0.3070  0.5147  0.3094
 4737TIP3    H214218   2.920   3.378   3.749 -1.3511  1.6164  0.9067
 4738TIP3   OH214219   5.084   2.582   0.711  0.0616  0.5309 -0.0853
 4738TIP3    H114220   5.018   2.633   0.665  1.2144  2.0126 -0.1604
 4738TIP3    H214221   5.085   2.498   0.666 -0.0466  1.3447 -1.6611
 4739TIP3   OH214222   1.943   3.938   0.330 -0.1641  0.5450 -0.0068
 4739TIP3    H114223   1.873   3.937   0.396 -2.4146 -1.2891 -2.2520
 4739TIP3    H214224   1.909   3.993   0.260  1.1697  0.5296 -0.6957
 4740TIP3   OH214225   2.366   6.005   2.160 -1.0268  0.4477 -0.3044
 4740TIP3    H114226   2.419   5.928   2.180 -3.2987 -1.5150 -1.3232
 4740TIP3    H214227   2.389   6.027   2.070 -0.1332  1.2440  0.0939
 4741TIP3   OH214228   2.549   5.575   4.566  0.2414  0.0631  0.6660
 4741TIP3    H114229   2.538   5.591   4.660 -0.2714 -1.8489  0.9623
 4741TIP3    H214230   2.597   5.493   4.560 -0.7125 -0.4436 -0.7260
 4742TIP3   OH214231   6.196   5.835   1.952  0.0733  0.2762 -0.6499
 4742TIP3    H114232   6.198   5.746   1.917 -0.9125 -0.1753  0.3716
 4742TIP3    H214233   6.119   5.875   1.911 -0.3806  0.1386  0.0475
 4743TIP3   OH214234   3.346   3.321   2.380  0.2740  0.1101 -0.5378
 4743TIP3    H114235   3.385   3.379   2.446  1.3135 -0.7863 -0.3403
 4743TIP3    H214236   3.360   3.233   2.414  0.0291 -0.3316 -1.5445
 4744TIP3   OH214237   4.517   4.507   2.009 -0.2638 -0.0779 -0.2183
 4744TIP3    H114238   4.440   4.555   2.038  0.1363  0.2121  0.3943
 4744TIP3    H214239   4.547   4.552   1.930  0.7517  1.3948  0.9522
 4745TIP3   OH214240   0.690   3.499   3.246  0.3938  0.2920  0.3985
 4745TIP3    H114241   0.735   3.501   3.161 -1.4774  0.4758 -0.6590
 4745TIP3    H214242   0.707   3.411   3.280  1.1853  0.2219 -0.1415
 4746TIP3   OH214243   0.643   0.749   5.070 -0.7387  0.8473 -0.0115
 4746TIP3    H114244   0.603   0.694   5.003 -2.4916  2.8048 -0.6492
 4746TIP3    H214245   0.669   0.829   5.024  2.2357  0.4833  0.7841
 4747TIP3   OH214246   2.247   0.272   2.628 -0.2082  0.2826 -0.0135
 4747TIP3    H114247   2.257   0.204   2.561  0.2847  0.2731  0.0632
 4747TIP3    H214248   2.180   0.237   2.687 -1.6625  0.9077 -1.2443
 4748TIP3   OH214249   5.307   4.606   4.780  0.0903  0.6635  0.0077
 4748TIP3    H114250   5.269   4.693   4.788 -1.7374 -0.0838 -0.0088
 4748TIP3    H214251   5.254   4.563   4.712  0.7011 -0.5765  0.2773
 4749TIP3   OH214252   2.615   4.425   2.357 -0.5468  0.0599  0.3082
 4749TIP3    H114253   2.677   4.363   2.318 -0.3884  0.6448 -0.3960
 4749TIP3    H214254   2.553   4.444   2.287  0.6398  2.3243 -0.2175
 4750TIP3   OH214255   2.562   4.006   4.554  0.1413 -0.2527  0.1049
 4750TIP3    H114256   2.540   4.089   4.512 -0.7001 -0.8696 -0.7265
 4750TIP3    H214257   2.655   4.011   4.572  0.2994  0.4652 -0.8801
 4751TIP3   OH214258   2.716   5.324   0.172 -0.2906 -0.1925 -0.0955
 4751TIP3    H114259   2.657   5.255   0.203  1.1682 -1.3678  0.1644
 4751TIP3    H214260   2.704   5.395   0.235  0.7047 -1.5555  1.7508
 4752TIP3   OH214261   4.687   1.764   0.608  0.0988  0.2332  0.1400
 4752TIP3    H114262   4.748   1.784   0.536  1.6273  3.0374  1.9986
 4752TIP3    H214263   4.727   1.689   0.652 -0.8572 -1.5254 -1.8140
 4753TIP3   OH214264   2.776   4.543   1.451  0.1199  0.2619  0.4716
 4753TIP3    H114265   2.763   4.483   1.523 -1.1911 -1.0538 -0.7987
 4753TIP3    H214266   2.863   4.581   1.466  1.1030 -2.1309  1.1991
 4754TIP3   OH214267   3.262   1.784   2.418  0.2319 -0.0124  0.3503
 4754TIP3    H114268   3.166   1.776   2.412  0.3224 -0.0602 -2.3469
 4754TIP3    H214269   3.276   1.865   2.467 -1.1653 -0.3885  1.4253
 4755TIP3   OH214270   2.826   4.669   0.120 -0.1850  0.2569  0.0253
 4755TIP3    H114271   2.910   4.625   0.111 -0.4414 -0.8268  2.3107
 4755TIP3    H214272   2.814   4.715   0.037  2.9251  0.9653 -0.1344
 4756TIP3   OH214273   6.165   3.619   0.353 -0.0625  0.1478 -0.7623
 4756TIP3    H114274   6.246   3.598   0.399  1.3968 -0.5531 -3.4200
 4756TIP3    H214275   6.129   3.534   0.326 -0.9215  0.5215 -0.8543
 4757TIP3   OH214276   3.760   5.029   2.574  0.3028 -0.5089  0.1046
 4757TIP3    H114277   3.824   5.073   2.630  0.0860 -1.4388  1.1139
 4757TIP3    H214278   3.691   5.000   2.634  0.4979 -2.3062 -0.4693
 4758TIP3   OH214279   3.486   0.762   1.027 -0.3883  0.6150  0.4411
 4758TIP3    H114280   3.537   0.844   1.031  0.2519  0.1933  1.4595
 4758TIP3    H214281   3.536   0.701   1.081 -0.5906 -0.6099 -0.7214
 4759TIP3   OH214282   1.020   0.814   4.009 -0.0073  0.3399 -0.1312
 4759TIP3    H114283   1.024   0.764   4.090  0.1390 -0.6153 -0.7016
 4759TIP3    H214284   0.941   0.868   4.017  0.3949  0.7914  0.9266
 4760TIP3   OH214285   5.197   2.557   4.101 -0.0588 -0.2778 -0.3198
 4760TIP3    H114286   5.271   2.612   4.128 -0.3653  0.1750 -0.3919
 4760TIP3    H214287   5.238   2.480   4.060  0.4388 -1.4781  2.2655
 4761TIP3   OH214288   3.126   2.104   4.613  0.0100  0.7106 -0.2951
 4761TIP3    H114289   3.159   2.107   4.524  2.2321  1.2496  0.4970
 4761TIP3    H214290   3.099   2.194   4.632 -2.1195  0.2717 -0.9465
 4762TIP3   OH214291   4.309   1.093   4.098  0.0188  0.0147  0.5737
 4762TIP3    H114292   4.369   1.158   4.132  2.5353  0.2940 -3.7337
 4762TIP3    H214293   4.358   1.010   4.101 -0.6772 -0.4297  0.1632
 4763TIP3   OH214294   1.939   4.390   3.588  0.1515  0.1482  0.1510
 4763TIP3    H114295   1.934   4.295   3.576  0.1553  0.0401  0.9393
 4763TIP3    H214296   1.859   4.423   3.545  2.5614  0.3770 -4.9058
 4764TIP3   OH214297   0.625   4.341   4.090  0.3025 -0.1333 -0.2413
 4764TIP3    H114298   0.560   4.283   4.131  1.4330 -0.6803  0.8442
 4764TIP3    H214299   0.670   4.284   4.027 -0.2041  0.2225 -0.9318
 4765TIP3   OH214300   4.772   3.604   3.104 -0.2687  0.8922 -0.2990
 4765TIP3    H114301   4.809   3.530   3.153 -0.2179  0.3804 -1.1059
 4765TIP3    H214302   4.755   3.670   3.171  1.3713  0.8441  0.2050
 4766TIP3   OH214303   3.133   2.644   4.594 -0.8330  0.5974 -0.8547
 4766TIP3    H114304   3.121   2.690   4.677  4.1120  0.7988  0.0585
 4766TIP3    H214305   3.127   2.713   4.528 -0.0609  1.3640 -0.1548
 4767TIP3   OH214306   4.439   0.858  -0.014  0.0354  0.2812  0.0975
 4767TIP3    H114307   4.408   0.938   0.028 -1.6007 -0.4015  0.3043
 4767TIP3    H214308   4.511   0.827   0.042 -0.9235  0.3355  1.4277
 4768TIP3   OH214309   1.436   5.080   3.711  0.1239 -0.2990 -0.0094
 4768TIP3    H114310   1.379   5.049   3.641 -0.8306 -2.6349  1.6845
 4768TIP3    H214311   1.442   5.007   3.772  1.1696  1.5111  2.2207
 4769TIP3   OH214312   4.244   0.505   4.001 -0.3421 -0.0182  0.0940
 4769TIP3    H114313   4.279   0.428   4.047 -0.1927  0.3040  0.5209
 4769TIP3    H214314   4.223   0.472   3.913  1.5604 -0.1024 -0.3768
 4770TIP3   OH214315   1.498   4.411   4.318  0.0543  0.3466 -0.1421
 4770TIP3    H114316   1.458   4.364   4.245  1.4431 -1.1009 -0.0152
 4770TIP3    H214317   1.511   4.345   4.386  4.6026  0.0609 -0.9725
 4771TIP3   OH214318   1.940   0.249   3.241 -0.3238  0.5097  0.3444
 4771TIP3    H114319   1.988   0.177   3.281  0.1331  1.1561  0.9948
 4771TIP3    H214320   1.849   0.233   3.264 -0.0512  0.9851  1.8839
 4772TIP3   OH214321   5.865   0.476   4.012  0.3211 -0.7111 -0.0442
 4772TIP3    H114322   5.923   0.514   4.078 -0.0662  1.5583 -0.9183
 4772TIP3    H214323   5.777   0.485   4.049  0.0522  1.0112 -0.9746
 4773TIP3   OH214324   4.258   0.573   1.410 -0.0520 -0.8530  0.2287
 4773TIP3    H114325   4.226   0.608   1.493  1.6905  1.3118  0.0755
 4773TIP3    H214326   4.321   0.506   1.435  2.7740  1.8450  0.8905
 4774TIP3   OH214327   0.768   0.294   2.765 -0.0334 -0.0012 -0.2840
 4774TIP3    H114328   0.855   0.269   2.797  0.2879  1.5282  0.1144
 4774TIP3    H214329   0.782   0.379   2.724 -1.3177  0.1760 -0.3687
 4775TIP3   OH214330   3.246   5.241   4.308 -0.0998 -0.3797  0.0396
 4775TIP3    H114331   3.215   5.154   4.332 -2.2924  0.1516 -0.6733
 4775TIP3    H214332   3.303   5.227   4.233 -1.7572 -1.0894 -1.1356
 4776TIP3   OH214333   2.840   0.283   3.537 -0.0635 -0.2747 -0.1634
 4776TIP3    H114334   2.905   0.264   3.468 -0.9646  0.9764 -1.4195
 4776TIP3    H214335   2.825   0.199   3.580  0.1950 -1.2076 -1.8144
 4777TIP3   OH214336   0.779   4.417   0.165  0.3814 -0.0141  0.0299
 4777TIP3    H114337   0.739   4.331   0.180  0.8053 -0.0777  0.8852
 4777TIP3    H214338   0.870   4.405   0.191  0.1126  1.0830  1.6624
 4778TIP3   OH214339   6.255   0.144   0.906  0.1427  0.4453  0.2597
 4778TIP3    H114340   6.161   0.153   0.921 -0.2205 -1.0626 -0.8091
 4778TIP3    H214341   6.294   0.162   0.991 -1.3544 -1.6943  1.5122
 4779TIP3   OH214342   3.781   2.783   2.146  0.4354  0.1182 -0.1667
 4779TIP3    H114343   3.870   2.751   2.128 -0.1137 -0.7412 -1.4928
 4779TIP3    H214344   3.729   2.703   2.157  0.0926  0.6155  2.1454
 4780TIP3   OH214345   5.219   4.295   2.150 -0.8186  0.2808  0.5717
 4780TIP3    H114346   5.234   4.388   2.165  0.2075  0.1820  0.2855
 4780TIP3    H214347   5.249   4.280   2.061 -1.7116 -0.1772  0.3452
 4781TIP3   OH214348   1.034   4.373   4.993  0.3594 -0.0174 -0.1636
 4781TIP3    H114349   0.965   4.334   5.046 -1.4224 -0.8394 -2.8991
 4781TIP3    H214350   1.000   4.458   4.967  2.4378  1.6913  2.2275
 4782TIP3   OH214351   0.535   1.919   2.795  0.7000  0.6994 -0.0310
 4782TIP3    H114352   0.539   2.015   2.793  0.0171  0.7481  0.6027
 4782TIP3    H214353   0.616   1.893   2.840  0.8008  0.9881 -0.0412
 4783TIP3   OH214354   5.434   2.387   1.660 -0.4471  0.6350 -0.4602
 4783TIP3    H114355   5.481   2.336   1.594  0.9457 -0.4187  1.2594
 4783TIP3    H214356   5.359   2.424   1.613  0.4513 -0.1039 -2.5918
 4784TIP3   OH214357   5.233   0.040   1.967 -0.5566 -0.1811  0.5358
 4784TIP3    H114358   5.282   0.016   1.888 -0.0420 -0.8139  1.0373
 4784TIP3    H214359   5.267  -0.018   2.035 -1.0232  0.3297  1.2193
 4785TIP3   OH214360   1.461   3.981   5.046  0.4713 -0.6581  0.2457
 4785TIP3    H114361   1.531   4.027   4.998  0.7202 -0.7801  0.4901
 4785TIP3    H214362   1.381   4.025   5.018  0.6607 -0.4042  0.0901
 4786TIP3   OH214363   3.548   2.801   2.709  0.0567  0.0553 -0.5704
 4786TIP3    H114364   3.471   2.754   2.677 -0.5433  0.3741  0.3623
 4786TIP3    H214365   3.544   2.790   2.804 -0.5822  2.6878 -0.2222
 4787TIP3   OH214366   3.749   0.324   4.213  0.0206 -0.1666  0.1098
 4787TIP3    H114367   3.836   0.286   4.202 -0.1069 -0.3696 -0.2124
 4787TIP3    H214368   3.695   0.280   4.147 -0.5231 -0.6501  0.8599
 4788TIP3   OH214369   1.679   5.773   5.016  0.0664  0.4161 -0.0905
 4788TIP3    H114370   1.730   5.752   5.094 -2.0555 -0.4932  1.1339
 4788TIP3    H214371   1.722   5.725   4.945  0.7180 -0.5725  0.9480
 4789TIP3   OH214372   2.184   5.418   1.256  0.0545 -0.5674 -1.0558
 4789TIP3    H114373   2.120   5.467   1.308 -0.4447  0.5568 -2.6779
 4789TIP3    H214374   2.239   5.374   1.322 -1.4558 -0.3883  0.3914
 4790TIP3   OH214375   4.478   0.168   4.060 -0.4103 -0.2967  0.3030
 4790TIP3    H114376   4.455   0.077   4.041  1.0503 -0.4103 -1.1800
 4790TIP3    H214377   4.398   0.207   4.093 -1.0016 -2.1770  1.1898
 4791TIP3   OH214378  -0.001   4.496   2.414 -0.1233 -0.2954 -0.5401
 4791TIP3    H114379   0.041   4.582   2.422  1.0110 -0.3272 -4.1674
 4791TIP3    H214380   0.072   4.434   2.410 -0.8791 -1.3122  0.6740
 4792TIP3   OH214381   4.929   0.668   4.020 -0.0099  0.6984  0.0742
 4792TIP3    H114382   5.000   0.609   3.994  0.6038  1.7541 -0.7357
 4792TIP3    H214383   4.902   0.710   3.938 -0.4225  1.5330  0.6258
 4793TIP3   OH214384   4.818   2.706   2.520 -0.1180  0.4310 -0.4887
 4793TIP3    H114385   4.851   2.747   2.600  1.7964  0.7443 -1.3848
 4793TIP3    H214386   4.886   2.724   2.454 -1.5862  0.0926 -2.1598
 4794TIP3   OH214387   1.974   5.098   0.989  0.4185 -0.1344  0.0518
 4794TIP3    H114388   1.980   5.041   0.913 -2.0627 -0.9247  0.3493
 4794TIP3    H214389   2.051   5.154   0.983  0.1670  0.0806 -3.2458
 4795TIP3   OH214390   5.973   5.149   3.883  0.1167  0.2164 -0.0620
 4795TIP3    H114391   5.899   5.095   3.857  0.3277 -0.5500  0.8677
 4795TIP3    H214392   5.952   5.178   3.972  0.5092  0.7519 -0.1395
 4796TIP3   OH214393   4.532   4.921   4.468 -0.6469  0.3004 -0.1371
 4796TIP3    H114394   4.512   5.002   4.514 -1.1265  0.0657  0.0750
 4796TIP3    H214395   4.456   4.866   4.482  0.0450 -0.5279  0.4916
 4797TIP3   OH214396   4.238   2.235   1.957  0.7377 -0.1580 -0.0964
 4797TIP3    H114397   4.207   2.243   2.047 -1.0114 -0.9454 -0.5855
 4797TIP3    H214398   4.331   2.215   1.965  0.1978 -2.3482  1.6488
 4798TIP3   OH214399   5.106   0.427   1.368  0.8896 -0.4993  0.3272
 4798TIP3    H114400   5.141   0.509   1.334  2.1678 -1.8288 -1.7759
 4798TIP3    H214401   5.012   0.442   1.376  1.0395  1.0073 -0.4899
 4799TIP3   OH214402   5.424   1.230   2.367 -0.3223  0.2202  0.1801
 4799TIP3    H114403   5.428   1.140   2.401  1.8739  0.0217 -0.4434
 4799TIP3    H214404   5.420   1.285   2.446 -2.3311 -0.3832  0.5611
 4800TIP3   OH214405   1.617   5.410   0.331 -0.0141  0.0675  0.9851
 4800TIP3    H114406   1.524   5.419   0.353  0.0788 -0.3419  1.5339
 4800TIP3    H214407   1.650   5.500   0.331 -0.3431  0.1894  1.0593
 4801TIP3   OH214408   3.856   2.102   3.743  0.0467 -0.5034  0.2239
 4801TIP3    H114409   3.945   2.078   3.767 -0.4260 -2.0240  0.5425
 4801TIP3    H214410   3.853   2.198   3.752  1.3035 -0.5569  1.3340
 4802TIP3   OH214411   5.600   4.805   0.595  0.2132  0.6598  0.2381
 4802TIP3    H114412   5.520   4.774   0.553  0.4248 -0.3609  0.5750
 4802TIP3    H214413   5.574   4.821   0.686  0.5410 -0.3439  0.5226
 4803TIP3   OH214414   4.189   3.214   0.948 -0.3112 -0.2760  0.2062
 4803TIP3    H114415   4.119   3.150   0.934  0.1237 -0.8762  0.7474
 4803TIP3    H214416   4.266   3.176   0.906 -0.6642  1.1376 -1.8446
 4804TIP3   OH214417   2.111   3.189   2.696  0.0190  0.2870  0.0186
 4804TIP3    H114418   2.057   3.183   2.775 -1.1328 -1.3387 -0.8362
 4804TIP3    H214419   2.048   3.193   2.624  0.9312 -2.3051 -1.0558
 4805TIP3   OH214420   2.519   0.367   3.618 -0.0452 -0.3336  0.5668
 4805TIP3    H114421   2.591   0.427   3.597 -0.6004  0.2677  0.3171
 4805TIP3    H214422   2.540   0.287   3.570  0.7835 -0.3954  1.0224
 4806TIP3   OH214423   3.062   4.829   5.105 -0.2466 -0.3030 -0.2944
 4806TIP3    H114424   3.113   4.749   5.115 -0.1842 -0.3286 -0.7544
 4806TIP3    H214425   2.976   4.798   5.075  0.2905 -0.1310 -2.1970
 4807TIP3   OH214426   1.760   4.958   1.818  0.2592  0.3677 -0.1431
 4807TIP3    H114427   1.807   4.932   1.738  0.2694  0.9126 -0.3195
 4807TIP3    H214428   1.703   5.029   1.790  0.6767  0.9487  0.4464
 4808TIP3   OH214429   4.936   3.430   0.657 -0.2608 -0.4283  0.2810
 4808TIP3    H114430   4.874   3.424   0.730 -0.9872  0.2720 -0.2562
 4808TIP3    H214431   4.890   3.387   0.584 -1.1733  2.1470 -0.7748
 4809TIP3   OH214432   4.423   5.752   3.000  0.0834 -0.1977  0.4456
 4809TIP3    H114433   4.510   5.717   3.020  0.8188  0.2521 -1.6666
 4809TIP3    H214434   4.441   5.833   2.952 -1.5370  0.5340  1.0383
 4810TIP3   OH214435   4.610   3.260   0.427  0.0598 -0.0891 -0.6629
 4810TIP3    H114436   4.602   3.314   0.506  3.7577 -1.0428  0.5577
 4810TIP3    H214437   4.603   3.323   0.355 -0.3155  1.3172  0.5478
 4811TIP3   OH214438   4.556   2.335   3.904 -0.2637 -0.1403  0.6271
 4811TIP3    H114439   4.527   2.336   3.812  2.4879 -0.8519 -0.3465
 4811TIP3    H214440   4.527   2.420   3.938  0.1676  0.9155 -1.4423
 4812TIP3   OH214441   5.155   0.046   3.053  0.1763  0.3586  0.6957
 4812TIP3    H114442   5.223   0.079   3.112 -0.7561 -0.0158  2.0275
 4812TIP3    H214443   5.076   0.092   3.080  0.0319  1.4747 -1.4346
 4813TIP3   OH214444   0.283   3.163   4.535  0.1073  0.2043 -0.8608
 4813TIP3    H114445   0.306   3.073   4.513  2.1509  0.3211  0.4924
 4813TIP3    H214446   0.354   3.192   4.592 -1.6271  1.9452  0.5571
 4814TIP3   OH214447   2.302   1.114   0.179 -0.0761 -0.0809 -0.1545
 4814TIP3    H114448   2.215   1.089   0.210 -0.0360 -0.2080 -0.1427
 4814TIP3    H214449   2.328   1.043   0.120 -0.0130 -0.0049 -0.2181
 4815TIP3   OH214450   4.742   0.117   3.996 -0.0407  0.2367  0.3436
 4815TIP3    H114451   4.796   0.112   4.075 -1.2925 -1.3897  1.1490
 4815TIP3    H214452   4.656   0.145   4.027 -0.5531 -0.4177 -0.4313
 4816TIP3   OH214453   5.366   2.755   4.264  0.3077 -0.5111 -0.3047
 4816TIP3    H114454   5.413   2.737   4.346 -0.1993  0.8356  0.3121
 4816TIP3    H214455   5.279   2.784   4.292 -0.0220 -0.4671 -1.3348
 4817TIP3   OH214456   0.160   1.923   3.499 -0.5256 -0.2367 -0.5392
 4817TIP3    H114457   0.131   1.892   3.413  0.1852  0.8898 -1.2049
 4817TIP3    H214458   0.252   1.900   3.504 -0.8805 -1.5512  0.5310
 4818TIP3   OH214459   4.511   1.469   2.486  0.7249  0.2129 -0.2026
 4818TIP3    H114460   4.477   1.545   2.438  0.4545  0.7777  0.8494
 4818TIP3    H214461   4.433   1.427   2.523  0.9594  0.0481  0.1086
 4819TIP3   OH214462   0.128   0.827   4.224  0.0041 -0.6441 -0.0121
 4819TIP3    H114463   0.117   0.921   4.209 -0.1768 -0.7988 -0.8842
 4819TIP3    H214464   0.186   0.798   4.154  0.5238 -1.0855  0.5908
 4820TIP3   OH214465   4.103   5.728   4.940 -0.1043 -0.4338 -0.4256
 4820TIP3    H114466   4.132   5.677   4.864 -1.3601 -0.3107 -1.0058
 4820TIP3    H214467   4.135   5.678   5.015  3.2391  0.6491 -0.9697
 4821TIP3   OH214468   5.029   3.191   0.459  0.4026  0.0795 -0.2600
 4821TIP3    H114469   5.105   3.190   0.517  1.2834  1.0155 -1.3400
 4821TIP3    H214470   4.986   3.107   0.474  0.5895  0.3067  1.7245
 4822TIP3   OH214471   5.328   1.606   4.616 -0.1829  0.4669 -0.3224
 4822TIP3    H114472   5.368   1.673   4.671 -0.4204  0.9451 -0.7247
 4822TIP3    H214473   5.348   1.524   4.660  1.2230  0.6912 -0.4890
 4823TIP3   OH214474   5.316   1.634   4.070 -0.1944  0.8734  0.1877
 4823TIP3    H114475   5.263   1.678   4.004 -0.8588  0.4465  0.4321
 4823TIP3    H214476   5.339   1.703   4.132 -0.1894  1.1236 -0.0888
 4824TIP3   OH214477   3.291   1.630   4.543 -0.7236  0.4183 -0.3968
 4824TIP3    H114478   3.352   1.607   4.613 -1.0051  1.5627  0.2624
 4824TIP3    H214479   3.322   1.714   4.510 -2.3475  1.4427  0.5066
 4825TIP3   OH214480   4.757   4.522   3.379 -0.3709 -0.3718  0.3873
 4825TIP3    H114481   4.689   4.539   3.314 -0.3606 -0.3783  0.3750
 4825TIP3    H214482   4.711   4.525   3.463 -0.4895 -0.9399  0.3410
 4826TIP3   OH214483   4.693   1.059   1.528 -0.0547 -0.5645 -0.6559
 4826TIP3    H114484   4.666   1.130   1.469  0.0797 -0.0373 -0.0979
 4826TIP3    H214485   4.777   1.030   1.492  0.2781  0.1031 -0.4455
 4827TIP3   OH214486   4.792   2.128   1.087 -0.2265 -0.1009  0.0860
 4827TIP3    H114487   4.814   2.045   1.045 -0.9263 -1.3368  2.0126
 4827TIP3    H214488   4.814   2.115   1.179 -2.5738  0.9627  0.8776
 4828TIP3   OH214489   3.350   2.323   2.620 -0.0186 -0.3635 -0.1812
 4828TIP3    H114490   3.423   2.329   2.559  0.7619  2.1718  0.8870
 4828TIP3    H214491   3.275   2.356   2.570  0.8771  2.9840  0.5057
 4829TIP3   OH214492   1.151   5.140   2.093 -0.0698 -0.2731 -0.0276
 4829TIP3    H114493   1.082   5.133   2.026 -1.1709 -1.1568  1.1630
 4829TIP3    H214494   1.132   5.222   2.138 -0.5324 -0.6580  0.4882
 4830TIP3   OH214495   2.123   2.232   2.058  0.2529  0.5292 -0.4928
 4830TIP3    H114496   2.101   2.314   2.104  1.2772  0.2147  0.6194
 4830TIP3    H214497   2.218   2.227   2.064  0.1409 -1.1567  0.1756
 4831TIP3   OH214498   0.449   3.651   1.032  0.1509 -0.5276  0.4598
 4831TIP3    H114499   0.452   3.618   0.942 -1.2157 -1.6780  0.8095
 4831TIP3    H214500   0.361   3.629   1.063 -0.4302  2.3520  1.1528
 4832TIP3   OH214501   2.559   4.296   4.457  0.3148 -0.6266  0.6051
 4832TIP3    H114502   2.536   4.256   4.374 -2.5832 -0.7077  1.3483
 4832TIP3    H214503   2.547   4.390   4.443  0.3078 -0.5980  0.7963
 4833TIP3   OH214504   0.319   1.980   4.889 -0.3768  0.1338 -0.0873
 4833TIP3    H114505   0.231   1.955   4.861  0.4881 -0.6395 -2.2804
 4833TIP3    H214506   0.376   1.953   4.817  2.0224 -1.8115  2.3380
 4834TIP3   OH214507   1.597   1.402   2.779 -0.2303 -0.4996  0.1197
 4834TIP3    H114508   1.555   1.317   2.767 -1.5908  0.3457 -1.8264
 4834TIP3    H214509   1.551   1.441   2.853 -0.3529 -1.0370  0.3318
 4835TIP3   OH214510   3.866   2.706   0.895 -0.0242 -0.1275 -0.0779
 4835TIP3    H114511   3.773   2.719   0.879 -0.3776 -0.7328  1.3938
 4835TIP3    H214512   3.909   2.774   0.842 -1.1439 -1.1980 -2.4790
 4836TIP3   OH214513   1.556   0.425   1.228 -0.1337  0.8814  0.5561
 4836TIP3    H114514   1.601   0.497   1.184 -0.3308  0.1517 -0.9200
 4836TIP3    H214515   1.557   0.354   1.164 -0.4767 -0.2353  1.7439
 4837TIP3   OH214516   1.490   3.132   3.881  0.4953  0.3986  0.4710
 4837TIP3    H114517   1.446   3.217   3.879  2.6601  1.5884 -0.2275
 4837TIP3    H214518   1.518   3.117   3.791  3.2811  0.7502  1.2015
 4838TIP3   OH214519   2.358   5.379   4.638 -0.5517  0.5763  0.1935
 4838TIP3    H114520   2.294   5.375   4.567  1.8093  0.3083 -2.0718
 4838TIP3    H214521   2.424   5.440   4.607  1.7427 -1.2937  1.0788
 4839TIP3   OH214522   5.716   0.138   2.018  0.4058  0.2914 -0.1720
 4839TIP3    H114523   5.767   0.117   2.096  0.4436 -0.5981 -0.4192
 4839TIP3    H214524   5.625   0.136   2.047  0.3860 -0.5930 -0.2498
 4840TIP3   OH214525   2.867   3.648   0.580 -0.8537  0.2468 -0.0694
 4840TIP3    H114526   2.865   3.728   0.528  0.3736  0.1999 -0.2186
 4840TIP3    H214527   2.943   3.658   0.637  0.3867 -1.5111 -1.2743
 4841TIP3   OH214528   0.341   2.288   2.611  0.0880  0.4088 -0.5956
 4841TIP3    H114529   0.327   2.208   2.560 -0.0640 -0.6538  1.0472
 4841TIP3    H214530   0.254   2.324   2.624  0.0720  0.3685 -0.5916
 4842TIP3   OH214531   2.888   2.671   1.167 -0.2566  0.3032 -0.5614
 4842TIP3    H114532   2.891   2.616   1.245 -1.1139  1.1361  0.0917
 4842TIP3    H214533   2.895   2.761   1.200 -0.0852  0.6475 -1.4918
 4843TIP3   OH214534   2.167   1.466   0.643  0.2350  0.1794  0.3553
 4843TIP3    H114535   2.211   1.462   0.558 -2.1974  0.0606 -0.9808
 4843TIP3    H214536   2.187   1.553   0.677  0.8547  0.4118 -0.5674
 4844TIP3   OH214537   5.712   4.598   1.804 -0.6529 -0.3181  0.4147
 4844TIP3    H114538   5.725   4.692   1.799  0.5366 -0.3598  2.0205
 4844TIP3    H214539   5.617   4.587   1.800 -0.7674  0.6402 -3.1255
 4845TIP3   OH214540   4.214   4.726   3.727 -0.4941  0.8400 -1.2729
 4845TIP3    H114541   4.294   4.766   3.694  0.1303  0.7406  0.0531
 4845TIP3    H214542   4.233   4.632   3.731 -1.1919  0.6369 -2.3032
 4846TIP3   OH214543   0.307   3.721   2.768 -0.1270  0.6186 -0.3321
 4846TIP3    H114544   0.302   3.641   2.716  1.3215  0.9230 -0.9762
 4846TIP3    H214545   0.345   3.786   2.710 -1.2128  1.7899  0.2054
 4847TIP3   OH214546   0.156   0.753   2.554 -0.3981 -0.0652  0.1997
 4847TIP3    H114547   0.223   0.795   2.501 -0.7263 -0.4000 -0.4918
 4847TIP3    H214548   0.169   0.788   2.642  0.1510  0.4955 -0.1016
 4848TIP3   OH214549   4.874   1.481   4.213 -0.4382 -0.5028  0.4539
 4848TIP3    H114550   4.810   1.471   4.283  0.4336  0.1509  1.3589
 4848TIP3    H214551   4.948   1.427   4.240  0.0274 -0.0058  0.1821
 4849TIP3   OH214552   1.333   2.873   0.875  0.9041 -0.1289 -0.0046
 4849TIP3    H114553   1.383   2.796   0.844 -1.1268 -0.4703 -2.8694
 4849TIP3    H214554   1.257   2.876   0.817  1.0434  4.2708 -0.2539
 4850TIP3   OH214555   0.640   1.964   3.775  0.0791 -0.1042 -0.0555
 4850TIP3    H114556   0.613   1.962   3.683  0.7567 -1.4685 -0.2513
 4850TIP3    H214557   0.735   1.953   3.773  0.0788 -0.3358  0.8054
 4851TIP3   OH214558   3.873   0.008   3.674 -0.1186  0.3156  0.4948
 4851TIP3    H114559   3.954   0.058   3.664  0.7166 -0.9463  0.7257
 4851TIP3    H214560   3.876  -0.057   3.604 -1.4368  0.8899 -0.1192
 4852TIP3   OH214561   2.945   1.411   1.888 -0.0298  0.7564  0.0213
 4852TIP3    H114562   2.881   1.378   1.952  0.5923 -0.5765 -0.0080
 4852TIP3    H214563   2.915   1.375   1.805  0.6070  0.3359 -0.0308
 4853TIP3   OH214564   5.698   2.598   3.772 -0.2282 -0.1779  0.0890
 4853TIP3    H114565   5.734   2.516   3.807  1.1299  1.4556  2.8529
 4853TIP3    H214566   5.708   2.589   3.677  0.2663 -3.0047  0.3040
 4854TIP3   OH214567   2.897   3.777   0.156 -0.0690 -0.0808 -0.2494
 4854TIP3    H114568   2.986   3.774   0.122  0.1020  0.7899  0.0825
 4854TIP3    H214569   2.842   3.781   0.078  0.1845 -0.4847 -0.4551
 4855TIP3   OH214570   2.235   2.531   0.753  0.2281 -0.0817 -0.1327
 4855TIP3    H114571   2.167   2.522   0.820  1.2952  0.5254  1.0608
 4855TIP3    H214572   2.192   2.577   0.681 -0.6878  0.0671  0.4937
 4856TIP3   OH214573   5.343   4.271   1.883 -0.7198 -0.6831 -0.2861
 4856TIP3    H114574   5.321   4.253   1.792 -2.5890 -1.1261  0.2198
 4856TIP3    H214575   5.390   4.192   1.912  1.3815  0.1143 -1.2614
 4857TIP3   OH214576   2.574   5.594   1.942 -0.1331  0.2741 -0.7607
 4857TIP3    H114577   2.618   5.515   1.973 -1.6963  0.4207  2.2188
 4857TIP3    H214578   2.489   5.563   1.909 -0.3300  0.5792 -0.5523
 4858TIP3   OH214579   3.103   3.584   3.562 -0.0873 -0.0974  0.6414
 4858TIP3    H114580   3.156   3.516   3.521  0.5009  0.7188  0.0031
 4858TIP3    H214581   3.074   3.639   3.489  3.1265  2.9211  1.3832
 4859TIP3   OH214582   2.530   4.332   2.106  0.4923  0.2877  0.2296
 4859TIP3    H114583   2.448   4.349   2.061  0.0324 -2.7310 -0.2900
 4859TIP3    H214584   2.552   4.242   2.082  3.4743  0.6782  1.1219
 4860TIP3   OH214585   4.677   1.286   1.378 -0.7778 -0.3597  0.1148
 4860TIP3    H114586   4.677   1.380   1.357  1.3045 -0.0952  1.0321
 4860TIP3    H214587   4.682   1.243   1.293 -2.0827  0.3092 -0.3424
 4861TIP3   OH214588   1.227   5.789   3.005  0.4844 -0.2866 -0.5753
 4861TIP3    H114589   1.307   5.833   3.035  1.2290 -2.4432  0.8424
 4861TIP3    H214590   1.254   5.740   2.927  0.1572  0.1799 -0.9857
 4862TIP3   OH214591   5.338   1.106   1.261 -0.1412 -0.4242 -0.4812
 4862TIP3    H114592   5.409   1.136   1.204  0.0679 -0.4887 -0.2513
 4862TIP3    H214593   5.349   1.155   1.342 -1.6351  1.2021 -1.1781
 4863TIP3   OH214594   1.774   2.208   4.277  0.0641 -0.1014  0.0977
 4863TIP3    H114595   1.780   2.303   4.266 -1.7458  0.0625  0.2719
 4863TIP3    H214596   1.698   2.182   4.224  0.0921 -1.3503  0.6245
 4864TIP3   OH214597   0.476   4.738   1.599  0.1163 -0.9367  0.2317
 4864TIP3    H114598   0.411   4.685   1.554  1.2361 -2.3451  0.2221
 4864TIP3    H214599   0.467   4.825   1.558 -2.3502 -0.8038  0.8831
 4865TIP3   OH214600   5.276   0.850   2.043 -0.1783  0.3578  0.6288
 4865TIP3    H114601   5.368   0.835   2.068 -0.1302 -0.0848  0.1953
 4865TIP3    H214602   5.239   0.898   2.117 -0.1213 -1.2031  1.7311
 4866TIP3   OH214603   3.702   3.225   0.095 -0.4967 -0.4461  0.4127
 4866TIP3    H114604   3.732   3.257   0.179  0.5997  1.9692 -0.7973
 4866TIP3    H214605   3.721   3.131   0.096 -0.8589 -0.5543  2.9341
 4867TIP3   OH214606   4.913   1.698   3.865 -0.0288 -0.2183 -0.2135
 4867TIP3    H114607   4.876   1.696   3.777 -0.8364 -0.4678  0.1187
 4867TIP3    H214608   4.862   1.764   3.911  1.3903  1.0220 -0.3416
 4868TIP3   OH214609   4.219   0.539   2.890 -0.1947 -0.0979 -0.0924
 4868TIP3    H114610   4.304   0.503   2.865 -0.8440 -1.1441 -0.8904
 4868TIP3    H214611   4.166   0.462   2.913 -0.6343  0.6082  1.3680
 4869TIP3   OH214612   3.808   2.047   0.231 -0.2318  0.5380 -0.2913
 4869TIP3    H114613   3.817   2.106   0.306 -1.5013  0.9968 -0.4707
 4869TIP3    H214614   3.739   1.986   0.257  1.1332 -0.9836 -0.0686
 4870TIP3   OH214615   0.918   0.121   1.631 -0.2971 -0.2467  0.8383
 4870TIP3    H114616   0.912   0.026   1.637  0.4299 -0.3955 -0.3544
 4870TIP3    H214617   1.008   0.142   1.655 -0.3520  0.1039  0.7517
 4871TIP3   OH214618   5.028   4.865   4.537  0.1735 -0.4742  0.4972
 4871TIP3    H114619   4.965   4.845   4.468 -0.9915 -2.0238  1.9301
 4871TIP3    H214620   5.104   4.812   4.515  0.4443  0.2390 -0.4015
 4872TIP3   OH214621   3.895   3.711   1.662 -0.7141 -0.0610 -0.4913
 4872TIP3    H114622   3.824   3.647   1.663 -1.3941  0.6890 -0.2814
 4872TIP3    H214623   3.876   3.768   1.588  0.1674 -0.3892 -0.9942
 4873TIP3   OH214624   5.319   5.970   4.184 -0.6340  0.4165  0.3339
 4873TIP3    H114625   5.402   5.937   4.150 -0.4576 -0.9179  1.9113
 4873TIP3    H214626   5.342   6.015   4.265 -1.2145  2.0666 -0.3856
 4874TIP3   OH214627   0.906   5.472   3.150  0.1274  0.7227 -0.4096
 4874TIP3    H114628   0.824   5.444   3.192 -0.1454 -0.4824 -1.6564
 4874TIP3    H214629   0.963   5.395   3.156  1.0949  1.4555  0.1942
 4875TIP3   OH214630   2.135   4.819   0.574 -0.4355  0.0337  0.1208
 4875TIP3    H114631   2.152   4.725   0.569  0.2828  0.0698  1.4830
 4875TIP3    H214632   2.149   4.850   0.484 -0.6602 -1.1450 -0.3395
 4876TIP3   OH214633   3.028   4.473   3.740 -0.8726 -0.1108 -0.0182
 4876TIP3    H114634   3.013   4.415   3.666 -0.6908  1.7450 -1.5929
 4876TIP3    H214635   3.121   4.496   3.734 -1.0031  0.5548  0.3939
 4877TIP3   OH214636   4.542   3.736   2.553 -0.3332 -0.0422 -0.0013
 4877TIP3    H114637   4.636   3.729   2.572 -0.0145  0.4959 -1.3037
 4877TIP3    H214638   4.514   3.814   2.601 -0.3498 -0.7505  1.1880
 4878TIP3   OH214639   4.705   1.464   3.577 -0.0241 -0.0889 -0.4722
 4878TIP3    H114640   4.699   1.411   3.497  1.5109  2.7415 -2.6770
 4878TIP3    H214641   4.799   1.481   3.587 -0.2660  0.3053  1.5137
 4879TIP3   OH214642   3.890   1.591   4.329 -0.4040  0.2260  0.6124
 4879TIP3    H114643   3.810   1.636   4.302  0.0896  0.6130 -0.2384
 4879TIP3    H214644   3.954   1.661   4.343 -0.0300 -0.1233  0.6786
 4880TIP3   OH214645   5.775   1.631   4.337 -0.6035 -0.1568  0.2617
 4880TIP3    H114646   5.770   1.709   4.281  0.9446 -0.7457 -0.7572
 4880TIP3    H214647   5.684   1.615   4.363 -0.9985  1.7357  0.1574
 4881TIP3   OH214648   0.432   5.076   2.466  0.4561 -0.0263 -0.4885
 4881TIP3    H114649   0.336   5.074   2.456  0.5859  1.3650 -3.0618
 4881TIP3    H214650   0.465   5.043   2.382  2.2395  0.3011  0.0413
 4882TIP3   OH214651   1.194   0.613   4.670  0.3760 -0.2593 -0.0001
 4882TIP3    H114652   1.133   0.630   4.742  1.3294 -0.0610  0.7828
 4882TIP3    H214653   1.162   0.533   4.629 -0.0931 -0.4607  0.7500
 4883TIP3   OH214654   4.095   0.648   0.529 -0.4295  0.4466 -0.0926
 4883TIP3    H114655   4.109   0.717   0.464 -0.8145  1.4603  0.8615
 4883TIP3    H214656   4.177   0.644   0.578  0.3127 -1.1618 -1.3529
 4884TIP3   OH214657   3.664   4.621   3.619  0.2784  0.0178  0.4783
 4884TIP3    H114658   3.684   4.669   3.700  0.0510 -0.4001  0.7852
 4884TIP3    H214659   3.748   4.581   3.594  0.5633  0.8918  0.0017
 4885TIP3   OH214660  -0.017   1.008   2.681  0.0383  0.3014  0.5524
 4885TIP3    H114661   0.042   0.944   2.720  0.3827 -0.1977 -0.7451
 4885TIP3    H214662  -0.002   1.088   2.732 -0.9690 -0.7917  2.7133
 4886TIP3   OH214663   3.382   5.042   0.468  0.3897 -0.2922 -0.7849
 4886TIP3    H114664   3.290   5.023   0.486  0.2412  1.3568  0.4925
 4886TIP3    H214665   3.430   4.996   0.536  0.4000 -0.0917 -0.6551
 4887TIP3   OH214666   6.152   3.237   1.653  0.6455  0.1007 -0.0751
 4887TIP3    H114667   6.208   3.163   1.630  0.2865 -0.3478  0.5038
 4887TIP3    H214668   6.164   3.249   1.747  2.0248  1.8749 -0.4084
 4888TIP3   OH214669   5.272   4.579   2.105  0.0626 -0.0627 -0.0121
 4888TIP3    H114670   5.195   4.634   2.093  0.3136  0.0934 -1.0609
 4888TIP3    H214671   5.336   4.636   2.148  0.3361  0.5150 -1.1264
 4889TIP3   OH214672   0.168   4.090   3.376  0.3906 -0.3335  0.2698
 4889TIP3    H114673   0.080   4.121   3.397 -0.1304 -1.7290  0.2696
 4889TIP3    H214674   0.225   4.133   3.439 -0.0049  2.0491 -0.9001
 4890TIP3   OH214675   3.856   0.499   2.505  0.2592 -0.2901 -0.3227
 4890TIP3    H114676   3.937   0.452   2.526  1.2798  0.3631 -2.4143
 4890TIP3    H214677   3.864   0.582   2.551 -0.8207 -1.4618  2.1231
 4891TIP3   OH214678   1.552   0.729   4.051  0.0401 -0.0248  0.5208
 4891TIP3    H114679   1.536   0.791   4.122  0.6490  0.8121 -0.0428
 4891TIP3    H214680   1.536   0.780   3.971  0.6009 -0.5789  0.0420
 4892TIP3   OH214681   2.973   5.421   5.073  0.3412 -0.1162  0.6313
 4892TIP3    H114682   3.036   5.380   5.132  2.1805  2.0642  0.3117
 4892TIP3    H214683   3.010   5.507   5.053 -2.2120  0.8536 -0.4801
 4893TIP3   OH214684   0.352   4.440   3.979  0.1312 -0.4403 -0.6984
 4893TIP3    H114685   0.370   4.533   3.973  1.0508 -0.5831 -0.2599
 4893TIP3    H214686   0.433   4.397   3.953  0.1360 -1.1105  0.3502
 4894TIP3   OH214687   3.192   0.109   2.554  0.2798 -0.1048  0.3342
 4894TIP3    H114688   3.165   0.117   2.462  1.2405  1.0430  0.1299
 4894TIP3    H214689   3.170   0.019   2.577  1.4823 -0.9317 -1.5097
 4895TIP3   OH214690   6.343   2.757   3.793  0.4123 -0.2991 -0.0917
 4895TIP3    H114691   6.364   2.669   3.763 -0.9771 -0.9806  0.8029
 4895TIP3    H214692   6.296   2.744   3.876  0.6044  1.3081  0.3210
 4896TIP3   OH214693   3.357   4.669   3.685  0.3217 -0.4559  0.2505
 4896TIP3    H114694   3.325   4.749   3.726 -3.3622 -0.8486 -1.4478
 4896TIP3    H214695   3.412   4.628   3.751 -2.8242  0.3866  3.7013
 4897TIP3   OH214696   2.686   0.142   3.974  0.8482  0.0678 -0.3640
 4897TIP3    H114697   2.597   0.127   3.942  0.9686  0.5626 -0.9613
 4897TIP3    H214698   2.677   0.215   4.036  0.3600 -1.9165  2.0615
 4898TIP3   OH214699   1.635   5.715   0.562 -0.2418  0.0035  0.5017
 4898TIP3    H114700   1.650   5.626   0.592 -0.6051  0.3621  1.7890
 4898TIP3    H214701   1.715   5.738   0.514  0.1372 -0.7643  0.7556
 4899TIP3   OH214702   4.199   1.382   0.191  0.1810  0.3009 -0.2791
 4899TIP3    H114703   4.174   1.439   0.118  0.4132  0.6791 -0.0705
 4899TIP3    H214704   4.170   1.429   0.269  1.6632  0.8435 -0.0162
 4900TIP3   OH214705   4.416   0.947   4.971  0.5846  0.5485 -0.4544
 4900TIP3    H114706   4.370   0.918   4.892  2.6130  1.2676 -2.0003
 4900TIP3    H214707   4.460   0.868   5.003  2.0268  0.7901 -1.7305
 4901TIP3   OH214708   2.721   0.987   2.346  0.3476  0.0172 -0.1650
 4901TIP3    H114709   2.653   0.922   2.328  1.5916 -1.5868  0.6366
 4901TIP3    H214710   2.780   0.981   2.271 -0.1395  1.0848 -0.6467
 4902TIP3   OH214711   4.217   1.244   1.382 -0.1609 -0.0792  0.3614
 4902TIP3    H114712   4.132   1.241   1.340  0.1010 -1.3509 -0.1464
 4902TIP3    H214713   4.220   1.164   1.436  1.1158 -0.6557 -0.5001
 4903TIP3   OH214714   3.522   0.982   3.756  0.3508 -0.0940  0.0620
 4903TIP3    H114715   3.547   1.011   3.668 -0.4189 -2.9141 -1.2062
 4903TIP3    H214716   3.582   0.911   3.776  2.8240  2.5879  3.4658
 4904TIP3   OH214717   0.867   4.222   2.538 -0.4143 -0.3357  0.4644
 4904TIP3    H114718   0.950   4.206   2.584 -1.5221  0.4779  2.9607
 4904TIP3    H214719   0.800   4.194   2.601 -2.0685  0.2095 -0.9825
 4905TIP3   OH214720   5.086   5.968   0.833  1.0410  0.0630 -0.1811
 4905TIP3    H114721   5.092   6.055   0.792  4.1166 -0.3558 -0.9047
 4905TIP3    H214722   5.007   5.929   0.797 -0.1297  2.3439 -0.2323
 4906TIP3   OH214723   5.313   4.048   2.247  0.3351  0.7674 -0.5170
 4906TIP3    H114724   5.271   4.133   2.250 -0.2782  0.4490  0.9586
 4906TIP3    H214725   5.244   3.986   2.271  1.5997  0.2502  2.2265
 4907TIP3   OH214726   5.434   5.850   3.437  0.2772 -0.2370 -0.1610
 4907TIP3    H114727   5.482   5.930   3.417 -0.2078 -0.0327 -0.5348
 4907TIP3    H214728   5.384   5.831   3.357 -1.0147  0.1035  0.5454
 4908TIP3   OH214729   4.316   4.500   2.320 -0.0236  0.0776  0.2073
 4908TIP3    H114730   4.352   4.538   2.400 -1.2064  0.6626  0.4891
 4908TIP3    H214731   4.337   4.565   2.252  2.9447 -1.4107 -0.4761
 4909TIP3   OH214732   5.670   0.097   3.283  0.2202  0.4880  0.1698
 4909TIP3    H114733   5.621   0.137   3.355 -1.1181  0.3152 -0.6116
 4909TIP3    H214734   5.608   0.095   3.210  1.3792  0.1794 -0.8388
 4910TIP3   OH214735   2.655   3.848   1.606  0.4987  0.0175 -0.2355
 4910TIP3    H114736   2.730   3.814   1.557  0.1077 -0.5109 -0.4699
 4910TIP3    H214737   2.673   3.942   1.613  2.0805 -0.3463  1.2956
 4911TIP3   OH214738   4.978   1.601   1.714  0.4455 -0.0537  0.3231
 4911TIP3    H114739   4.937   1.649   1.643  0.2921 -0.9594 -0.2090
 4911TIP3    H214740   4.909   1.546   1.750  0.6451  0.0369  0.8593
 4912TIP3   OH214741   5.054   3.877   1.567 -0.1942  0.0533 -0.6813
 4912TIP3    H114742   5.132   3.867   1.621  0.0500 -0.3408 -1.0922
 4912TIP3    H214743   4.983   3.897   1.628 -0.2171 -1.8136 -0.0581
 4913TIP3   OH214744   1.314   1.411   4.444  0.3326  0.1283 -0.0892
 4913TIP3    H114745   1.219   1.406   4.449  0.2215  2.3180  1.6282
 4913TIP3    H214746   1.331   1.474   4.373  0.2998  2.2454  1.6797
 4914TIP3   OH214747   3.753   0.786   0.475  0.3348  0.1024  0.7932
 4914TIP3    H114748   3.814   0.852   0.442  0.8580 -1.2734 -1.1986
 4914TIP3    H214749   3.716   0.746   0.397 -3.1262  0.7837  1.9123
 4915TIP3   OH214750   0.448   5.061   0.941 -0.5261 -0.0495  0.3645
 4915TIP3    H114751   0.457   5.157   0.944  0.1304 -0.1097  0.3716
 4915TIP3    H214752   0.376   5.046   0.880 -0.4098  0.4348  0.1014
 4916TIP3   OH214753   3.328   1.167   0.337 -0.5805  0.4821 -0.3495
 4916TIP3    H114754   3.320   1.083   0.292 -2.7714 -0.8756  2.2721
 4916TIP3    H214755   3.276   1.228   0.284  0.5822  0.1010 -1.9870
 4917TIP3   OH214756   1.849   1.595   0.833 -0.0875  0.3779 -0.1965
 4917TIP3    H114757   1.937   1.593   0.870  0.0055 -0.5258 -0.4456
 4917TIP3    H214758   1.806   1.668   0.877 -0.3341 -1.2662  2.5355
 4918TIP3   OH214759   2.074   1.155   2.853  0.2516  0.0424  0.5959
 4918TIP3    H114760   2.030   1.089   2.800 -0.8134 -0.6029  2.1897
 4918TIP3    H214761   2.014   1.229   2.855  0.6633  0.3914  0.2231
 4919TIP3   OH214762   5.616   2.192   3.113  0.4274  0.3108  0.1959
 4919TIP3    H114763   5.567   2.111   3.108  0.8799  0.0882 -0.9673
 4919TIP3    H214764   5.676   2.180   3.187  0.2499 -0.2798  0.2421
 4920TIP3   OH214765   1.815   0.142   1.169 -0.3040 -0.3338 -0.4483
 4920TIP3    H114766   1.875   0.135   1.244  0.4834 -1.7715 -1.1588
 4920TIP3    H214767   1.871   0.168   1.096 -0.9627  0.4938 -0.6689
 4921TIP3   OH214768   3.184   3.489   0.995 -0.1746  0.0561  0.1525
 4921TIP3    H114769   3.120   3.490   0.924  0.9868 -0.0729 -0.9300
 4921TIP3    H214770   3.172   3.572   1.040  1.0506  1.5375 -2.0633
 4922TIP3   OH214771   2.754   1.520   3.918 -0.5658 -0.4552 -0.0982
 4922TIP3    H114772   2.846   1.499   3.903 -0.8921 -1.5030 -0.7424
 4922TIP3    H214773   2.716   1.524   3.830 -1.4271 -1.4731  0.2098
 4923TIP3   OH214774   0.721   5.757   0.442 -0.2921 -0.0236 -0.3798
 4923TIP3    H114775   0.750   5.773   0.352 -1.1056  1.9992 -0.3363
 4923TIP3    H214776   0.756   5.831   0.492 -1.8131  0.1437  0.4988
 4924TIP3   OH214777   2.612   0.421   4.155  0.5127 -0.1864 -0.2195
 4924TIP3    H114778   2.681   0.464   4.206  0.4938 -0.6507  0.2061
 4924TIP3    H214779   2.608   0.332   4.191 -0.7628  0.0347  0.2266
 4925TIP3   OH214780   5.748   5.492   4.007 -0.2959  0.6778 -0.6814
 4925TIP3    H114781   5.685   5.523   4.071 -1.5071  0.2868 -1.6384
 4925TIP3    H214782   5.780   5.571   3.963  1.6472  1.0928  1.3103
 4926TIP3   OH214783   4.685   1.586   1.817  0.2325  0.1129  0.3393
 4926TIP3    H114784   4.650   1.528   1.749  0.7320  1.1975 -0.9012
 4926TIP3    H214785   4.610   1.608   1.871 -0.8141  1.3681 -1.4965
 4927TIP3   OH214786   1.542   3.994   4.676 -0.0772  0.7768  0.5107
 4927TIP3    H114787   1.580   4.022   4.759  0.8994  1.0860 -0.0338
 4927TIP3    H214788   1.543   3.898   4.680  0.5937  0.7842  0.5739
 4928TIP3   OH214789   5.457   2.077   0.549  0.4224  0.5194  0.3302
 4928TIP3    H114790   5.542   2.041   0.573  0.1905 -1.5615 -1.5783
 4928TIP3    H214791   5.475   2.136   0.475  0.1287 -1.2833 -1.2677
 4929TIP3   OH214792   1.621   0.247   3.839 -0.2317  0.2454 -0.4019
 4929TIP3    H114793   1.588   0.284   3.757  0.3845 -0.2113 -0.8584
 4929TIP3    H214794   1.606   0.316   3.903 -0.8037  0.5747 -0.8724
 4930TIP3   OH214795   5.611   2.467   0.147  0.2604 -0.0676  0.2046
 4930TIP3    H114796   5.546   2.422   0.094  1.0826 -0.4174 -0.5386
 4930TIP3    H214797   5.684   2.483   0.087  0.0780  2.1013  0.4930
 4931TIP3   OH214798   0.589   2.438   3.074 -0.5415 -0.1533 -0.3471
 4931TIP3    H114799   0.583   2.460   3.167  0.7334 -1.0869 -0.0166
 4931TIP3    H214800   0.503   2.404   3.052 -1.1896  1.0569  0.2048
 4932TIP3   OH214801   5.549   5.153   0.834  0.2891  0.5475  0.5737
 4932TIP3    H114802   5.489   5.186   0.901  0.3623 -1.4245  1.6781
 4932TIP3    H214803   5.635   5.185   0.860  0.0305  1.7175  0.0835
 4933TIP3   OH214804   1.762   5.925   1.960  0.3350  0.9980 -0.5573
 4933TIP3    H114805   1.709   5.995   1.997 -1.4717  0.6563 -2.3381
 4933TIP3    H214806   1.741   5.848   2.013 -0.3639  1.0439 -0.7617
 4934TIP3   OH214807   1.496   2.471   1.610 -0.0097  0.4718 -0.2535
 4934TIP3    H114808   1.545   2.524   1.547 -1.2146  1.4582 -0.4167
 4934TIP3    H214809   1.423   2.436   1.559  0.4366 -0.8818  0.0025
 4935TIP3   OH214810   4.691   2.735   3.278 -0.3704 -0.3594  0.2351
 4935TIP3    H114811   4.726   2.671   3.339  2.4916 -0.9486 -1.8346
 4935TIP3    H214812   4.750   2.809   3.284 -0.1521 -0.3410 -1.5867
 4936TIP3   OH214813   0.740   3.544   0.865 -0.0345  0.3076  0.4154
 4936TIP3    H114814   0.807   3.577   0.805 -1.3533  4.0197  0.7243
 4936TIP3    H214815   0.671   3.511   0.808 -0.5374  2.2002 -0.1213
 4937TIP3   OH214816   1.267   0.438   2.396 -0.2066  0.3441  0.4492
 4937TIP3    H114817   1.256   0.471   2.307 -0.0921  0.9814  0.6722
 4937TIP3    H214818   1.212   0.494   2.450 -3.3189 -2.2838  0.3351
 4938TIP3   OH214819   1.360   1.038   1.268 -0.9855  0.5683  0.5691
 4938TIP3    H114820   1.336   0.980   1.196 -1.4467  0.5995  0.6913
 4938TIP3    H214821   1.430   1.093   1.232  0.1432 -0.6992  0.7601
 4939TIP3   OH214822   0.480   3.222   4.193 -0.3721  0.5656  0.3902
 4939TIP3    H114823   0.459   3.261   4.278 -2.6944 -0.6404  0.4280
 4939TIP3    H214824   0.538   3.149   4.214 -2.3634 -0.8489  1.1883
 4940TIP3   OH214825   5.494   3.932   0.914  0.8724  0.6936 -0.6081
 4940TIP3    H114826   5.417   3.915   0.860 -0.0661 -0.4478  0.9853
 4940TIP3    H214827   5.549   3.854   0.904  1.9917  1.5864 -1.9004
 4941TIP3   OH214828   4.767   2.832   2.786 -0.5714 -0.3671 -0.2190
 4941TIP3    H114829   4.678   2.856   2.763 -0.9220 -0.5664  0.8808
 4941TIP3    H214830   4.771   2.840   2.881  0.9344  0.8087 -0.3396
 4942TIP3   OH214831   3.051   4.338   0.973 -0.1491 -0.2890 -0.3811
 4942TIP3    H114832   3.102   4.303   1.046  1.8553  2.4028 -0.3206
 4942TIP3    H214833   3.109   4.329   0.897 -0.9251 -0.1353 -1.0037
 4943TIP3   OH214834   1.353   1.347   1.772 -0.7933 -0.1837 -0.3965
 4943TIP3    H114835   1.285   1.289   1.805 -1.5028  1.1308  0.5515
 4943TIP3    H214836   1.359   1.417   1.837  1.8619 -0.5079 -0.1639
 4944TIP3   OH214837   5.746   3.260   4.329 -0.2412  0.2558  0.2807
 4944TIP3    H114838   5.722   3.168   4.341 -0.8161  0.2969 -0.5152
 4944TIP3    H214839   5.746   3.273   4.234 -0.2494  1.1040  0.3903
 4945TIP3   OH214840   6.189   0.998   0.661 -0.2028  0.0900  0.3608
 4945TIP3    H114841   6.142   1.080   0.670  0.4049  0.4920 -0.0559
 4945TIP3    H214842   6.281   1.021   0.669 -0.0808 -0.8696  2.4616
 4946TIP3   OH214843   0.454   4.648   0.627  0.1004  0.3442  0.1394
 4946TIP3    H114844   0.409   4.628   0.709 -1.1759 -0.3624 -0.6901
 4946TIP3    H214845   0.541   4.612   0.637 -0.2604 -0.3360  0.9281
 4947TIP3   OH214846   1.833   0.950   3.607 -0.8903 -0.5850 -0.4334
 4947TIP3    H114847   1.807   1.031   3.562 -0.1387  0.5801  1.1249
 4947TIP3    H214848   1.797   0.880   3.553  0.1180  0.6889 -2.9626
 4948TIP3   OH214849   6.001   4.310   1.093  0.2280  0.4218  0.1160
 4948TIP3    H114850   5.958   4.227   1.114  1.0346 -0.0610 -0.1091
 4948TIP3    H214851   5.934   4.376   1.108 -0.2104 -0.2052  0.9828
 4949TIP3   OH214852   2.897   4.281   4.527 -0.3834  0.3132 -0.1830
 4949TIP3    H114853   2.879   4.206   4.470  0.7912  0.4475 -0.7649
 4949TIP3    H214854   2.987   4.306   4.505  0.7041 -0.5933  2.8109
 4950TIP3   OH214855   1.207   2.768   4.230  0.2315 -0.0145  0.3590
 4950TIP3    H114856   1.111   2.761   4.233  0.2840 -0.4764  1.5313
 4950TIP3    H214857   1.227   2.846   4.281  0.5403 -0.6436  1.2205
 4951TIP3   OH214858   6.334   1.310   0.287 -1.1044 -0.2680  0.5233
 4951TIP3    H114859   6.299   1.394   0.315  0.1178  1.0646 -1.6888
 4951TIP3    H214860   6.284   1.288   0.209 -2.1570 -2.2205  1.6486
 4952TIP3   OH214861   1.615   2.423   1.852  0.3887  0.2110 -0.1403
 4952TIP3    H114862   1.695   2.456   1.893  0.5342 -0.1068 -0.1676
 4952TIP3    H214863   1.597   2.486   1.782  0.3816  0.5137  0.1322
 4953TIP3   OH214864   1.425   1.355   2.454 -0.7051  0.5178 -0.0455
 4953TIP3    H114865   1.368   1.352   2.377 -0.4588 -1.1471 -0.2153
 4953TIP3    H214866   1.368   1.383   2.525 -1.3762  0.3704 -0.5107
 4954TIP3   OH214867   1.771   5.963   0.035  0.0439 -0.3672  0.0206
 4954TIP3    H114868   1.745   5.931  -0.051  0.8776 -0.4506 -0.2147
 4954TIP3    H214869   1.858   5.925   0.049  1.3743  2.2545 -0.5337
 4955TIP3   OH214870   2.535   0.302   1.742  0.0879  0.2029  0.2227
 4955TIP3    H114871   2.590   0.238   1.697 -2.3596 -1.8728 -0.0582
 4955TIP3    H214872   2.493   0.351   1.670 -3.1200 -2.5041 -0.0125
 4956TIP3   OH214873   1.356   4.498   2.615  0.1850  0.1972  0.3555
 4956TIP3    H114874   1.297   4.568   2.641 -0.0219 -0.1005  0.6917
 4956TIP3    H214875   1.430   4.506   2.675 -0.4287 -0.6782  1.2634
 4957TIP3   OH214876   1.101   4.474   3.320  0.2009  0.2146  0.0491
 4957TIP3    H114877   1.104   4.535   3.394  2.7714 -0.6201  0.7688
 4957TIP3    H214878   1.040   4.406   3.347 -0.0735  0.7250  0.7365
 4958TIP3   OH214879   6.081   3.853   3.023  0.3280  0.0031  0.5468
 4958TIP3    H114880   6.149   3.862   3.090  1.3477  1.1334 -0.5912
 4958TIP3    H214881   6.127   3.868   2.940 -1.3289  0.9372 -0.2573
 4959TIP3   OH214882   4.073   5.889   3.963  0.0722  0.0807  0.2783
 4959TIP3    H114883   4.043   5.902   3.873  0.3545 -0.2123  0.1405
 4959TIP3    H214884   4.166   5.912   3.961 -0.0827  0.8086  0.6616
 4960TIP3   OH214885   5.888   3.198   0.432 -0.2165  0.0427 -0.7715
 4960TIP3    H114886   5.974   3.175   0.397  0.4676  1.0282  0.1885
 4960TIP3    H214887   5.834   3.120   0.417  1.4866 -1.5190  0.7070
 4961TIP3   OH214888   0.480   4.446   3.583 -0.0282 -0.3021 -0.3260
 4961TIP3    H114889   0.500   4.489   3.666  1.4765  1.4376 -1.5099
 4961TIP3    H214890   0.422   4.506   3.538  0.2056 -0.6261 -1.0717
 4962TIP3   OH214891   2.014   3.582   5.159  0.7179  0.1316 -0.3757
 4962TIP3    H114892   2.049   3.499   5.124 -1.4041  0.5770 -4.1638
 4962TIP3    H214893   2.079   3.648   5.132  1.0180  0.0368  0.1043
 4963TIP3   OH214894   2.277   3.181   1.922 -0.0404  0.9327 -0.9026
 4963TIP3    H114895   2.183   3.174   1.937  0.4014 -0.2962  1.9187
 4963TIP3    H214896   2.302   3.095   1.888  0.1698  0.9510 -0.7963
 4964TIP3   OH214897   0.123   5.144   1.778  0.1528 -0.1694  0.1604
 4964TIP3    H114898   0.108   5.079   1.847 -0.4368 -0.2672 -0.0480
 4964TIP3    H214899   0.099   5.227   1.818 -2.0548 -0.4340 -0.4689
 4965TIP3   OH214900   6.039   4.323   1.697 -0.2552  0.1524  0.2051
 4965TIP3    H114901   5.948   4.346   1.713 -0.1692  0.3204  0.4501
 4965TIP3    H214902   6.090   4.390   1.743 -0.0054 -0.4103  0.7706
 4966TIP3   OH214903   2.373   4.514   5.067  0.3748 -0.0642  0.3987
 4966TIP3    H114904   2.423   4.505   4.986 -0.9042  3.7121 -1.0647
 4966TIP3    H214905   2.413   4.589   5.111 -1.8750  0.9888  0.7969
 4967TIP3   OH214906   3.037   3.546   5.003  0.8676 -0.2041  0.9686
 4967TIP3    H114907   3.041   3.540   5.099 -0.5417 -5.8737  1.0235
 4967TIP3    H214908   2.944   3.541   4.982  1.2082 -0.0691 -0.7422
 4968TIP3   OH214909   3.845   4.904   2.983  0.1586  0.6311  0.2006
 4968TIP3    H114910   3.901   4.980   2.997  0.9918  0.3384 -1.3513
 4968TIP3    H214911   3.889   4.853   2.915 -0.4951 -1.1339  1.0143
 4969TIP3   OH214912   1.231   3.986   3.208  0.1211 -0.5214 -0.0813
 4969TIP3    H114913   1.256   3.947   3.124 -0.1702 -3.5642  1.1580
 4969TIP3    H214914   1.261   3.924   3.274 -0.6688  1.2400  2.0453
 4970TIP3   OH214915   0.430   2.222   1.964  0.5030 -0.0250  0.1569
 4970TIP3    H114916   0.445   2.128   1.951  1.0469  0.0827 -0.0286
 4970TIP3    H214917   0.506   2.251   2.015  0.0166  0.1923  0.7727
 4971TIP3   OH214918   4.513   0.491   1.460 -0.4441 -0.2223 -0.0839
 4971TIP3    H114919   4.540   0.501   1.369  0.1262  1.3485  0.2311
 4971TIP3    H214920   4.479   0.577   1.485 -0.2024 -0.5003  1.3143
 4972TIP3   OH214921   3.807   1.706   0.893 -0.1170  0.1139 -0.8723
 4972TIP3    H114922   3.845   1.672   0.812  0.5237  0.5846 -0.7752
 4972TIP3    H214923   3.810   1.801   0.883 -2.2881  0.1823 -1.3280
 4973TIP3   OH214924   2.348   1.279   3.319  0.7847 -0.1432 -0.5204
 4973TIP3    H114925   2.402   1.353   3.292  1.5455 -0.9672 -1.3196
 4973TIP3    H214926   2.311   1.246   3.238 -1.1325  0.5320  0.0343
 4974TIP3   OH214927   2.353   5.258   5.179  0.4312  0.0950  0.4858
 4974TIP3    H114928   2.386   5.258   5.089  0.6662 -0.0922  0.5694
 4974TIP3    H214929   2.432   5.270   5.233  0.5758 -1.6936  0.7524
 4975TIP3   OH214930   0.896   3.460   1.704 -0.0090 -0.1981 -0.8622
 4975TIP3    H114931   0.873   3.455   1.611  0.1198 -0.3458 -0.8859
 4975TIP3    H214932   0.931   3.548   1.716 -0.6381  0.0516 -0.8168
 4976TIP3   OH214933   0.267   4.602   1.425 -0.4887  0.1454  0.1444
 4976TIP3    H114934   0.188   4.632   1.379 -0.0921  0.8356 -0.0886
 4976TIP3    H214935   0.334   4.598   1.358 -0.4375 -0.9397  0.2388
 4977TIP3   OH214936   0.654   5.689   2.780  0.0823 -0.0744 -0.0141
 4977TIP3    H114937   0.594   5.747   2.734  0.1396  0.9044  1.0914
 4977TIP3    H214938   0.599   5.641   2.841  0.2562 -0.0251  0.1816
 4978TIP3   OH214939   4.808   5.774   0.281 -0.1182 -0.0781  0.0105
 4978TIP3    H114940   4.859   5.711   0.231 -0.7088  0.5925 -1.5356
 4978TIP3    H214941   4.723   5.731   0.294 -0.0681 -0.1342  0.1467
 4979TIP3   OH214942   0.306   1.542   3.343 -0.1575 -0.1933 -0.4549
 4979TIP3    H114943   0.265   1.546   3.256  0.3072 -0.4439 -0.6885
 4979TIP3    H214944   0.308   1.632   3.373 -1.8849 -0.2837  0.0323
 4980TIP3   OH214945   0.746   0.482   1.166 -0.0126  0.2917  0.3783
 4980TIP3    H114946   0.789   0.407   1.207  0.2183 -0.5961 -1.4010
 4980TIP3    H214947   0.654   0.457   1.159 -0.1540  0.6705  0.8483
 4981TIP3   OH214948   4.850   1.903   4.621 -0.4577  0.7708 -0.4633
 4981TIP3    H114949   4.786   1.970   4.644 -2.2863 -0.8252 -0.6070
 4981TIP3    H214950   4.871   1.860   4.704 -2.0052 -0.6849 -0.7498
 4982TIP3   OH214951   0.142   2.674   1.739  0.0576  0.5912  0.1257
 4982TIP3    H114952   0.127   2.635   1.653  1.1791  0.0630  0.1462
 4982TIP3    H214953   0.192   2.753   1.720 -1.8742  1.8604  0.1167
 4983TIP3   OH214954   1.775   3.955   3.147  0.0607  1.2924 -0.9486
 4983TIP3    H114955   1.857   3.975   3.102 -1.1776  0.9836 -3.5402
 4983TIP3    H214956   1.708   4.002   3.097 -1.4160  1.1982  0.8259
 4984TIP3   OH214957   5.651   2.903   3.334  0.5106  0.1734  0.2165
 4984TIP3    H114958   5.721   2.954   3.293 -0.5060  1.7064  0.2907
 4984TIP3    H214959   5.574   2.961   3.329 -0.0592 -0.2792  2.7065
 4985TIP3   OH214960   3.698   4.245   2.191  0.3910 -0.4886  0.3009
 4985TIP3    H114961   3.691   4.273   2.100  0.6742 -1.3746 -0.0048
 4985TIP3    H214962   3.717   4.325   2.239  2.8170 -0.3372 -0.7477
 4986TIP3   OH214963   5.177   0.374   2.950  0.1590 -0.2481  0.0891
 4986TIP3    H114964   5.168   0.468   2.967 -0.0861 -0.5553  1.8293
 4986TIP3    H214965   5.108   0.334   3.003  0.3032 -1.4312 -0.5914
 4987TIP3   OH214966   3.073   2.158   1.178 -0.1656  0.2894  0.2558
 4987TIP3    H114967   3.133   2.085   1.166 -0.6198 -0.2306  1.0601
 4987TIP3    H214968   2.997   2.135   1.124 -0.2589  0.2275  0.4142
 4988TIP3   OH214969   4.477   3.659   0.652  0.5522  0.5614  0.3001
 4988TIP3    H114970   4.385   3.652   0.678  0.3202 -1.8058 -0.8826
 4988TIP3    H214971   4.475   3.708   0.570  0.1368 -0.6447 -0.4447
 4989TIP3   OH214972   2.904   2.541   2.880 -0.6861 -0.4035  0.3257
 4989TIP3    H114973   2.810   2.555   2.886 -0.5605  0.8713 -0.4364
 4989TIP3    H214974   2.914   2.446   2.882 -2.1117 -0.6318 -1.2250
 4990TIP3   OH214975   3.952   2.549   2.164  0.0823  0.6248  0.3051
 4990TIP3    H114976   3.986   2.574   2.079 -0.0703 -0.3226 -0.0445
 4990TIP3    H214977   3.888   2.480   2.146  0.3643  0.1018  1.2141
 4991TIP3   OH214978   4.329   1.608   4.622  0.2052 -0.4684  0.2336
 4991TIP3    H114979   4.328   1.601   4.718  1.1827  0.5713  0.3394
 4991TIP3    H214980   4.314   1.701   4.605  1.5005 -0.3965 -0.5701
 4992TIP3   OH214981   3.847   2.378   3.744 -0.1080 -0.2880  0.2223
 4992TIP3    H114982   3.919   2.441   3.752 -1.2859  1.4053 -1.5183
 4992TIP3    H214983   3.777   2.414   3.798 -0.7346 -0.1672 -0.6473
 4993TIP3   OH214984   6.137   1.550   4.279  0.2003 -0.0892 -0.3499
 4993TIP3    H114985   6.085   1.553   4.359  0.5304 -1.6578 -0.0577
 4993TIP3    H214986   6.073   1.565   4.208  0.0075  1.9788  0.1804
 4994TIP3   OH214987   0.428   5.677   0.924  0.0356 -0.0793 -0.5080
 4994TIP3    H114988   0.450   5.709   0.837  0.4794  0.6655 -0.1277
 4994TIP3    H214989   0.503   5.625   0.951  0.0565 -0.0022 -0.4169
 4995TIP3   OH214990   5.704   1.361   0.881  0.1955 -0.2888 -0.6846
 4995TIP3    H114991   5.623   1.381   0.927  0.7504  0.1048  0.1624
 4995TIP3    H214992   5.741   1.447   0.859 -0.3084 -0.4681 -2.3510
 4996TIP3   OH214993   0.178   3.157   2.173  0.2599 -0.0867  0.0112
 4996TIP3    H114994   0.197   3.093   2.104  0.7064  0.2234 -0.1577
 4996TIP3    H214995   0.238   3.229   2.156 -0.4946  0.5497 -0.0285
 4997TIP3   OH214996   5.008   2.505   0.262  0.7438  0.1147 -0.0395
 4997TIP3    H114997   5.060   2.584   0.246  0.4499  0.5350  0.9931
 4997TIP3    H214998   4.934   2.536   0.315 -0.7847 -0.3997 -1.7544
 4998TIP3   OH214999   1.857   0.292   0.105 -0.1192 -0.0984  0.3141
 4998TIP3    H115000   1.941   0.300   0.150 -0.4388  1.0474  0.7387
 4998TIP3    H215001   1.796   0.265   0.174 -0.0862 -1.1050 -0.0303
 4999TIP3   OH215002   2.848   0.615   2.892  0.0919 -0.1020 -0.2960
 4999TIP3    H115003   2.896   0.672   2.952  0.0860 -2.4182  2.0969
 4999TIP3    H215004   2.915   0.561   2.851 -0.1277 -0.7595  0.1823
 5000TIP3   OH215005   5.454   0.245   3.436 -1.4564 -0.1294 -0.1869
 5000TIP3    H115006   5.445   0.316   3.373  0.7129  1.6751  1.3586
 5000TIP3    H215007   5.417   0.280   3.517  2.3014  0.5824  1.4084
 5001TIP3   OH215008   5.176   4.259   3.517 -0.0203  0.7465  0.6707
 5001TIP3    H115009   5.102   4.204   3.542 -0.4451  1.3327  0.7310
 5001TIP3    H215010   5.200   4.305   3.597  0.2601  0.7361  0.5944
 5002TIP3   OH215011   1.295   3.228   0.188  0.6565  0.3948  0.0123
 5002TIP3    H115012   1.245   3.299   0.146 -1.0403  0.0293  1.3292
 5002TIP3    H215013   1.299   3.160   0.121 -0.1188  0.6591 -0.3205
 5003TIP3   OH215014   1.831   0.123   0.701  0.0133 -0.4688 -0.5108
 5003TIP3    H115015   1.918   0.089   0.719  0.5132  1.6042  1.5166
 5003TIP3    H215016   1.772   0.060   0.742  0.7119 -0.5907  0.3292
 5004TIP3   OH215017   3.406   4.436   1.112  0.2192  0.7749  0.0998
 5004TIP3    H115018   3.362   4.514   1.148  0.4322  0.9855 -0.0924
 5004TIP3    H215019   3.495   4.465   1.094  0.1223  0.6628 -0.5691
 5005TIP3   OH215020   5.403   4.729   2.352  0.1648  0.4508  0.2895
 5005TIP3    H115021   5.436   4.803   2.301 -2.9484  0.2372 -2.3591
 5005TIP3    H215022   5.314   4.756   2.378 -0.7764 -2.0439 -0.1045
 5006TIP3   OH215023   3.951   2.435   2.618  0.4048  0.4621 -0.0224
 5006TIP3    H115024   3.998   2.421   2.535 -0.2449 -1.7314 -0.0926
 5006TIP3    H215025   4.016   2.414   2.685  0.2792 -0.0061 -0.0458
 5007TIP3   OH215026   1.222   1.396   0.050 -0.4159 -0.0401  0.1996
 5007TIP3    H115027   1.234   1.330  -0.018  0.7353  0.1050  0.2500
 5007TIP3    H215028   1.185   1.348   0.124 -1.0590 -0.3215 -0.2877
 5008TIP3   OH215029   3.361   4.786   4.318 -0.2658  0.0448  0.1058
 5008TIP3    H115030   3.342   4.762   4.228 -0.2772 -1.5832  0.5135
 5008TIP3    H215031   3.439   4.735   4.341  0.3443  1.2114  0.6996
 5009TIP3   OH215032   4.423   1.428   3.161  0.2612  0.4550 -0.7156
 5009TIP3    H115033   4.454   1.431   3.251  0.7515 -0.6426 -0.8273
 5009TIP3    H215034   4.503   1.432   3.108 -0.0427  1.4986 -1.1214
 5010TIP3   OH215035   3.606   5.174   0.332 -0.1501  0.7189  0.2364
 5010TIP3    H115036   3.657   5.216   0.402 -0.7517  0.1376  1.0328
 5010TIP3    H215037   3.568   5.097   0.373 -0.7188  0.5077 -0.6744
 5011TIP3   OH215038   5.441   0.094   3.853  0.5915 -0.0337  0.1841
 5011TIP3    H115039   5.398   0.018   3.894 -0.7114  0.3589 -0.3941
 5011TIP3    H215040   5.491   0.135   3.924 -0.3769 -0.2437  1.0139
 5012TIP3   OH215041   2.474   5.398   3.471 -0.3008  0.1521  0.6267
 5012TIP3    H115042   2.497   5.310   3.499  1.4936  0.1605 -0.6107
 5012TIP3    H215043   2.434   5.439   3.548  1.3606 -0.8629  2.1064
 5013TIP3   OH215044   3.657   3.418   2.606  0.5416 -0.1622 -0.2689
 5013TIP3    H115045   3.562   3.422   2.605  0.5615  0.3611 -0.9888
 5013TIP3    H215046   3.677   3.326   2.591  0.1463 -0.5737  1.6087
 5014TIP3   OH215047   6.152   1.564   2.043 -0.0660 -0.0821 -0.0650
 5014TIP3    H115048   6.139   1.469   2.042  0.2273 -0.1382  0.7776
 5014TIP3    H215049   6.212   1.580   2.116 -1.4786  0.9041  0.9458
 5015TIP3   OH215050   2.486   1.794   4.219 -0.3027 -0.1711 -0.2461
 5015TIP3    H115051   2.540   1.717   4.238  0.5829  0.1928 -1.1775
 5015TIP3    H215052   2.528   1.834   4.143 -1.0635  0.9367 -0.1019
 5016TIP3   OH215053   5.930   1.442   1.148  0.2494 -0.1551  0.1153
 5016TIP3    H115054   5.942   1.501   1.074 -0.6678  0.0344  0.1117
 5016TIP3    H215055   6.006   1.457   1.203  0.1271  0.8814  0.0136
 5017TIP3   OH215056   5.046   1.639   1.279  0.4942 -0.0437  0.1642
 5017TIP3    H115057   5.101   1.563   1.299  0.7660 -0.0003 -0.3902
 5017TIP3    H215058   4.985   1.607   1.213  1.2896  0.4787 -0.8623
 5018TIP3   OH215059   4.428   2.724   5.059 -0.1257  0.9276 -0.3687
 5018TIP3    H115060   4.435   2.810   5.017 -3.1508  0.1256 -2.8496
 5018TIP3    H215061   4.470   2.664   4.997 -0.8959  0.2431 -0.2458
 5019TIP3   OH215062   4.035   4.793   4.242  0.1199  0.6247 -0.0546
 5019TIP3    H115063   4.023   4.888   4.246  0.4105  0.7317 -1.4823
 5019TIP3    H215064   4.109   4.780   4.184  0.3346 -0.4787  0.4352
 5020TIP3   OH215065   3.539   3.420   1.303 -0.2771 -0.0483  0.3951
 5020TIP3    H115066   3.451   3.402   1.337  0.0556 -2.5301  0.1079
 5020TIP3    H215067   3.553   3.353   1.236  1.4200  1.0043 -0.3719
 5021TIP3   OH215068   6.042   5.543   4.051 -0.3959 -0.0073  0.1381
 5021TIP3    H115069   6.066   5.515   4.139  1.2173  1.6733  0.2925
 5021TIP3    H215070   5.955   5.505   4.036 -0.4200 -0.8588  2.1731
 5022TIP3   OH215071   6.103   1.276   2.044 -0.5502  0.0355 -0.5549
 5022TIP3    H115072   6.062   1.195   2.073  0.3005 -0.3103 -0.3042
 5022TIP3    H215073   6.165   1.249   1.977 -0.6280  0.5427 -0.8413
 5023TIP3   OH215074   4.674   1.774   4.420 -0.6754  0.3221 -0.0023
 5023TIP3    H115075   4.652   1.681   4.415 -0.9019  0.4037 -0.5587
 5023TIP3    H215076   4.756   1.776   4.469  0.2299 -0.3236 -1.4140
 5024TIP3   OH215077   5.019   5.471   2.102  0.3252  0.6551 -0.6967
 5024TIP3    H115078   5.033   5.390   2.052 -2.3711 -0.0720 -0.3853
 5024TIP3    H215079   5.052   5.452   2.189 -0.2736 -0.1149 -0.6342
 5025TIP3   OH215080   5.995   2.812   4.994 -0.5433  0.2195 -0.0757
 5025TIP3    H115081   5.960   2.791   4.907 -0.6982 -0.6982  0.2043
 5025TIP3    H215082   6.090   2.813   4.981 -0.4309 -2.1618  0.1978
 5026TIP3   OH215083   2.830   3.580   0.986  0.2467 -0.1133  0.3309
 5026TIP3    H115084   2.740   3.573   0.954  0.5290  0.9807 -0.7698
 5026TIP3    H215085   2.881   3.520   0.931  0.4439  0.4373 -0.0883
 5027TIP3   OH215086   5.235   0.326   4.590  0.5386  0.4712 -0.1501
 5027TIP3    H115087   5.325   0.296   4.592  0.6809  0.9406  0.7642
 5027TIP3    H215088   5.197   0.297   4.672 -0.3057 -0.1683 -0.7459
 5028TIP3   OH215089   5.510   0.860   2.291  0.1015  0.5736 -0.1116
 5028TIP3    H115090   5.481   0.788   2.347  0.0087 -0.3090 -1.2304
 5028TIP3    H215091   5.605   0.849   2.284  0.5385  2.3492  2.0540
 5029TIP3   OH215092   6.141   2.501   4.501 -0.0712  0.1314 -0.2448
 5029TIP3    H115093   6.230   2.537   4.500 -0.8366  2.1343  0.6351
 5029TIP3    H215094   6.143   2.432   4.434  2.1245  0.1355 -0.2606
 5030TIP3   OH215095   5.925   2.080   1.506 -0.1394  0.3345  0.6420
 5030TIP3    H115096   5.830   2.074   1.494 -0.2155 -1.0184  1.6853
 5030TIP3    H215097   5.952   1.991   1.526  1.2806  0.8085  0.9183
 5031TIP3   OH215098   3.297   1.266   2.180  0.1754 -0.0434  0.2467
 5031TIP3    H115099   3.211   1.226   2.168  0.2894 -0.6035  1.1696
 5031TIP3    H215100   3.348   1.237   2.104 -0.1223 -0.6378  0.2694
 5032TIP3   OH215101   1.544   3.811   1.575 -0.1925 -0.8233  0.1731
 5032TIP3    H115102   1.459   3.853   1.593 -0.3111 -1.4609  1.1689
 5032TIP3    H215103   1.559   3.827   1.482 -0.7255  0.5306  0.2975
 5033TIP3   OH215104   3.826   3.736   0.493  0.3326  0.3488  0.0672
 5033TIP3    H115105   3.808   3.686   0.573  0.9822 -1.2423 -0.7361
 5033TIP3    H215106   3.746   3.727   0.441  0.0366  1.1037  0.3719
 5034TIP3   OH215107   0.973   5.374   1.935  0.5441 -0.4326  0.0137
 5034TIP3    H115108   0.885   5.411   1.928 -0.0057 -1.5952  0.5939
 5034TIP3    H215109   1.013   5.392   1.850 -0.2090  0.1953 -0.2217
 5035TIP3   OH215110   0.329   0.187   1.429 -0.2543  0.3978 -0.0006
 5035TIP3    H115111   0.282   0.196   1.512 -0.4696  1.4932 -0.2343
 5035TIP3    H215112   0.406   0.134   1.451  0.4576  1.8671  1.2147
 5036TIP3   OH215113   5.348   1.947   1.607  0.0804 -0.2454  0.0374
 5036TIP3    H115114   5.282   1.903   1.660 -0.0656 -0.2560 -0.1507
 5036TIP3    H215115   5.299   2.009   1.554  0.2396 -0.1434  0.0072
 5037TIP3   OH215116   1.686   4.463   1.677 -0.5161  0.0457  0.0497
 5037TIP3    H115117   1.724   4.457   1.765 -1.6855 -0.5777  0.5491
 5037TIP3    H215118   1.602   4.507   1.691  0.3716  2.2847 -1.1533
 5038TIP3   OH215119   4.561   5.075   0.584 -0.1298  0.2241  1.0544
 5038TIP3    H115120   4.655   5.094   0.589 -0.0897  0.5100 -0.4379
 5038TIP3    H215121   4.555   4.981   0.599  0.5047  0.0376  0.2160
 5039TIP3   OH215122   1.961   4.861   1.671  0.0965  0.1186  0.1140
 5039TIP3    H115123   1.928   4.919   1.602  1.6873 -0.0710 -0.8501
 5039TIP3    H215124   1.982   4.779   1.626  2.1204  0.3224  0.5978
 5040TIP3   OH215125   1.351   5.688   4.901  0.5572 -0.3331 -0.5217
 5040TIP3    H115126   1.413   5.727   4.962 -0.6303 -0.3443  0.7368
 5040TIP3    H215127   1.265   5.710   4.937 -0.1588 -1.2424 -1.6239
 5041TIP3   OH215128   4.194   1.078   5.047 -0.4037  0.5542  0.3094
 5041TIP3    H115129   4.259   1.009   5.030  0.2681  1.3405 -0.3712
 5041TIP3    H215130   4.114   1.045   5.005  0.1138  0.5196 -0.7003
 5042TIP3   OH215131   3.656   5.308   4.090 -0.2952 -0.2570  0.1693
 5042TIP3    H115132   3.701   5.385   4.123 -1.9403  0.7970  0.1172
 5042TIP3    H215133   3.625   5.335   4.003 -3.0142 -0.0178  1.1173
 5043TIP3   OH215134   0.619   3.516   2.205 -0.6170 -0.3252  0.0844
 5043TIP3    H115135   0.580   3.603   2.198 -1.3735 -0.6719 -0.0724
 5043TIP3    H215136   0.545   3.456   2.204 -0.0924 -0.9859  0.0322
 5044TIP3   OH215137   6.151   3.582   3.060  0.2357 -0.1852 -0.1208
 5044TIP3    H115138   6.114   3.669   3.047  0.2521 -0.1430  0.1173
 5044TIP3    H215139   6.220   3.595   3.125 -1.4684 -0.8064  1.9084
 5045TIP3   OH215140   2.351   2.584   2.520  0.0276 -0.5762  0.1215
 5045TIP3    H115141   2.287   2.629   2.465  0.2883  1.8844  1.6249
 5045TIP3    H215142   2.300   2.522   2.572 -1.0244  0.5744  0.5200
 5046TIP3   OH215143   1.608   3.586   4.128 -0.3113 -0.1760  0.3849
 5046TIP3    H115144   1.695   3.621   4.110 -1.1171  0.8297 -1.8939
 5046TIP3    H215145   1.610   3.498   4.089 -0.3588 -0.0826  0.1685
 5047TIP3   OH215146   6.135   2.376   0.608 -0.0195  0.1475 -0.6142
 5047TIP3    H115147   6.082   2.333   0.542  0.7728 -2.4818  0.3407
 5047TIP3    H215148   6.079   2.379   0.686 -0.2686  1.4828 -0.8077
 5048TIP3   OH215149   2.871   0.235   2.656 -0.4573 -0.7892  0.0615
 5048TIP3    H115150   2.879   0.183   2.576  1.6888  0.3251 -0.5236
 5048TIP3    H215151   2.901   0.177   2.726  0.3075 -0.8847 -0.3430
 5049TIP3   OH215152   5.405   2.436   2.394 -0.4072  0.3810  0.5799
 5049TIP3    H115153   5.323   2.405   2.431 -1.0765 -0.0975 -1.2001
 5049TIP3    H215154   5.473   2.398   2.450 -1.3727  0.3984  1.7842
 5050TIP3   OH215155   4.130   1.965   1.910 -0.7927  0.5153  0.2134
 5050TIP3    H115156   4.170   2.052   1.912  0.6156 -0.0743 -0.7571
 5050TIP3    H215157   4.049   1.974   1.961 -1.2731  2.6753 -0.8455
 5051TIP3   OH215158   3.899   5.675   3.327 -0.0302  0.1674  0.4335
 5051TIP3    H115159   3.817   5.626   3.332 -0.4191  0.7233 -0.2671
 5051TIP3    H215160   3.965   5.609   3.311 -0.5644 -0.1401 -0.6244
 5052TIP3   OH215161   3.287   3.140   2.926  0.2038  0.1360 -0.0331
 5052TIP3    H115162   3.308   3.060   2.973 -0.0292 -0.1440 -0.3980
 5052TIP3    H215163   3.270   3.205   2.995 -2.4933 -0.8647  0.3581
 5053TIP3   OH215164   6.251   4.424   1.138  0.0259 -0.2206  0.0791
 5053TIP3    H115165   6.163   4.392   1.121 -0.1746 -0.4159  1.4468
 5053TIP3    H215166   6.238   4.514   1.167  0.3028 -0.1560  0.0037
 5054TIP3   OH215167   1.456   3.157   3.055  0.2072  0.5301  0.3274
 5054TIP3    H115168   1.373   3.200   3.031  1.1071  0.9122 -2.3829
 5054TIP3    H215169   1.440   3.123   3.143 -2.6352  1.0756  0.1251
 5055TIP3   OH215170   1.970   0.491   4.174  0.2655 -0.0982  0.3759
 5055TIP3    H115171   1.953   0.551   4.102  0.3464  0.1517  0.5652
 5055TIP3    H215172   2.057   0.456   4.157 -0.4445 -1.4710 -0.6598
 5056TIP3   OH215173   1.688   0.621   1.108  0.2045 -0.3832  0.1896
 5056TIP3    H115174   1.624   0.690   1.094  0.2280 -0.4169 -0.0787
 5056TIP3    H215175   1.737   0.616   1.026  0.0832 -0.8453  0.1414
 5057TIP3   OH215176   4.681   4.203   2.433  0.2863  0.5127 -0.0148
 5057TIP3    H115177   4.648   4.199   2.523  1.3034 -1.5899  0.3221
 5057TIP3    H215178   4.759   4.257   2.437  0.0755  0.7986  0.2620
 5058TIP3   OH215179   6.262   4.681   4.625 -0.2577  0.4271 -0.0948
 5058TIP3    H115180   6.186   4.655   4.572  0.4181  0.2702 -1.0104
 5058TIP3    H215181   6.337   4.662   4.569  0.5294 -0.5023  1.2361
 5059TIP3   OH215182   4.943   3.580   1.563 -0.4867 -0.8573  1.2075
 5059TIP3    H115183   4.935   3.664   1.609  1.7706  0.1483 -0.0369
 5059TIP3    H215184   5.030   3.584   1.522 -2.1315 -1.7483 -2.8760
 5060TIP3   OH215185   3.880   4.548   4.230 -1.0913  0.1533 -0.5496
 5060TIP3    H115186   3.914   4.636   4.215 -1.4458  0.5902  1.0431
 5060TIP3    H215187   3.892   4.533   4.324 -0.9724 -1.5331 -0.8026
 5061TIP3   OH215188   1.743   2.109   0.066 -0.2916 -0.6234  0.2168
 5061TIP3    H115189   1.722   2.082  -0.023  0.6874 -0.5227 -0.0481
 5061TIP3    H215190   1.715   2.035   0.120 -1.9656 -0.2129 -0.0346
 5062TIP3   OH215191   3.198   0.593   1.045  0.4903  0.1588 -0.1162
 5062TIP3    H115192   3.120   0.557   1.087  1.4351 -1.4341  0.3570
 5062TIP3    H215193   3.248   0.633   1.117  0.4292  0.5911 -0.3109
 5063TIP3   OH215194   0.176   3.317   1.371 -0.1394  0.6222  0.4650
 5063TIP3    H115195   0.188   3.222   1.358  0.0382  0.2375  3.0318
 5063TIP3    H215196   0.085   3.333   1.348  0.3695  0.2927 -2.1192
 5064TIP3   OH215197   5.664   4.981   4.558  0.3413 -0.4409 -0.0732
 5064TIP3    H115198   5.632   4.896   4.589  1.0227 -0.4439  0.6562
 5064TIP3    H215199   5.614   4.998   4.479  0.3005 -1.5944 -0.3120
 5065TIP3   OH215200   0.988   2.909   4.558 -0.6673  0.0283  0.0504
 5065TIP3    H115201   1.079   2.888   4.579 -0.4863  0.3402 -0.4129
 5065TIP3    H215202   0.936   2.858   4.620 -0.2276 -1.7581 -0.9728
 5066TIP3   OH215203   4.992   0.098   0.274 -0.3667  0.1711 -0.3328
 5066TIP3    H115204   4.905   0.114   0.238 -0.3301  1.6570  0.1634
 5066TIP3    H215205   5.010   0.175   0.330  0.8796 -0.5365  0.2959
 5067TIP3   OH215206   5.178   4.565   3.968  0.1698 -0.4780 -0.1499
 5067TIP3    H115207   5.214   4.601   3.888  0.0489 -1.7809 -0.8138
 5067TIP3    H215208   5.095   4.525   3.941  1.0259 -2.6270  0.2122
 5068TIP3   OH215209   2.595   0.668   2.832  0.1911  0.5250  0.1551
 5068TIP3    H115210   2.685   0.660   2.863  0.0073 -0.5876  0.4690
 5068TIP3    H215211   2.592   0.614   2.753 -0.2376  0.4245  0.2356
 5069TIP3   OH215212   6.021   5.435   3.133 -0.3490 -0.3072  0.5371
 5069TIP3    H115213   5.976   5.352   3.146 -1.9572  0.6265  1.2354
 5069TIP3    H215214   5.962   5.486   3.078  0.2643  0.6288  0.7213
 5070TIP3   OH215215   1.311   1.745   2.121  0.3066  0.4855 -0.2218
 5070TIP3    H115216   1.290   1.794   2.200 -0.9103  2.6083 -1.7742
 5070TIP3    H215217   1.406   1.749   2.115  0.3991  0.4920  0.9901
 5071TIP3   OH215218   0.127   4.608   1.853  0.0155  0.5271 -0.0974
 5071TIP3    H115219   0.214   4.572   1.873 -0.8183 -0.0313  3.1319
 5071TIP3    H215220   0.080   4.534   1.815 -0.4358 -0.7974  2.7382
 5072TIP3   OH215221   3.264   0.338   2.677 -0.9973 -0.3535  0.2039
 5072TIP3    H115222   3.236   0.254   2.640  0.1140 -1.1041  1.0166
 5072TIP3    H215223   3.302   0.385   2.603 -3.7169  0.4580 -0.8128
 5073TIP3   OH215224   4.212   2.071   1.041  0.0505 -0.2186 -0.5078
 5073TIP3    H115225   4.122   2.102   1.051 -0.4337 -1.7321  0.2243
 5073TIP3    H215226   4.207   2.004   0.973  0.1247 -1.9676  1.1127
 5074TIP3   OH215227   3.084   5.452  -0.024 -1.0013 -0.1796 -0.0798
 5074TIP3    H115228   3.178   5.440  -0.037 -1.1278 -0.7846 -0.4290
 5074TIP3    H215229   3.068   5.418   0.064 -0.9055 -0.1261 -0.0409
 5075TIP3   OH215230   4.232   2.471   0.445  1.1330 -0.4054  0.1194
 5075TIP3    H115231   4.249   2.423   0.526  0.3276  0.8646  1.0920
 5075TIP3    H215232   4.308   2.529   0.436  1.7040 -1.2503 -0.5964
 5076TIP3   OH215233   2.633   0.556   4.459  0.1012 -0.1370 -0.0827
 5076TIP3    H115234   2.699   0.589   4.398  0.3103  0.0147  0.2212
 5076TIP3    H215235   2.591   0.635   4.494  0.4214 -0.1954  0.4510
 5077TIP3   OH215236   1.224   1.265   1.343 -0.1664  0.1046  0.5321
 5077TIP3    H115237   1.147   1.273   1.399 -1.1531  0.6944 -0.8692
 5077TIP3    H215238   1.275   1.195   1.384 -0.3218  1.1876  2.7459
 5078TIP3   OH215239   3.927   0.752   2.585  0.0403  0.7004  0.6760
 5078TIP3    H115240   3.964   0.750   2.673  1.8908 -0.8408 -0.0564
 5078TIP3    H215241   3.840   0.791   2.595 -0.5969 -1.2011  3.4633
 5079TIP3   OH215242   4.538   4.009   0.608  0.2124  0.3771  0.3159
 5079TIP3    H115243   4.560   3.916   0.599 -1.1620 -0.0927  1.3733
 5079TIP3    H215244   4.614   4.056   0.574  1.6542 -1.1263  1.3215
 5080TIP3   OH215245   3.434   0.400   3.175 -0.2716 -1.0050 -0.0671
 5080TIP3    H115246   3.501   0.343   3.139  0.0440 -0.1568 -0.8511
 5080TIP3    H215247   3.374   0.341   3.221  1.6707 -1.6709  1.7746
 5081TIP3   OH215248   0.771   3.710   4.765 -0.6299  0.3679  0.1628
 5081TIP3    H115249   0.709   3.779   4.790 -1.1217  0.5075 -1.3073
 5081TIP3    H215250   0.735   3.630   4.803 -1.4262  0.5376 -0.2191
 5082TIP3   OH215251   0.784   5.839   5.157 -0.1254  0.8843 -0.0207
 5082TIP3    H115252   0.727   5.915   5.171 -0.9313  0.3529 -0.3578
 5082TIP3    H215253   0.855   5.873   5.102 -0.6546  1.3243 -0.4496
 5083TIP3   OH215254   1.358   3.926   1.391 -0.0981  0.3814 -0.7532
 5083TIP3    H115255   1.354   4.001   1.451 -0.1939 -0.1897 -0.0343
 5083TIP3    H215256   1.440   3.938   1.343  1.4174 -0.5791  1.4291
 5084TIP3   OH215257   2.941   0.672   1.355 -0.5008 -0.2221 -0.0895
 5084TIP3    H115258   2.877   0.633   1.415 -1.4583  1.8363  0.3172
 5084TIP3    H215259   3.005   0.713   1.413  0.5517 -1.2117 -0.5093
 5085TIP3   OH215260   5.611   1.308   0.380 -0.7474 -0.5069 -0.0079
 5085TIP3    H115261   5.640   1.340   0.465  1.9614 -0.2002 -0.9462
 5085TIP3    H215262   5.573   1.222   0.399 -2.0193  0.3687  1.7029
 5086TIP3   OH215263   1.981   2.672   5.045 -0.0377 -0.0229  0.3864
 5086TIP3    H115264   1.985   2.577   5.034 -0.9887 -0.0835  0.5236
 5086TIP3    H215265   2.025   2.688   5.128  0.2434 -0.3279  0.2982
 5087TIP3   OH215266   5.246   4.825   0.750  0.7357 -0.5089 -0.2697
 5087TIP3    H115267   5.338   4.834   0.775  0.4314  0.4189  0.5888
 5087TIP3    H215268   5.199   4.883   0.810 -0.1044  1.5518 -2.7242
 5088TIP3   OH215269   2.350   1.185   1.955 -0.1615  0.6340 -0.5233
 5088TIP3    H115270   2.260   1.176   1.987  0.0925  0.9794  0.3128
 5088TIP3    H215271   2.352   1.270   1.913  0.2620  1.5302  1.2017
 5089TIP3   OH215272   4.948   1.173   0.311  0.4790  0.1313 -0.6233
 5089TIP3    H115273   4.922   1.097   0.259 -0.2612 -0.3896  0.4688
 5089TIP3    H215274   4.868   1.224   0.319  0.9267  0.9426 -1.1784
 5090TIP3   OH215275   3.496   5.900   0.445 -0.0492  0.0592  0.3060
 5090TIP3    H115276   3.411   5.929   0.478  0.2666  1.1371  0.2020
 5090TIP3    H215277   3.557   5.920   0.515  0.2276 -0.0624  0.0995
 5091TIP3   OH215278   3.729   0.584   0.281 -0.2270 -0.1944 -0.2755
 5091TIP3    H115279   3.818   0.574   0.316  0.2733  2.9231 -0.3454
 5091TIP3    H215280   3.723   0.518   0.213  1.4390 -1.5595  0.8133
 5092TIP3   OH215281   0.205   4.403   4.375  0.1214 -0.2495  0.2022
 5092TIP3    H115282   0.175   4.376   4.461 -0.1517 -0.6961 -0.0321
 5092TIP3    H215283   0.301   4.399   4.380  0.1226 -3.1016 -0.3784
 5093TIP3   OH215284   1.001   0.862   2.338  0.4375 -0.1505  0.3299
 5093TIP3    H115285   0.932   0.923   2.363  0.2332  0.0816 -0.7666
 5093TIP3    H215286   0.954   0.784   2.307  0.6743 -0.2270  0.1616
 5094TIP3   OH215287   5.768   2.363   2.232  0.3089  0.4376 -0.5248
 5094TIP3    H115288   5.769   2.448   2.275  1.1182  0.3022 -0.2473
 5094TIP3    H215289   5.778   2.300   2.303  2.6448  0.2469 -0.9351
 5095TIP3   OH215290   2.700   0.344   2.981  0.7286 -0.1871 -0.5574
 5095TIP3    H115291   2.648   0.333   2.901  1.0607 -1.5496 -0.6004
 5095TIP3    H215292   2.754   0.422   2.963 -1.9360  1.8921 -0.1264
 5096TIP3   OH215293   2.233   1.188   2.306  0.3214  0.0658 -0.2234
 5096TIP3    H115294   2.310   1.235   2.272  1.1827  0.1415  1.7015
 5096TIP3    H215295   2.259   1.096   2.304  1.0986  0.1810  1.7384
 5097TIP3   OH215296   3.489   3.510   3.596 -0.6969  0.1869  0.2010
 5097TIP3    H115297   3.566   3.473   3.639  1.1043  2.0402 -1.2704
 5097TIP3    H215298   3.417   3.493   3.658  1.0847 -0.4769  2.2157
 5098TIP3   OH215299   1.950   0.255   0.956  0.5321  0.0044 -0.3877
 5098TIP3    H115300   1.901   0.302   0.888 -0.8539 -1.0575 -0.1672
 5098TIP3    H215301   1.998   0.188   0.908 -0.8752 -1.1062 -0.3428
 5099TIP3   OH215302   4.500   2.159   1.990  0.8644 -0.0620 -0.2318
 5099TIP3    H115303   4.595   2.148   1.998  0.7452 -0.4425  0.8244
 5099TIP3    H215304   4.475   2.094   1.924  1.1657 -0.9899  0.5329
 5100TIP3   OH215305   5.113   3.335   4.887 -0.7150  0.6254  0.0174
 5100TIP3    H115306   5.088   3.416   4.842  1.1854  2.6772  2.3945
 5100TIP3    H215307   5.080   3.345   4.976 -0.8738 -1.5046  0.2540
 5101TIP3   OH215308   5.389   3.215   1.059  0.1414  0.3946 -0.1215
 5101TIP3    H115309   5.407   3.122   1.047  0.4000  0.3945  0.2486
 5101TIP3    H215310   5.466   3.259   1.024 -0.1495  0.4883 -0.6539
 5102TIP3   OH215311   1.604   0.482   2.882 -0.3890  0.0329 -0.2877
 5102TIP3    H115312   1.600   0.413   2.816 -1.3582 -1.7666  1.5433
 5102TIP3    H215313   1.698   0.495   2.898 -0.1702  0.0595 -1.5533
 5103TIP3   OH215314   0.491   5.000   1.210 -0.1775  0.2717  0.6127
 5103TIP3    H115315   0.467   4.999   1.117  1.5147 -0.0201  0.1528
 5103TIP3    H215316   0.418   4.956   1.254  0.1021 -1.7815 -0.8642
 5104TIP3   OH215317   3.785   3.686   0.775 -0.1509 -0.0107 -0.3658
 5104TIP3    H115318   3.715   3.627   0.747 -0.3433  0.4657 -0.9125
 5104TIP3    H215319   3.739   3.766   0.801  0.0486 -0.3167  1.0152
 5105TIP3   OH215320   4.416   1.394   4.487 -0.0483  0.2911 -0.0791
 5105TIP3    H115321   4.350   1.325   4.491 -0.3830  0.6401  0.5940
 5105TIP3    H215322   4.376   1.468   4.532  1.2557  0.1299  1.4388
 5106TIP3   OH215323   0.738   5.760   2.252 -0.0328 -0.2787  0.3276
 5106TIP3    H115324   0.729   5.778   2.345 -0.8322 -0.0736  0.2178
 5106TIP3    H215325   0.653   5.782   2.215  0.5937  0.6227 -0.6229
 5107TIP3   OH215326   4.011   3.264   4.146  0.5335 -0.4393 -0.2646
 5107TIP3    H115327   3.990   3.341   4.198 -1.1166 -0.7062 -0.4914
 5107TIP3    H215328   4.019   3.194   4.211  0.1092 -0.4450 -0.2127
 5108TIP3   OH215329   0.048   2.990   0.874  0.0154 -0.4517  0.2758
 5108TIP3    H115330  -0.008   2.983   0.951 -0.9450 -0.3849 -0.4019
 5108TIP3    H215331   0.082   2.901   0.862  0.4948 -0.3727  1.0098
 5109TIP3   OH215332   1.696   4.827   3.582  0.1608  0.0777  0.1378
 5109TIP3    H115333   1.749   4.785   3.650  1.9787 -1.0360 -1.8418
 5109TIP3    H215334   1.605   4.812   3.610  0.8256  0.3883  2.6902
 5110TIP3   OH215335   3.143   0.429   1.522 -0.3117 -0.0908 -0.4048
 5110TIP3    H115336   3.133   0.396   1.433 -1.4216 -0.8796 -0.0032
 5110TIP3    H215337   3.199   0.364   1.565  1.7875  1.2426 -1.0043
 5111TIP3   OH215338   5.160   1.255   2.476  0.0680  0.0990  0.0374
 5111TIP3    H115339   5.175   1.256   2.381 -2.2461  0.2915 -0.4011
 5111TIP3    H215340   5.112   1.336   2.493 -1.1155 -0.7709  1.0337
 5112TIP3   OH215341   1.981   3.302   3.892  0.6451  0.1215  0.9392
 5112TIP3    H115342   2.036   3.349   3.954  0.4254  2.6474 -0.6313
 5112TIP3    H215343   1.891   3.321   3.920  0.5507  0.3885  0.4630
 5113TIP3   OH215344   3.310   5.628   2.798 -0.5367  0.1660 -0.0295
 5113TIP3    H115345   3.385   5.659   2.850 -0.7237 -0.0378  0.3676
 5113TIP3    H215346   3.336   5.643   2.708  0.4468 -0.9022  0.0493
 5114TIP3   OH215347   5.454   2.169   4.971 -0.2209 -0.6146  0.1853
 5114TIP3    H115348   5.444   2.242   4.910 -2.0756 -1.4493 -0.5674
 5114TIP3    H215349   5.433   2.206   5.056  2.2395  0.5255  0.3962
 5115TIP3   OH215350   6.137   3.983   0.518  0.0571  0.3015  0.5936
 5115TIP3    H115351   6.136   4.027   0.603 -0.1282  0.2741  0.6067
 5115TIP3    H215352   6.084   4.040   0.461 -1.3838 -0.6059  0.9695
 5116TIP3   OH215353   3.387   0.207   4.189 -0.5429  0.1928 -0.0027
 5116TIP3    H115354   3.467   0.179   4.144 -1.1647 -0.4111 -0.7512
 5116TIP3    H215355   3.411   0.209   4.282  0.0549 -1.0142 -0.1121
 5117TIP3   OH215356   5.814   4.655   0.700 -0.5519 -0.1736 -0.3687
 5117TIP3    H115357   5.754   4.704   0.643 -1.0879  1.5303  1.5498
 5117TIP3    H215358   5.761   4.583   0.734 -0.6241 -0.4102 -0.9812
 5118TIP3   OH215359   1.230   1.723   0.297 -0.3654 -0.2086  0.0688
 5118TIP3    H115360   1.190   1.795   0.346 -1.5822  0.0911 -1.3225
 5118TIP3    H215361   1.157   1.682   0.251  0.5414 -1.3968 -0.3421
 5119TIP3   OH215362   3.217   1.344   1.513 -0.1209 -0.3183  0.0508
 5119TIP3    H115363   3.196   1.426   1.558  1.0154 -0.6489  1.2640
 5119TIP3    H215364   3.235   1.370   1.423 -0.1717  0.7218  0.3255
 5120TIP3   OH215365   1.288   5.778   2.271 -0.2402 -0.0885 -0.0341
 5120TIP3    H115366   1.322   5.800   2.184 -1.2806 -1.3141 -0.7856
 5120TIP3    H215367   1.194   5.795   2.265 -0.2933  0.0137  0.9279
 5121TIP3   OH215368   1.838   3.327   2.126  0.1018  0.1056 -0.2121
 5121TIP3    H115369   1.797   3.344   2.041  1.3355 -0.2082 -0.8813
 5121TIP3    H215370   1.800   3.244   2.155 -2.0857  1.3176  0.6813
 5122TIP3   OH215371   0.624   5.410   3.272 -0.1026  0.2785  0.4504
 5122TIP3    H115372   0.619   5.317   3.292  3.4103 -0.2068 -0.1978
 5122TIP3    H215373   0.598   5.454   3.353  0.5818 -1.3645  1.6006
 5123TIP3   OH215374   4.890   5.083   3.661 -0.3375 -0.0765 -0.0954
 5123TIP3    H115375   4.841   5.162   3.682  1.6012  1.1434  0.0909
 5123TIP3    H215376   4.918   5.095   3.570  1.5158  0.3886  0.4772
 5124TIP3   OH215377   0.910   3.675   0.692  0.2743  0.6434  0.5542
 5124TIP3    H115378   0.911   3.665   0.597 -0.0395  0.6456  0.5505
 5124TIP3    H215379   0.907   3.769   0.707 -0.5091  0.6208  0.5580
 5125TIP3   OH215380   1.715   2.821   3.591  0.1747  0.5934 -0.5064
 5125TIP3    H115381   1.723   2.823   3.495 -3.5437 -0.7578 -1.0101
 5125TIP3    H215382   1.653   2.892   3.610  0.6092  0.6138  0.8888
 5126TIP3   OH215383   5.635   5.507   4.397  0.2065 -0.1473  0.0499
 5126TIP3    H115384   5.691   5.585   4.402 -0.6101  0.3939  1.6770
 5126TIP3    H215385   5.568   5.529   4.333  0.2550  0.3235  0.1549
 5127TIP3   OH215386   1.268   4.187   0.742 -0.2932 -0.1187 -0.2291
 5127TIP3    H115387   1.286   4.233   0.824 -1.4785 -1.2163  0.7001
 5127TIP3    H215388   1.181   4.216   0.717  0.0632  0.2114 -1.1317
 5128TIP3   OH215389   2.225   0.043   5.102  0.0282  0.1453  0.0911
 5128TIP3    H115390   2.261   0.098   5.032 -1.3430  3.0779  1.5069
 5128TIP3    H215391   2.160  -0.011   5.058 -0.7498  1.8647 -0.9973
 5129TIP3   OH215392   1.924   2.330   0.759  0.1283  0.2472 -0.0327
 5129TIP3    H115393   1.939   2.382   0.680  1.5373  1.3379  0.9081
 5129TIP3    H215394   1.917   2.240   0.728 -1.3945  0.8427 -1.6001
 5130TIP3   OH215395   5.543   2.263   2.583 -0.3282  0.2617 -0.0258
 5130TIP3    H115396   5.495   2.180   2.584  0.8617 -0.4734  1.8726
 5130TIP3    H215397   5.627   2.241   2.542  0.6643  0.0525  2.0084
 5131TIP3   OH215398   3.583   2.780   1.852  0.1608  0.4923 -0.1589
 5131TIP3    H115399   3.662   2.729   1.870 -1.5513 -2.4601 -0.4262
 5131TIP3    H215400   3.582   2.848   1.919  1.7359 -0.8244  1.2888
 5132TIP3   OH215401   2.924   2.406   2.072  0.2736  0.4544 -0.7339
 5132TIP3    H115402   3.018   2.408   2.058  0.3598  0.8847 -0.1433
 5132TIP3    H215403   2.897   2.498   2.068  0.0660  0.4500  0.2442
 5133TIP3   OH215404   3.693   0.407   0.055  0.1939  0.8592  0.1567
 5133TIP3    H115405   3.783   0.437   0.039 -0.0685  0.9164 -1.4056
 5133TIP3    H215406   3.680   0.337  -0.008 -0.6547  0.3996  0.8216
 5134TIP3   OH215407   1.468   5.048   0.929 -0.2451 -0.4646 -0.3798
 5134TIP3    H115408   1.562   5.044   0.947 -0.5383  0.1086  1.4937
 5134TIP3    H215409   1.429   4.983   0.988 -0.9980 -1.2320 -1.6605
 5135TIP3   OH215410   5.946   3.292   3.660  0.0125  0.5372  0.0602
 5135TIP3    H115411   6.032   3.333   3.665  0.3337 -0.0863 -0.1355
 5135TIP3    H215412   5.891   3.342   3.720 -0.0613  2.3070 -1.3902
 5136TIP3   OH215413   6.312   3.748   2.721  0.0957 -0.5882  0.2571
 5136TIP3    H115414   6.330   3.823   2.778 -0.4139 -0.6261  0.4740
 5136TIP3    H215415   6.232   3.773   2.674 -0.3771 -1.2199  0.7235
 5137TIP3   OH215416   2.203   5.571   0.808 -0.2821  0.5125  0.6804
 5137TIP3    H115417   2.221   5.632   0.879  0.1980 -0.1148  1.1151
 5137TIP3    H215418   2.199   5.485   0.850  0.2381  0.0995 -0.0682
 5138TIP3   OH215419   2.103   1.924   3.459 -0.0149  0.2293  0.6989
 5138TIP3    H115420   2.189   1.926   3.500 -0.1750 -0.7285  1.1120
 5138TIP3    H215421   2.059   1.849   3.500 -0.4528 -0.3026 -0.7043
 5139TIP3   OH215422   6.286   1.876   1.445 -0.1501 -0.2418  0.6152
 5139TIP3    H115423   6.254   1.915   1.526 -1.4394  1.1091 -0.4596
 5139TIP3    H215424   6.244   1.790   1.441 -1.8553  0.5550  0.3924
 5140TIP3   OH215425   0.228   5.855   0.951 -0.0467 -0.4193 -0.3370
 5140TIP3    H115426   0.168   5.807   1.009  0.9047 -0.7520  0.3929
 5140TIP3    H215427   0.306   5.800   0.946  1.2445  1.1919  0.8449
 5141TIP3   OH215428   0.616   0.504   4.942  0.2439  0.5590  0.1537
 5141TIP3    H115429   0.595   0.412   4.958  0.1591  0.9872  2.9908
 5141TIP3    H215430   0.603   0.515   4.848  1.4549 -2.6095 -0.5503
 5142TIP3   OH215431   2.905   2.052   0.952  0.6422  0.2069  0.8373
 5142TIP3    H115432   2.894   2.126   0.893  2.2132 -0.3486 -0.2497
 5142TIP3    H215433   2.971   1.997   0.908 -1.3641 -2.4838  0.9491
 5143TIP3   OH215434   4.403   3.137   0.810 -0.3455 -0.8144 -0.2783
 5143TIP3    H115435   4.473   3.185   0.855 -0.3625  1.5984 -2.6157
 5143TIP3    H215436   4.449   3.067   0.763  0.3004 -0.1573 -0.6312
 5144TIP3   OH215437   3.851   1.986   1.492 -0.2347  0.1870  0.3183
 5144TIP3    H115438   3.816   1.907   1.532 -0.7923  1.1384  1.7590
 5144TIP3    H215439   3.816   2.058   1.544 -0.9970  1.5005 -1.8938
 5145TIP3   OH215440   1.030   1.844   0.946  0.1730 -0.0671  0.0903
 5145TIP3    H115441   0.988   1.806   1.023  1.8476 -0.0929  1.0566
 5145TIP3    H215442   1.041   1.937   0.968  0.5741 -0.0548 -0.1408
 5146TIP3   OH215443   4.661   3.651   2.272  0.4591 -0.2307 -0.5571
 5146TIP3    H115444   4.637   3.718   2.335  0.2481  0.4424 -1.3441
 5146TIP3    H215445   4.692   3.699   2.195 -0.6173 -0.9824 -1.5070
 5147TIP3   OH215446   1.724   3.516   0.227 -0.2795 -0.7455  0.0717
 5147TIP3    H115447   1.679   3.598   0.213 -1.3049 -1.2734  0.1904
 5147TIP3    H215448   1.736   3.511   0.322  3.3131  1.0676 -0.1167
 5148TIP3   OH215449   2.394   0.561   0.236  0.4277  0.1405 -0.0182
 5148TIP3    H115450   2.443   0.626   0.286  0.8311  0.3283 -0.6403
 5148TIP3    H215451   2.331   0.612   0.186  1.0494  0.1160 -0.8576
 5149TIP3   OH215452   4.100   4.416   0.548 -0.2085  0.3264 -0.3625
 5149TIP3    H115453   4.089   4.500   0.504 -0.0325 -0.3393 -1.7525
 5149TIP3    H215454   4.012   4.378   0.550  0.0556 -0.4784 -1.9736
 5150TIP3   OH215455   1.755   0.596   1.382 -0.3702 -0.6069 -0.0977
 5150TIP3    H115456   1.754   0.580   1.287 -0.1944  0.1149 -0.2302
 5150TIP3    H215457   1.694   0.668   1.395  1.3099  0.8712  0.0131
 5151TIP3   OH215458   6.140   3.219   1.930 -0.4499 -0.0741  0.1164
 5151TIP3    H115459   6.120   3.164   2.005 -2.9490  2.5409  1.5298
 5151TIP3    H215460   6.236   3.220   1.926 -0.2845 -2.1339  1.7584
 5152TIP3   OH215461   0.114   5.889   1.925 -0.5162  0.4173 -0.7874
 5152TIP3    H115462   0.142   5.972   1.885 -0.2922  0.5671 -0.3269
 5152TIP3    H215463   0.019   5.887   1.912 -0.4745  0.5778 -1.1151
 5153TIP3   OH215464   3.749   1.639   1.167 -0.4101  0.2476  0.3486
 5153TIP3    H115465   3.831   1.590   1.169 -0.4251  0.2369  1.3052
 5153TIP3    H215466   3.751   1.685   1.084 -0.4260 -1.4175 -0.6286
 5154TIP3   OH215467   1.245   0.228   0.040  0.0426  0.6688  0.2687
 5154TIP3    H115468   1.317   0.188  -0.009  0.2134 -0.0160  1.0529
 5154TIP3    H215469   1.228   0.310  -0.005  0.5570  0.3116 -0.6068
 5155TIP3   OH215470   2.597   0.932   3.815  0.6792 -0.1301  0.4811
 5155TIP3    H115471   2.553   0.856   3.853  0.3728 -0.4221 -0.4434
 5155TIP3    H215472   2.602   0.995   3.888 -1.7637  0.1438  0.5108
 5156TIP3   OH215473   6.163   4.918   4.110  0.4070  0.1905  0.2317
 5156TIP3    H115474   6.244   4.925   4.061  0.5448 -0.0103  0.4268
 5156TIP3    H215475   6.181   4.853   4.178 -0.2435 -0.6722 -0.3897
 5157TIP3   OH215476   0.264   0.805   3.117 -0.0062  0.4454 -0.2573
 5157TIP3    H115477   0.324   0.835   3.048  1.4821  2.5440  1.8051
 5157TIP3    H215478   0.214   0.883   3.141  1.1368  0.4482  2.5344
 5158TIP3   OH215479   0.423   4.701   3.026 -0.1381  0.2187  0.3477
 5158TIP3    H115480   0.441   4.755   3.102 -0.8027 -0.4028  0.9587
 5158TIP3    H215481   0.458   4.615   3.049 -0.4287  0.0031 -0.0052
 5159TIP3   OH215482   3.072   3.746   0.395  0.1086  0.0087  0.0586
 5159TIP3    H115483   3.025   3.679   0.445  0.7220 -0.0561  0.5670
 5159TIP3    H215484   3.011   3.773   0.327 -0.5589 -0.2620  0.5422
 5160TIP3   OH215485   5.863   2.691   2.496  0.1080  0.0253 -0.0897
 5160TIP3    H115486   5.813   2.654   2.569  1.6626 -0.8385  0.5837
 5160TIP3    H215487   5.928   2.624   2.475 -0.1381  0.3554 -2.1356
 5161TIP3   OH215488   5.984   4.555   5.078 -0.2894  0.7276 -0.0288
 5161TIP3    H115489   5.922   4.561   5.005 -0.3629 -0.7760 -0.1058
 5161TIP3    H215490   5.960   4.629   5.134 -0.6822  1.4985 -1.1699
 5162TIP3   OH215491   2.098  -0.003   3.755 -0.1898  0.8691 -0.2561
 5162TIP3    H115492   2.134  -0.027   3.841 -0.2944 -0.0543 -0.4579
 5162TIP3    H215493   2.016   0.043   3.776 -0.0009  1.0220  0.1497
 5163TIP3   OH215494   5.381   2.395   1.918  0.3264 -0.0744  0.0594
 5163TIP3    H115495   5.357   2.306   1.894 -3.2980  1.0597 -1.0905
 5163TIP3    H215496   5.411   2.434   1.836  1.3144 -0.0044  0.4360
 5164TIP3   OH215497   4.656   5.706   1.897 -0.1512  0.1896  0.1232
 5164TIP3    H115498   4.746   5.672   1.889  0.1081  0.5614  1.2521
 5164TIP3    H215499   4.666   5.793   1.935 -0.9069  0.9742 -1.3842
 5165TIP3   OH215500   4.597   3.165   1.010  0.5263  0.6551  0.2842
 5165TIP3    H115501   4.611   3.072   0.991  1.5951  0.9966 -0.7110
 5165TIP3    H215502   4.561   3.166   1.098  1.3753 -0.6498  0.6734
 5166TIP3   OH215503   3.046   4.641   3.218  0.0621  0.1695  0.6348
 5166TIP3    H115504   3.099   4.626   3.296  1.7422  0.0424 -0.4927
 5166TIP3    H215505   3.008   4.728   3.232  2.9352  1.6025  0.2295
 5167TIP3   OH215506   1.357   1.735   2.757  1.8137  0.2054 -0.6660
 5167TIP3    H115507   1.446   1.757   2.782  1.9067 -1.2237  0.3725
 5167TIP3    H215508   1.309   1.732   2.839  1.1135 -0.3476 -1.0831
 5168TIP3   OH215509   6.156   5.334   2.385  0.0546  0.0357  0.0965
 5168TIP3    H115510   6.239   5.300   2.351  0.0394 -0.5458  0.6350
 5168TIP3    H215511   6.177   5.370   2.471 -0.5678 -1.7740  1.0531
 5169TIP3   OH215512   0.146   0.166   2.914 -0.3401  0.3329 -0.1036
 5169TIP3    H115513   0.203   0.121   2.976 -1.7181  2.4851  2.9827
 5169TIP3    H215514   0.206   0.209   2.852  1.1223 -1.3641  0.0784
 5170TIP3   OH215515   3.554   3.695   2.309  0.1500 -0.0880  0.2223
 5170TIP3    H115516   3.467   3.656   2.299 -0.5015  1.3933 -0.0159
 5170TIP3    H215517   3.556   3.728   2.398 -0.1634  1.3375 -0.2738
 5171TIP3   OH215518   1.552   3.187   4.684 -0.5855 -0.1589 -0.4850
 5171TIP3    H115519   1.571   3.183   4.778  0.9991 -1.0815 -0.8066
 5171TIP3    H215520   1.557   3.280   4.662  0.7491 -0.0775  0.0490
 5172TIP3   OH215521   0.755   3.538   4.066  0.1760 -0.0428 -0.5717
 5172TIP3    H115522   0.728   3.464   4.012 -1.6706  0.2761 -0.1353
 5172TIP3    H215523   0.795   3.499   4.143  0.2519 -0.5591 -0.8707
 5173TIP3   OH215524   4.720   2.159   4.514  0.1633  0.5448 -0.1258
 5173TIP3    H115525   4.755   2.116   4.436  0.0605  1.5664 -0.7609
 5173TIP3    H215526   4.625   2.155   4.503  0.1075 -0.7444  0.7630
 5174TIP3   OH215527   5.339   0.366   0.081 -0.0225 -0.0670  0.4253
 5174TIP3    H115528   5.414   0.318   0.119 -0.6901 -0.7617  0.9067
 5174TIP3    H215529   5.350   0.456   0.112  2.3537  0.6628 -2.1006
 5175TIP3   OH215530   3.009   5.611   3.909  0.2184 -0.7189  0.3071
 5175TIP3    H115531   3.057   5.532   3.934  2.4048  0.1684 -0.7366
 5175TIP3    H215532   2.930   5.610   3.962  0.5901 -3.1677  0.9123
 5176TIP3   OH215533   4.416   0.220   3.330 -0.4197  0.0765  0.1570
 5176TIP3    H115534   4.489   0.240   3.273 -1.2373 -1.7635 -1.6951
 5176TIP3    H215535   4.347   0.282   3.305  0.5092  2.0696  2.1690
 5177TIP3   OH215536   4.806   2.162   3.844 -0.5003 -0.4966  0.1382
 5177TIP3    H115537   4.883   2.199   3.887 -1.1685  0.7630  0.2870
 5177TIP3    H215538   4.745   2.235   3.838 -2.0204 -1.6624  0.7823
 5178TIP3   OH215539   1.639   5.674   2.668 -0.0009  0.3002 -0.1569
 5178TIP3    H115540   1.680   5.599   2.625  0.5817 -1.2237  2.7802
 5178TIP3    H215541   1.561   5.692   2.616  1.6683 -0.0254 -2.9480
 5179TIP3   OH215542   1.313   3.295   3.432  0.6040 -0.0630  0.0339
 5179TIP3    H115543   1.281   3.248   3.510  1.4787 -0.0270  0.4178
 5179TIP3    H215544   1.362   3.229   3.383 -0.9310 -0.4154 -1.1238
 5180TIP3   OH215545   6.220   0.976   1.584  0.3864  0.2819  0.3901
 5180TIP3    H115546   6.262   1.062   1.580  1.0080  0.0564  1.7311
 5180TIP3    H215547   6.209   0.951   1.492  0.8034  1.4910 -0.0067
 5181TIP3   OH215548   1.311   1.070   4.571 -0.2473 -0.0557 -0.1484
 5181TIP3    H115549   1.274   1.100   4.654 -0.4887  1.7056 -0.8506
 5181TIP3    H215550   1.287   1.138   4.508  0.1357 -1.2309 -1.6229
 5182TIP3   OH215551   0.624   0.993   1.585  0.3644  0.3163 -0.0201
 5182TIP3    H115552   0.548   0.966   1.532  0.2275 -0.1688  0.4144
 5182TIP3    H215553   0.604   1.083   1.611 -0.4662 -0.0810  0.7877
 5183TIP3   OH215554   3.919   0.154   2.273 -0.0495  0.3510  0.2147
 5183TIP3    H115555   3.877   0.101   2.340 -0.3891  0.8628  0.4111
 5183TIP3    H215556   3.997   0.104   2.249 -1.8684 -1.7820 -1.7863
 5184TIP3   OH215557   1.060   4.100   4.595 -0.2273 -0.1352  0.1992
 5184TIP3    H115558   0.974   4.098   4.638  0.0478  2.5442  1.0972
 5184TIP3    H215559   1.116   4.046   4.650 -0.8762 -0.2443  0.7714
 5185TIP3   OH215560   2.198   5.054   1.191  0.3253 -0.8049  0.1654
 5185TIP3    H115561   2.139   4.995   1.143 -0.6652 -1.1299  1.7040
 5185TIP3    H215562   2.144   5.129   1.214  0.9559 -0.3606  0.2131
 5186TIP3   OH215563   1.323   4.341   0.494 -0.2615 -0.8405  0.0073
 5186TIP3    H115564   1.363   4.279   0.554 -0.2968 -0.5330  0.3553
 5186TIP3    H215565   1.238   4.302   0.472 -0.7997 -0.3743  1.1548
 5187TIP3   OH215566   2.488   4.366   3.973  0.1670  0.4469  0.1682
 5187TIP3    H115567   2.535   4.371   3.889 -0.4782  1.5422 -0.1465
 5187TIP3    H215568   2.470   4.457   3.996  2.9546  0.4595  3.0310
 5188TIP3   OH215569   2.706   3.960   0.640 -0.1772 -0.2354 -0.4678
 5188TIP3    H115570   2.719   3.925   0.552 -0.4957 -1.4284 -0.0648
 5188TIP3    H215571   2.637   3.905   0.677 -1.5387  1.5795 -0.1930
 5189TIP3   OH215572   3.797   2.220   0.474 -0.2676  0.1888 -0.4476
 5189TIP3    H115573   3.730   2.156   0.498 -0.1039 -0.3931 -1.4798
 5189TIP3    H215574   3.750   2.286   0.423 -0.1513  0.0379 -0.7537
 5190TIP3   OH215575   4.811   5.961   2.243  0.3259  0.2025 -0.5243
 5190TIP3    H115576   4.874   5.901   2.280  1.7078  0.8508 -1.7254
 5190TIP3    H215577   4.807   6.034   2.304 -0.1673 -0.3678  0.1372
 5191TIP3   OH215578   5.968   4.445   1.468  0.0149 -0.0218  0.2930
 5191TIP3    H115579   6.063   4.455   1.476 -0.0332 -0.0116  0.9632
 5191TIP3    H215580   5.948   4.370   1.524 -0.6137  1.2676  1.8862
 5192TIP3   OH215581   0.569   4.648   2.402 -0.2392 -0.5171  0.2067
 5192TIP3    H115582   0.481   4.678   2.426 -0.1685 -0.2507  0.1336
 5192TIP3    H215583   0.601   4.714   2.341 -0.4793 -1.2716 -0.7695
 5193TIP3   OH215584   1.872   3.960   1.046  0.2945 -0.5767  0.8220
 5193TIP3    H115585   1.783   3.929   1.062  0.7284 -2.2001  0.1797
 5193TIP3    H215586   1.881   4.035   1.105 -1.6491 -0.0563  0.5440
 5194TIP3   OH215587   3.588   0.341   1.598  0.0228  0.1328  0.1509
 5194TIP3    H115588   3.635   0.309   1.675  1.1996  1.2934 -0.0429
 5194TIP3    H215589   3.580   0.436   1.613  0.8435  0.4945 -1.4187
 5195TIP3   OH215590   2.963   2.338   3.811 -0.9217  0.3048  0.8335
 5195TIP3    H115591   2.895   2.383   3.762 -1.1363 -0.1249  0.7365
 5195TIP3    H215592   2.978   2.257   3.763  1.6046  1.5790 -0.7470
 5196TIP3   OH215593   0.714   4.199   1.929 -0.1608  0.6800  0.2548
 5196TIP3    H115594   0.709   4.175   2.022 -1.6493  0.0661  0.0485
 5196TIP3    H215595   0.632   4.245   1.912 -0.4710 -0.3090 -1.0437
 5197TIP3   OH215596   1.761   5.551   3.475  0.5496  0.5823 -0.6006
 5197TIP3    H115597   1.667   5.562   3.490  0.4881  1.2585 -1.4434
 5197TIP3    H215598   1.780   5.463   3.508 -0.4187  0.3584 -0.6087
 5198TIP3   OH215599   5.350   0.180   2.306  0.6045 -0.0565 -0.5164
 5198TIP3    H115600   5.276   0.125   2.332  0.9556 -0.3507 -0.1221
 5198TIP3    H215601   5.340   0.260   2.357  0.5347 -0.0779 -0.4961
 5199TIP3   OH215602   6.078   1.353   3.694  0.0327  0.5731  0.1569
 5199TIP3    H115603   6.068   1.258   3.698 -0.4232  0.6511  1.8328
 5199TIP3    H215604   6.004   1.387   3.745  2.2435  1.6611  2.9074
 5200TIP3   OH215605   4.556   5.107   4.674  0.3647 -0.2147  0.3779
 5200TIP3    H115606   4.626   5.043   4.684  0.2346 -0.5454 -0.6840
 5200TIP3    H215607   4.518   5.115   4.761 -0.0222 -2.0726  0.4142
 5201TIP3   OH215608   0.191   2.449   4.487  0.7777 -0.0270 -0.2761
 5201TIP3    H115609   0.109   2.425   4.444  0.8519  1.4410 -1.3518
 5201TIP3    H215610   0.195   2.394   4.564 -1.8276  0.6642  0.4719
 5202TIP3   OH215611   0.145   4.025   4.483 -0.1244  0.2841  0.7649
 5202TIP3    H115612   0.060   4.069   4.484 -2.3065 -3.4963  1.0087
 5202TIP3    H215613   0.171   4.026   4.391 -1.5904 -0.3798  0.3100
 5203TIP3   OH215614   1.222   0.241   2.587  0.2480  0.0475 -0.0031
 5203TIP3    H115615   1.265   0.305   2.644 -0.8435 -0.1338  1.0577
 5203TIP3    H215616   1.228   0.280   2.499 -0.8900  1.9062  0.6798
 5204TIP3   OH215617   3.388   5.538   4.172 -0.2968  0.2689 -0.0122
 5204TIP3    H115618   3.468   5.536   4.119  1.0743 -1.2513  1.9683
 5204TIP3    H215619   3.339   5.461   4.144 -0.5628  0.5941 -0.4586
 5205TIP3   OH215620   4.632   5.147   1.839 -0.4823 -0.1010 -0.0390
 5205TIP3    H115621   4.618   5.092   1.762  1.8784  0.6157 -1.0859
 5205TIP3    H215622   4.693   5.214   1.809 -0.3062  0.8195  2.2098
 5206TIP3   OH215623   2.302   3.083   1.522 -0.0099 -0.4074 -0.3733
 5206TIP3    H115624   2.358   3.028   1.578 -1.4446 -1.5721 -0.0369
 5206TIP3    H215625   2.296   3.166   1.569 -0.3583 -1.0292  0.7120
 5207TIP3   OH215626   4.646   1.560   1.361 -0.0533 -0.1035  0.5051
 5207TIP3    H115627   4.622   1.604   1.279  1.8801  0.4445  0.1764
 5207TIP3    H215628   4.697   1.626   1.409  1.4760 -1.4023  0.7422
 5208TIP3   OH215629   3.191   4.643   4.643 -0.1475 -0.7288  0.2097
 5208TIP3    H115630   3.111   4.594   4.662 -1.1599  0.4294 -0.8452
 5208TIP3    H215631   3.172   4.689   4.561  0.3002  2.2554  1.6227
 5209TIP3   OH215632   3.982   4.452   3.292 -0.0672  0.1254  0.4675
 5209TIP3    H115633   4.053   4.500   3.336  2.0809 -1.0584 -1.4785
 5209TIP3    H215634   4.027   4.390   3.235 -2.7356 -1.6185  0.0977
 5210TIP3   OH215635   3.361   2.401   3.868 -0.7503  0.3397  0.2466
 5210TIP3    H115636   3.331   2.408   3.777 -0.6020  2.7223  0.3103
 5210TIP3    H215637   3.280   2.403   3.920 -0.7716  0.4975  0.2087
 5211TIP3   OH215638   2.395   1.052   1.694 -0.2185  0.4229 -0.2666
 5211TIP3    H115639   2.379   1.063   1.787  0.4333 -0.5801 -0.0201
 5211TIP3    H215640   2.313   1.016   1.659  0.1948 -1.1796  0.3162
 5212TIP3   OH215641   3.235   0.835   3.075  0.0375  0.3138  0.7514
 5212TIP3    H115642   3.206   0.767   3.014 -0.8720  1.4938 -0.1687
 5212TIP3    H215643   3.188   0.914   3.048  0.4854  1.1436  2.2772
 5213TIP3   OH215644   5.996   0.705   4.656 -0.2769 -0.1561 -0.1734
 5213TIP3    H115645   6.024   0.735   4.569 -0.8243  1.6859  0.2306
 5213TIP3    H215646   5.918   0.757   4.675 -0.1811 -0.5438  1.4180
 5214TIP3   OH215647   1.142   1.829   4.018 -0.8683 -0.1000  0.1767
 5214TIP3    H115648   1.168   1.747   3.975 -2.3623 -1.3322  1.4852
 5214TIP3    H215649   1.216   1.888   4.003  0.0925 -1.5446 -1.1565
 5215TIP3   OH215650   2.894   1.817   2.839 -0.1252 -0.7066  0.1287
 5215TIP3    H115651   2.813   1.809   2.788  0.4155 -0.5313 -0.7765
 5215TIP3    H215652   2.953   1.752   2.801  0.4419 -0.2618  0.2307
 5216TIP3   OH215653   0.763   4.322   4.844  0.5085 -0.0382 -0.1083
 5216TIP3    H115654   0.837   4.379   4.825  0.3199  0.5443  0.8132
 5216TIP3    H215655   0.770   4.305   4.938 -0.2666 -0.3487 -0.0980
 5217TIP3   OH215656   4.199   3.056   1.826 -0.4770 -0.6902  0.2013
 5217TIP3    H115657   4.105   3.053   1.843 -1.1573 -0.2526 -2.8399
 5217TIP3    H215658   4.217   2.977   1.776  0.4863 -0.1804 -0.2998
 5218TIP3   OH215659   5.729   2.351   0.661  0.1241 -0.0273 -0.0975
 5218TIP3    H115660   5.646   2.391   0.687 -0.7881 -0.5445 -2.0307
 5218TIP3    H215661   5.757   2.401   0.584  0.7244 -0.9336 -0.4887
 5219TIP3   OH215662   4.253   1.410   1.668  0.0263 -0.1774  0.2685
 5219TIP3    H115663   4.212   1.438   1.586  1.3568  0.0614 -0.3449
 5219TIP3    H215664   4.338   1.376   1.641  0.5243 -0.0130  1.5721
 5220TIP3   OH215665   0.843   3.377   2.318  0.1061  0.3187  0.2663
 5220TIP3    H115666   0.772   3.413   2.265 -0.9012 -0.0376  1.3514
 5220TIP3    H215667   0.923   3.411   2.276 -0.7110  1.3834 -0.4958
 5221TIP3   OH215668   0.958   5.565   1.217  0.4741  1.3409 -0.5869
 5221TIP3    H115669   0.933   5.525   1.133  1.0808 -3.0529  1.0422
 5221TIP3    H215670   0.875   5.593   1.256 -0.1158  0.9992 -1.5582
 5222TIP3   OH215671   3.367   5.243   4.072  0.1120 -0.1333 -0.5413
 5222TIP3    H115672   3.295   5.245   4.008  0.3597 -0.7160 -0.8450
 5222TIP3    H215673   3.423   5.170   4.043  1.0634  0.5919 -0.5663
 5223TIP3   OH215674   1.704   4.157   0.850 -0.0667 -0.2910  0.0570
 5223TIP3    H115675   1.696   4.235   0.906 -0.4496 -0.7196  0.6037
 5223TIP3    H215676   1.798   4.148   0.835 -0.0907  1.2945 -1.4723
 5224TIP3   OH215677   3.166   5.691   1.768 -0.1807 -0.2279 -0.3584
 5224TIP3    H115678   3.181   5.624   1.703 -1.5481 -1.3728  0.4345
 5224TIP3    H215679   3.080   5.728   1.745 -1.0186 -1.1308  1.1167
 5225TIP3   OH215680   3.934   1.696   4.683  0.2537 -0.3111 -0.3478
 5225TIP3    H115681   3.983   1.741   4.614  1.9651 -1.1422  0.2728
 5225TIP3    H215682   3.842   1.711   4.660  0.7718  0.9116 -1.8195
 5226TIP3   OH215683   5.638   1.957   3.788  0.2671 -0.1513  0.6198
 5226TIP3    H115684   5.708   1.894   3.771  0.1365  0.0641 -0.8662
 5226TIP3    H215685   5.560   1.918   3.749 -0.3364 -0.1038  1.7193
 5227TIP3   OH215686   2.006   1.679   3.560 -0.0993 -0.3038 -0.1159
 5227TIP3    H115687   2.008   1.622   3.482 -3.4767  0.3038 -0.7839
 5227TIP3    H215688   2.021   1.619   3.633  1.6877 -1.1197 -1.0589
 5228TIP3   OH215689   1.786   4.187   2.501  0.3385  0.0305  0.4421
 5228TIP3    H115690   1.758   4.264   2.451 -0.3259  0.7433  1.8299
 5228TIP3    H215691   1.868   4.159   2.459 -0.3439  0.3771 -1.2066
 5229TIP3   OH215692   2.136   3.745   0.364 -0.0433 -0.2534  0.5791
 5229TIP3    H115693   2.181   3.716   0.285  0.9605  0.4273  0.8931
 5229TIP3    H215694   2.074   3.811   0.334 -0.5195 -0.8558  0.2107
 5230TIP3   OH215695   4.231   5.903   3.423 -0.0121  0.4705  0.6235
 5230TIP3    H115696   4.139   5.924   3.431 -0.8455 -3.2365  3.3340
 5230TIP3    H215697   4.234   5.827   3.365  1.1297 -0.3212  1.6551
 5231TIP3   OH215698   5.652   4.933   0.311 -0.3453  0.1455 -1.3697
 5231TIP3    H115699   5.712   4.935   0.237  0.4887  1.5934 -0.7011
 5231TIP3    H215700   5.625   4.842   0.318  1.8744 -0.5914 -1.6456
 5232TIP3   OH215701   5.552   3.482   1.770 -0.4181 -0.4702 -0.0141
 5232TIP3    H115702   5.606   3.497   1.692 -0.9733 -0.6281 -0.4360
 5232TIP3    H215703   5.467   3.518   1.746 -0.8434 -1.3452  0.1809
 5233TIP3   OH215704   4.817   3.376  -0.003 -0.3648  0.2402  0.8190
 5233TIP3    H115705   4.870   3.341   0.069  3.7306 -0.6026 -2.2515
 5233TIP3    H215706   4.814   3.470   0.013  2.3887  0.3671  1.0728
 5234TIP3   OH215707   0.197   3.910   4.228 -0.6727 -0.4208 -0.1564
 5234TIP3    H115708   0.156   3.980   4.177  1.4364  0.9748 -0.0699
 5234TIP3    H215709   0.274   3.885   4.177  1.4674  0.9524  2.1745
 5235TIP3   OH215710   0.631   0.601   2.325 -0.4776 -0.5169  0.1000
 5235TIP3    H115711   0.590   0.687   2.320 -1.0236 -0.7915 -0.3168
 5235TIP3    H215712   0.724   0.617   2.309  0.0243  0.4223  3.3129
 5236TIP3   OH215713   5.435   3.327   4.898  0.3586 -0.4228 -0.0080
 5236TIP3    H115714   5.348   3.330   4.857  0.3027  1.5554  0.1412
 5236TIP3    H215715   5.484   3.264   4.846 -0.7430 -0.5375 -0.9619
 5237TIP3   OH215716   5.701   5.837   3.061 -0.5401  0.7348  0.2723
 5237TIP3    H115717   5.749   5.761   3.028  0.1759  0.5918  1.5877
 5237TIP3    H215718   5.727   5.844   3.152 -0.8678  2.3729  0.2661
 5238TIP3   OH215719   1.401   0.564   4.432 -0.0019 -0.3625  0.5354
 5238TIP3    H115720   1.358   0.638   4.474  0.4614 -0.1055  0.5688
 5238TIP3    H215721   1.397   0.584   4.339  2.1292  0.8774  0.6249
 5239TIP3   OH215722   6.072   1.232   0.745 -0.2988  0.0874  0.3529
 5239TIP3    H115723   5.981   1.237   0.774 -0.0649  1.1966  0.9288
 5239TIP3    H215724   6.123   1.261   0.820  0.4329  1.1612 -0.5271
 5240TIP3   OH215725   1.163   1.991   0.333 -0.1584 -0.0388  0.2231
 5240TIP3    H115726   1.183   1.960   0.245 -0.4022 -0.7701  0.4186
 5240TIP3    H215727   1.227   2.061   0.349  0.2657 -0.2984 -0.3067
 5241TIP3   OH215728   0.484   1.915   0.453 -0.1840  0.5545  0.2492
 5241TIP3    H115729   0.491   1.883   0.542 -0.3615 -1.7941 -0.5159
 5241TIP3    H215730   0.393   1.945   0.445 -0.9156 -1.5290  0.1999
 5242TIP3   OH215731   1.360   1.009   1.973  0.2363  0.2143  0.2849
 5242TIP3    H115732   1.312   0.965   2.044 -2.6578 -1.2085 -2.3020
 5242TIP3    H215733   1.325   1.098   1.972  0.8411  0.4710  1.0697
 5243TIP3   OH215734   0.557   3.340   3.961 -0.3359 -0.1093 -0.7645
 5243TIP3    H115735   0.547   3.313   4.052 -1.5165 -1.4952 -1.2640
 5243TIP3    H215736   0.476   3.312   3.918  0.5987 -0.4110 -2.4522
 5244TIP3   OH215737   3.358   5.474   1.640  0.1899 -0.0901  0.1251
 5244TIP3    H115738   3.381   5.434   1.557 -2.3467 -0.6094 -0.4207
 5244TIP3    H215739   3.417   5.549   1.648  0.9848 -0.4535 -1.7562
 5245TIP3   OH215740   3.352   5.722   3.833 -0.3985 -0.4727 -0.3121
 5245TIP3    H115741   3.281   5.785   3.850  0.0522 -0.0009 -0.1651
 5245TIP3    H215742   3.384   5.746   3.747 -0.1209 -0.4042 -0.1888
 5246TIP3   OH215743   5.078   5.943   3.353 -0.7431  0.2121 -0.1732
 5246TIP3    H115744   5.095   5.917   3.443  0.7199  0.5201 -0.3333
 5246TIP3    H215745   5.107   5.868   3.301 -1.9168 -0.1107 -0.3823
 5247TIP3   OH215746   4.143   4.907   1.742  0.8513 -0.2646  0.1585
 5247TIP3    H115747   4.096   4.852   1.804  0.6523  0.3299  0.5435
 5247TIP3    H215748   4.208   4.849   1.702 -1.0364 -1.4762 -1.3464
 5248TIP3   OH215749   4.383   4.803   5.190  0.2950 -0.2128 -0.5780
 5248TIP3    H115750   4.308   4.784   5.134  1.5608 -1.5048 -1.9151
 5248TIP3    H215751   4.460   4.778   5.138  1.6174 -0.0312  1.1720
 5249TIP3   OH215752   1.975   3.720   3.307 -0.3984  0.5047 -0.1438
 5249TIP3    H115753   1.903   3.784   3.309  0.2522  1.2714 -0.6374
 5249TIP3    H215754   2.001   3.712   3.399 -0.6109  0.8074 -0.0534
 5250TIP3   OH215755   6.106   1.567   3.506  0.2427 -0.5184 -0.2242
 5250TIP3    H115756   6.097   1.497   3.571 -0.4610  1.2794  1.7351
 5250TIP3    H215757   6.198   1.595   3.515 -0.2140  0.7014  1.1620
 5251TIP3   OH215758   2.414   2.947   4.208  0.1438 -0.2568  0.3669
 5251TIP3    H115759   2.403   2.909   4.295 -1.1270  3.4109  2.0220
 5251TIP3    H215760   2.326   2.943   4.169 -0.1456  1.2073  0.7813
 5252TIP3   OH215761   2.917   5.857   0.411 -0.3115 -0.2956  0.0906
 5252TIP3    H115762   2.889   5.925   0.350  1.4653  0.4568  0.0522
 5252TIP3    H215763   2.863   5.870   0.489  1.5128  2.7478  1.0101
 5253TIP3   OH215764   5.940   4.137   0.101 -0.1616 -0.4086  0.5619
 5253TIP3    H115765   6.003   4.156   0.170 -0.6944 -0.2816  1.0199
 5253TIP3    H215766   5.933   4.219   0.052  0.8268 -0.7383 -0.1498
 5254TIP3   OH215767   0.394   4.079   4.631 -0.1230 -0.3026  0.0040
 5254TIP3    H115768   0.405   4.138   4.706  1.5239 -0.1754 -0.3035
 5254TIP3    H215769   0.436   4.124   4.558  0.9809 -1.7224 -0.2962
 5255TIP3   OH215770   1.117   0.914   2.589  0.1759  0.4980 -0.1150
 5255TIP3    H115771   1.111   0.893   2.496  3.2462  0.2680 -0.3704
 5255TIP3    H215772   1.167   0.995   2.593 -1.1233  1.2979  1.3408
 5256TIP3   OH215773   2.991   0.088   4.778 -0.2617  0.2601 -0.2511
 5256TIP3    H115774   2.951   0.135   4.850 -1.5829  0.0582 -0.8184
 5256TIP3    H215775   2.919   0.038   4.739  0.8868 -1.5124 -0.2362
 5257TIP3   OH215776   2.548   3.554   1.321  0.3152  0.0677 -0.0520
 5257TIP3    H115777   2.550   3.627   1.258  0.8468 -1.3305 -1.7404
 5257TIP3    H215778   2.456   3.528   1.325  0.0466  1.1049  0.9251
 5258TIP3   OH215779   1.168   5.399   2.287  0.3939  0.0056  0.1153
 5258TIP3    H115780   1.173   5.369   2.378  0.3622  0.8227  0.3926
 5258TIP3    H215781   1.089   5.454   2.284 -0.3015 -0.9873 -0.7039
 5259TIP3   OH215782   6.035   4.134   2.240 -0.4350 -0.0067 -0.8661
 5259TIP3    H115783   6.055   4.090   2.322  0.6674  1.8339 -0.0821
 5259TIP3    H215784   5.942   4.159   2.248 -0.0577  1.1455  0.3662
 5260TIP3   OH215785   2.184   4.631   3.189 -0.3189  0.6465 -0.3300
 5260TIP3    H115786   2.171   4.632   3.284  0.7355  1.4720 -0.1794
 5260TIP3    H215787   2.134   4.706   3.157  1.5855  2.0835 -0.0775
 5261TIP3   OH215788   4.687   3.000   4.385  0.3972 -0.3916 -0.1956
 5261TIP3    H115789   4.691   3.051   4.304 -1.1662 -2.2994 -1.5827
 5261TIP3    H215790   4.673   2.910   4.355  1.5706 -1.4381  2.1687
 5262TIP3   OH215791   0.145   5.367   4.472  0.1435 -0.6834 -0.2447
 5262TIP3    H115792   0.108   5.315   4.543 -0.3207 -2.5809 -1.8097
 5262TIP3    H215793   0.206   5.426   4.516 -1.2360 -0.7246  1.8839
 5263TIP3   OH215794   6.052   1.339   2.345  0.0227  0.5799  0.0915
 5263TIP3    H115795   6.072   1.270   2.281 -0.2028  1.4824 -0.9854
 5263TIP3    H215796   5.960   1.360   2.329 -0.7329 -0.7217  2.2598
 5264TIP3   OH215797   0.308   5.991   1.510  0.2430 -0.2486  0.0033
 5264TIP3    H115798   0.293   6.019   1.419  0.7522  0.4108  0.1166
 5264TIP3    H215799   0.253   5.913   1.520 -0.4208  0.1161 -0.6387
 5265TIP3   OH215800   2.931   3.135   2.983  0.2144  0.0604  0.0313
 5265TIP3    H115801   2.877   3.063   3.017 -1.0382  1.0420  0.2069
 5265TIP3    H215802   2.932   3.122   2.888 -0.4434  0.1038  0.0175
 5266TIP3   OH215803   0.587   4.256   1.182 -0.1937  0.2050 -0.4309
 5266TIP3    H115804   0.644   4.275   1.107 -0.9397  0.2373 -0.9996
 5266TIP3    H215805   0.648   4.240   1.254  0.5900 -1.1401 -1.3363
 5267TIP3   OH215806   3.161   0.934   2.013 -0.2475  0.0470 -0.4060
 5267TIP3    H115807   3.113   0.854   2.035  1.8056 -1.1346  0.0333
 5267TIP3    H215808   3.218   0.948   2.088  1.5955  0.1695 -1.7576
 5268TIP3   OH215809   2.252   4.434   4.137  0.0342 -0.1334  0.5644
 5268TIP3    H115810   2.212   4.516   4.106  0.7475  0.6249  1.5818
 5268TIP3    H215811   2.281   4.390   4.057 -0.8798  0.3301 -0.0348
 5269TIP3   OH215812   1.999   4.460   1.265  0.1010  0.1196 -0.2005
 5269TIP3    H115813   1.906   4.463   1.243 -0.0622  1.0935  0.4956
 5269TIP3    H215814   2.002   4.417   1.351  0.3438 -0.3049 -0.4177
 5270TIP3   OH215815   2.955   3.034   0.964  1.1350  0.0390 -0.1294
 5270TIP3    H115816   2.873   2.985   0.968  1.3225 -0.3290 -0.7503
 5270TIP3    H215817   2.937   3.104   0.901  1.4279 -0.2800 -0.5641
 5271TIP3   OH215818   2.528   3.224   2.386  0.4023 -0.3944  0.0769
 5271TIP3    H115819   2.568   3.304   2.418 -1.8845  0.6863  0.4132
 5271TIP3    H215820   2.482   3.250   2.306  0.8777 -1.7344 -0.6751
 5272TIP3   OH215821   2.797   3.276   2.067  0.1529 -0.0026 -0.2950
 5272TIP3    H115822   2.805   3.205   2.130 -2.3231 -0.2946 -0.2356
 5272TIP3    H215823   2.821   3.237   1.983  0.5685 -0.4030  0.0052
 5273TIP3   OH215824   4.367   5.137   0.103  0.2923  0.4264 -0.1228
 5273TIP3    H115825   4.371   5.185   0.020 -0.9107  1.5675  0.4418
 5273TIP3    H215826   4.273   5.127   0.119  0.5271 -1.0081  0.4258
 5274TIP3   OH215827   5.386   1.069   4.007  0.0132  0.1163  0.1393
 5274TIP3    H115828   5.381   0.974   4.021 -2.5456  0.2438  0.4909
 5274TIP3    H215829   5.314   1.088   3.947  1.0418  1.7457 -0.6351
 5275TIP3   OH215830   0.044   1.682   4.005 -0.1481  0.6798 -0.1781
 5275TIP3    H115831   0.127   1.668   4.049 -0.9093  0.8073  1.3793
 5275TIP3    H215832  -0.001   1.597   4.010 -0.5564  0.9028 -0.0331
 5276TIP3   OH215833   5.392   1.846   0.669 -0.1140  1.0647  0.1812
 5276TIP3    H115834   5.431   1.928   0.638 -0.5055  1.1045 -0.2268
 5276TIP3    H215835   5.421   1.838   0.760  0.4606  1.3246  0.0287
 5277TIP3   OH215836   1.272   5.879   3.425 -0.0990  0.2800 -0.3608
 5277TIP3    H115837   1.298   5.889   3.516  0.8975 -1.8463 -0.3538
 5277TIP3    H215838   1.341   5.924   3.375  2.6104 -3.2969 -0.2299
 5278TIP3   OH215839   5.240   1.652   0.100 -0.1984  0.5327  0.4390
 5278TIP3    H115840   5.261   1.737   0.138 -0.8818  0.7648  0.3122
 5278TIP3    H215841   5.145   1.644   0.110 -0.4601  0.7343 -1.4466
 5279TIP3   OH215842   1.528   1.195   3.738  0.1071 -0.0068  0.3930
 5279TIP3    H115843   1.605   1.149   3.706 -1.1190 -2.1421  0.3771
 5279TIP3    H215844   1.507   1.153   3.821 -1.5805 -0.1173 -0.0527
 5280TIP3   OH215845   0.934   1.076   3.770  0.5227 -0.3104  0.2904
 5280TIP3    H115846   0.993   1.001   3.775  0.7038 -0.1017  1.5201
 5280TIP3    H215847   0.889   1.077   3.854 -1.2494 -0.4650 -0.6141
 5281TIP3   OH215848   4.229   0.784   3.752  0.6761  0.1185  0.2603
 5281TIP3    H115849   4.250   0.764   3.660 -0.3775  1.1544 -0.2301
 5281TIP3    H215850   4.136   0.763   3.760  0.3638  1.5575  0.6376
 5282TIP3   OH215851   5.591   1.505   2.149  0.1000 -0.1829  0.1300
 5282TIP3    H115852   5.554   1.592   2.164 -1.8318 -0.5992 -1.8254
 5282TIP3    H215853   5.526   1.460   2.095  0.9489 -2.9381  1.2437
 5283TIP3   OH215854   4.211   2.342   2.838 -0.0878  0.0865 -0.5153
 5283TIP3    H115855   4.164   2.425   2.839  0.5096  0.4318 -0.6691
 5283TIP3    H215856   4.301   2.365   2.858  0.1485 -0.4828 -0.8895
 5284TIP3   OH215857   5.345   5.726   2.066 -0.4380  0.1342 -0.2868
 5284TIP3    H115858   5.437   5.732   2.040 -0.9730  1.2752 -2.0784
 5284TIP3    H215859   5.334   5.634   2.090  1.1103 -0.0757 -0.2411
 5285TIP3   OH215860   2.912   2.819   3.708 -0.0395  1.0617  0.5857
 5285TIP3    H115861   2.951   2.787   3.627  0.4944  1.8916  0.5030
 5285TIP3    H215862   2.868   2.901   3.684  0.3789  1.4735  1.1722
 5286TIP3   OH215863   5.859   1.164   0.260 -0.0531 -0.2347 -0.2663
 5286TIP3    H115864   5.841   1.256   0.240  0.2957 -0.3856 -1.3491
 5286TIP3    H215865   5.913   1.167   0.339 -0.5021  0.4620  0.0190
 5287TIP3   OH215866   2.432   4.196   1.408  0.3264 -0.4033 -0.7318
 5287TIP3    H115867   2.520   4.167   1.433  0.8358  0.1422 -1.8614
 5287TIP3    H215868   2.392   4.222   1.491  1.1622 -0.8046 -0.1786
 5288TIP3   OH215869   5.432   0.172   1.160  0.0232  0.3454  0.1029
 5288TIP3    H115870   5.484   0.175   1.241  0.1811 -1.2736  0.0942
 5288TIP3    H215871   5.349   0.134   1.187 -0.4214  1.0345 -0.2706
 5289TIP3   OH215872   5.923   5.854   4.897  0.3913 -0.5654  0.1184
 5289TIP3    H115873   5.902   5.804   4.975  0.7382 -1.1969 -0.1924
 5289TIP3    H215874   5.945   5.941   4.930  1.4354 -1.0772  0.8104
 5290TIP3   OH215875   1.654   0.177   0.373 -0.6955  0.1985  0.7478
 5290TIP3    H115876   1.698   0.093   0.362  0.9627  1.1196 -0.0225
 5290TIP3    H215877   1.569   0.165   0.329  0.3017 -0.4996 -1.1201
 5291TIP3   OH215878   5.080   1.779   0.969  0.0754 -0.0737 -0.2107
 5291TIP3    H115879   5.081   1.814   1.058 -0.5888 -0.1405 -0.1695
 5291TIP3    H215880   5.079   1.684   0.981 -0.1754 -0.0806 -0.2867
 5292TIP3   OH215881   3.250   2.956   2.363 -0.3096  0.2618  0.0244
 5292TIP3    H115882   3.249   2.949   2.268  2.5309  2.8979 -0.3670
 5292TIP3    H215883   3.161   2.980   2.387 -0.5898  1.7156 -2.2272
 5293TIP3   OH215884   5.237   3.436   2.560  0.1483  0.3037 -0.0473
 5293TIP3    H115885   5.145   3.421   2.538  0.0654  0.9826 -0.1994
 5293TIP3    H215886   5.239   3.525   2.596  1.0456  1.0897 -1.9240
 5294TIP3   OH215887   3.553   0.001   3.114  0.6045 -0.2047 -0.2347
 5294TIP3    H115888   3.588   0.026   3.200 -0.6243 -0.8589  0.4838
 5294TIP3    H215889   3.542   0.083   3.068 -0.6931  0.3779  1.0315
 5295TIP3   OH215890   4.523   1.086   3.325  0.2857  0.2214 -0.1894
 5295TIP3    H115891   4.488   1.061   3.411 -2.1454  1.0818 -0.8539
 5295TIP3    H215892   4.476   1.030   3.263  0.4094  1.0919 -1.0925
 5296TIP3   OH215893   5.251   3.842   1.305  0.3171  0.4011  0.6448
 5296TIP3    H115894   5.177   3.902   1.314  0.4350  0.3596  2.1676
 5296TIP3    H215895   5.250   3.791   1.387  1.4206 -0.2935  0.2436
 5297TIP3   OH215896   0.315   5.341   2.801 -0.5828 -0.3636 -0.0921
 5297TIP3    H115897   0.299   5.286   2.878  0.7312 -1.1586 -0.3505
 5297TIP3    H215898   0.410   5.343   2.793 -0.5336  2.6225  0.3578
 5298TIP3   OH215899   5.981   0.406   2.632 -0.1737 -0.1020 -0.5002
 5298TIP3    H115900   5.935   0.382   2.712 -0.4896 -0.3718 -0.7587
 5298TIP3    H215901   5.942   0.350   2.564  0.0363  0.1773 -0.8555
 5299TIP3   OH215902   1.659   3.124   0.745 -0.8004  0.1945 -0.2216
 5299TIP3    H115903   1.604   3.182   0.798  0.0834  0.6523  0.2035
 5299TIP3    H215904   1.730   3.098   0.803 -0.4140 -0.1732 -0.8540
 5300TIP3   OH215905   5.768   4.574   2.241  0.7215 -0.3671 -0.1475
 5300TIP3    H115906   5.831   4.544   2.306  0.0417 -0.5101  0.4629
 5300TIP3    H215907   5.775   4.510   2.170  1.1106 -0.5037  0.0084
 5301TIP3   OH215908   0.624   1.951   4.070 -0.1118 -0.1030 -0.0440
 5301TIP3    H115909   0.586   2.036   4.092 -0.2479 -0.3272  0.6001
 5301TIP3    H215910   0.634   1.953   3.975 -0.4207  0.5083 -0.0659
 5302TIP3   OH215911   1.234   3.882   2.946  0.1873  0.3521 -0.1743
 5302TIP3    H115912   1.261   3.793   2.971  2.0673  1.3486  1.5999
 5302TIP3    H215913   1.141   3.873   2.923  0.2271 -1.9909  0.3175
 5303TIP3   OH215914   2.339   4.409   4.611 -0.3504 -0.0571  0.2843
 5303TIP3    H115915   2.310   4.387   4.699 -0.2129 -0.2491  0.2827
 5303TIP3    H215916   2.404   4.342   4.590  0.1093  0.3815  0.2960
 5304TIP3   OH215917   1.774   4.247   2.132  1.1609 -0.2319  0.7131
 5304TIP3    H115918   1.695   4.192   2.141  2.2517 -1.8046  1.2460
 5304TIP3    H215919   1.772   4.303   2.210 -0.1027  0.7296  0.0381
 5305TIP3   OH215920   3.337   3.818   4.638 -0.3779  0.3798 -0.2028
 5305TIP3    H115921   3.424   3.794   4.671 -0.3598 -0.3012 -0.7234
 5305TIP3    H215922   3.303   3.880   4.703 -0.5567 -1.3050  1.4133
 5306TIP3   OH215923   5.880   0.576   3.742  0.4308  0.1435 -0.2038
 5306TIP3    H115924   5.923   0.491   3.734 -1.3422 -0.8424  0.2434
 5306TIP3    H215925   5.878   0.593   3.836 -0.0010  0.2529 -0.2309
 5307TIP3   OH215926   3.493   1.869   3.334 -0.2684 -0.1837 -0.5819
 5307TIP3    H115927   3.585   1.891   3.348 -0.7731  1.4412  0.5462
 5307TIP3    H215928   3.450   1.954   3.319 -1.5230 -0.9430 -1.5359
 5308TIP3   OH215929   4.941   1.900   3.566  0.3848 -0.0480 -0.0763
 5308TIP3    H115930   4.947   1.848   3.486 -0.6161 -0.8398  0.3445
 5308TIP3    H215931   5.022   1.951   3.567  0.6845 -0.4584 -1.2849
 5309TIP3   OH215932   2.811   1.587   1.243 -0.3431 -0.3669  0.1100
 5309TIP3    H115933   2.857   1.509   1.210 -0.2798 -0.1876 -0.2340
 5309TIP3    H215934   2.750   1.553   1.308 -0.4654 -0.7334 -0.1873
 5310TIP3   OH215935   5.116   2.437   3.757  0.1801 -0.4940  0.4840
 5310TIP3    H115936   5.165   2.378   3.700 -1.3584 -1.3820  0.0583
 5310TIP3    H215937   5.176   2.452   3.831  1.7054 -0.2970 -0.7466
 5311TIP3   OH215938   4.576   2.855   4.675 -0.3747 -0.4810 -0.0882
 5311TIP3    H115939   4.540   2.766   4.669 -1.6742  0.1306 -2.4181
 5311TIP3    H215940   4.516   2.902   4.732 -0.7932 -0.5908 -0.4381
 5312TIP3   OH215941   0.082   1.446   3.744  0.1166 -0.1427  0.1509
 5312TIP3    H115942   0.078   1.411   3.655  1.6863 -2.2104  0.8164
 5312TIP3    H215943   0.163   1.498   3.745  1.2940 -1.8912  0.8779
 5313TIP3   OH215944   3.619   2.313   0.152 -0.5911  0.3289 -0.2914
 5313TIP3    H115945   3.613   2.223   0.184 -0.2463 -0.0683 -1.2927
 5313TIP3    H215946   3.623   2.366   0.231  0.8740 -0.6619  0.3489
 5314TIP3   OH215947   2.627   2.771   3.193 -0.5028  0.5156  0.8042
 5314TIP3    H115948   2.562   2.803   3.131  0.3009  0.6221 -0.0042
 5314TIP3    H215949   2.586   2.695   3.234 -0.1663 -1.1472 -1.6741
 5315TIP3   OH215950   2.807   1.279   2.679  0.1086  0.6079 -0.3733
 5315TIP3    H115951   2.861   1.351   2.710  0.8201  0.7408 -1.8577
 5315TIP3    H215952   2.830   1.205   2.736  1.9779  0.6153 -1.0797
 5316TIP3   OH215953   4.385   0.546   5.103  0.5183  0.0762  0.0863
 5316TIP3    H115954   4.430   0.574   5.183  2.5273 -1.2314 -0.4966
 5316TIP3    H215955   4.417   0.606   5.036  0.6437 -0.2763 -0.1679
 5317TIP3   OH215956   1.236   2.140   1.177 -0.0579 -0.2460 -0.0693
 5317TIP3    H115957   1.186   2.115   1.254 -0.0114 -0.7058 -0.1839
 5317TIP3    H215958   1.285   2.061   1.153  1.8100  0.5443  0.8645
 5318TIP3   OH215959   2.464   3.452   4.336  0.2543  0.5361  0.0921
 5318TIP3    H115960   2.459   3.420   4.426  2.6651 -1.4196 -0.3586
 5318TIP3    H215961   2.486   3.374   4.284 -1.7542  1.4646 -2.3221
 5319TIP3   OH215962   5.818   0.829   3.755  0.1243 -0.8240 -0.1344
 5319TIP3    H115963   5.787   0.747   3.717  0.0763  0.0549 -2.1016
 5319TIP3    H215964   5.910   0.813   3.775  0.0773 -1.3980 -0.3555
 5320TIP3   OH215965   3.146   1.467   2.411  0.4274  0.2142  0.1584
 5320TIP3    H115966   3.171   1.506   2.328  0.9803 -1.0146 -0.2815
 5320TIP3    H215967   3.053   1.447   2.401  0.7741 -1.1408 -0.7138
 5321TIP3   OH215968   2.014   1.196   0.660  0.2917  0.2746 -0.5263
 5321TIP3    H115969   2.072   1.263   0.696 -0.8003  0.2902  1.2968
 5321TIP3    H215970   1.948   1.182   0.727  0.7878 -3.0741 -0.5747
 5322TIP3   OH215971   0.088   4.925   4.913 -0.1960  0.2695  0.0287
 5322TIP3    H115972   0.160   4.888   4.862 -1.6932 -0.7149 -1.5009
 5322TIP3    H215973   0.043   4.984   4.852 -1.8826 -0.7393  0.2202
 5323TIP3   OH215974   5.888   3.887   5.176 -0.3740  0.6060 -0.3268
 5323TIP3    H115975   5.977   3.895   5.143 -0.5412  0.4468 -0.8245
 5323TIP3    H215976   5.833   3.914   5.102 -0.8602 -2.1169 -1.0458
 5324TIP3   OH215977   0.542   1.685   4.159 -0.4899  0.1511 -0.0238
 5324TIP3    H115978   0.556   1.770   4.117  1.4666  0.8304  1.7834
 5324TIP3    H215979   0.621   1.634   4.138 -0.4241 -0.2331  1.0621
 5325TIP3   OH215980   0.701   4.717   4.160  0.5014  0.2644  0.4605
 5325TIP3    H115981   0.683   4.810   4.174  0.3331  0.6187 -1.7064
 5325TIP3    H215982   0.704   4.679   4.248  0.2165  2.2413  1.3731
 5326TIP3   OH215983   5.295   3.509   0.918 -0.1108  0.2376 -0.1737
 5326TIP3    H115984   5.390   3.506   0.905 -0.2905  0.2674 -1.6664
 5326TIP3    H215985   5.284   3.549   1.004  1.2462 -0.5938  0.4278
 5327TIP3   OH215986   1.014   0.251   3.118 -0.0414 -0.0171  0.3126
 5327TIP3    H115987   0.976   0.333   3.151 -0.2741  0.0323 -0.0775
 5327TIP3    H215988   1.064   0.217   3.192 -1.5460 -0.5256  1.1426
 5328TIP3   OH215989   1.201   3.744   4.475  0.1419 -0.1199 -0.0904
 5328TIP3    H115990   1.167   3.817   4.425  0.5789 -0.2905 -0.6568
 5328TIP3    H215991   1.134   3.725   4.540  0.4267  1.3839  0.6892
 5329TIP3   OH215992   3.318   4.212   3.981  0.4346  0.9743 -0.1129
 5329TIP3    H115993   3.406   4.186   3.953  0.1181  0.8481 -1.0285
 5329TIP3    H215994   3.263   4.135   3.961  0.0593  1.1798  0.1262
 5330TIP3   OH215995   1.882   5.586   3.187 -0.1729 -0.5373  0.1253
 5330TIP3    H115996   1.791   5.565   3.210  0.1506 -0.8813  1.1294
 5330TIP3    H215997   1.934   5.522   3.236  0.5672 -1.2177 -1.4820
 5331TIP3   OH215998   1.628   0.806   2.034 -0.4573 -0.1576 -0.8181
 5331TIP3    H115999   1.633   0.801   1.939 -0.4347  1.1711 -0.8961
 5331TIP3    H216000   1.661   0.893   2.056 -1.1056 -0.1847  0.3502
 5332TIP3   OH216001   5.200   5.761   3.214 -0.5824 -0.1352 -0.2273
 5332TIP3    H116002   5.160   5.723   3.135  1.1346 -0.9267 -0.7573
 5332TIP3    H216003   5.263   5.695   3.242 -0.4542  0.5925  1.2435
 5333TIP3   OH216004   3.590   0.853   4.587 -0.5735  0.1838  0.3284
 5333TIP3    H116005   3.580   0.817   4.499  0.3046 -2.0677  1.0788
 5333TIP3    H216006   3.675   0.898   4.584 -0.2928 -0.3409  0.1496
 5334TIP3   OH216007   2.530   5.339   2.638  0.0521 -0.0321  0.0012
 5334TIP3    H116008   2.497   5.306   2.555  0.7321  0.2380 -0.3862
 5334TIP3    H216009   2.521   5.434   2.632  0.0227 -0.0142  0.2789
 5335TIP3   OH216010   6.099   4.036   2.509 -0.2205 -0.3388 -0.2315
 5335TIP3    H116011   6.007   4.062   2.504 -0.5759 -1.6166 -0.8764
 5335TIP3    H216012   6.097   3.943   2.531  0.9578 -0.1559  0.7672
 5336TIP3   OH216013   0.868   3.209   0.545 -0.0255  0.0856 -0.1511
 5336TIP3    H116014   0.918   3.215   0.463  0.5216 -0.0885  0.1692
 5336TIP3    H216015   0.794   3.268   0.531  0.5572  0.7793 -0.4309
 5337TIP3   OH216016   4.633   3.489   0.252 -0.7483  0.7341  0.6952
 5337TIP3    H116017   4.652   3.527   0.167  1.8364 -1.2098  0.2628
 5337TIP3    H216018   4.693   3.532   0.312 -0.4611  0.0399  0.9207
 5338TIP3   OH216019   1.010   3.390   3.308 -0.0910  0.0848  0.1217
 5338TIP3    H116020   0.967   3.326   3.365  0.3236  1.3206  1.8942
 5338TIP3    H216021   1.045   3.456   3.368  0.4469  1.4084 -1.5757
 5339TIP3   OH216022   3.184   3.451   4.750  0.9450 -0.3597 -0.4793
 5339TIP3    H116023   3.238   3.391   4.802 -0.1968 -0.4877  0.6200
 5339TIP3    H216024   3.131   3.498   4.815  1.4008  1.4438 -1.3532
 5340TIP3   OH216025   0.395   3.001   3.148 -0.1779 -0.2034  0.3197
 5340TIP3    H116026   0.398   3.095   3.128  0.3061 -0.3625 -0.4055
 5340TIP3    H216027   0.458   2.991   3.220  0.2168 -0.0551  0.0044
 5341TIP3   OH216028   6.021   5.500   4.316  0.2874 -0.4527 -0.2262
 5341TIP3    H116029   5.967   5.429   4.351  0.8047 -0.9660 -0.4402
 5341TIP3    H216030   5.965   5.578   4.320  0.4790 -0.3811  2.1380
 5342TIP3   OH216031   3.494   5.806   4.722  0.1268  0.2230 -0.5904
 5342TIP3    H116032   3.528   5.871   4.660  0.6235  0.7526  0.2125
 5342TIP3    H216033   3.538   5.725   4.698  1.6518  0.7959  0.1353
 5343TIP3   OH216034   5.116   5.474   0.482 -0.5947 -0.0101 -0.1372
 5343TIP3    H116035   5.021   5.470   0.488 -0.5533  0.0856  0.6545
 5343TIP3    H216036   5.147   5.399   0.533 -0.2269  0.5484  0.4774
 5344TIP3   OH216037   2.281   0.706   1.642 -0.0211 -0.6054 -0.3282
 5344TIP3    H116038   2.217   0.762   1.599 -2.0157 -3.5033 -1.4448
 5344TIP3    H216039   2.261   0.713   1.735  0.1758  0.9314 -0.3800
 5345TIP3   OH216040   0.372   2.170   0.688 -1.1065  0.0043 -0.2527
 5345TIP3    H116041   0.391   2.076   0.688 -0.5533  0.0937  0.7671
 5345TIP3    H216042   0.448   2.209   0.732  0.2865  1.3116 -3.4962
 5346TIP3   OH216043   5.518   4.963   4.921  0.0457  0.0656 -0.1136
 5346TIP3    H116044   5.456   5.017   4.873  1.4420  1.3199 -0.6011
 5346TIP3    H216045   5.549   4.899   4.856 -1.1730 -0.9709  0.3026
 5347TIP3   OH216046   0.544   1.859   4.406  0.0217 -0.3395  0.3760
 5347TIP3    H116047   0.570   1.784   4.352  0.2468 -0.7301  1.0177
 5347TIP3    H216048   0.607   1.928   4.384  0.2612 -0.5764  0.3129
 5348TIP3   OH216049   1.239   0.895   3.097 -0.4887  0.2849  0.4321
 5348TIP3    H116050   1.262   0.905   3.005 -0.9509  2.0753  0.4649
 5348TIP3    H216051   1.316   0.857   3.138 -0.0489  0.0697 -0.5643
 5349TIP3   OH216052   5.322   5.169   4.988 -0.1864  0.4801 -0.4176
 5349TIP3    H116053   5.404   5.180   5.036 -0.6506 -1.4240  0.9572
 5349TIP3    H216054   5.267   5.117   5.047 -2.2112  1.2937 -1.5053
 5350TIP3   OH216055   1.467   4.399   2.035  0.0702 -0.1122  0.7062
 5350TIP3    H116056   1.432   4.361   2.116  0.1704  0.3866  0.9872
 5350TIP3    H216057   1.444   4.491   2.040  2.1034  0.4083  1.2898
 5351TIP3   OH216058   4.757   1.112   0.019 -0.0569 -0.0583  0.0065
 5351TIP3    H116059   4.812   1.034   0.008  1.6034  0.8092  1.5462
 5351TIP3    H216060   4.693   1.087   0.086  0.2546 -0.1951  0.2537
 5352TIP3   OH216061   6.179   5.412   3.829 -0.5771  0.2491 -1.0030
 5352TIP3    H116062   6.099   5.452   3.862  0.5978  1.3170  0.7265
 5352TIP3    H216063   6.249   5.466   3.866  1.0732 -2.8024  0.7170
 5353TIP3   OH216064   2.251   3.641   0.135  0.4038  0.8817 -0.2609
 5353TIP3    H116065   2.171   3.598   0.103 -0.1872  0.7447  1.2976
 5353TIP3    H216066   2.309   3.568   0.159  0.1331  0.9421  0.6234
 5354TIP3   OH216067   5.311   3.548   2.259  0.0076  0.2563 -0.1027
 5354TIP3    H116068   5.287   3.456   2.242 -1.0800  0.7452 -1.4847
 5354TIP3    H216069   5.315   3.555   2.354 -2.8467 -0.5667  0.1875
 5355TIP3   OH216070   1.567   2.028   2.539 -0.0368 -0.4967 -0.3059
 5355TIP3    H116071   1.542   2.020   2.447 -3.0161 -1.4627  0.4892
 5355TIP3    H216072   1.484   2.028   2.587  1.4061  0.1116  2.3999
 5356TIP3   OH216073   1.457   2.053   4.848  0.6519  0.0191 -0.1608
 5356TIP3    H116074   1.492   2.036   4.936  0.5830 -1.2034 -0.3497
 5356TIP3    H216075   1.362   2.041   4.858  0.4981  1.2038 -0.1190
 5357TIP3   OH216076   0.744   0.738   1.634  0.6887 -0.2333  0.5611
 5357TIP3    H116077   0.694   0.815   1.607  2.0613 -0.2126 -2.2762
 5357TIP3    H216078   0.707   0.666   1.581  1.7736 -0.7781  0.5198
 5358TIP3   OH216079   4.849   0.467   2.156  0.4910  0.2572  0.2155
 5358TIP3    H116080   4.875   0.527   2.226  1.0882 -0.4063  0.5737
 5358TIP3    H216081   4.931   0.441   2.114  0.3276 -0.9054  0.5736
 5359TIP3   OH216082   2.058   0.380   4.898  0.3226  0.1398  0.2402
 5359TIP3    H116083   2.132   0.383   4.958 -1.2786 -1.5817  2.4667
 5359TIP3    H216084   1.982   0.402   4.952 -1.1896 -1.3508 -1.1555
 5360TIP3   OH216085   0.180   4.060   0.861  0.1445 -0.4214  0.1040
 5360TIP3    H116086   0.205   4.152   0.874  1.7426 -0.9573  1.1896
 5360TIP3    H216087   0.245   4.027   0.799  0.1079 -1.0195  0.3818
 5361TIP3   OH216088   3.581   2.432   0.412 -0.3978  0.6262 -0.3617
 5361TIP3    H116089   3.600   2.501   0.475  1.6991 -1.3113  1.2862
 5361TIP3    H216090   3.510   2.381   0.452  2.0930 -1.6607  1.5406
 5362TIP3   OH216091   0.256   3.665   4.939 -0.0142 -0.4554  0.4214
 5362TIP3    H116092   0.348   3.653   4.916 -0.0452 -0.6738  0.4082
 5362TIP3    H216093   0.257   3.687   5.032  0.0906  0.1271  0.2854
 5363TIP3   OH216094   4.243   5.528   3.556 -0.1346  0.4673  0.4612
 5363TIP3    H116095   4.172   5.593   3.557  0.1359  0.7597  1.2405
 5363TIP3    H216096   4.201   5.447   3.585  0.0345  0.8661  1.9338
 5364TIP3   OH216097   5.308   1.749   1.179  0.2143  0.6964 -0.0942
 5364TIP3    H116098   5.294   1.839   1.209 -1.5699  0.7543 -0.9617
 5364TIP3    H216099   5.243   1.698   1.227  0.0820  0.1532 -0.8383
 5365TIP3   OH216100   2.569   0.599   2.553  0.2307 -0.4342 -0.7685
 5365TIP3    H116101   2.503   0.668   2.548 -0.1102 -0.8399 -2.3689
 5365TIP3    H216102   2.651   0.642   2.530  0.7079  0.1992  1.7668
 5366TIP3   OH216103   4.879   0.771   2.889  1.1266  0.0651  0.0952
 5366TIP3    H116104   4.858   0.857   2.851  2.6112  0.4255 -0.0057
 5366TIP3    H216105   4.814   0.758   2.957  0.7255  1.1740 -0.0493
 5367TIP3   OH216106   3.371   1.438   1.804  0.5807 -0.2938  1.1733
 5367TIP3    H116107   3.334   1.363   1.758 -1.0078  0.2660  1.4969
 5367TIP3    H216108   3.394   1.404   1.890  0.4582 -0.5524  1.1056
 5368TIP3   OH216109   5.996   5.128   2.825 -0.9987 -0.1580  0.0573
 5368TIP3    H116110   5.901   5.135   2.819 -1.2396 -1.6210  1.5069
 5368TIP3    H216111   6.011   5.042   2.864  0.8627  0.6163  1.1702
 5369TIP3   OH216112   2.427   0.086   2.282 -0.3494 -0.0449 -0.2340
 5369TIP3    H116113   2.476   0.138   2.219 -1.9724  0.3292 -1.2471
 5369TIP3    H216114   2.414   0.002   2.239 -1.8653  0.3645 -0.6340
 5370TIP3   OH216115   4.860   3.318   2.732  0.2597  0.1867 -0.0685
 5370TIP3    H116116   4.856   3.256   2.805 -0.5080 -1.1992 -1.2363
 5370TIP3    H216117   4.781   3.371   2.740  1.3017  1.6509  1.3949
 5371TIP3   OH216118   5.967   2.041   3.156  0.1621  0.3121  0.5742
 5371TIP3    H116119   5.935   1.982   3.088  2.4581 -0.9731  0.4915
 5371TIP3    H216120   5.934   2.003   3.238 -0.1916  0.1858  0.3771
 5372TIP3   OH216121   0.916   3.167   4.411  0.8605 -0.1580 -0.3851
 5372TIP3    H116122   0.849   3.180   4.478 -0.3054 -0.2778 -1.4948
 5372TIP3    H216123   0.999   3.178   4.458  0.0633  1.2560  0.7619
 5373TIP3   OH216124   2.995   2.269   3.161 -0.4643  0.1390  0.2475
 5373TIP3    H116125   3.020   2.239   3.074 -0.3829 -0.0078  0.3204
 5373TIP3    H216126   2.900   2.263   3.163 -0.4291 -0.3859  0.3597
 5374TIP3   OH216127   3.702   3.521   1.860 -0.0882  0.2231 -0.2850
 5374TIP3    H116128   3.634   3.461   1.828  0.3149 -1.2154  1.3858
 5374TIP3    H216129   3.679   3.538   1.951  1.3549  0.3109  0.0978
 5375TIP3   OH216130   3.252   2.519   4.991 -0.3516  0.6661  0.3176
 5375TIP3    H116131   3.320   2.470   4.944 -1.4710 -0.5193 -0.1104
 5375TIP3    H216132   3.221   2.584   4.928 -2.7388 -1.7320 -1.1705
 5376TIP3   OH216133   0.793   0.734   2.519 -0.1112  0.0420  0.4351
 5376TIP3    H116134   0.738   0.678   2.465  0.6315  1.2184 -1.6351
 5376TIP3    H216135   0.789   0.820   2.478  0.3440  1.0672  2.3845
 5377TIP3   OH216136   2.974   0.948   3.125  0.3509  0.7184  0.0426
 5377TIP3    H116137   3.041   1.002   3.167  2.9989 -1.8343 -0.6273
 5377TIP3    H216138   2.941   0.892   3.195 -0.2301  1.1348  0.1094
 5378TIP3   OH216139   4.281   1.377   2.831  0.2551  0.0496 -0.1201
 5378TIP3    H116140   4.189   1.391   2.808 -0.6640 -1.4931  2.2565
 5378TIP3    H216141   4.302   1.450   2.888 -0.5011 -1.1431  1.7739
 5379TIP3   OH216142   6.338   0.305   3.907 -0.4105 -0.0536  0.3549
 5379TIP3    H116143   6.336   0.390   3.862 -0.5111 -0.7498 -1.0314
 5379TIP3    H216144   6.247   0.288   3.929 -0.5431 -0.2664 -0.3235
 5380TIP3   OH216145   1.995   4.795   1.202 -0.3549 -0.1662 -0.3375
 5380TIP3    H116146   1.954   4.719   1.244 -0.4549  0.0410 -0.0554
 5380TIP3    H216147   1.932   4.865   1.213 -0.0534  0.0808 -0.1660
 5381TIP3   OH216148   1.022   2.532   1.406  0.1038  0.5188  0.3379
 5381TIP3    H116149   0.964   2.574   1.343 -0.1454 -0.8280 -0.3701
 5381TIP3    H216150   1.088   2.598   1.426 -0.6273  1.4462 -0.2543
 5382TIP3   OH216151   1.730   0.225   4.884 -0.5513 -0.0879 -0.0656
 5382TIP3    H116152   1.812   0.219   4.932  0.8733  0.3230 -2.2741
 5382TIP3    H216153   1.678   0.290   4.932 -0.1780 -1.3195  2.1016
 5383TIP3   OH216154   6.088   4.912   3.105 -0.4335 -0.4159 -0.2623
 5383TIP3    H116155   6.014   4.895   3.047  0.1628 -0.8349 -0.9123
 5383TIP3    H216156   6.162   4.923   3.046  0.0508 -0.1322  0.3910
 5384TIP3   OH216157   3.480   5.293   1.975 -0.0680 -0.0522  0.1326
 5384TIP3    H116158   3.549   5.329   1.920  0.8166 -3.3712 -1.1859
 5384TIP3    H216159   3.509   5.308   2.064  1.0046  0.9849 -0.3727
 5385TIP3   OH216160   0.311   0.814   1.188  0.1469 -0.1387 -0.5999
 5385TIP3    H116161   0.335   0.722   1.199  0.0629 -0.2455 -1.2943
 5385TIP3    H216162   0.245   0.814   1.119  0.4554  0.4839 -0.9076
 5386TIP3   OH216163   2.312   1.497   4.956  0.3190  0.3931  0.6022
 5386TIP3    H116164   2.372   1.453   4.896 -1.0578  0.9797 -1.2998
 5386TIP3    H216165   2.369   1.539   5.021  1.9179  0.2415 -0.6525
 5387TIP3   OH216166   6.252   0.053   4.353  0.9991 -0.2159 -0.5130
 5387TIP3    H116167   6.283   0.035   4.442  0.3743  1.5447  0.1168
 5387TIP3    H216168   6.282  -0.021   4.301  1.9449 -0.9703  1.0418
 5388TIP3   OH216169   5.926   3.204   4.900 -0.5518 -0.1363 -0.3720
 5388TIP3    H116170   6.019   3.188   4.918 -0.5954  0.6932  0.6929
 5388TIP3    H216171   5.926   3.253   4.818 -0.0654 -0.4438 -0.5577
 5389TIP3   OH216172   4.302   0.415   3.767 -0.3908  0.2909 -0.1083
 5389TIP3    H116173   4.335   0.340   3.718  0.5075 -0.0955  1.0451
 5389TIP3    H216174   4.380   0.456   3.803 -0.9559  1.1827  0.1344
 5390TIP3   OH216175   2.978   1.696   4.593  0.1635 -0.5814  0.0621
 5390TIP3    H116176   2.936   1.779   4.572 -0.1370 -0.1530  2.1255
 5390TIP3    H216177   3.041   1.683   4.522  0.0434  1.2771 -0.4509
 5391TIP3   OH216178   1.203   3.689   0.388 -0.3310 -0.3193 -0.3072
 5391TIP3    H116179   1.235   3.763   0.440 -2.0765  0.8436 -0.7631
 5391TIP3    H216180   1.260   3.616   0.411  1.9064  1.3212 -0.3399
 5392TIP3   OH216181   0.817   4.267   5.120  0.3198 -0.0274 -0.4061
 5392TIP3    H116182   0.729   4.282   5.153  0.0005 -1.1579 -0.7110
 5392TIP3    H216183   0.872   4.259   5.198 -0.0374 -0.4185 -0.1930
 5393TIP3   OH216184   6.109   2.886   1.743  0.0427  0.3307  0.1201
 5393TIP3    H116185   6.029   2.918   1.783  0.3760 -0.2224  1.3165
 5393TIP3    H216186   6.083   2.807   1.695  0.0216 -0.5212  1.4731
 5394TIP3   OH216187   2.660   1.814   0.718 -0.2583 -0.2404 -0.2593
 5394TIP3    H116188   2.644   1.760   0.796  1.9023  1.6462  1.6339
 5394TIP3    H216189   2.744   1.783   0.684  0.4889  1.1965  0.2295
 5395TIP3   OH216190   2.637   0.587   0.832 -0.4228 -0.0404 -0.3851
 5395TIP3    H116191   2.609   0.621   0.917  0.1564  1.0569 -0.6109
 5395TIP3    H216192   2.611   0.495   0.833 -1.3645  0.2179  0.5587
 5396TIP3   OH216193   4.088   1.316   4.879  0.4487  0.3204 -0.1165
 5396TIP3    H116194   4.054   1.405   4.870  0.9482  0.5122 -0.1296
 5396TIP3    H216195   4.046   1.267   4.809  0.4600  0.6361 -0.3463
 5397TIP3   OH216196   0.953   0.289   1.162  0.2941  0.1282 -0.2139
 5397TIP3    H116197   1.017   0.218   1.168  1.0898  0.8495  0.1411
 5397TIP3    H216198   0.915   0.281   1.075  1.0701 -0.1599 -0.5304
 5398TIP3   OH216199   0.596   2.764   3.446 -0.1597  0.5289 -0.4832
 5398TIP3    H116200   0.506   2.746   3.472 -0.6571 -0.1317 -2.5255
 5398TIP3    H216201   0.648   2.744   3.525 -1.6792 -0.0506  0.4173
 5399TIP3   OH216202   6.282   1.112   3.452 -1.1656  0.3048 -0.2081
 5399TIP3    H116203   6.365   1.113   3.404 -1.1669  1.5728 -0.2192
 5399TIP3    H216204   6.233   1.187   3.418 -3.2200 -1.5914 -1.7044
 5400TIP3   OH216205   1.020   2.781   0.684 -0.4513  0.0595 -0.4682
 5400TIP3    H116206   1.019   2.801   0.778  0.1645  0.1485 -0.4767
 5400TIP3    H216207   0.949   2.833   0.647  0.0056  0.8643 -0.2175
 5401TIP3   OH216208   2.763   1.496   0.030 -0.3724  0.8127 -0.3567
 5401TIP3    H116209   2.826   1.425   0.016  1.8280  2.7993 -1.2378
 5401TIP3    H216210   2.679   1.452   0.043  1.0740 -1.9681  0.3452
 5402TIP3   OH216211   3.619   0.208   4.025  0.4104 -0.1878 -0.2374
 5402TIP3    H116212   3.555   0.233   3.958  1.2571  0.2187 -0.9259
 5402TIP3    H216213   3.674   0.142   3.982  2.0065  1.2790 -0.5747
 5403TIP3   OH216214   4.935   5.353   1.464  0.4639  0.3468  0.1532
 5403TIP3    H116215   4.974   5.395   1.387 -1.0513 -0.5138 -1.1460
 5403TIP3    H216216   4.991   5.277   1.480 -1.4052 -1.8783 -2.7674
 5404TIP3   OH216217   5.914   4.832   3.940  0.1044 -0.3082 -0.0236
 5404TIP3    H116218   5.950   4.869   4.020  0.1739  1.6620 -0.9097
 5404TIP3    H216219   5.991   4.809   3.887  0.0581 -1.4723  0.3915
 5405TIP3   OH216220   5.747   3.136   3.216 -0.4174  0.4023  0.0542
 5405TIP3    H116221   5.819   3.175   3.167  1.1387 -0.3856  1.6009
 5405TIP3    H216222   5.727   3.200   3.285 -1.2829  0.6501 -0.4064
 5406TIP3   OH216223   5.186   0.736   0.504  0.4051 -0.4126  0.1414
 5406TIP3    H116224   5.161   0.828   0.497  0.0556 -0.6025 -1.9495
 5406TIP3    H216225   5.201   0.709   0.413 -1.3860 -2.9275  0.4895
 5407TIP3   OH216226   5.779   3.405   0.734  0.0089  0.3474 -0.0815
 5407TIP3    H116227   5.854   3.448   0.776  0.5648 -0.5836 -0.0875
 5407TIP3    H216228   5.792   3.421   0.641 -0.3683  1.0550 -0.0262
 5408TIP3   OH216229   0.419   3.435   4.373 -0.0562 -0.3548  0.2160
 5408TIP3    H116230   0.418   3.412   4.466  0.0704 -0.5762  0.1639
 5408TIP3    H216231   0.489   3.499   4.364 -1.2101  1.0050  0.5808
 5409TIP3   OH216232   6.092   3.446   2.765  0.2872 -0.2707 -0.6913
 5409TIP3    H116233   6.132   3.494   2.838 -1.4623 -0.5991  0.5732
 5409TIP3    H216234   6.112   3.354   2.783 -1.2549 -0.4775  0.1811
 5410TIP3   OH216235   5.813   0.505   0.846 -0.2154 -0.8475 -0.2337
 5410TIP3    H116236   5.761   0.425   0.859 -0.5131 -0.5593  0.4146
 5410TIP3    H216237   5.815   0.546   0.933 -0.4524  0.0837 -0.6500
 5411TIP3   OH216238   1.080   2.756   2.662  0.0281 -0.0511  0.4451
 5411TIP3    H116239   1.099   2.663   2.674 -1.5073 -0.4419  0.0055
 5411TIP3    H216240   1.041   2.761   2.575 -1.0868  0.8163  0.9777
 5412TIP3   OH216241   1.758   2.614   0.134  0.1131 -0.1699 -0.1438
 5412TIP3    H116242   1.777   2.525   0.107  0.5047  0.2442 -1.3036
 5412TIP3    H216243   1.706   2.650   0.062 -0.8422  0.2619  0.7268
 5413TIP3   OH216244   2.032   5.302   3.042 -0.4438  0.4276  0.1963
 5413TIP3    H116245   1.991   5.251   2.972 -0.4623 -0.2784  0.7138
 5413TIP3    H216246   2.022   5.248   3.121  2.3741 -0.2742  0.1837
 5414TIP3   OH216247   1.078   5.833   2.644  0.4409 -0.8411 -0.5572
 5414TIP3    H116248   1.037   5.814   2.728  0.0775  0.1169 -0.4992
 5414TIP3    H216249   1.170   5.848   2.665  0.2721 -0.1796 -0.2545
 5415TIP3   OH216250   1.267   3.849   1.675  0.4935  0.0912 -0.0550
 5415TIP3    H116251   1.278   3.772   1.730 -0.1330  0.0832  0.0593
 5415TIP3    H216252   1.228   3.915   1.732 -1.5154 -0.3687 -0.8165
 5416TIP3   OH216253   4.988   3.965   1.330  0.1825 -0.2240  0.4202
 5416TIP3    H116254   5.027   3.940   1.414 -0.2633  0.3904  0.8201
 5416TIP3    H216255   4.930   3.893   1.308  2.1945 -1.6126 -0.6536
 5417TIP3   OH216256   1.222   1.666   2.988  0.0563 -0.2020 -0.0043
 5417TIP3    H116257   1.185   1.583   3.019 -0.2007 -0.1613 -0.2039
 5417TIP3    H216258   1.174   1.733   3.036 -0.2888 -0.1412 -0.4306
 5418TIP3   OH216259   0.318   2.461   3.842  0.3796  0.0198  0.2772
 5418TIP3    H116260   0.223   2.475   3.840  0.5165  0.9628 -0.7797
 5418TIP3    H216261   0.332   2.381   3.791  0.1450 -0.2097  0.5703
 5419TIP3   OH216262   5.443   0.267   4.852 -0.2569  0.2895 -0.1235
 5419TIP3    H116263   5.422   0.193   4.795  0.3467 -0.6342  0.8156
 5419TIP3    H216264   5.526   0.242   4.894  0.2726  1.7674 -0.2335
 5420TIP3   OH216265   1.277   5.641   1.832 -0.0820 -0.1469  0.0548
 5420TIP3    H116266   1.240   5.628   1.919  0.8662 -1.4020  0.2939
 5420TIP3    H216267   1.281   5.736   1.822  0.1235  0.0230  1.5314
 5421TIP3   OH216268   3.168   1.719   4.792  0.3833 -0.2287  0.1374
 5421TIP3    H116269   3.161   1.728   4.697  1.0573 -1.4522 -0.0604
 5421TIP3    H216270   3.212   1.799   4.821  1.2845 -0.3833 -0.7483
 5422TIP3   OH216271   4.565   1.403   1.656  0.4717 -0.3402 -0.1263
 5422TIP3    H116272   4.631   1.355   1.607 -0.0993 -2.4001  0.9871
 5422TIP3    H216273   4.538   1.343   1.726 -1.7895  0.8301  0.1222
 5423TIP3   OH216274   2.768   2.824   1.612  0.4329 -0.0425  0.0889
 5423TIP3    H116275   2.677   2.820   1.581  0.9634 -1.5136 -1.4100
 5423TIP3    H216276   2.820   2.834   1.532  1.6499  0.0645  0.8712
 5424TIP3   OH216277   3.598   0.817   2.162  0.5877 -0.1188 -0.1238
 5424TIP3    H116278   3.636   0.747   2.215 -0.7152  0.6707  1.9589
 5424TIP3    H216279   3.621   0.794   2.072  3.6950 -1.0554  0.7875
 5425TIP3   OH216280   4.264   2.753   3.362 -0.2344 -0.1530 -0.2645
 5425TIP3    H116281   4.176   2.719   3.375  0.2954 -0.7844  2.2613
 5425TIP3    H216282   4.278   2.812   3.436  2.0479 -1.4474  0.4322
 5426TIP3   OH216283   1.026   3.895   0.981  0.0704  0.3701  0.3061
 5426TIP3    H116284   1.115   3.893   1.016 -0.1488  0.7491  0.8955
 5426TIP3    H216285   1.038   3.891   0.886  0.7996  2.0341  0.2816
 5427TIP3   OH216286   3.918   2.600   4.279  0.3187  0.0590 -0.0151
 5427TIP3    H116287   3.905   2.515   4.321 -1.0582 -0.5773 -1.6529
 5427TIP3    H216288   4.002   2.592   4.234  0.9129  0.1113  1.0521
 5428TIP3   OH216289   4.582   2.513   2.242  0.0558  0.1795  0.2598
 5428TIP3    H116290   4.628   2.466   2.310  2.3736  0.3813 -1.0579
 5428TIP3    H216291   4.579   2.604   2.273  1.1508  0.2813  0.1031
 5429TIP3   OH216292   6.273   4.587   5.149 -0.0303  0.1594 -0.0478
 5429TIP3    H116293   6.321   4.601   5.067 -0.0954 -1.2735 -0.3570
 5429TIP3    H216294   6.182   4.571   5.121 -0.1185 -0.0169  0.3327
 5430TIP3   OH216295   3.573   3.666   2.881 -0.2107  0.1971 -0.1327
 5430TIP3    H116296   3.654   3.654   2.831  0.0393 -1.1434  0.5371
 5430TIP3    H216297   3.551   3.758   2.870  0.8657  0.3545 -1.1454
 5431TIP3   OH216298   3.525   1.573   4.698 -0.4130  0.0104 -0.2717
 5431TIP3    H116299   3.560   1.660   4.680 -2.6104  1.0955  0.4542
 5431TIP3    H216300   3.533   1.562   4.792 -0.6142 -0.3737 -0.2958
 5432TIP3   OH216301   3.144   2.687   2.830 -0.1541 -0.0729  0.0909
 5432TIP3    H116302   3.055   2.651   2.837 -0.0608 -1.4829 -3.6534
 5432TIP3    H216303   3.132   2.770   2.784  0.4501 -0.4023 -0.6787
 5433TIP3   OH216304   1.265   3.056   2.188  0.2457  0.1978 -0.2052
 5433TIP3    H116305   1.301   3.008   2.263 -0.8309  0.6265  0.6315
 5433TIP3    H216306   1.242   3.142   2.225  1.8749  1.2932 -1.5901
 5434TIP3   OH216307   3.812   2.439   0.004 -0.0446 -0.2727 -0.5845
 5434TIP3    H116308   3.733   2.404   0.045 -1.3471  0.8167 -2.0705
 5434TIP3    H216309   3.843   2.506   0.066 -2.1166  1.5123 -1.3370
 5435TIP3   OH216310   1.751   1.618   5.050  0.4054  0.2024  0.4515
 5435TIP3    H116311   1.708   1.703   5.039  1.4633  0.6563 -0.3734
 5435TIP3    H216312   1.680   1.555   5.042 -0.5483  1.0146  2.0224
 5436TIP3   OH216313   5.841   0.270   1.205 -0.4746  0.1649 -0.1326
 5436TIP3    H116314   5.902   0.232   1.142 -1.6191 -0.2429 -1.0264
 5436TIP3    H216315   5.893   0.282   1.285  0.5355 -1.0431 -0.5795
 5437TIP3   OH216316   4.140   4.096   0.318  0.1865  0.0717  0.6021
 5437TIP3    H116317   4.122   4.190   0.320  1.3279  0.3329 -0.1210
 5437TIP3    H216318   4.055   4.055   0.328 -0.2214  1.1673  1.9277
 5438TIP3   OH216319   3.210   5.798   0.780  0.1010  0.2944  0.1349
 5438TIP3    H116320   3.234   5.744   0.705 -1.5172 -0.1955 -0.0788
 5438TIP3    H216321   3.259   5.879   0.768  1.1621 -0.4165 -0.5291
 5439TIP3   OH216322   4.179   2.838   1.127  0.8695 -0.2461 -0.2235
 5439TIP3    H116323   4.213   2.769   1.184  2.7266  0.8864  0.1408
 5439TIP3    H216324   4.200   2.810   1.039 -0.3343 -1.1198 -0.2638
 5440TIP3   OH216325   2.400   0.115   1.924  0.2639 -0.3671 -0.1114
 5440TIP3    H116326   2.321   0.157   1.956  0.6196  1.5630 -1.5279
 5440TIP3    H216327   2.450   0.186   1.883  1.7641 -1.8783 -1.0690
 5441TIP3   OH216328   5.011   5.427   2.902  0.3216  0.2928  0.1245
 5441TIP3    H116329   5.094   5.408   2.859  0.8279  0.8661  0.8141
 5441TIP3    H216330   4.953   5.455   2.830  0.3543 -1.2089 -0.5164
 5442TIP3   OH216331   2.562   3.517   0.895  0.0360  0.3806  0.3900
 5442TIP3    H116332   2.526   3.524   0.807 -1.6196  3.6458  1.1872
 5442TIP3    H216333   2.510   3.447   0.936 -2.3977  1.8949  0.0928
 5443TIP3   OH216334   4.228   2.267   4.954  0.2718  0.1208 -0.4048
 5443TIP3    H116335   4.222   2.332   4.884 -0.0606  1.1633  0.5567
 5443TIP3    H216336   4.314   2.227   4.944 -0.2496 -0.6363 -2.1509
 5444TIP3   OH216337   4.646   2.992   5.106  0.4729 -0.5962 -0.3756
 5444TIP3    H116338   4.587   3.030   5.171 -0.8042 -2.7591 -0.1823
 5444TIP3    H216339   4.591   2.976   5.030  1.8552  1.4601 -1.8940
 5445TIP3   OH216340   3.369   1.032   2.477 -0.4160  0.5190 -0.4257
 5445TIP3    H116341   3.453   1.076   2.494 -0.4051 -0.1325  1.4318
 5445TIP3    H216342   3.382   0.942   2.507 -1.6999  0.3409 -0.3375
 5446TIP3   OH216343   3.895   4.483   2.010 -0.0080 -0.3374  0.2507
 5446TIP3    H116344   3.869   4.490   2.102 -2.1743  0.5348 -0.3547
 5446TIP3    H216345   3.937   4.398   2.003  0.3245 -0.3704  2.0543
 5447TIP3   OH216346   1.163   1.274   0.327 -0.1025 -0.1786 -0.7152
 5447TIP3    H116347   1.106   1.200   0.347  0.2240 -0.4737 -0.8762
 5447TIP3    H216348   1.235   1.237   0.276  1.2250 -0.1689  1.0259
 5448TIP3   OH216349   5.923   1.952   4.860 -0.6709 -0.8374  0.9855
 5448TIP3    H116350   5.894   1.871   4.902 -0.9568 -1.4609 -0.3523
 5448TIP3    H216351   5.848   2.011   4.867 -1.6859 -1.8111 -0.8261
 5449TIP3   OH216352   2.285   1.202   4.337 -0.5206 -0.7960 -0.1237
 5449TIP3    H116353   2.260   1.293   4.323  0.2725 -0.9792 -3.5931
 5449TIP3    H216354   2.224   1.151   4.283  1.5217 -1.9142 -1.5485
 5450TIP3   OH216355   3.653   2.670   4.162 -0.0904 -0.3455 -0.2369
 5450TIP3    H116356   3.734   2.648   4.207 -0.3560  1.0878  1.0472
 5450TIP3    H216357   3.593   2.598   4.183  0.2156 -0.3709  0.6022
 5451TIP3   OH216358   4.751   2.801   1.437 -0.3482  0.4751  0.6024
 5451TIP3    H116359   4.729   2.890   1.409 -1.5899 -0.0519 -0.1862
 5451TIP3    H216360   4.674   2.773   1.486  0.6437  0.3525  2.1644
 5452TIP3   OH216361   5.182   4.718   1.813 -0.5493 -0.1405  0.2954
 5452TIP3    H116362   5.127   4.758   1.880 -0.3644 -2.0390  1.6447
 5452TIP3    H216363   5.137   4.637   1.790  0.5014 -0.5749 -0.3040
 5453TIP3   OH216364   2.040   3.400   1.759 -0.4417  0.2751 -0.0437
 5453TIP3    H116365   2.041   3.496   1.766  0.3218  0.3077 -0.4998
 5453TIP3    H216366   2.049   3.369   1.849 -1.2714  0.6164  0.1745
 5454TIP3   OH216367   3.109   0.579   1.833 -0.1132 -0.6266 -0.0932
 5454TIP3    H116368   3.035   0.531   1.794  0.3112 -0.5708 -0.9924
 5454TIP3    H216369   3.180   0.567   1.770  0.7922 -1.0694  0.9830
 5455TIP3   OH216370   5.298   0.572   2.716  0.1479  0.2986  0.0374
 5455TIP3    H116371   5.302   0.523   2.634  0.6446  1.1398 -0.4623
 5455TIP3    H216372   5.222   0.537   2.762 -1.0327  0.7960 -1.4471
 5456TIP3   OH216373   0.005   2.787   2.766 -0.1981  0.4278 -0.3816
 5456TIP3    H116374  -0.021   2.849   2.698 -1.1854  1.5434  0.9603
 5456TIP3    H216375   0.079   2.828   2.810 -2.0520  1.6800  1.7704
 5457TIP3   OH216376   5.624   2.873   2.682  0.1495 -0.7572 -0.1935
 5457TIP3    H116377   5.675   2.852   2.760 -0.5891 -1.9658 -0.0069
 5457TIP3    H216378   5.669   2.948   2.644  1.8180 -1.5140  0.1801
 5458TIP3   OH216379   4.446   5.543   1.952 -0.4379 -0.2797  0.2186
 5458TIP3    H116380   4.475   5.487   2.024 -0.6722 -1.7661 -0.8081
 5458TIP3    H216381   4.510   5.614   1.949 -0.8903  0.3050  2.4022
 5459TIP3   OH216382   2.398   4.713   4.692  0.0766 -0.3748  0.4142
 5459TIP3    H116383   2.334   4.739   4.758  0.4219  2.1523 -0.1693
 5459TIP3    H216384   2.481   4.711   4.739  0.0859 -0.2320  0.4021
 5460TIP3   OH216385   3.564   5.542   4.654  0.2994  0.0242 -0.1193
 5460TIP3    H116386   3.647   5.501   4.679  0.4458  1.2041  1.4742
 5460TIP3    H216387   3.497   5.484   4.689  0.4658 -0.1940 -0.1605
 5461TIP3   OH216388   4.017   4.267   3.996 -0.7006 -0.3634  0.1532
 5461TIP3    H116389   4.038   4.175   3.981  1.5507  0.2475 -0.7553
 5461TIP3    H216390   4.087   4.300   4.052  1.1112  1.8056 -3.1050
 5462TIP3   OH216391   3.483   0.079   2.173  0.7337  0.2506  0.1185
 5462TIP3    H116392   3.417   0.130   2.128  0.8008  1.5426  1.3982
 5462TIP3    H216393   3.437   0.039   2.247  0.5821 -1.9735 -1.0836
 5463TIP3   OH216394   5.724   4.085   3.246 -0.9940  0.2907 -0.5578
 5463TIP3    H116395   5.737   4.179   3.232  1.3387 -0.2541 -2.8289
 5463TIP3    H216396   5.800   4.058   3.298 -2.6581 -0.1055  1.8438
 5464TIP3   OH216397   5.020   3.607   0.942  0.2284 -0.1009 -0.0351
 5464TIP3    H116398   4.981   3.560   1.016  0.2071 -0.2945 -0.1694
 5464TIP3    H216399   5.095   3.554   0.916 -0.4455 -0.6572 -0.9054
 5465TIP3   OH216400   3.685   6.004   3.744  0.3173 -0.0272 -0.1456
 5465TIP3    H116401   3.653   5.958   3.821 -0.7170 -0.7534 -0.9764
 5465TIP3    H216402   3.614   5.997   3.680  0.7523  1.4047 -0.8339
 5466TIP3   OH216403   0.852   5.024   3.208 -0.3136  0.0198  0.4717
 5466TIP3    H116404   0.791   4.982   3.149  1.6540  0.1533 -1.7854
 5466TIP3    H216405   0.916   4.956   3.230  1.1835  0.9546 -0.7882
 5467TIP3   OH216406   6.016   1.305   1.604 -0.6746  0.1793  0.4116
 5467TIP3    H116407   5.958   1.362   1.655  0.0503 -0.6372  2.2384
 5467TIP3    H216408   5.976   1.219   1.611 -2.1827  0.4414 -2.9585
 5468TIP3   OH216409   1.726   0.079   3.332 -0.5775  0.0639 -0.0349
 5468TIP3    H116410   1.688  -0.006   3.311  0.2740 -0.6367  1.1811
 5468TIP3    H216411   1.789   0.061   3.401  0.4647  1.5139 -0.5660
 5469TIP3   OH216412   4.245   0.771   1.156 -0.8054 -0.1463 -0.4285
 5469TIP3    H116413   4.232   0.710   1.083  0.2787 -0.8215 -0.0829
 5469TIP3    H216414   4.277   0.716   1.228  1.7382  0.9931 -0.5769
 5470TIP3   OH216415   4.239   5.391   1.988  0.2290 -0.3666  0.5646
 5470TIP3    H116416   4.254   5.330   1.916  0.2183 -1.7133  1.6601
 5470TIP3    H216417   4.315   5.450   1.986  1.1491 -1.5047  0.5311
 5471TIP3   OH216418   1.114   4.545   4.422 -0.0752  0.3692  0.1587
 5471TIP3    H116419   1.126   4.619   4.481 -0.3825 -0.2227  0.9850
 5471TIP3    H216420   1.161   4.473   4.463 -1.4286 -0.4147  0.3993
 5472TIP3   OH216421   4.490   4.541   4.970  0.1651 -0.0203  0.5708
 5472TIP3    H116422   4.435   4.512   5.043  0.2552  0.5712  0.8843
 5472TIP3    H216423   4.511   4.460   4.922  0.4578 -0.4858  1.4497
 5473TIP3   OH216424   5.213   3.100   4.795  0.6526  0.0449  0.1258
 5473TIP3    H116425   5.272   3.057   4.857  1.3848 -0.3903 -0.8529
 5473TIP3    H216426   5.176   3.173   4.844 -0.0987 -1.2836  1.6106
 5474TIP3   OH216427   4.770   2.603   3.041  0.0024 -0.2412  0.1202
 5474TIP3    H116428   4.864   2.619   3.049 -0.1808  3.1833 -2.2888
 5474TIP3    H216429   4.730   2.665   3.102 -0.6796 -0.4839 -0.0753
 5475TIP3   OH216430   4.528   0.374   1.733  0.2310 -0.3121 -0.2142
 5475TIP3    H116431   4.539   0.402   1.642  0.3674 -1.0327 -0.4209
 5475TIP3    H216432   4.599   0.417   1.780 -0.0957  0.4132 -0.3637
 5476TIP3   OH216433   2.832   2.504   4.410  0.5010 -0.4667  0.2783
 5476TIP3    H116434   2.829   2.555   4.490 -0.2313  0.0158 -0.0433
 5476TIP3    H216435   2.837   2.413   4.439  0.2465 -0.2961  0.8629
 5477TIP3   OH216436   3.318   0.979   0.146 -0.2135  0.1146 -0.5114
 5477TIP3    H116437   3.270   0.907   0.105  0.2344  0.0803 -0.9909
 5477TIP3    H216438   3.398   0.987   0.093  0.2117  0.2998  0.1480
 5478TIP3   OH216439   5.421   0.698   3.768  0.4683 -0.7380 -0.7298
 5478TIP3    H116440   5.382   0.728   3.685  0.8993  0.2362 -0.5983
 5478TIP3    H216441   5.490   0.638   3.741  0.8466 -0.1470 -1.1157
 5479TIP3   OH216442   3.269   3.852   1.558 -0.0734  0.0943  0.4998
 5479TIP3    H116443   3.263   3.868   1.652  0.9160  0.1247  0.5691
 5479TIP3    H216444   3.178   3.845   1.529 -0.4429  1.7542  1.1604
 5480TIP3   OH216445   2.778   5.941   1.623 -0.0071 -0.0925  0.2424
 5480TIP3    H116446   2.691   5.964   1.657  0.1572 -0.2942  0.8045
 5480TIP3    H216447   2.791   6.001   1.550 -0.1470  0.7097  0.8591
 5481TIP3   OH216448   3.971   3.777   1.366 -0.0786 -0.7182  0.0959
 5481TIP3    H116449   3.964   3.870   1.386 -0.8610 -1.0034  1.2342
 5481TIP3    H216450   3.949   3.771   1.273 -0.1889  0.2073  0.0515
 5482TIP3   OH216451   4.916   1.605   0.158  0.1232 -0.4129 -0.8056
 5482TIP3    H116452   4.887   1.604   0.249  0.1092  1.3112 -0.7599
 5482TIP3    H216453   4.906   1.515   0.128  0.3108 -1.0447  0.9482
 5483TIP3   OH216454   4.778   3.932   2.456  0.2242 -0.2011 -0.9746
 5483TIP3    H116455   4.691   3.921   2.417 -0.2964 -2.2215  0.5819
 5483TIP3    H216456   4.809   4.015   2.421 -1.2863 -0.5727 -3.5209
 5484TIP3   OH216457   4.316   4.765   2.798 -0.0572 -0.0358 -0.6185
 5484TIP3    H116458   4.409   4.770   2.818 -0.2345  1.2807 -0.0107
 5484TIP3    H216459   4.276   4.729   2.877 -0.0483 -0.7815 -0.9495
 5485TIP3   OH216460   0.169   5.636   2.479 -0.4245 -0.1516 -0.0285
 5485TIP3    H116461   0.123   5.716   2.506  1.5813  1.7433 -1.7986
 5485TIP3    H216462   0.177   5.585   2.560 -1.6352  1.4958  1.2120
 5486TIP3   OH216463   5.186   0.062   4.789  0.4628  0.4347 -0.0061
 5486TIP3    H116464   5.134  -0.015   4.764  0.8133  0.2774 -0.2571
 5486TIP3    H216465   5.123   0.133   4.792  0.1109  0.1162  0.3441
 5487TIP3   OH216466   6.121   0.477   1.905  0.0735  0.2876 -0.1675
 5487TIP3    H116467   6.156   0.425   1.832  0.4117  0.5092 -0.1674
 5487TIP3    H216468   6.086   0.412   1.966  0.4309  0.0596 -0.1995
 5488TIP3   OH216469   1.611   2.740   3.085 -0.2805  0.3110  0.4406
 5488TIP3    H116470   1.521   2.766   3.102 -0.4737  0.5518 -0.8422
 5488TIP3    H216471   1.636   2.788   3.006  0.1999 -1.4113 -0.5299
 5489TIP3   OH216472   2.032   0.868   1.253  0.5276  0.2714  0.0726
 5489TIP3    H116473   2.005   0.776   1.257  3.4897 -0.7102 -0.4658
 5489TIP3    H216474   2.005   0.897   1.166 -0.2249 -0.1244  0.1651
 5490TIP3   OH216475   3.441   2.388   4.814 -0.6830 -0.2120  1.0474
 5490TIP3    H116476   3.450   2.360   4.723  1.7368 -0.4189  1.2876
 5490TIP3    H216477   3.411   2.309   4.860 -3.2539  0.2338  0.3027
 5491TIP3   OH216478   0.273   4.070   2.901 -0.7126  0.3571  0.2622
 5491TIP3    H116479   0.331   3.995   2.887 -0.3280  0.6478  0.2750
 5491TIP3    H216480   0.206   4.038   2.961 -1.1445 -0.2722 -0.5517
 5492TIP3   OH216481   0.573   5.780   3.917 -0.4729 -0.5412  0.4371
 5492TIP3    H116482   0.572   5.829   3.999  0.5475 -0.7436  0.5883
 5492TIP3    H216483   0.663   5.747   3.910 -0.2613  0.2897 -1.2567
 5493TIP3   OH216484   5.944   1.471   4.468 -0.1491  0.6908 -0.7235
 5493TIP3    H116485   5.879   1.501   4.404  0.7034 -2.5860 -3.3918
 5493TIP3    H216486   5.894   1.415   4.527 -0.6741  2.6555  0.8178
 5494TIP3   OH216487   2.522   2.881   0.731 -0.1060 -0.5511  0.2240
 5494TIP3    H116488   2.565   2.966   0.735 -1.2184  0.0152  0.3344
 5494TIP3    H216489   2.587   2.823   0.691  0.1001  0.7114 -1.3419
 5495TIP3   OH216490   4.404   3.062   2.945 -0.3342 -0.5114  0.2133
 5495TIP3    H116491   4.373   3.065   3.036  0.5143 -0.1488  0.5013
 5495TIP3    H216492   4.355   3.132   2.901 -0.7959 -0.7317  0.3748
 5496TIP3   OH216493   3.763   4.338   4.047  0.7616 -0.7799  0.5438
 5496TIP3    H116494   3.763   4.412   4.107 -1.3462 -0.5925  0.4052
 5496TIP3    H216495   3.855   4.323   4.026  1.2214  2.4346 -0.2136
 5497TIP3   OH216496   4.271   3.506   1.011 -0.6929  0.8578 -0.3422
 5497TIP3    H116497   4.268   3.602   1.018 -0.7566  0.9201 -1.1492
 5497TIP3    H216498   4.364   3.486   0.998 -0.5777  0.7440  0.5863
 5498TIP3   OH216499   3.260   3.241   0.963 -0.0584  0.2115  0.4823
 5498TIP3    H116500   3.235   3.322   1.008 -0.3367  0.0269  0.6678
 5498TIP3    H216501   3.295   3.270   0.879 -0.2401  0.5219  0.5105
 5499TIP3   OH216502   4.289   0.813   4.026 -0.1110 -0.3871  0.2848
 5499TIP3    H116503   4.289   0.817   3.930 -1.3234 -0.2636  0.2754
 5499TIP3    H216504   4.255   0.725   4.046 -3.0440  0.7095  0.5744
 5500TIP3   OH216505   0.389   2.131   3.321  0.3465  0.2214 -0.2532
 5500TIP3    H116506   0.408   2.186   3.245 -0.9213 -0.0582 -0.8007
 5500TIP3    H216507   0.295   2.139   3.333  0.2724 -1.1075  0.2217
 5501TIP3   OH216508   3.981   0.523   3.083 -0.8198  1.3180  0.0210
 5501TIP3    H116509   4.004   0.594   3.024 -0.5315  2.1217  1.0748
 5501TIP3    H216510   3.944   0.566   3.160 -2.0972  0.2477  0.0393
 5502TIP3   OH216511   6.260   5.557   1.871  0.4567 -0.2347  0.3113
 5502TIP3    H116512   6.217   5.527   1.791  0.6957 -0.5011  0.2809
 5502TIP3    H216513   6.353   5.559   1.850  0.5223 -0.3185  0.5849
 5503TIP3   OH216514   2.618   5.168   3.816 -0.3581 -0.0195 -0.1170
 5503TIP3    H116515   2.661   5.241   3.772 -1.2677  0.0156 -0.9797
 5503TIP3    H216516   2.645   5.176   3.908  2.4909 -0.7384 -0.7869
 5504TIP3   OH216517   5.905   5.385   3.503  0.1721 -0.5062 -0.0224
 5504TIP3    H116518   5.848   5.335   3.445 -3.7235 -0.2755  3.1563
 5504TIP3    H216519   5.981   5.328   3.517 -1.2616 -2.8556 -1.1888
 5505TIP3   OH216520   3.351   2.402   1.401 -0.3118 -0.2065 -0.2826
 5505TIP3    H116521   3.258   2.405   1.376 -0.6935 -0.3053  1.0294
 5505TIP3    H216522   3.386   2.487   1.373 -0.6071 -0.4402 -1.4218
 5506TIP3   OH216523   2.876   1.779   4.004  0.1023 -0.0120 -0.3017
 5506TIP3    H116524   2.950   1.721   4.023 -0.8566 -1.4842 -0.8645
 5506TIP3    H216525   2.802   1.719   3.994 -1.1794  1.4331  0.2842
 5507TIP3   OH216526   5.402   5.471   3.848 -0.1669 -0.0626  0.3983
 5507TIP3    H116527   5.488   5.429   3.843 -1.2766 -2.3906 -2.0824
 5507TIP3    H216528   5.361   5.431   3.925  0.2974 -0.3383  0.5092
 5508TIP3   OH216529   3.614   2.885   3.631  0.1715  0.1161  0.2380
 5508TIP3    H116530   3.679   2.851   3.570  0.3136  0.9256 -0.0820
 5508TIP3    H216531   3.560   2.810   3.653  3.0907 -1.3634  3.0161
 5509TIP3   OH216532   0.823   2.754   2.767 -0.2932  0.0613  0.3318
 5509TIP3    H116533   0.815   2.698   2.845 -0.0287  0.6075  0.7565
 5509TIP3    H216534   0.912   2.789   2.771 -0.7131  1.1532  0.5160
 5510TIP3   OH216535   4.704   4.669   5.098 -0.1735  0.2952  0.1005
 5510TIP3    H116536   4.778   4.624   5.138 -0.1977 -0.6261 -0.8424
 5510TIP3    H216537   4.647   4.599   5.067 -1.1847  0.9925  0.3412
 5511TIP3   OH216538   0.615   5.541   3.512  0.6077 -0.4003  0.1281
 5511TIP3    H116539   0.684   5.488   3.551  0.6444 -1.3644 -1.1744
 5511TIP3    H216540   0.645   5.632   3.524  1.4056 -0.7497  0.8235
 5512TIP3   OH216541   5.446   1.098   2.142 -0.0821  0.3720 -0.2053
 5512TIP3    H116542   5.486   1.022   2.182  1.2255  0.0019 -2.0848
 5512TIP3    H216543   5.430   1.158   2.215  1.0957 -0.7127  0.9931
 5513TIP3   OH216544   5.002   4.696   0.486 -0.3996  0.2867  0.3320
 5513TIP3    H116545   4.908   4.709   0.487 -0.2826  1.3183 -0.6426
 5513TIP3    H216546   5.029   4.713   0.396  0.8587  1.1737  0.8324
 5514TIP3   OH216547   2.056   3.701   1.391 -0.3748  0.8295 -0.0594
 5514TIP3    H116548   2.025   3.778   1.438 -1.0848  0.4071  0.1956
 5514TIP3    H216549   1.998   3.630   1.421  0.1572  0.2359 -0.4080
 5515TIP3   OH216550   1.048   5.550   4.773  0.0103 -0.3852  0.2428
 5515TIP3    H116551   1.125   5.606   4.760 -0.6739  0.8083  1.1102
 5515TIP3    H216552   1.082   5.474   4.821  0.6576  0.1432  0.6456
 5516TIP3   OH216553   0.650   0.900   3.347 -0.3797  0.0159  0.5159
 5516TIP3    H116554   0.632   0.972   3.287 -0.4662  0.3090  0.8912
 5516TIP3    H216555   0.622   0.932   3.433 -1.7385 -0.9845  0.4716
 5517TIP3   OH216556   2.600   4.373   3.684 -0.2421 -0.6014 -0.0085
 5517TIP3    H116557   2.512   4.407   3.672 -0.0293 -0.9961 -3.4321
 5517TIP3    H216558   2.596   4.283   3.653  1.8505  0.1449 -2.8291
 5518TIP3   OH216559   3.005   3.007   3.502 -0.5572  0.4868 -0.2563
 5518TIP3    H116560   2.939   2.954   3.458 -0.4256  0.2794 -0.2052
 5518TIP3    H216561   2.972   3.097   3.496 -0.7619  0.4035 -0.3754
 5519TIP3   OH216562   4.469   1.793   0.182 -0.0285  0.4714 -0.6534
 5519TIP3    H116563   4.479   1.750   0.267 -0.4048 -1.7756 -1.6505
 5519TIP3    H216564   4.491   1.724   0.118 -0.9138  1.7158 -2.3929
 5520TIP3   OH216565   3.007   1.513   3.824 -0.3242 -0.2489  0.3991
 5520TIP3    H116566   3.062   1.451   3.871  0.5712  0.4093  0.2452
 5520TIP3    H216567   3.020   1.492   3.732 -0.8993 -0.5535  0.3804
 5521TIP3   OH216568   3.840   0.961   4.521 -0.7822  0.4963  0.3328
 5521TIP3    H116569   3.884   1.016   4.457 -0.9840  0.7317  0.3897
 5521TIP3    H216570   3.901   0.889   4.538 -0.9107  0.1973 -0.4392
 5522TIP3   OH216571   4.258   5.233   1.071 -0.8529 -0.5100  0.6386
 5522TIP3    H116572   4.332   5.286   1.042 -2.0726  1.0613  0.2694
 5522TIP3    H216573   4.241   5.263   1.160 -2.1805  0.4976  0.0807
 5523TIP3   OH216574   2.944   4.473   4.714 -0.0900  0.6634  0.0931
 5523TIP3    H116575   2.913   4.415   4.645 -2.6546  0.5937  1.1994
 5523TIP3    H216576   2.865   4.498   4.762  1.1218  3.6996  0.7440
 5524TIP3   OH216577   5.724   4.463   0.450  0.0327 -0.1286 -0.2461
 5524TIP3    H116578   5.815   4.462   0.421  0.3557 -0.9990  0.7243
 5524TIP3    H216579   5.710   4.376   0.487 -0.9117  0.3133  0.4812
 5525TIP3   OH216580   2.922   1.747   0.621  0.6250 -0.2787 -0.0256
 5525TIP3    H116581   2.953   1.690   0.550  1.4463  0.3754 -0.2082
 5525TIP3    H216582   2.988   1.816   0.627  0.2534  0.0078  0.9825
 5526TIP3   OH216583   0.699   3.481   4.557  0.2904 -0.2768  0.2949
 5526TIP3    H116584   0.630   3.461   4.621  0.2347  0.0745  0.3464
 5526TIP3    H216585   0.781   3.465   4.604  0.2473 -0.6137  0.2601
 5527TIP3   OH216586   2.858   2.350   0.478  0.5988 -0.2341  0.2027
 5527TIP3    H116587   2.870   2.423   0.418  1.4158  0.3320  1.0302
 5527TIP3    H216588   2.832   2.391   0.561  0.4607 -0.9275  0.5074
 5528TIP3   OH216589   2.747   2.268   4.536  0.3103 -0.0266  0.4993
 5528TIP3    H116590   2.656   2.297   4.542 -0.0633 -1.3959  2.3821
 5528TIP3    H216591   2.761   2.218   4.616  1.4551 -3.4283 -1.6125
 5529TIP3   OH216592   3.770   5.496   4.448  0.6539 -0.2747  0.6652
 5529TIP3    H116593   3.736   5.542   4.372  0.4378 -0.5703  0.5826
 5529TIP3    H216594   3.704   5.510   4.516  0.2950 -0.9543  0.4680
 5530TIP3   OH216595   6.193   2.084   1.157  0.0190  0.3109  0.5351
 5530TIP3    H116596   6.167   2.025   1.228  2.7110 -2.2335 -0.4009
 5530TIP3    H216597   6.113   2.098   1.106 -1.2270 -0.4979  2.1663
 5531TIP3   OH216598   3.037   5.169   2.910  0.0859 -0.1791 -0.4821
 5531TIP3    H116599   2.984   5.094   2.937  3.3091 -2.7306 -0.6820
 5531TIP3    H216600   3.018   5.236   2.977 -1.6418 -1.7217  0.6897
 5532TIP3   OH216601   2.741   2.043   1.488  0.6811 -0.3926 -0.3911
 5532TIP3    H116602   2.814   2.013   1.433  0.0780  0.1326 -1.4939
 5532TIP3    H216603   2.680   1.969   1.488  0.2446 -0.0469 -1.2336
 5533TIP3   OH216604   4.351   0.781   1.994  0.1460  0.1981  0.2997
 5533TIP3    H116605   4.345   0.719   2.068  0.1093 -1.2807 -0.8822
 5533TIP3    H216606   4.302   0.858   2.023 -0.5348 -0.6529  1.5203
 5534TIP3   OH216607   5.196   1.984   4.978  0.1142 -0.2722  0.4222
 5534TIP3    H116608   5.249   2.019   4.907  2.3283  0.4830  2.3208
 5534TIP3    H216609   5.159   2.061   5.021  0.4875 -0.5584  1.2922
 5535TIP3   OH216610   3.945   4.323   1.101 -0.5431  0.1321 -0.5275
 5535TIP3    H116611   3.875   4.354   1.159 -0.9488 -0.0407 -0.9178
 5535TIP3    H216612   3.921   4.232   1.080  0.7258 -0.5364  0.7502
 5536TIP3   OH216613   4.316   0.369   4.781 -0.3134 -0.1243 -0.2790
 5536TIP3    H116614   4.255   0.393   4.712 -0.3398 -0.4285 -0.3645
 5536TIP3    H216615   4.402   0.378   4.741 -0.3179 -0.0057 -0.2596
 5537TIP3   OH216616   1.429   0.667   5.046  0.4195  0.3751 -0.3022
 5537TIP3    H116617   1.348   0.626   5.075  0.3086  0.0805 -1.0105
 5537TIP3    H216618   1.457   0.721   5.120 -0.6264  0.7777 -0.1905
 5538TIP3   OH216619   2.980   4.792   2.498 -0.2227  0.0408  0.5244
 5538TIP3    H116620   2.931   4.719   2.536 -0.6272  0.4621  0.8207
 5538TIP3    H216621   3.009   4.842   2.574  0.9514 -0.3744  0.3742
 5539TIP3   OH216622   5.408   4.371   4.934  0.1046 -0.1242 -0.3006
 5539TIP3    H116623   5.449   4.327   4.860  0.3326  0.0890 -0.3053
 5539TIP3    H216624   5.359   4.444   4.895 -0.3909 -0.4593 -0.3056
 5540TIP3   OH216625   1.369   4.576   4.023 -0.1656 -0.1781 -0.2330
 5540TIP3    H116626   1.398   4.488   4.047  3.1456  1.0078  0.6757
 5540TIP3    H216627   1.328   4.611   4.102  0.6346 -0.1445  0.1824
 5541TIP3   OH216628   3.020   5.227   1.651 -0.1839 -0.1718 -0.8760
 5541TIP3    H116629   2.961   5.232   1.727  0.3437 -1.1614 -0.3833
 5541TIP3    H216630   3.104   5.260   1.684 -0.7464  2.4985 -1.9293
 5542TIP3   OH216631   4.069   3.493   4.677  0.2250  0.0090  0.4508
 5542TIP3    H116632   4.048   3.402   4.659 -0.2447  0.0076  0.9912
 5542TIP3    H216633   3.987   3.532   4.705  0.4931  0.5205  0.5424
 5543TIP3   OH216634   0.339   1.575   3.789 -0.6414 -0.5932 -0.4245
 5543TIP3    H116635   0.424   1.533   3.799  1.0867  2.5713 -0.5571
 5543TIP3    H216636   0.297   1.565   3.875  1.1919  0.3278  0.6385
 5544TIP3   OH216637   2.572   0.761   2.198 -0.4743 -0.0536 -0.8750
 5544TIP3    H116638   2.517   0.687   2.223 -1.5557  0.3051 -2.1007
 5544TIP3    H216639   2.556   0.772   2.105 -1.4770  2.6137 -0.4785
 5545TIP3   OH216640   1.005   4.743   1.730 -0.5456 -0.1163  0.0271
 5545TIP3    H116641   1.017   4.827   1.684  4.5736  0.5682  2.0142
 5545TIP3    H216642   0.982   4.768   1.819  2.0038 -0.6600  0.8916
 5546TIP3   OH216643   0.684   1.683   1.009  0.6175  0.4076  0.0127
 5546TIP3    H116644   0.651   1.604   1.053 -1.5533  1.3728  0.2689
 5546TIP3    H216645   0.606   1.722   0.970  1.8998  1.6169 -1.4574
 5547TIP3   OH216646   0.871   0.356   0.886 -0.2922  0.6584  0.0330
 5547TIP3    H116647   0.853   0.334   0.795  0.8524  0.1631 -0.0922
 5547TIP3    H216648   0.889   0.450   0.885  1.8734  0.2964 -0.6536
 5548TIP3   OH216649   2.340   0.963   0.548 -0.0927 -0.4520 -0.5857
 5548TIP3    H116650   2.253   0.988   0.518 -1.2211 -0.1130  2.6731
 5548TIP3    H216651   2.331   0.872   0.575  0.1350 -0.0037  1.0979
 5549TIP3   OH216652   1.758   5.573   1.423  0.3833  0.5624 -0.0176
 5549TIP3    H116653   1.755   5.669   1.413  1.0092  0.4873 -1.0548
 5549TIP3    H216654   1.712   5.539   1.347  1.0848  0.0284 -0.2154
 5550TIP3   OH216655   2.864   4.941   3.310 -0.4664  0.2128  0.3532
 5550TIP3    H116656   2.838   5.027   3.344  0.5329  0.7377 -0.1576
 5550TIP3    H216657   2.889   4.958   3.219  2.2467 -0.0707  0.9437
 5551TIP3   OH216658   2.940   4.127   4.014 -0.1928 -0.5092 -0.0043
 5551TIP3    H116659   2.875   4.092   3.954  0.3501 -0.6950 -0.4894
 5551TIP3    H216660   2.955   4.217   3.983 -1.7652  0.3004  1.3805
 5552TIP3   OH216661   3.557   1.241   1.218 -0.6116 -0.1256  0.3145
 5552TIP3    H116662   3.630   1.229   1.158 -1.1074  1.5931 -0.7390
 5552TIP3    H216663   3.594   1.231   1.305  0.8786  0.6426 -0.1971
 5553TIP3   OH216664   2.388   0.153   0.092  0.1753  0.1488 -0.3037
 5553TIP3    H116665   2.366   0.110   0.175  1.0937  1.3341  0.5693
 5553TIP3    H216666   2.305   0.190   0.062 -0.2921 -0.8255 -0.2536
 5554TIP3   OH216667   5.307   5.093   4.459  0.4131  0.2628  0.9878
 5554TIP3    H116668   5.348   5.132   4.536 -0.0815 -1.2720  2.1009
 5554TIP3    H216669   5.278   5.006   4.490 -0.1132 -0.2464 -0.8397
 5555TIP3   OH216670   0.458   3.791   1.671 -0.6586  0.2261  0.5045
 5555TIP3    H116671   0.464   3.698   1.691 -0.0359  0.1548  0.0428
 5555TIP3    H216672   0.419   3.794   1.583 -1.0618  0.4167  0.6903
 5556TIP3   OH216673   5.479   4.842   2.651 -0.0429  0.3233 -0.1217
 5556TIP3    H116674   5.407   4.784   2.677 -1.1537  1.6209 -0.1830
 5556TIP3    H216675   5.438   4.928   2.644  1.4660  1.0297 -0.5033
 5557TIP3   OH216676   4.037   0.577   0.852 -0.1938  0.2497 -0.2670
 5557TIP3    H116677   4.050   0.585   0.758  0.8235 -0.4394 -0.1988
 5557TIP3    H216678   3.958   0.628   0.870 -0.5002  0.2291 -1.5124
 5558TIP3   OH216679   5.690   3.806   0.297 -0.3284 -0.8129 -0.0450
 5558TIP3    H116680   5.645   3.778   0.376  0.7165  0.2001  0.9381
 5558TIP3    H216681   5.783   3.792   0.316 -0.0484 -0.4311 -1.0512
 5559TIP3   OH216682   0.176   2.070   1.086 -0.3575 -0.0447  0.3540
 5559TIP3    H116683   0.178   1.999   1.151 -0.0851 -1.1656 -0.8350
 5559TIP3    H216684   0.266   2.101   1.082 -0.5074  0.5236  0.9956
 5560TIP3   OH216685   1.439   3.013   1.475 -0.0146 -0.0715 -0.0538
 5560TIP3    H116686   1.485   3.050   1.400  0.2310  0.6513  0.4433
 5560TIP3    H216687   1.457   3.074   1.546  1.3959 -1.7675  1.1059
 5561TIP3   OH216688   2.096   5.554   4.223  0.0354  0.1732  0.2557
 5561TIP3    H116689   2.011   5.564   4.266 -0.6032  0.3878 -1.0146
 5561TIP3    H216690   2.080   5.577   4.132  1.4647  0.2137 -0.0159
 5562TIP3   OH216691   5.569   0.420   1.136  0.5701  0.2925 -0.0666
 5562TIP3    H116692   5.655   0.381   1.157  0.6805  0.6904  0.2272
 5562TIP3    H216693   5.517   0.407   1.215  0.3598  0.0728 -0.2364
 5563TIP3   OH216694   4.456   1.708   1.640 -0.1635  0.2123  0.5341
 5563TIP3    H116695   4.470   1.618   1.610  0.4427  0.6196 -0.4256
 5563TIP3    H216696   4.386   1.700   1.705 -1.6243 -0.6806 -1.0621
 5564TIP3   OH216697   5.356   0.091   0.385 -0.2648 -0.0324  0.1687
 5564TIP3    H116698   5.407   0.149   0.329  1.1580  0.2619  1.6766
 5564TIP3    H216699   5.324   0.022   0.326 -0.3688  1.2260 -1.2925
 5565TIP3   OH216700   2.036   2.369   2.308  0.1799  0.1391  0.3105
 5565TIP3    H116701   2.079   2.420   2.240 -1.0527 -0.3320 -0.8876
 5565TIP3    H216702   1.942   2.384   2.293 -0.1649 -1.2860  0.8475
 5566TIP3   OH216703   3.878   4.459   3.568  0.7124  0.2057  0.1070
 5566TIP3    H116704   3.928   4.432   3.491  1.7759 -0.0412  0.8627
 5566TIP3    H216705   3.918   4.412   3.641 -1.7620 -1.4122  0.5423
 5567TIP3   OH216706   5.106   2.690   1.367 -0.3033 -0.0267 -0.4718
 5567TIP3    H116707   5.017   2.666   1.340 -0.2547 -0.6472 -0.0982
 5567TIP3    H216708   5.148   2.719   1.286 -0.5340 -0.7006 -0.8487
 5568TIP3   OH216709   3.657   0.599   4.699 -0.1314 -0.4731 -0.2798
 5568TIP3    H116710   3.658   0.581   4.605  0.3466 -0.7396 -0.2264
 5568TIP3    H216711   3.619   0.687   4.706 -0.6456 -0.6538 -0.6801
 5569TIP3   OH216712   5.135   2.898   4.291  0.2502  0.0284 -0.0900
 5569TIP3    H116713   5.070   2.967   4.283 -0.1923 -0.4098 -0.3934
 5569TIP3    H216714   5.129   2.869   4.382  0.8322  0.7605  0.1885
 5570TIP3   OH216715   5.267   1.955   2.897 -0.3730  0.2496  0.5053
 5570TIP3    H116716   5.173   1.958   2.883 -0.3839  1.1099  0.6852
 5570TIP3    H216717   5.295   2.046   2.888  0.4855 -0.0393  0.1391
 5571TIP3   OH216718   4.073   1.789   4.464 -0.6332  0.3283  0.1119
 5571TIP3    H116719   4.158   1.786   4.422  0.1925 -0.2188  1.7315
 5571TIP3    H216720   4.038   1.876   4.443  0.2777  0.5185 -0.6438
 5572TIP3   OH216721   0.916   1.664   4.437 -0.0896 -0.6776 -0.0850
 5572TIP3    H116722   0.965   1.707   4.366  1.7898  0.3858  1.7329
 5572TIP3    H216723   0.944   1.573   4.434 -0.5182 -0.7880 -1.0818
 5573TIP3   OH216724   3.767   4.903   1.023 -0.0170  0.1612  0.0564
 5573TIP3    H116725   3.686   4.852   1.026 -0.3275  0.5873  3.6806
 5573TIP3    H216726   3.829   4.852   1.075  0.5668  1.9607  1.2391
 5574TIP3   OH216727   4.739   3.789   3.453 -0.3821 -0.0665 -0.0603
 5574TIP3    H116728   4.665   3.830   3.408 -1.7674 -0.8247  1.4386
 5574TIP3    H216729   4.811   3.852   3.444 -1.5938  1.3123 -0.3632
 5575TIP3   OH216730   2.500   0.075   4.626 -0.4730 -0.6003 -0.4822
 5575TIP3    H116731   2.428   0.029   4.583  0.0944 -2.3564  0.3627
 5575TIP3    H216732   2.457   0.145   4.676 -1.5510 -1.2957 -0.4053
 5576TIP3   OH216733   3.255   5.412   5.122 -0.3971 -0.1903  0.2475
 5576TIP3    H116734   3.241   5.493   5.171  1.8338 -0.2601  1.1354
 5576TIP3    H216735   3.216   5.428   5.037  3.0057  3.3367 -0.9676
 5577TIP3   OH216736   0.893   1.093   1.610  0.9936  0.2602  0.1940
 5577TIP3    H116737   0.815   1.037   1.600  0.2113  0.8841  2.3686
 5577TIP3    H216738   0.965   1.032   1.625  0.9093 -0.3106 -1.5170
 5578TIP3   OH216739   2.981   1.295   3.038  0.2419 -0.3129 -0.1026
 5578TIP3    H116740   3.035   1.256   2.969 -0.1218  1.0523 -1.2087
 5578TIP3    H216741   3.044   1.342   3.094  0.3325  0.4411 -0.8171
 5579TIP3   OH216742   5.731   0.240   0.867 -0.0361  0.0286 -0.1039
 5579TIP3    H116743   5.761   0.152   0.844  0.6313 -0.5376  2.5403
 5579TIP3    H216744   5.643   0.226   0.902  0.3038  0.2869  0.8864
 5580TIP3   OH216745   2.579   4.708   2.041 -0.1718 -0.0573  0.1878
 5580TIP3    H116746   2.613   4.689   2.128 -1.6683  0.1171  0.8561
 5580TIP3    H216747   2.513   4.640   2.025 -0.6737  0.5326 -0.3405
 5581TIP3   OH216748   6.267   5.825   4.311 -0.0176 -0.4964 -0.2464
 5581TIP3    H116749   6.216   5.847   4.389  1.7410  1.5305  0.4402
 5581TIP3    H216750   6.316   5.747   4.336 -2.1602 -2.0368 -0.6686
 5582TIP3   OH216751   0.707   5.727   4.229  0.0458  0.5368 -0.6108
 5582TIP3    H116752   0.757   5.651   4.198  1.7665  1.0638  0.7351
 5582TIP3    H216753   0.618   5.694   4.238  0.1375 -0.5209 -2.8052
 5583TIP3   OH216754   3.224   2.389   1.667  0.2638 -0.1106 -0.6620
 5583TIP3    H116755   3.227   2.360   1.576  0.4382 -0.5214 -0.5286
 5583TIP3    H216756   3.190   2.478   1.663  1.1459  0.2108 -1.2000
 5584TIP3   OH216757   1.739   3.866   4.417  0.1994 -0.6577  0.5706
 5584TIP3    H116758   1.745   3.897   4.508  3.4107 -0.8877  0.5320
 5584TIP3    H216759   1.656   3.818   4.414  1.0684 -2.7303  4.0784
 5585TIP3   OH216760   2.862   4.043   1.909 -0.1595  0.1172  0.2913
 5585TIP3    H116761   2.882   3.957   1.945 -2.1176  0.4335  2.4264
 5585TIP3    H216762   2.939   4.096   1.929  1.2897 -1.1869 -1.5240
 5586TIP3   OH216763   4.981   2.937   2.666  0.6550  0.0424 -0.2035
 5586TIP3    H116764   5.061   2.923   2.716  0.3547 -1.1527 -0.0051
 5586TIP3    H216765   4.910   2.915   2.727  0.1915  0.6265 -0.5181
 5587TIP3   OH216766   2.863   1.140   4.366 -0.2973  1.0075  0.1964
 5587TIP3    H116767   2.828   1.160   4.453 -1.7462 -2.0657  0.4548
 5587TIP3    H216768   2.798   1.082   4.327  1.3499  0.5788 -2.1061
 5588TIP3   OH216769   3.407   3.268   0.284 -0.8809 -0.3412 -0.7725
 5588TIP3    H116770   3.399   3.354   0.242 -2.0122 -0.2949 -0.4877
 5588TIP3    H216771   3.431   3.209   0.213  0.2291  0.2475 -0.9165
 5589TIP3   OH216772   1.806   2.876   0.187  0.4714 -0.2654 -0.2914
 5589TIP3    H116773   1.817   2.791   0.144  1.3238 -0.8520  1.0220
 5589TIP3    H216774   1.791   2.855   0.279  2.2787  1.0335  0.3562
 5590TIP3   OH216775   4.805   1.795   1.147 -0.0288  0.3504  0.5253
 5590TIP3    H116776   4.781   1.789   1.055  1.6481 -0.0266  0.0720
 5590TIP3    H216777   4.729   1.761   1.194  0.2407 -2.4921 -0.8849
 5591TIP3   OH216778   4.291   4.656   2.077 -0.0581  0.0760 -0.0468
 5591TIP3    H116779   4.228   4.715   2.119 -0.8564 -0.9717  0.2679
 5591TIP3    H216780   4.254   4.640   1.990  0.4269  0.4497 -0.3226
 5592TIP3   OH216781   0.468   3.545   0.766  0.0996  0.5930 -0.0039
 5592TIP3    H116782   0.455   3.456   0.734 -0.9422  1.1770 -1.2859
 5592TIP3    H216783   0.398   3.596   0.725  1.1120  2.1390  0.1046
 5593TIP3   OH216784   1.974   4.254   1.945 -0.1642  0.3715 -0.0333
 5593TIP3    H116785   1.915   4.216   2.010 -0.8048  2.8757  0.9515
 5593TIP3    H216786   1.989   4.183   1.883  1.1839 -2.4440  3.2227
 5594TIP3   OH216787   0.786   5.622   0.096  1.0131 -0.1944 -0.5592
 5594TIP3    H116788   0.772   5.531   0.069 -1.0758  0.4880 -2.0034
 5594TIP3    H216789   0.706   5.668   0.068  1.6296  1.9162  0.9355
 5595TIP3   OH216790   1.376   0.358   3.324  0.6215  0.1153 -0.6008
 5595TIP3    H116791   1.452   0.415   3.327 -0.0587  1.1770 -2.3350
 5595TIP3    H216792   1.304   0.412   3.359  0.9144 -1.4804  2.8699
 5596TIP3   OH216793   1.843   1.027   3.073  0.2043  0.4201 -0.3827
 5596TIP3    H116794   1.789   0.995   3.001 -1.4490 -0.0042  0.9636
 5596TIP3    H216795   1.836   1.123   3.067  0.6532  0.4055 -1.1856
 5597TIP3   OH216796   4.337   3.534   2.722 -0.2297  0.2433  0.1043
 5597TIP3    H116797   4.302   3.568   2.639  0.5261 -1.8961 -1.1845
 5597TIP3    H216798   4.425   3.572   2.727 -0.1547  0.1214 -0.2478
 5598TIP3   OH216799   2.602   5.850   1.190  0.1039  0.7150 -0.3074
 5598TIP3    H116800   2.617   5.793   1.114  2.4469  1.3691 -0.4294
 5598TIP3    H216801   2.519   5.894   1.171 -0.3744 -0.6038 -1.5058
 5599TIP3   OH216802   0.680   1.209   4.110  0.0005 -0.0294  0.2833
 5599TIP3    H116803   0.680   1.304   4.126 -0.7070  0.5954 -2.7476
 5599TIP3    H216804   0.593   1.191   4.075  0.0768 -1.8642  0.9450
 5600TIP3   OH216805   0.992   2.794   0.954 -0.1724 -0.2790  0.2196
 5600TIP3    H116806   1.051   2.727   0.989  0.1251 -0.9774 -1.4842
 5600TIP3    H216807   0.999   2.867   1.015  1.2270 -0.9542  0.9157
 5601TIP3   OH216808   0.682   2.416   5.110 -0.1054  0.8246 -0.2095
 5601TIP3    H116809   0.777   2.425   5.123  0.0669 -0.4321 -0.4906
 5601TIP3    H216810   0.652   2.372   5.189 -0.0057 -1.2838 -1.2912
 5602TIP3   OH216811   5.909   5.379   2.496 -0.3599 -0.3899 -0.3591
 5602TIP3    H116812   5.934   5.374   2.588  0.3837 -1.3213 -0.5921
 5602TIP3    H216813   5.987   5.347   2.449 -1.2493 -1.3419 -1.2299
 5603TIP3   OH216814   5.671   0.485   2.308 -0.3514 -0.0509 -0.4342
 5603TIP3    H116815   5.600   0.499   2.245 -1.9530 -0.3870  1.2040
 5603TIP3    H216816   5.733   0.556   2.291 -0.8772  0.0325 -2.1628
 5604TIP3   OH216817   2.451   4.638   3.963  0.4557  0.1664 -0.4554
 5604TIP3    H116818   2.508   4.696   3.913  0.7416  1.1947  1.0099
 5604TIP3    H216819   2.395   4.696   4.014 -1.5351 -0.8221 -1.3538
 5605TIP3   OH216820   5.322   2.272   3.616  0.2078 -0.0876  0.5439
 5605TIP3    H116821   5.368   2.282   3.533 -0.4784 -0.9194  0.0392
 5605TIP3    H216822   5.389   2.247   3.679  0.6229 -0.1446  0.0782
 5606TIP3   OH216823   2.599   0.477   3.196 -0.2090  0.1440  0.2447
 5606TIP3    H116824   2.507   0.476   3.223 -0.3065 -1.3656 -0.0148
 5606TIP3    H216825   2.621   0.384   3.185  1.3701  0.4797  0.3601
 5607TIP3   OH216826   1.663   0.446   4.029  0.2060 -0.1298  0.1142
 5607TIP3    H116827   1.706   0.402   4.103  1.4278 -0.0895 -0.5570
 5607TIP3    H216828   1.622   0.523   4.068  0.6833 -0.2054  0.7872
 5608TIP3   OH216829   0.981   0.058   2.367  0.3255 -0.1102  0.5778
 5608TIP3    H116830   0.999   0.008   2.447  0.2818 -1.7950 -0.4158
 5608TIP3    H216831   0.886   0.057   2.359  0.3722 -1.1278 -0.1609
 5609TIP3   OH216832   5.197   3.381   1.978  0.3807  0.1636  0.7409
 5609TIP3    H116833   5.140   3.319   1.933  0.8665  1.3422 -1.7329
 5609TIP3    H216834   5.218   3.340   2.061 -1.3845 -1.7736  0.3068
 5610TIP3   OH216835   0.498   0.370   1.200  0.2412 -0.2168  0.3882
 5610TIP3    H116836   0.407   0.349   1.178  0.2217 -1.9442  1.9645
 5610TIP3    H216837   0.542   0.286   1.206  2.1684  0.6088 -1.0398
 5611TIP3   OH216838   3.282   4.758   4.036 -0.0005  0.0120 -0.4416
 5611TIP3    H116839   3.195   4.751   4.073 -1.0540  1.3421 -2.4904
 5611TIP3    H216840   3.286   4.687   3.971  0.0182  0.6060 -1.1016
 5612TIP3   OH216841   0.261   3.278   2.437  0.2128 -1.0321 -0.2832
 5612TIP3    H116842   0.313   3.255   2.514 -0.2165  0.8404  0.6268
 5612TIP3    H216843   0.178   3.233   2.449 -0.6780  0.9286  1.5398
 5613TIP3   OH216844   5.667   0.833   4.038 -0.0010  0.1801  0.9207
 5613TIP3    H116845   5.703   0.841   3.950 -3.7484 -0.3920 -0.8844
 5613TIP3    H216846   5.653   0.923   4.067 -3.5499  0.6237 -1.4944
 5614TIP3   OH216847   4.847   5.741   4.603 -0.4986 -0.1045 -0.2816
 5614TIP3    H116848   4.902   5.774   4.674 -2.8797 -1.3596  2.3067
 5614TIP3    H216849   4.902   5.674   4.560  1.2025  1.0880 -0.0742
 5615TIP3   OH216850   2.505   0.721   3.442 -0.1978  0.4853  0.1954
 5615TIP3    H116851   2.561   0.782   3.394  1.5952 -0.6264  0.8125
 5615TIP3    H216852   2.564   0.675   3.502 -1.6749 -1.0915  0.5185
 5616TIP3   OH216853   5.739   5.671   0.772  0.4927  0.1636  0.4758
 5616TIP3    H116854   5.778   5.587   0.747  0.0246 -0.0901  0.5812
 5616TIP3    H216855   5.780   5.735   0.714  1.4811 -0.0117  0.9711
 5617TIP3   OH216856   3.564   3.206   1.144 -0.2186  0.7473  0.0118
 5617TIP3    H116857   3.499   3.139   1.166 -0.4279  0.6970 -0.7249
 5617TIP3    H216858   3.578   3.195   1.050  3.5995 -1.7071  0.6269
 5618TIP3   OH216859   4.231   0.794   3.441 -0.5867 -0.0941 -0.0946
 5618TIP3    H116860   4.151   0.800   3.389 -0.6957  0.7906  0.1490
 5618TIP3    H216861   4.293   0.748   3.385 -0.1238  2.3635 -1.7521
 5619TIP3   OH216862   1.078   3.392   0.073  0.1378 -0.6216  0.1762
 5619TIP3    H116863   1.125   3.368  -0.006  0.1868 -0.1798  0.0695
 5619TIP3    H216864   1.014   3.458   0.045 -0.6351 -1.2981  0.2955
 5620TIP3   OH216865   5.838   4.401   4.385  0.0592 -0.8499  0.7327
 5620TIP3    H116866   5.918   4.349   4.393  0.6897 -0.2114 -1.0871
 5620TIP3    H216867   5.810   4.390   4.294 -0.3709  1.1525  0.5780
 5621TIP3   OH216868   4.809   2.542   4.718 -0.0139 -0.2133 -0.1075
 5621TIP3    H116869   4.904   2.552   4.724  0.0759 -1.2735  0.6257
 5621TIP3    H216870   4.796   2.447   4.707 -0.8738  0.1600 -3.0361
 5622TIP3   OH216871   4.388   0.400   0.782 -0.0568 -0.1836  0.1906
 5622TIP3    H116872   4.423   0.315   0.757  0.7789  0.8222 -2.3801
 5622TIP3    H216873   4.343   0.432   0.703 -3.0023  0.5042  1.9919
 5623TIP3   OH216874   3.947   2.614   3.965 -0.1676  1.0675  1.0363
 5623TIP3    H116875   3.987   2.676   4.025  0.6233  1.3095  0.2857
 5623TIP3    H216876   4.017   2.593   3.902 -0.0784 -1.3613  1.8405
 5624TIP3   OH216877   2.555   1.150   3.653 -0.2014 -0.1890 -0.5268
 5624TIP3    H116878   2.520   1.210   3.719 -1.2467  0.7333 -1.8650
 5624TIP3    H216879   2.573   1.069   3.701  0.5790  0.9455  1.1851
 5625TIP3   OH216880   2.699   3.475   1.702 -0.3199  0.0363 -0.7076
 5625TIP3    H116881   2.690   3.550   1.644  0.4349  0.2828 -0.5136
 5625TIP3    H216882   2.731   3.512   1.784  3.8907 -0.8695 -1.7266
 5626TIP3   OH216883   2.462   2.030   4.732 -0.0796 -0.0760 -0.2412
 5626TIP3    H116884   2.377   2.068   4.753  0.1000  0.3324 -0.2498
 5626TIP3    H216885   2.452   1.997   4.643 -0.5166 -0.8706  0.0914
 5627TIP3   OH216886   1.753   3.322   1.340  0.3109 -0.0200  0.3041
 5627TIP3    H116887   1.684   3.368   1.388 -0.9182 -1.3395 -0.1238
 5627TIP3    H216888   1.738   3.230   1.359  0.2471 -0.5514 -1.9813
 5628TIP3   OH216889   5.417   5.707   2.972  0.1199 -0.7628 -0.3461
 5628TIP3    H116890   5.501   5.742   3.001 -1.9097  3.2409  1.6937
 5628TIP3    H216891   5.395   5.640   3.037 -0.0681  1.3300  1.9068
 5629TIP3   OH216892   3.530   5.839   4.245 -0.3049  0.3561  0.1863
 5629TIP3    H116893   3.450   5.788   4.256 -1.4934  2.4246  1.8571
 5629TIP3    H216894   3.582   5.819   4.323 -0.7859  1.6143  0.8642
 5630TIP3   OH216895   3.577   3.014   2.262 -0.3758 -0.1682  0.2653
 5630TIP3    H116896   3.622   2.938   2.298 -0.2811 -0.2572 -0.0375
 5630TIP3    H216897   3.535   2.982   2.182  0.8862  0.4194 -0.6741
 5631TIP3   OH216898   2.671   0.725   3.134  0.0432 -0.0663  0.3814
 5631TIP3    H116899   2.657   0.653   3.195 -1.7738  1.1251  1.4699
 5631TIP3    H216900   2.629   0.696   3.053 -1.0093 -0.1238  0.9248
 5632TIP3   OH216901   5.498   5.030   4.032 -0.6052 -0.2837 -0.4561
 5632TIP3    H116902   5.576   5.049   3.979  0.1570 -0.4415  0.5866
 5632TIP3    H216903   5.481   4.937   4.016  2.3059 -1.6090  2.8809
 5633TIP3   OH216904   1.729   4.413   1.219 -0.3935 -0.1442  0.1490
 5633TIP3    H116905   1.657   4.445   1.274 -0.1749 -1.2874  1.1426
 5633TIP3    H216906   1.688   4.393   1.135 -1.8771 -3.3364  1.4725
 5634TIP3   OH216907   4.557   0.078   1.907  0.1500 -0.2915 -0.3253
 5634TIP3    H116908   4.533   0.005   1.849  1.9121 -0.7691 -0.4850
 5634TIP3    H216909   4.652   0.072   1.917  0.6889  3.1763 -1.9649
 5635TIP3   OH216910   2.429   3.043   3.267  0.0035  0.1375 -0.4179
 5635TIP3    H116911   2.384   3.125   3.286 -2.6001 -1.1896 -0.5103
 5635TIP3    H216912   2.465   3.054   3.179 -0.4990  1.0886 -0.5060
 5636TIP3   OH216913   0.226   5.795   3.597 -0.3722  0.5147  0.0614
 5636TIP3    H116914   0.319   5.772   3.593 -0.5842 -0.2176 -1.0616
 5636TIP3    H216915   0.185   5.740   3.531 -1.6568  0.6487  0.7244
 5637TIP3   OH216916   5.183   4.413   0.349 -0.1447 -0.3780  0.3717
 5637TIP3    H116917   5.180   4.464   0.268  0.1404  1.8468  1.6914
 5637TIP3    H216918   5.273   4.421   0.380 -0.1654 -1.4812  0.7721
 5638TIP3   OH216919   1.824   3.692   3.644  0.1820 -0.0077  0.2291
 5638TIP3    H116920   1.792   3.739   3.567 -0.2128 -1.8440 -0.7854
 5638TIP3    H216921   1.914   3.723   3.655 -0.4079  1.7939  0.3048
 5639TIP3   OH216922   4.306   5.034   0.841  0.4385 -0.9377  0.0499
 5639TIP3    H116923   4.308   4.944   0.875  0.0906 -0.9107  0.1412
 5639TIP3    H216924   4.302   5.089   0.920 -0.5844 -0.8823 -0.0353
 5640TIP3   OH216925   3.184   1.980   3.120  0.4566 -0.0074 -0.0972
 5640TIP3    H116926   3.153   2.022   3.200  1.2858  0.0055  0.2304
 5640TIP3    H216927   3.200   1.889   3.146 -0.5588 -0.3559 -0.5997
 5641TIP3   OH216928   5.654   2.955   0.488 -0.1418  0.0569 -0.5925
 5641TIP3    H116929   5.664   2.958   0.393 -1.0797  0.1147 -0.6967
 5641TIP3    H216930   5.603   2.876   0.505  0.9711 -0.5676 -0.0369
 5642TIP3   OH216931   4.803   2.266   0.851 -0.6230  0.2156  0.1541
 5642TIP3    H116932   4.873   2.331   0.845 -0.2162 -0.2188  0.1676
 5642TIP3    H216933   4.813   2.227   0.938 -0.5863 -0.1731 -0.0215
 5643TIP3   OH216934   6.059   4.497   4.159  0.2421  0.4583  0.5565
 5643TIP3    H116935   6.044   4.443   4.081 -1.7545  0.5352  0.8557
 5643TIP3    H216936   6.075   4.434   4.229  0.4835  0.3515  0.4096
 5644TIP3   OH216937   5.600   5.283   3.544  0.5181 -0.2727  0.0160
 5644TIP3    H116938   5.653   5.213   3.507  1.4967  0.3853  0.1115
 5644TIP3    H216939   5.622   5.283   3.638  1.9325  1.2737 -0.2562
 5645TIP3   OH216940   0.487   3.756   2.222 -0.1799 -0.1309  0.1559
 5645TIP3    H116941   0.479   3.817   2.150  0.2740  0.1295  0.3272
 5645TIP3    H216942   0.397   3.726   2.238 -0.5647  1.2495  0.7243
 5646TIP3   OH216943   1.150   4.713   1.319 -0.6755 -0.0475  0.0845
 5646TIP3    H116944   1.231   4.752   1.351 -1.2088  1.5877 -0.4629
 5646TIP3    H216945   1.100   4.787   1.285 -1.7967 -1.2126 -0.8857
 5647TIP3   OH216946   5.612   2.785   1.547 -0.0108 -0.0761  0.6964
 5647TIP3    H116947   5.659   2.864   1.576 -0.4521 -0.3924  2.3517
 5647TIP3    H216948   5.521   2.812   1.543  0.0157 -0.0996 -0.2552
 5648TIP3   OH216949   2.320   0.296   4.655  0.2862 -0.4399  0.4980
 5648TIP3    H116950   2.230   0.313   4.628  0.2537  1.8341  1.7957
 5648TIP3    H216951   2.374   0.332   4.585  0.1878 -0.3069  0.4910
 5649TIP3   OH216952   1.462   3.524   2.843  0.3164 -0.0803  0.3231
 5649TIP3    H116953   1.403   3.449   2.836 -1.1029  1.0873 -0.7876
 5649TIP3    H216954   1.496   3.536   2.754  0.2379  0.8013  0.4047
 5650TIP3   OH216955   4.821   4.230   3.150  0.1751  0.9504 -0.0534
 5650TIP3    H116956   4.891   4.294   3.137  0.9314  0.0779 -0.4717
 5650TIP3    H216957   4.866   4.145   3.147 -0.5494  0.4249  2.1168
 5651TIP3   OH216958   0.280   4.347   5.069  0.1055 -0.1541 -0.3662
 5651TIP3    H116959   0.231   4.269   5.097 -2.3715  1.8089  1.1791
 5651TIP3    H216960   0.264   4.352   4.975 -2.2407  0.0368 -0.0224
 5652TIP3   OH216961   1.088   3.545   5.008  0.6055  0.0743 -0.4960
 5652TIP3    H116962   1.092   3.597   5.088  1.1962  1.0076 -1.0980
 5652TIP3    H216963   1.180   3.531   4.984  0.4517  0.9523 -1.7003
 5653TIP3   OH216964   3.863   5.758   4.647 -0.0335 -0.3981 -0.4493
 5653TIP3    H116965   3.860   5.811   4.726 -0.8178  0.6760 -1.1692
 5653TIP3    H216966   3.856   5.667   4.678  1.8774 -0.1504  0.8449
 5654TIP3   OH216967   2.194   2.429   1.170  0.4809  0.3486  0.2906
 5654TIP3    H116968   2.277   2.414   1.215  0.2224 -0.7072  0.4480
 5654TIP3    H216969   2.206   2.513   1.126  2.2722 -0.5462 -1.0900
 5655TIP3   OH216970   6.326   4.941   3.507 -0.1839 -0.2351 -0.0790
 5655TIP3    H116971   6.277   4.960   3.588  0.9254  1.0411  0.3139
 5655TIP3    H216972   6.417   4.937   3.535  0.1083 -0.9556 -1.0938
 5656TIP3   OH216973   5.243   2.963   2.163  0.1379  0.1681 -0.3721
 5656TIP3    H116974   5.151   2.981   2.183  0.3703 -0.9579  1.9550
 5656TIP3    H216975   5.292   3.009   2.230  1.3790  1.3712 -2.0181
 5657TIP3   OH216976   1.995   2.449   0.247 -0.0442 -0.1824 -0.2822
 5657TIP3    H116977   1.980   2.371   0.193 -0.2090  1.4927 -2.8676
 5657TIP3    H216978   1.924   2.508   0.223  0.4715  1.0546  1.0794
 5658TIP3   OH216979   5.605   1.921   4.458  0.3464 -0.0673  0.3784
 5658TIP3    H116980   5.694   1.952   4.474  0.6877 -0.9417  0.2489
 5658TIP3    H216981   5.552   1.961   4.526  0.9732 -0.1362  0.9117
 5659TIP3   OH216982   3.702   3.642   4.268  0.1270  0.7328  0.1142
 5659TIP3    H116983   3.740   3.716   4.222 -0.6956  1.4965  0.6451
 5659TIP3    H216984   3.608   3.650   4.254  0.0147 -0.1668  0.2522
 5660TIP3   OH216985   4.556   5.378   3.169 -0.3148  0.6605  0.1908
 5660TIP3    H116986   4.574   5.393   3.262  0.6263 -2.4911  0.6288
 5660TIP3    H216987   4.586   5.458   3.126  1.5472  1.2460  2.3845
 5661TIP3   OH216988   2.155   5.386   4.479  0.3485 -0.1171 -0.0438
 5661TIP3    H116989   2.073   5.436   4.480 -0.9554 -2.1507 -1.0322
 5661TIP3    H216990   2.194   5.406   4.395 -0.4020 -1.0642 -0.6361
 5662TIP3   OH216991   5.873   0.903   1.241  0.1726 -0.1385 -0.0619
 5662TIP3    H116992   5.912   0.962   1.176  0.4610 -0.1695  0.0827
 5662TIP3    H216993   5.830   0.961   1.303  1.7903  0.0245  0.9676
 5663TIP3   OH216994   2.525   2.358   0.047 -0.0900 -0.1374  0.0778
 5663TIP3    H116995   2.501   2.448   0.066 -0.7392 -0.3557  0.3092
 5663TIP3    H216996   2.611   2.364   0.006  0.0723  0.5524  0.5074
 5664TIP3   OH216997   3.148   4.493   2.160  0.5027 -0.1313  0.6701
 5664TIP3    H116998   3.095   4.561   2.119 -0.4591 -1.6689 -0.7753
 5664TIP3    H216999   3.238   4.514   2.134  0.2845  0.9161  0.7475
 5665TIP3   OH217000   3.077   5.060   0.288  0.1270 -0.2430  0.1330
 5665TIP3    H117001   3.100   5.093   0.375  2.1222 -2.3117  0.4913
 5665TIP3    H217002   3.040   4.973   0.304  2.7049 -1.7051 -1.0746
 5666TIP3   OH217003   5.720   2.148   4.874 -0.0042  0.1621 -0.3501
 5666TIP3    H117004   5.637   2.171   4.915  0.4248  0.5811  0.2939
 5666TIP3    H217005   5.711   2.179   4.783 -0.7126 -0.2000 -0.4068
 5667TIP3   OH217006   6.318   2.970   4.063 -0.2482 -0.1629  0.6917
 5667TIP3    H117007   6.340   2.984   4.155 -0.6197 -1.5323  1.0133
 5667TIP3    H217008   6.393   2.924   4.026  0.2323  1.0456  0.0861
 5668TIP3   OH217009   6.279   5.119   1.035  0.2333  0.4703  0.6782
 5668TIP3    H117010   6.348   5.066   0.996  0.2604  0.3924  0.8330
 5668TIP3    H217011   6.322   5.201   1.060  0.1244  0.6972  0.1434
 5669TIP3   OH217012   4.564   2.222   5.178  0.3047 -0.7899 -0.7489
 5669TIP3    H117013   4.553   2.178   5.093 -1.9546 -0.1441 -0.8441
 5669TIP3    H217014   4.608   2.304   5.157  4.2264 -2.6075 -0.6177
 5670TIP3   OH217015   1.445   4.675   4.853  0.4519 -0.3648  0.3867
 5670TIP3    H117016   1.475   4.713   4.936  2.9964  0.6822 -0.9167
 5670TIP3    H217017   1.453   4.746   4.790 -0.9728 -1.2780 -0.9060
 5671TIP3   OH217018   0.590   1.038   4.963 -0.0700  0.7015 -0.7575
 5671TIP3    H117019   0.629   1.120   4.993 -0.5463  0.4591  0.6092
 5671TIP3    H217020   0.499   1.043   4.993  0.4238 -1.2312  1.3586
 5672TIP3   OH217021   4.673   4.155   1.084 -0.3340 -0.1384  0.6219
 5672TIP3    H117022   4.756   4.166   1.131 -0.2677 -0.4805  0.5908
 5672TIP3    H217023   4.681   4.213   1.008  0.2719 -0.8676  0.1125
 5673TIP3   OH217024   4.209   4.088   1.235  0.0174  0.0022  0.3104
 5673TIP3    H117025   4.235   4.029   1.306  1.1359  1.7179  1.3927
 5673TIP3    H217026   4.114   4.097   1.244  0.2837  1.2928  2.5499
 5674TIP3   OH217027   4.022   0.521   1.290  0.3900  0.1279  0.5499
 5674TIP3    H117028   3.978   0.472   1.359  2.1523 -0.1240  1.5510
 5674TIP3    H217029   4.107   0.545   1.328  0.2798  2.4646 -0.5234
 5675TIP3   OH217030   1.832   2.093   4.507  0.1550  0.2270 -0.5794
 5675TIP3    H117031   1.811   2.126   4.419  0.8816  1.4930 -0.3089
 5675TIP3    H217032   1.770   2.138   4.565  2.7549  3.2913  0.1077
 5676TIP3   OH217033   2.104   4.142   3.330 -0.3513 -0.5907 -0.0693
 5676TIP3    H117034   2.121   4.064   3.277 -2.4044 -1.1010 -0.0560
 5676TIP3    H217035   2.165   4.208   3.296  0.5959 -1.8307 -0.8740
 5677TIP3   OH217036   4.451   2.389   0.163  0.4781 -0.1995  0.4214
 5677TIP3    H117037   4.430   2.296   0.173 -0.3394 -0.0294  0.3455
 5677TIP3    H217038   4.434   2.427   0.250  1.3164 -0.2040  0.6008
 5678TIP3   OH217039   1.686   0.486   0.772  0.0959 -0.1231 -0.1988
 5678TIP3    H117040   1.636   0.411   0.806  0.3254 -0.5852 -0.8631
 5678TIP3    H217041   1.626   0.529   0.711  0.8208 -1.2789 -1.7933
 5679TIP3   OH217042   3.719   1.265   4.722 -0.0687  0.6486  0.4496
 5679TIP3    H117043   3.782   1.235   4.787  0.2624  1.2078  0.3929
 5679TIP3    H217044   3.766   1.329   4.670 -0.4402  0.4711 -0.1204
 5680TIP3   OH217045   0.739   2.324   3.418 -0.0943  0.3488 -0.4332
 5680TIP3    H117046   0.681   2.382   3.368  0.0632 -0.4211 -1.5306
 5680TIP3    H217047   0.786   2.383   3.477 -0.7892  1.1918 -0.6967
 5681TIP3   OH217048   3.235   2.459   0.408  0.1237  0.1245 -0.0341
 5681TIP3    H117049   3.258   2.546   0.376  0.5210  0.6065  1.5038
 5681TIP3    H217050   3.168   2.475   0.475 -0.0767 -0.7926 -0.0007
 5682TIP3   OH217051   4.241   2.853   1.663 -0.5250  0.4370  0.1909
 5682TIP3    H117052   4.181   2.853   1.588 -1.6809 -1.6073  1.0294
 5682TIP3    H217053   4.292   2.773   1.653  0.9281  1.2958  0.4084
 5683TIP3   OH217054   2.559   0.088   3.540 -0.4907  0.4215  0.8452
 5683TIP3    H117055   2.518   0.002   3.541 -1.1913  0.7505  1.1890
 5683TIP3    H217056   2.630   0.081   3.605 -1.2591  0.4354  1.7046
 5684TIP3   OH217057   0.821   3.505   1.391  0.2454  0.0245 -0.6692
 5684TIP3    H117058   0.842   3.595   1.415  0.8953 -0.2165 -0.3220
 5684TIP3    H217059   0.792   3.512   1.300  0.8431  0.5087 -0.8323
 5685TIP3   OH217060   6.373   2.192   1.367  0.5911 -0.5901 -0.6614
 5685TIP3    H117061   6.320   2.165   1.442 -0.3792  2.1578 -0.2659
 5685TIP3    H217062   6.323   2.162   1.291 -2.6787  3.2755 -0.3756
 5686TIP3   OH217063   2.593   3.250   2.889  0.2140 -0.2728  0.4836
 5686TIP3    H117064   2.566   3.332   2.848 -1.4445 -1.4301 -0.8536
 5686TIP3    H217065   2.664   3.275   2.949  0.2421  2.0043 -0.4257
 5687TIP3   OH217066   2.395   2.139   1.040 -0.3258  1.1664  0.1718
 5687TIP3    H117067   2.421   2.075   0.973  0.1349  0.1231  1.3084
 5687TIP3    H217068   2.302   2.155   1.022 -0.8015 -0.7878  0.5525
 5688TIP3   OH217069   0.576   1.438   3.852 -0.0135 -0.6392 -0.0224
 5688TIP3    H117070   0.666   1.449   3.885  0.0125 -1.7804  0.3400
 5688TIP3    H217071   0.583   1.369   3.786 -0.5391 -0.3291 -0.4101
 5689TIP3   OH217072   6.273   3.003   1.332  0.3257  0.2857 -0.2935
 5689TIP3    H117073   6.312   3.018   1.418  0.4963 -0.3032 -0.2646
 5689TIP3    H217074   6.197   2.947   1.350  0.2454  0.3258 -0.5026
 5690TIP3   OH217075   6.220   1.728   5.111  0.8915 -0.8253  0.0517
 5690TIP3    H117076   6.198   1.821   5.119 -0.9808 -1.0260 -1.9646
 5690TIP3    H217077   6.304   1.720   5.156  0.6507  1.6390  1.1162
 5691TIP3   OH217078   3.012   0.397   2.793 -0.3412  0.1814  0.3277
 5691TIP3    H117079   2.959   0.358   2.723 -1.1574  1.5692  0.1350
 5691TIP3    H217080   3.102   0.386   2.762 -0.6355 -0.1078 -0.4781
 5692TIP3   OH217081   4.497   5.210   1.302  0.8952  0.0886  0.5050
 5692TIP3    H117082   4.495   5.263   1.222  2.4413 -0.1115  0.2906
 5692TIP3    H217083   4.560   5.141   1.282 -0.1402 -1.0889  1.2375
 5693TIP3   OH217084   0.217   0.396   3.647  0.0399 -0.2167  0.5715
 5693TIP3    H117085   0.152   0.466   3.638  1.6346  1.2389 -0.3070
 5693TIP3    H217086   0.271   0.404   3.569  0.3378 -2.4270  0.4995
 5694TIP3   OH217087   5.033   1.719   3.357 -0.1065 -0.2538 -0.3235
 5694TIP3    H117088   4.974   1.707   3.283 -2.2698 -0.9452  1.4153
 5694TIP3    H217089   5.108   1.662   3.338 -0.9117 -0.9008 -1.6770
 5695TIP3   OH217090   5.355   0.772   5.039  0.3273  0.1384 -0.2844
 5695TIP3    H117091   5.419   0.805   5.101 -0.1139 -0.3027  0.4177
 5695TIP3    H217092   5.405   0.716   4.980  0.8158  0.8807 -0.5842
 5696TIP3   OH217093   6.204   0.546   3.888  0.3460 -0.1998 -0.2900
 5696TIP3    H117094   6.218   0.608   3.958 -0.9585  0.6168 -0.7090
 5696TIP3    H217095   6.128   0.494   3.916  1.3076 -1.5152 -0.0191
 5697TIP3   OH217096   0.907   3.020   4.075  0.1109  0.6038  0.0965
 5697TIP3    H117097   0.820   3.055   4.091 -0.0437  0.4248 -0.3231
 5697TIP3    H217098   0.892   2.928   4.053  0.3022  0.8305 -1.0374
 5698TIP3   OH217099   3.904   4.783   4.663  0.2846 -0.1701  0.1264
 5698TIP3    H117100   3.885   4.751   4.575 -1.2986 -0.5911  0.5884
 5698TIP3    H217101   3.880   4.710   4.721  0.1512  0.5190  0.9611
 5699TIP3   OH217102   3.463   2.922   0.833  0.1710 -0.1682  0.1977
 5699TIP3    H117103   3.385   2.942   0.885 -0.3158  0.3188 -0.6881
 5699TIP3    H217104   3.432   2.926   0.742  1.5743  1.6483 -0.2461
 5700TIP3   OH217105   3.451   4.871   1.357 -0.0357 -0.0130  0.2495
 5700TIP3    H117106   3.530   4.826   1.385 -0.2827 -0.1586  0.7197
 5700TIP3    H217107   3.402   4.887   1.438 -0.3499  0.3338 -0.0051
 5701TIP3   OH217108   1.636   2.436   0.705 -0.0987  1.1157  0.2016
 5701TIP3    H117109   1.671   2.403   0.788 -1.0420 -1.5901 -0.3983
 5701TIP3    H217110   1.685   2.389   0.638 -1.8572  0.4774 -0.7018
 5702TIP3   OH217111   1.492   5.834   3.579 -0.5158  0.3721 -0.4027
 5702TIP3    H117112   1.577   5.805   3.612 -1.2334 -0.8861  0.4487
 5702TIP3    H217113   1.441   5.753   3.569 -1.6500  1.1038 -0.7848
 5703TIP3   OH217114   5.192   2.398   1.322 -0.5322 -0.0973 -0.5300
 5703TIP3    H117115   5.275   2.420   1.279  0.6313 -0.5419  1.3770
 5703TIP3    H217116   5.151   2.482   1.339  1.4213  0.4804  1.9999
 5704TIP3   OH217117   5.265   3.044   0.585  0.2256  0.1513  0.0136
 5704TIP3    H117118   5.234   2.978   0.648 -1.8154  1.7314  0.7790
 5704TIP3    H217119   5.291   3.118   0.639 -2.2698  1.8371 -0.9317
 5705TIP3   OH217120   0.211   3.347   2.893  0.4599 -0.0559  0.2666
 5705TIP3    H117121   0.133   3.374   2.845  0.0911 -0.9093  0.3783
 5705TIP3    H217122   0.281   3.403   2.858 -0.4136  1.6060  1.0578
 5706TIP3   OH217123   6.030   2.155   0.371 -0.0431  0.2744  0.7058
 5706TIP3    H117124   5.954   2.197   0.331  0.8672  2.4312  1.1162
 5706TIP3    H217125   5.993   2.091   0.431 -1.4850 -0.2542 -0.6618
 5707TIP3   OH217126   0.064   0.005   1.850  0.2811  0.0132  0.6157
 5707TIP3    H117127   0.103   0.008   1.937  0.5910  1.0172  0.4580
 5707TIP3    H217128   0.079   0.092   1.814 -0.1681 -0.2737 -0.3045
 5708TIP3   OH217129   0.370   2.846   2.206  0.2729 -0.6551 -0.2538
 5708TIP3    H117130   0.410   2.889   2.282  2.3447 -0.5729 -1.3111
 5708TIP3    H217131   0.297   2.903   2.182  0.7528  0.3264  0.5523
 5709TIP3   OH217132   0.069   3.134   5.135 -0.3497  0.0575  0.2200
 5709TIP3    H117133   0.125   3.195   5.087 -0.9507  0.1892 -0.3310
 5709TIP3    H217134   0.129   3.066   5.167  0.4011  1.1613  1.2506
 5710TIP3   OH217135   1.058   5.839   4.571  0.5076  0.1016  0.2014
 5710TIP3    H117136   1.104   5.866   4.492  0.7842  1.7335  0.8874
 5710TIP3    H217137   1.024   5.751   4.550 -0.4377  0.9415 -2.1348
 5711TIP3   OH217138   5.146   2.040   3.654 -0.9112 -0.2230 -0.4968
 5711TIP3    H117139   5.194   2.123   3.660 -0.9117 -0.1495 -1.3258
 5711TIP3    H217140   5.061   2.058   3.694  0.2938 -0.8265  2.5853
 5712TIP3   OH217141   4.245   5.732   3.216 -0.0415 -0.4080 -0.2973
 5712TIP3    H117142   4.331   5.731   3.174  0.3529  1.6255  0.3512
 5712TIP3    H217143   4.193   5.669   3.165  0.6143  1.3710 -3.4655
 5713TIP3   OH217144   1.225   0.544   2.152  0.1543  0.9439  0.0629
 5713TIP3    H117145   1.162   0.583   2.091  0.6376  1.6319 -0.0102
 5713TIP3    H217146   1.280   0.618   2.179  1.0593  0.3134 -0.0448
 5714TIP3   OH217147   3.611   4.298   2.883  0.3455  0.0910 -0.9348
 5714TIP3    H117148   3.584   4.293   2.974  3.2687 -0.9132  0.0158
 5714TIP3    H217149   3.570   4.223   2.841 -1.0988  0.6168 -0.5314
 5715TIP3   OH217150   0.453   2.657   2.422  0.9922 -0.0321  0.3584
 5715TIP3    H117151   0.517   2.722   2.452 -0.1167  0.3460  2.0831
 5715TIP3    H217152   0.370   2.703   2.424  0.2968 -1.2587  0.8061
 5716TIP3   OH217153   3.051   4.254   2.225  0.1321 -0.1438  0.2245
 5716TIP3    H117154   3.059   4.349   2.232 -1.5121  0.0661 -0.2502
 5716TIP3    H217155   3.139   4.221   2.243  0.6926  1.4481  0.5900
 5717TIP3   OH217156   0.841   5.448   3.643 -0.1578 -0.4203  0.0255
 5717TIP3    H117157   0.829   5.423   3.735 -0.1306  0.3938  0.2544
 5717TIP3    H217158   0.913   5.393   3.613  0.0960 -0.4104  0.6017
 5718TIP3   OH217159   4.094   1.534   2.696 -0.5325 -0.1808 -0.0772
 5718TIP3    H117160   4.116   1.529   2.603 -0.6687  1.7119 -0.2668
 5718TIP3    H217161   4.129   1.619   2.723 -0.0758 -0.9060  1.7365
 5719TIP3   OH217162   2.920   3.277   3.554  0.1526 -0.5597 -0.3421
 5719TIP3    H117163   2.967   3.321   3.483  0.8122 -2.4137 -1.1040
 5719TIP3    H217164   2.828   3.287   3.531  0.1716  1.7168  0.3289
 5720TIP3   OH217165   1.767   4.476   1.928  1.0716 -0.4262  0.1229
 5720TIP3    H117166   1.834   4.414   1.957  0.3509 -1.7847 -0.9632
 5720TIP3    H217167   1.698   4.469   1.993  1.6687  0.4601  0.8704
 5721TIP3   OH217168   6.095   5.794   3.905  0.2361  0.0341  0.7211
 5721TIP3    H117169   6.161   5.824   3.967  1.5806 -2.9025  0.8779
 5721TIP3    H217170   6.087   5.700   3.922 -2.8537 -0.0159 -0.4011
 5722TIP3   OH217171   5.127   2.160   4.713 -0.1170 -0.1277 -0.0850
 5722TIP3    H117172   5.182   2.203   4.648  1.1671  0.1929  1.1553
 5722TIP3    H217173   5.126   2.068   4.687 -1.0000  0.2444 -1.4642
 5723TIP3   OH217174   6.092   0.805   0.032  0.4250  0.0330 -0.5347
 5723TIP3    H117175   6.151   0.734   0.007  1.7674  1.4900 -1.7747
 5723TIP3    H217176   6.006   0.764   0.038  1.6800 -2.6099  3.3154
 5724TIP3   OH217177   0.497   5.017   2.188 -0.6557 -0.2384  0.4277
 5724TIP3    H117178   0.592   5.006   2.188 -0.5019  0.8570  1.3306
 5724TIP3    H217179   0.465   4.956   2.122  0.4351 -2.5394  1.9134
 5725TIP3   OH217180   0.610   0.881   4.748  0.6102  0.2185 -0.1871
 5725TIP3    H117181   0.597   0.922   4.833  0.2238 -0.1873 -0.0529
 5725TIP3    H217182   0.557   0.934   4.688 -0.8279 -0.7734  0.1766
 5726TIP3   OH217183   5.261   4.768   4.448 -0.2893  0.4048 -0.0730
 5726TIP3    H117184   5.294   4.679   4.457  1.0423  0.8793 -0.0666
 5726TIP3    H217185   5.281   4.792   4.358 -3.3643 -0.3231 -1.0634
 5727TIP3   OH217186   6.340   5.857   4.929 -0.0975 -0.8215 -0.2714
 5727TIP3    H117187   6.335   5.790   4.860 -1.3410  0.8197 -1.8635
 5727TIP3    H217188   6.255   5.856   4.971 -0.6093  0.5885 -1.1897
 5728TIP3   OH217189   2.472   5.755   3.059  0.1992 -0.0067  0.1864
 5728TIP3    H117190   2.536   5.804   3.008  0.4530  0.5463  1.0143
 5728TIP3    H217191   2.467   5.670   3.015  0.2413  0.5260 -0.8727
 5729TIP3   OH217192   3.981   5.999   2.618 -0.3203 -0.3141  0.0431
 5729TIP3    H117193   4.021   5.947   2.688  1.3507  0.8981  0.0697
 5729TIP3    H217194   3.908   5.947   2.587  2.0896 -3.4404 -0.9271
 5730TIP3   OH217195   5.104   1.677   2.715  0.1480  0.1809 -0.8434
 5730TIP3    H117196   5.068   1.763   2.694  1.3089  1.7055  2.6859
 5730TIP3    H217197   5.180   1.695   2.769  0.4400 -3.0932  0.0648
 5731TIP3   OH217198   0.844   2.579   2.041  0.7221 -0.3471  0.3614
 5731TIP3    H117199   0.767   2.625   2.076  0.8034  0.3014 -0.2887
 5731TIP3    H217200   0.813   2.540   1.959  1.0486 -0.2105  0.1736
 5732TIP3   OH217201   4.223   4.267   3.466 -0.1139  0.2377  0.1311
 5732TIP3    H117202   4.283   4.325   3.419 -0.2341 -0.2877 -0.6779
 5732TIP3    H217203   4.262   4.258   3.553 -0.1820  1.6634  0.3421
 5733TIP3   OH217204   5.325   0.015   5.123  0.2019 -0.2624 -0.0400
 5733TIP3    H117205   5.378  -0.050   5.076  1.6460  0.5624  0.3818
 5733TIP3    H217206   5.295   0.075   5.055  0.0751 -0.5443 -0.2384
 5734TIP3   OH217207   2.257   2.970   2.715 -0.5507 -0.9760  0.0720
 5734TIP3    H117208   2.208   3.052   2.717 -0.4421 -0.9158  1.3592
 5734TIP3    H217209   2.311   2.976   2.637  0.1103  0.5853  0.6156
 5735TIP3   OH217210   5.276   5.915   4.792  0.4823  0.4669  0.4258
 5735TIP3    H117211   5.342   5.878   4.851 -0.0442  2.0288  2.0985
 5735TIP3    H217212   5.324   5.978   4.739  0.6689  0.1940  0.2630
 5736TIP3   OH217213   4.748   1.975   2.038 -0.1509 -0.8755  0.0133
 5736TIP3    H117214   4.758   1.937   1.951  0.5346 -1.0479  0.1697
 5736TIP3    H217215   4.819   2.039   2.045 -1.2288  0.4065 -0.2195
 5737TIP3   OH217216   5.619   5.719   2.013  0.3067 -0.2263  0.4678
 5737TIP3    H117217   5.638   5.637   1.968 -0.1222 -0.9160  1.4985
 5737TIP3    H217218   5.687   5.727   2.079  0.9444  0.7899 -0.2835
 5738TIP3   OH217219   0.158   4.420   0.979  0.1534 -0.5626 -0.3288
 5738TIP3    H117220   0.072   4.420   1.020 -0.0879 -2.4089 -0.7480
 5738TIP3    H217221   0.220   4.429   1.052 -0.3486 -1.1575  0.1824
 5739TIP3   OH217222   3.462   3.798   3.937  0.7351  0.2077 -0.1445
 5739TIP3    H117223   3.445   3.877   3.988  1.4206  1.5231 -1.8640
 5739TIP3    H217224   3.487   3.732   4.002  0.6133  1.5200  1.2854
 5740TIP3   OH217225   4.566   1.842   4.164 -0.0929  0.3556  0.6975
 5740TIP3    H117226   4.606   1.830   4.250 -0.1169  0.4482  0.7217
 5740TIP3    H217227   4.585   1.761   4.117 -0.7984 -0.0340  1.0734
 5741TIP3   OH217228   1.618   4.903   0.214 -0.1236  0.3311 -0.1513
 5741TIP3    H117229   1.674   4.849   0.270 -2.3402 -0.2481  1.6478
 5741TIP3    H217230   1.608   4.985   0.263 -1.2672  0.2143 -0.1793
 5742TIP3   OH217231   6.211   0.950   2.143 -0.1370  0.0784  0.2899
 5742TIP3    H117232   6.135   1.004   2.124 -0.8064  0.1334  2.8251
 5742TIP3    H217233   6.182   0.861   2.126  0.2913  0.2790 -1.7924
 5743TIP3   OH217234   5.719   3.265   0.149  0.1023  0.1441 -0.1537
 5743TIP3    H117235   5.643   3.323   0.152  1.0910  1.4637  2.0678
 5743TIP3    H217236   5.770   3.296   0.075  0.7056  2.3775  1.0915
 5744TIP3   OH217237   1.991   2.116   0.165  0.1875 -0.4451  0.2465
 5744TIP3    H117238   2.037   2.189   0.124 -0.0630  0.5162  1.6258
 5744TIP3    H217239   1.907   2.111   0.118 -0.3974  1.1076  1.0610
 5745TIP3   OH217240   5.168   1.035   3.803  0.0673 -0.1766  0.3081
 5745TIP3    H117241   5.120   0.955   3.827  1.5230 -0.4940  2.3834
 5745TIP3    H217242   5.109   1.106   3.828  0.7402 -0.5475  3.2952
 5746TIP3   OH217243   3.468   4.694   0.390  0.0484  0.9596 -0.6701
 5746TIP3    H117244   3.481   4.633   0.317 -0.3043 -1.0494  0.8589
 5746TIP3    H217245   3.373   4.698   0.401  0.1405 -0.0188  0.6537
 5747TIP3   OH217246   5.765   1.404   2.335  0.4859 -0.4300 -0.1787
 5747TIP3    H117247   5.700   1.431   2.269  0.3913 -0.4658 -0.1006
 5747TIP3    H217248   5.725   1.329   2.378 -0.2164  0.6323  1.0927
 5748TIP3   OH217249   1.608   5.768   1.187 -0.1462  0.0549 -0.2128
 5748TIP3    H117250   1.583   5.808   1.104  1.1123  0.2761 -0.5155
 5748TIP3    H217251   1.529   5.724   1.218 -1.2490  1.8347 -0.4196
 5749TIP3   OH217252   3.301   5.153   2.739 -0.3825 -0.3140  0.1046
 5749TIP3    H117253   3.213   5.184   2.714  0.0077  0.1202 -0.7899
 5749TIP3    H217254   3.330   5.215   2.805  0.5635  1.6141 -1.9678
 5750TIP3   OH217255   6.240   5.462   2.707 -0.0752 -0.8260 -0.4586
 5750TIP3    H117256   6.310   5.526   2.722  1.7528 -3.0221  1.1903
 5750TIP3    H217257   6.257   5.393   2.772 -3.6413 -1.6439 -0.1820
 5751TIP3   OH217258   1.233   1.542   0.703  0.0818  0.5467 -0.2781
 5751TIP3    H117259   1.316   1.590   0.710  0.7324 -0.4521 -0.9420
 5751TIP3    H217260   1.222   1.526   0.609 -0.9008  0.7156 -0.2047
 5752TIP3   OH217261   2.946   4.820   0.364 -0.1543 -0.1880  0.7060
 5752TIP3    H117262   2.913   4.829   0.454  0.2182 -1.6736  1.0232
 5752TIP3    H217263   2.872   4.782   0.316 -0.3181  0.5097  0.3919
 5753TIP3   OH217264   0.649   5.978   4.674 -0.1766  0.9397 -0.0933
 5753TIP3    H117265   0.560   6.010   4.661 -0.2936  0.0354 -1.7437
 5753TIP3    H217266   0.690   5.982   4.588  0.6221 -0.8432  0.1495
 5754TIP3   OH217267   2.512   4.660   0.045 -0.0152  0.5701 -0.2626
 5754TIP3    H117268   2.469   4.739   0.013 -2.2821 -0.9860 -1.2642
 5754TIP3    H217269   2.563   4.627  -0.029  1.4559  1.3616  0.3443
 5755TIP3   OH217270   4.527   1.741   4.808 -0.2530  0.0118 -0.0839
 5755TIP3    H117271   4.524   1.646   4.806 -1.3238  0.0288 -0.0031
 5755TIP3    H217272   4.567   1.763   4.892 -1.5385 -0.3598  0.6407
 5756TIP3   OH217273   4.537   1.920   4.602 -1.0834 -0.6202 -0.3510
 5756TIP3    H117274   4.557   1.880   4.518 -0.2554  0.8757 -0.9096
 5756TIP3    H217275   4.564   1.855   4.667  0.4845 -0.8544 -1.2036
 5757TIP3   OH217276   0.551   5.060   3.594  0.6134 -0.0111 -0.1160
 5757TIP3    H117277   0.606   5.009   3.653  0.5964  0.2142  0.0954
 5757TIP3    H217278   0.548   5.147   3.633  0.1209 -0.0146 -0.1387
 5758TIP3   OH217279   5.008   4.701   0.131 -0.0635  0.1058  0.0581
 5758TIP3    H117280   5.063   4.625   0.116  1.1815  0.9011  0.3820
 5758TIP3    H217281   5.024   4.757   0.055 -0.9060  0.0751 -0.1432
 5759TIP3   OH217282   3.178   3.309   3.946 -0.3652 -0.0415 -0.1745
 5759TIP3    H117283   3.162   3.297   4.040 -0.1370 -0.8660 -0.2310
 5759TIP3    H217284   3.096   3.343   3.912  0.2372  2.5160  0.6916
 5760TIP3   OH217285   3.781   2.122   4.038  0.0512 -0.1136 -0.3209
 5760TIP3    H117286   3.759   2.125   3.945 -0.8126  0.7318 -0.1068
 5760TIP3    H217287   3.836   2.199   4.053 -0.6435  0.3163  0.0600
 5761TIP3   OH217288   2.480   3.827   1.880 -0.2784  0.2761 -0.2050
 5761TIP3    H117289   2.405   3.779   1.845 -0.0800  0.1926 -0.5095
 5761TIP3    H217290   2.557   3.785   1.842 -0.0834  0.5182 -0.0839
 5762TIP3   OH217291   0.925   5.121   4.994 -0.0762 -0.0445  0.2294
 5762TIP3    H117292   0.999   5.159   4.946  0.5513 -0.8121  0.5728
 5762TIP3    H217293   0.865   5.195   5.008  0.2143  0.4002 -0.8109
 5763TIP3   OH217294   3.526   2.438   4.140 -0.0573 -0.4185  0.7785
 5763TIP3    H117295   3.546   2.348   4.165  1.4939 -0.3008  0.1285
 5763TIP3    H217296   3.522   2.436   4.044 -3.0820 -0.3359  0.8199
 5764TIP3   OH217297   4.404   1.405   1.270  0.1978 -0.3283  0.1350
 5764TIP3    H117298   4.352   1.341   1.319  0.5488 -0.7982 -0.1063
 5764TIP3    H217299   4.379   1.489   1.308  0.9437 -0.7211  1.5756
 5765TIP3   OH217300   1.865   0.167   3.788 -0.2702  0.2775 -0.1550
 5765TIP3    H117301   1.895   0.223   3.716 -0.7865  0.9913  0.1767
 5765TIP3    H217302   1.782   0.206   3.816 -0.3629 -0.3356  0.4511
 5766TIP3   OH217303   0.093   1.282   0.542 -0.6730 -0.5120 -0.4303
 5766TIP3    H117304   0.158   1.348   0.566 -0.6264 -1.4227  2.3252
 5766TIP3    H217305   0.069   1.304   0.452  0.5197  2.2543 -0.1934
 5767TIP3   OH217306   3.835   3.280   1.109  0.1595  0.0522 -0.2734
 5767TIP3    H117307   3.765   3.238   1.159  1.5910 -0.2442  1.6040
 5767TIP3    H217308   3.851   3.221   1.036  0.0800 -1.1405  0.6368
 5768TIP3   OH217309   6.268   3.072   3.501 -0.0319 -0.5044  0.2847
 5768TIP3    H117310   6.277   2.983   3.467 -1.9060 -0.7891  0.4161
 5768TIP3    H217311   6.265   3.061   3.596 -0.8623 -0.3988  0.2825
 5769TIP3   OH217312   2.669   0.660   3.647  0.2139  0.1918 -0.3884
 5769TIP3    H117313   2.757   0.695   3.659 -0.2756  1.3622  0.0102
 5769TIP3    H217314   2.628   0.669   3.734 -0.0389 -1.1133 -0.3595
 5770TIP3   OH217315   3.268   0.090   0.955 -0.3314 -0.0288  0.9457
 5770TIP3    H117316   3.334   0.105   1.023  1.5494 -1.5633 -0.4412
 5770TIP3    H217317   3.286   0.002   0.922 -2.6851 -0.2563  0.0334
 5771TIP3   OH217318   4.624   4.305   4.882 -0.1690  0.1267 -0.2704
 5771TIP3    H117319   4.635   4.253   4.961 -0.1186 -0.4618 -0.6627
 5771TIP3    H217320   4.664   4.253   4.813 -2.8665 -0.7964 -1.2437
 5772TIP3   OH217321   5.263   1.761   4.358 -0.7152 -0.1324  0.0010
 5772TIP3    H117322   5.358   1.758   4.342 -0.5531  0.1494  0.8685
 5772TIP3    H217323   5.246   1.682   4.409 -0.8027  0.2442  0.5612
 5773TIP3   OH217324   4.757   2.383   1.210  0.2517  0.1616 -0.0636
 5773TIP3    H117325   4.823   2.417   1.151  2.7003 -2.4256  0.9320
 5773TIP3    H217326   4.754   2.289   1.190 -0.8547 -0.2991  2.0142
 5774TIP3   OH217327   0.351   5.054   4.613  0.4674  0.2970 -0.1643
 5774TIP3    H117328   0.404   4.979   4.640  0.9639  0.9188  0.6052
 5774TIP3    H217329   0.281   5.059   4.679  0.9023  0.9925  0.2580
 5775TIP3   OH217330   5.109   0.883   2.735  0.0166  0.1599 -0.0876
 5775TIP3    H117331   5.104   0.956   2.674 -0.0099  1.1529  1.0574
 5775TIP3    H217332   5.055   0.910   2.810  0.3934 -0.8223  0.5672
 5776TIP3   OH217333   4.053   3.063   4.326  0.2907 -0.7199 -0.5488
 5776TIP3    H117334   4.106   3.059   4.406 -0.0360  1.8349 -0.1075
 5776TIP3    H217335   3.992   2.989   4.334  1.4877 -1.6326  0.6111
 5777TIP3   OH217336   3.414   0.378   3.836 -0.4769 -0.6483 -0.6394
 5777TIP3    H117337   3.325   0.346   3.855 -1.0087  0.9013 -0.3733
 5777TIP3    H217338   3.418   0.381   3.741  0.3190 -3.3759 -0.7695
 5778TIP3   OH217339   3.997   0.885   4.030 -0.3696  0.2559  0.2599
 5778TIP3    H117340   4.021   0.974   4.006  1.0820  0.1942  1.3405
 5778TIP3    H217341   4.074   0.851   4.076 -0.8307 -1.6034 -0.2469
 5779TIP3   OH217342   0.335   2.685   5.032  0.7291 -0.3283  0.0652
 5779TIP3    H117343   0.426   2.661   5.046  1.0189 -0.8416 -2.2072
 5779TIP3    H217344   0.338   2.780   5.015  0.7663 -0.2471  0.5262
 5780TIP3   OH217345   5.470   4.073   2.030 -0.2028  0.5593 -0.3811
 5780TIP3    H117346   5.437   4.056   2.118 -0.2804  2.1029 -0.0713
 5780TIP3    H217347   5.462   3.990   1.984 -1.3930  0.0543  0.6776
 5781TIP3   OH217348   4.786   3.984   3.973  0.1371  0.3126 -0.0094
 5781TIP3    H117349   4.774   3.962   3.880  1.6046  0.4018 -0.2418
 5781TIP3    H217350   4.764   4.077   3.978 -0.3147  0.2191 -0.1882
 5782TIP3   OH217351   3.359   1.571   5.211  0.4493 -0.0648  0.3371
 5782TIP3    H117352   3.354   1.507   5.140  0.4231 -2.0109  1.9919
 5782TIP3    H217353   3.276   1.618   5.207 -0.3018 -1.3652  0.1545
 5783TIP3   OH217354   3.502   1.580   3.358 -0.0785 -0.9932 -0.1886
 5783TIP3    H117355   3.595   1.562   3.363 -0.0306 -0.8764 -0.6368
 5783TIP3    H217356   3.462   1.518   3.419  0.3369 -0.6797  0.4089
 5784TIP3   OH217357   2.593   3.262   4.213  0.2335  0.1709 -0.7409
 5784TIP3    H117358   2.526   3.208   4.170 -0.1018 -0.0262  0.0117
 5784TIP3    H217359   2.669   3.256   4.156  1.0102 -3.0217  0.4440
 5785TIP3   OH217360   0.053   3.500   1.658 -0.0756 -0.0331 -0.2404
 5785TIP3    H117361   0.073   3.574   1.715  1.0397 -0.0953 -0.5271
 5785TIP3    H217362   0.135   3.483   1.612 -0.6330 -0.7408 -0.9901
 5786TIP3   OH217363   4.229   3.412   4.047 -0.3628  0.4340  0.3011
 5786TIP3    H117364   4.160   3.345   4.048  0.4775 -0.4758 -0.2867
 5786TIP3    H217365   4.270   3.405   4.133 -0.5528  0.4967  0.3976
 5787TIP3   OH217366   4.904   4.227   1.246  0.5308  0.8183  0.0175
 5787TIP3    H117367   4.983   4.244   1.196  0.3386 -0.6961 -0.8520
 5787TIP3    H217368   4.913   4.137   1.277 -0.5861  0.8199  0.4139
 5788TIP3   OH217369   5.915   1.953   3.430 -0.1114  0.2675  0.1481
 5788TIP3    H117370   5.932   1.976   3.522  1.0855 -0.9540  0.2618
 5788TIP3    H217371   5.848   2.015   3.402  1.2293  2.2795  1.1317
 5789TIP3   OH217372   1.431   3.495   2.297  0.0972  0.4742 -0.0470
 5789TIP3    H117373   1.391   3.580   2.314  0.6377  0.8864 -0.7651
 5789TIP3    H217374   1.480   3.476   2.377 -2.5193 -0.6630  1.3802
 5790TIP3   OH217375   2.516   5.780   2.181  0.1550 -0.1513  0.7692
 5790TIP3    H117376   2.562   5.767   2.098  2.0213 -1.3613  1.8998
 5790TIP3    H217377   2.491   5.691   2.208 -2.2432  0.4129  0.5750
 5791TIP3   OH217378   5.958   0.998   1.955 -0.9237 -0.0175 -0.7483
 5791TIP3    H117379   5.883   0.979   1.897 -0.4162 -3.1415 -0.5599
 5791TIP3    H217380   6.033   0.962   1.908  0.0417  0.6253  0.2857
 5792TIP3   OH217381   5.830   5.718   4.406  0.3514 -0.1990 -0.0733
 5792TIP3    H117382   5.871   5.710   4.492  1.2512 -2.0707 -0.6102
 5792TIP3    H217383   5.852   5.805   4.376  2.2055 -0.4252  0.5415
 5793TIP3   OH217384   0.069   2.658   5.121  0.3821 -0.0255 -0.2808
 5793TIP3    H117385   0.163   2.665   5.104  0.4689  0.6583  0.3793
 5793TIP3    H217386   0.028   2.705   5.049  0.6196  0.8288  0.1288
 5794TIP3   OH217387   4.020   3.463   5.090  0.3370 -0.2713  0.2847
 5794TIP3    H117388   3.974   3.418   5.161 -0.5668 -0.9206 -0.6781
 5794TIP3    H217389   4.032   3.396   5.023 -0.6147  0.7907 -0.9852
 5795TIP3   OH217390   6.139   1.545   4.920  0.0788 -0.5948 -0.0415
 5795TIP3    H117391   6.161   1.574   4.832 -1.3749  1.1150  0.0913
 5795TIP3    H217392   6.179   1.610   4.978 -1.8163  0.2786  0.3610
 5796TIP3   OH217393   1.407   3.489   3.246 -0.1636 -0.0317  0.3078
 5796TIP3    H117394   1.499   3.474   3.264  0.3165  2.1434 -0.0462
 5796TIP3    H217395   1.361   3.427   3.303  1.4841 -1.8355 -0.2269
 5797TIP3   OH217396   3.062   4.665   1.960 -0.6671  0.2182 -0.2322
 5797TIP3    H117397   2.982   4.707   1.929  0.2749  1.0581 -1.6205
 5797TIP3    H217398   3.129   4.733   1.954  0.3642 -0.7532 -0.0731
 5798TIP3   OH217399   6.211   2.649   2.105  0.3017 -0.0374  0.0202
 5798TIP3    H117400   6.233   2.699   2.027  2.9037  1.9649  1.8581
 5798TIP3    H217401   6.117   2.664   2.118  0.2177  1.1105 -1.6850
 5799TIP3   OH217402   5.035   2.697   3.074 -0.1514 -0.0669 -0.0236
 5799TIP3    H117403   5.050   2.774   3.129  0.3150 -0.8898  1.0180
 5799TIP3    H217404   5.073   2.624   3.123  0.1224 -0.8513 -1.3549
 5800TIP3   OH217405   2.761   3.219   4.445 -0.0661 -0.5908 -0.2106
 5800TIP3    H117406   2.686   3.189   4.394 -0.3791 -3.5188  1.7760
 5800TIP3    H217407   2.808   3.278   4.385 -1.3036 -2.4400 -3.2512
 5801TIP3   OH217408   5.831   5.722   5.104  0.5155 -0.2781  0.1097
 5801TIP3    H117409   5.736   5.714   5.116  0.4100 -1.1757 -1.1483
 5801TIP3    H217410   5.865   5.635   5.123  0.9303 -0.3112 -0.7553
 5802TIP3   OH217411   3.916   1.359   1.837  0.2560  0.2015 -0.1747
 5802TIP3    H117412   3.844   1.416   1.813 -0.2035 -0.0124  0.6633
 5802TIP3    H217413   3.988   1.418   1.859  0.0839  0.4351 -0.2432
 5803TIP3   OH217414   4.260   4.079   3.278  0.1337  0.0004  0.4007
 5803TIP3    H117415   4.343   4.094   3.233 -1.2241  1.4199 -1.9247
 5803TIP3    H217416   4.250   4.155   3.335 -0.2762  0.7489 -0.6205
 5804TIP3   OH217417   1.503   5.509   4.415  0.4012  0.6774  0.2606
 5804TIP3    H117418   1.515   5.560   4.495  1.3922 -1.2961  1.4568
 5804TIP3    H217419   1.588   5.468   4.400 -0.5984 -1.4554  0.0142
 5805TIP3   OH217420   1.421   1.713   1.048  0.0628  0.1366 -0.2814
 5805TIP3    H117421   1.369   1.653   1.101  0.7799 -0.0532  0.2332
 5805TIP3    H217422   1.486   1.749   1.110  0.6655  0.2125 -0.9431
 5806TIP3   OH217423   1.199   2.640   4.631 -0.1119  0.0170 -0.3432
 5806TIP3    H117424   1.218   2.591   4.551 -0.8476  1.4641 -1.4624
 5806TIP3    H217425   1.216   2.732   4.608 -0.3612  0.4716  1.1520
 5807TIP3   OH217426   2.720   3.380   2.475  0.3176  0.7105  0.0832
 5807TIP3    H117427   2.773   3.323   2.531  0.2109  0.4175 -0.1096
 5807TIP3    H217428   2.725   3.466   2.516  0.6949  0.6188  0.2352
 5808TIP3   OH217429   2.513   4.939   1.896 -0.6792  0.4326  1.0543
 5808TIP3    H117430   2.418   4.932   1.884 -0.8929 -0.9393  3.0416
 5808TIP3    H217431   2.539   4.855   1.933  1.4791  0.4905 -0.1668
 5809TIP3   OH217432   0.115   4.371   4.134  0.1688 -0.2058  0.3899
 5809TIP3    H117433   0.195   4.405   4.093 -0.5082  2.7463  1.2296
 5809TIP3    H217434   0.133   4.375   4.228 -0.1779 -1.7968  0.5572
 5810TIP3   OH217435   3.112   3.225   2.236 -0.2526  0.1310  0.1263
 5810TIP3    H117436   3.183   3.267   2.284 -0.3959 -1.5306  1.9442
 5810TIP3    H217437   3.140   3.134   2.226 -1.5574 -0.2597 -0.2430
 5811TIP3   OH217438   0.786   4.725   3.404 -0.0343  0.2280 -0.7849
 5811TIP3    H117439   0.706   4.763   3.440  0.0115 -0.6690  0.3238
 5811TIP3    H217440   0.767   4.631   3.398  0.7084  0.0921 -1.1093
 5812TIP3   OH217441   2.800   0.350   1.364  0.5194  0.1928  0.6235
 5812TIP3    H117442   2.809   0.288   1.291 -2.2663 -0.2848  0.5737
 5812TIP3    H217443   2.864   0.419   1.345 -0.0899  0.0737 -2.2882
 5813TIP3   OH217444   3.504   0.621   3.342  0.8914 -0.0416  0.2251
 5813TIP3    H117445   3.590   0.612   3.301  1.2946  0.7845  0.8646
 5813TIP3    H217446   3.448   0.562   3.292  1.5749  0.2325 -0.9059
 5814TIP3   OH217447   4.341   5.248   1.774  0.5994  0.1628  0.5385
 5814TIP3    H117448   4.344   5.166   1.824 -1.6628 -0.9242 -0.9090
 5814TIP3    H217449   4.411   5.239   1.709 -1.1641 -1.8985 -1.2488
 5815TIP3   OH217450   2.468   3.038   4.657 -0.2729  0.1260 -0.1382
 5815TIP3    H117451   2.495   2.968   4.716  0.0718  0.5275  0.1817
 5815TIP3    H217452   2.397   2.999   4.606 -1.0165 -0.0221  0.9739
 5816TIP3   OH217453   4.480   2.287   4.684 -0.1290  0.1981  0.0075
 5816TIP3    H117454   4.465   2.238   4.765  1.4595  0.0032  0.2252
 5816TIP3    H217455   4.418   2.250   4.622 -1.4317  0.3906  1.1277
 5817TIP3   OH217456   5.026   4.864   3.777  0.3689  0.3523  0.4778
 5817TIP3    H117457   4.970   4.930   3.738  1.5943  1.0964 -0.0923
 5817TIP3    H217458   5.111   4.908   3.788  1.0566 -0.9491  0.6076
 5818TIP3   OH217459   5.614   5.677   4.625 -0.5558 -0.3687 -0.1783
 5818TIP3    H117460   5.566   5.664   4.706  1.6017 -2.0953  0.9571
 5818TIP3    H217461   5.570   5.620   4.562  0.1268 -2.2201  0.9335
 5819TIP3   OH217462   2.122   3.657   3.792 -0.2298 -0.5999  0.3051
 5819TIP3    H117463   2.116   3.573   3.839 -1.4024 -0.7969 -0.1872
 5819TIP3    H217464   2.090   3.722   3.855  0.8532 -0.4708  0.7535
 5820TIP3   OH217465   1.222   5.461   5.066 -0.2476 -0.3637  0.3094
 5820TIP3    H117466   1.189   5.549   5.081 -0.0395 -0.3538  0.7277
 5820TIP3    H217467   1.296   5.473   5.006 -0.4301 -0.2943  0.0948
 5821TIP3   OH217468   5.627   4.439   3.434 -0.4184  0.2252 -0.0268
 5821TIP3    H117469   5.591   4.518   3.396  0.2442  1.4598  1.7500
 5821TIP3    H217470   5.640   4.460   3.527  0.3048 -1.7692  0.3944
 5822TIP3   OH217471   0.336   0.003   2.994 -0.3337 -0.1635 -0.2604
 5822TIP3    H117472   0.385   0.022   3.074 -1.8285  0.3201  0.5867
 5822TIP3    H217473   0.383   0.050   2.925  0.9876 -0.6026  0.3136
 5823TIP3   OH217474   2.015   2.585   0.890  0.4557 -0.0713 -0.0750
 5823TIP3    H117475   1.949   2.516   0.904 -0.1404  0.3422 -0.7828
 5823TIP3    H217476   1.966   2.667   0.895  1.2212  0.3480  1.1290
 5824TIP3   OH217477   2.423   3.883   4.310  0.5995 -0.1437  0.0583
 5824TIP3    H117478   2.490   3.820   4.283  2.0706  2.4059 -2.8771
 5824TIP3    H217479   2.462   3.928   4.385 -0.6512 -2.7779  2.4858
 5825TIP3   OH217480   1.537   3.315   0.900 -0.4679 -0.6169  0.2712
 5825TIP3    H117481   1.595   3.391   0.909  2.8386 -2.5833 -2.2949
 5825TIP3    H217482   1.521   3.286   0.990  2.9854 -0.1702  1.1713
 5826TIP3   OH217483   5.119   1.932   4.548 -0.2110 -0.0649 -0.0340
 5826TIP3    H117484   5.151   1.878   4.476  1.0945  0.4232  0.1510
 5826TIP3    H217485   5.026   1.913   4.553  0.1241 -1.9745 -0.2480
 5827TIP3   OH217486   6.043   0.860   3.937  0.1476  0.4899 -0.6048
 5827TIP3    H117487   5.999   0.920   3.997  0.1157 -0.5877  0.4879
 5827TIP3    H217488   6.100   0.807   3.993 -1.2904 -1.8344 -1.1947
 5828TIP3   OH217489   2.394   4.888   1.261 -0.4435 -0.1954 -0.6433
 5828TIP3    H117490   2.337   4.812   1.255 -1.9371  0.7626  0.6247
 5828TIP3    H217491   2.337   4.963   1.244  0.0013  0.9065  2.1315
 5829TIP3   OH217492   3.336   1.688   1.307 -0.2644 -0.4120 -0.4432
 5829TIP3    H117493   3.304   1.704   1.219 -1.1949 -0.8059 -0.1913
 5829TIP3    H217494   3.348   1.593   1.311 -0.1308 -0.3851 -0.1851
 5830TIP3   OH217495   4.296   4.273   2.161 -0.0954 -0.4058 -0.0673
 5830TIP3    H117496   4.278   4.203   2.225  1.0946 -1.1760 -0.5314
 5830TIP3    H217497   4.306   4.352   2.214  1.4775 -1.1337  0.8219
 5831TIP3   OH217498   1.610   1.498   0.379  0.0483 -0.2800 -0.5415
 5831TIP3    H117499   1.665   1.545   0.442  0.1064  0.9238 -1.4518
 5831TIP3    H217500   1.520   1.513   0.410 -0.1354  2.5139 -2.0597
 5832TIP3   OH217501   3.218   3.718   3.836  0.2377 -0.1073 -0.1940
 5832TIP3    H117502   3.197   3.723   3.743 -2.5371 -0.6878  0.3021
 5832TIP3    H217503   3.310   3.743   3.842  0.2664  0.7381 -2.9775
 5833TIP3   OH217504   1.369   2.259   1.851  0.3116  0.2787 -0.2730
 5833TIP3    H117505   1.302   2.326   1.834  1.5437  1.2230 -1.6861
 5833TIP3    H217506   1.446   2.309   1.879  0.0144 -0.8836  3.0847
 5834TIP3   OH217507   5.292   1.065   3.563 -0.4208  0.0100 -0.5619
 5834TIP3    H117508   5.269   1.039   3.652 -0.6187  1.5156 -0.1539
 5834TIP3    H217509   5.368   1.122   3.573 -0.7872  0.6519 -1.3047
 5835TIP3   OH217510   5.987   4.805   3.333  0.1126  0.3277 -0.1224
 5835TIP3    H117511   5.920   4.742   3.304 -0.0143 -0.1232  1.1098
 5835TIP3    H217512   6.028   4.835   3.252 -1.8766  0.9495 -0.9635
 5836TIP3   OH217513   2.450   3.008   1.716 -0.1565 -0.6293  0.4338
 5836TIP3    H117514   2.484   3.097   1.727  2.7771 -1.3941 -1.3237
 5836TIP3    H217515   2.510   2.953   1.767 -1.4091 -1.7117  0.7885
 5837TIP3   OH217516   5.384   1.294   1.459 -0.1247  0.1595  0.6120
 5837TIP3    H117517   5.363   1.387   1.451  0.0319  0.1957  0.6337
 5837TIP3    H217518   5.463   1.291   1.513  0.2839  0.0499  0.0180
 5838TIP3   OH217519   5.077   5.917   3.645  0.3370  0.1745 -0.1993
 5838TIP3    H117520   5.123   5.840   3.678  1.3920  0.8217 -0.1180
 5838TIP3    H217521   5.055   5.968   3.723 -0.0091  0.1551 -0.2814
 5839TIP3   OH217522   0.407   1.816   2.112  0.1912 -0.4170 -0.8398
 5839TIP3    H117523   0.490   1.816   2.160  0.7246 -0.4354 -1.7511
 5839TIP3    H217524   0.358   1.889   2.150 -0.7240 -2.2986  1.9542
 5840TIP3   OH217525   3.082   5.474   4.326  0.0070  0.7076 -0.5388
 5840TIP3    H117526   3.145   5.404   4.342 -0.8752  0.4640  2.4819
 5840TIP3    H217527   3.127   5.554   4.354 -0.0064  0.9595 -1.2175
 5841TIP3   OH217528   1.245   2.689   4.944  0.3447 -0.1550  0.2808
 5841TIP3    H117529   1.248   2.612   4.887 -1.5563 -0.0748  0.0174
 5841TIP3    H217530   1.273   2.656   5.030 -0.3047 -1.1152  0.1325
 5842TIP3   OH217531   5.179   1.893   2.013 -0.0040 -1.0717 -0.7462
 5842TIP3    H117532   5.150   1.831   2.081  1.4383 -1.7221 -0.7000
 5842TIP3    H217533   5.157   1.979   2.048  0.6295 -1.4065  0.5172
 5843TIP3   OH217534   3.749   4.552   3.208  0.0136  0.6585 -0.5923
 5843TIP3    H117535   3.746   4.628   3.266 -0.5419  0.6929 -0.6675
 5843TIP3    H217536   3.822   4.499   3.241  0.3013  1.1458 -0.4467
 5844TIP3   OH217537   3.453   0.964   1.367 -0.5581 -0.2944  0.2079
 5844TIP3    H117538   3.461   1.039   1.427 -0.7936  0.0388 -0.1719
 5844TIP3    H217539   3.543   0.937   1.350 -0.4559  0.1102  0.0929
 5845TIP3   OH217540   0.094   2.800   3.456 -0.1198 -0.2044 -0.1738
 5845TIP3    H117541   0.128   2.872   3.403  1.1521 -1.0101 -0.5107
 5845TIP3    H217542   0.118   2.822   3.546  0.3968 -0.2565 -0.2933
 5846TIP3   OH217543   3.152   4.967   4.650  0.1071  0.6412 -0.3908
 5846TIP3    H117544   3.166   4.976   4.556  0.2354 -0.3054 -0.4656
 5846TIP3    H217545   3.240   4.972   4.688  0.1253  0.3226 -0.3862
 5847TIP3   OH217546   4.431   2.420   1.427  0.0521 -0.0351  0.2284
 5847TIP3    H117547   4.461   2.361   1.495  1.0607 -0.4503 -0.5582
 5847TIP3    H217548   4.424   2.366   1.348  2.1489  1.0763 -0.7989
 5848TIP3   OH217549   0.588   2.106   3.515  0.6208  0.2939 -0.2104
 5848TIP3    H117550   0.650   2.175   3.493  2.9017 -1.7029 -0.4655
 5848TIP3    H217551   0.538   2.091   3.434  1.7299  0.0976 -0.8798
 5849TIP3   OH217552   5.578   0.265   1.545 -0.1598 -0.0677 -0.2095
 5849TIP3    H117553   5.563   0.303   1.631  0.4366 -0.4575  0.0768
 5849TIP3    H217554   5.519   0.312   1.487  0.4115  1.1518  0.1593
 5850TIP3   OH217555   4.531   4.198   3.654  0.3826  0.4620 -0.2068
 5850TIP3    H117556   4.444   4.234   3.676 -0.5050 -1.5976 -0.1865
 5850TIP3    H217557   4.592   4.268   3.680 -1.2486  2.0047 -0.3145
 5851TIP3   OH217558   4.862   3.720   3.930 -0.0051  0.2671 -0.6289
 5851TIP3    H117559   4.874   3.815   3.935  0.8276  0.1567 -0.4152
 5851TIP3    H217560   4.948   3.683   3.953  0.3537 -0.4881 -2.8384
 5852TIP3   OH217561   5.569   4.715   3.369  0.0191 -0.9503 -0.1308
 5852TIP3    H117562   5.482   4.736   3.335 -0.0712 -1.1937 -0.0479
 5852TIP3    H217563   5.578   4.769   3.448  0.4157 -0.0206 -0.7914
 5853TIP3   OH217564   0.727   5.777   1.907  0.3798 -0.8398 -0.0221
 5853TIP3    H117565   0.760   5.816   1.826  0.4011 -0.7754  0.0172
 5853TIP3    H217566   0.707   5.852   1.963  1.0105 -0.8924  0.2880
 5854TIP3   OH217567   3.109   2.544   0.644  0.9985  0.0575  0.2083
 5854TIP3    H117568   3.117   2.637   0.664  1.0129  0.7960 -2.7466
 5854TIP3    H217569   3.015   2.526   0.645  0.9570  0.2788  0.1938
 5855TIP3   OH217570   3.608   5.189   2.411 -0.0515  0.1128 -0.3847
 5855TIP3    H117571   3.660   5.148   2.480  0.4157  1.0927 -0.1262
 5855TIP3    H217572   3.534   5.130   2.398 -0.8748  0.5475  1.9118
 5856TIP3   OH217573   5.380   5.204   1.245 -0.5868 -0.4304  0.3459
 5856TIP3    H117574   5.393   5.285   1.294 -1.6014  0.1699 -0.3440
 5856TIP3    H217575   5.405   5.135   1.306 -0.4303  0.3624  1.2045
 5857TIP3   OH217576   0.427   2.163   1.139  0.2832  0.6220  0.1743
 5857TIP3    H117577   0.470   2.082   1.113  0.5191  0.3979  1.2232
 5857TIP3    H217578   0.437   2.167   1.234 -2.3073  0.3606  0.5527
 5858TIP3   OH217579   2.170   3.639   2.403  0.4774 -0.0670 -0.4020
 5858TIP3    H117580   2.122   3.646   2.321  1.0384 -0.8317 -0.8128
 5858TIP3    H217581   2.124   3.697   2.464 -0.8290 -0.6320 -0.8336
 5859TIP3   OH217582   2.855   1.511   2.462 -0.1067  0.1202 -0.4319
 5859TIP3    H117583   2.842   1.429   2.414  2.4622  0.2051 -1.4686
 5859TIP3    H217584   2.770   1.531   2.500 -1.3685 -1.8485 -2.0208
 5860TIP3   OH217585   0.901   3.454   3.077 -0.3060 -0.0906 -0.1265
 5860TIP3    H117586   0.938   3.424   3.161 -1.6436  1.0620  0.9191
 5860TIP3    H217587   0.906   3.377   3.020 -1.7879 -1.7428  1.8321
 5861TIP3   OH217588   3.448   3.115   2.548  0.0283  0.0682 -0.1459
 5861TIP3    H117589   3.425   3.065   2.470 -0.5707 -2.3017  1.4492
 5861TIP3    H217590   3.542   3.130   2.539 -0.4773  2.3205 -2.6033
 5862TIP3   OH217591   0.919   5.090   1.437  0.2597  0.5780  0.1915
 5862TIP3    H117592   0.870   5.162   1.477 -1.1510  0.1620 -0.7167
 5862TIP3    H217593   0.855   5.043   1.384  1.1857 -1.2028  0.5317
 5863TIP3   OH217594   0.850   2.740   3.933 -0.3114 -0.0127 -0.1354
 5863TIP3    H117595   0.945   2.740   3.921 -0.0487 -2.0994  1.3586
 5863TIP3    H217596   0.824   2.649   3.919 -2.0208  0.4060  0.0931
 5864TIP3   OH217597   0.613   3.080   0.855  0.4977  0.0953 -0.1152
 5864TIP3    H117598   0.578   3.141   0.790 -0.3390  0.3265  0.5545
 5864TIP3    H217599   0.554   3.006   0.853  0.3818  0.1687  0.4966
 5865TIP3   OH217600   0.976   4.229   0.704 -0.4848 -0.2456  0.2433
 5865TIP3    H117601   1.015   4.314   0.726  1.6448 -1.4272  1.3369
 5865TIP3    H217602   0.939   4.242   0.617 -1.5799  2.2019  0.9644
 5866TIP3   OH217603   1.304   4.022   4.163 -0.0859 -0.0234  0.2793
 5866TIP3    H117604   1.249   4.012   4.240 -0.4162 -0.4826 -0.0129
 5866TIP3    H217605   1.366   3.950   4.167 -0.2625 -0.1971 -0.0082
 5867TIP3   OH217606   1.864   3.113   3.561 -0.2919 -0.4698 -0.1050
 5867TIP3    H117607   1.926   3.040   3.564 -0.6542 -0.7688  1.7533
 5867TIP3    H217608   1.918   3.191   3.556  0.1269 -0.8270 -1.3229
 5868TIP3   OH217609   0.209   3.678   3.986 -0.4110 -0.1665 -0.0252
 5868TIP3    H117610   0.290   3.675   3.936 -0.7543 -0.5699 -0.5773
 5868TIP3    H217611   0.210   3.597   4.038 -0.5376 -0.2591 -0.1650
 5869TIP3   OH217612   3.162   4.225   1.199  0.9942 -0.0790  0.3089
 5869TIP3    H117613   3.198   4.175   1.272 -1.1407 -0.3435  1.2772
 5869TIP3    H217614   3.237   4.268   1.159  2.4798 -1.4871  1.4501
 5870TIP3   OH217615   1.927   5.257   0.328  0.5210 -0.7290 -0.1676
 5870TIP3    H117616   1.912   5.170   0.290 -0.4928 -0.1167 -1.2461
 5870TIP3    H217617   1.852   5.308   0.299  1.5402  0.7459 -0.2948
 5871TIP3   OH217618   0.867   5.509   4.506 -0.3000  0.8057  0.3979
 5871TIP3    H117619   0.945   5.502   4.561  1.1607  0.4846 -1.6309
 5871TIP3    H217620   0.796   5.479   4.563  1.1001  0.6554  2.1632
 5872TIP3   OH217621   1.660   4.757   0.729 -0.4144  0.1647 -0.0616
 5872TIP3    H117622   1.683   4.769   0.821  0.3243  1.8849 -0.4410
 5872TIP3    H217623   1.731   4.702   0.694 -0.9353 -0.8777  0.4672
 5873TIP3   OH217624   0.153   1.533   2.103  0.1842  0.0585 -0.2445
 5873TIP3    H117625   0.115   1.563   2.186  0.1244  1.2226 -0.6775
 5873TIP3    H217626   0.155   1.437   2.111 -2.3107 -0.0504  0.0486
 5874TIP3   OH217627   0.211   2.557   2.876 -0.3393 -0.1450  0.0235
 5874TIP3    H117628   0.124   2.521   2.896 -0.5914 -1.2817 -2.7369
 5874TIP3    H217629   0.222   2.628   2.939 -2.5998 -0.9520  1.4623
 5875TIP3   OH217630   4.036   4.520   0.937  0.7381  0.1790  0.4565
 5875TIP3    H117631   4.039   4.451   1.003  2.1362  0.8497  1.1462
 5875TIP3    H217632   3.975   4.585   0.973 -0.4670 -0.6019 -0.1267
 5876TIP3   OH217633   1.112   3.799   5.145  0.2003  0.2278 -0.2106
 5876TIP3    H117634   1.075   3.861   5.083  1.3523  1.8424  0.6360
 5876TIP3    H217635   1.200   3.780   5.111  0.0677 -0.5050 -0.1612
 5877TIP3   OH217636   2.540   4.317   3.031  0.2412  0.4022  0.2318
 5877TIP3    H117637   2.563   4.402   3.069  2.6397 -1.0329  2.2764
 5877TIP3    H217638   2.622   4.283   2.995 -0.6817 -1.0569 -0.6184
 5878TIP3   OH217639   2.658   1.517   0.662  0.5848 -0.2691 -0.1320
 5878TIP3    H117640   2.690   1.433   0.693  2.2800  0.2370 -0.4372
 5878TIP3    H217641   2.596   1.545   0.729  0.5245 -1.4257  0.3152
 5879TIP3   OH217642   3.747   5.564   4.170 -0.5889  0.0172  0.2854
 5879TIP3    H117643   3.756   5.642   4.116 -1.6225 -1.0289 -1.5009
 5879TIP3    H217644   3.835   5.528   4.177 -0.3969  0.2987 -0.5553
 5880TIP3   OH217645   0.075   4.431   3.576  0.2331  0.4134 -0.1869
 5880TIP3    H117646   0.030   4.431   3.492 -0.1165 -0.0806 -0.0057
 5880TIP3    H217647   0.101   4.522   3.589 -0.4465  0.6541 -0.4401
 5881TIP3   OH217648   3.868   3.440   2.848 -0.1848 -0.5848 -0.4094
 5881TIP3    H117649   3.939   3.503   2.853 -1.6180  1.1284 -0.4517
 5881TIP3    H217650   3.854   3.425   2.755 -0.0460 -0.7100 -0.4091
 5882TIP3   OH217651   0.443   5.574   0.177 -0.1823  0.1763 -0.2820
 5882TIP3    H117652   0.485   5.589   0.092 -1.4365  0.5969 -0.8440
 5882TIP3    H217653   0.471   5.648   0.231  2.1683 -1.0537  0.3333
 5883TIP3   OH217654   0.143   1.084   4.750  0.2977  0.2857  0.0182
 5883TIP3    H117655   0.216   1.132   4.787  0.4737 -0.2468  0.3694
 5883TIP3    H217656   0.117   1.022   4.818 -0.5039  0.4971 -0.0871
 5884TIP3   OH217657   3.945   4.075   1.406 -0.4812  0.2742 -0.1355
 5884TIP3    H117658   3.999   4.074   1.485 -1.2493 -1.3966  0.3953
 5884TIP3    H217659   3.863   4.117   1.433 -0.8117 -0.4584  0.0180
 5885TIP3   OH217660   0.247   3.715   0.568 -0.0028  0.1872  0.1516
 5885TIP3    H117661   0.312   3.700   0.499  0.7972  1.5061  0.5917
 5885TIP3    H217662   0.273   3.798   0.608 -1.0200 -0.0759  1.4125
 5886TIP3   OH217663   5.670   1.523   2.853  0.0815 -0.4132 -0.4784
 5886TIP3    H117664   5.689   1.432   2.828 -0.7755 -0.4176 -1.1510
 5886TIP3    H217665   5.749   1.551   2.899  0.6641 -1.2569 -0.9184
 5887TIP3   OH217666   0.717   4.845   0.052 -0.4154 -0.3762 -0.2105
 5887TIP3    H117667   0.812   4.851   0.040 -0.5957  1.3552 -1.1109
 5887TIP3    H217668   0.693   4.762   0.011  0.6632 -0.6658 -0.2950
 5888TIP3   OH217669   5.144   2.828   2.872 -0.3068 -0.5322  0.3666
 5888TIP3    H117670   5.230   2.825   2.914 -0.8140 -1.1809  1.3805
 5888TIP3    H217671   5.085   2.783   2.933 -1.2017 -0.8675 -0.7088
 5889TIP3   OH217672   5.953   4.151   0.399  0.7582  0.1662  0.1566
 5889TIP3    H117673   5.987   4.230   0.357  1.3024 -0.6533 -1.0108
 5889TIP3    H217674   5.888   4.183   0.462  1.3611  1.5638  0.1080
 5890TIP3   OH217675   4.385   2.219   3.433 -0.3929  0.1366 -0.2170
 5890TIP3    H117676   4.432   2.151   3.385  2.1089  2.4389 -1.2683
 5890TIP3    H217677   4.342   2.271   3.366 -1.7533  0.0288  0.5281
 5891TIP3   OH217678   0.167   4.135   2.634 -0.1966  0.3694  0.4960
 5891TIP3    H117679   0.198   4.117   2.723  0.4534 -0.8529  0.0480
 5891TIP3    H217680   0.227   4.086   2.577 -0.2196  1.6268 -0.6650
 5892TIP3   OH217681   5.425   5.695   4.370 -0.1617 -0.2669  0.0495
 5892TIP3    H117682   5.380   5.777   4.351 -3.0291 -2.2277 -2.7173
 5892TIP3    H217683   5.373   5.655   4.440 -0.6514 -0.9869 -0.7054
 5893TIP3   OH217684   0.474   5.074   3.002  0.5079  0.8995  0.2452
 5893TIP3    H117685   0.468   5.053   3.095  1.4886  0.9578  0.3305
 5893TIP3    H217686   0.384   5.093   2.976 -0.0231 -0.6388  0.8113
 5894TIP3   OH217687   5.884   1.027   2.440  0.0925  0.1143 -0.3222
 5894TIP3    H117688   5.882   1.086   2.364 -0.4884 -0.3466 -0.6809
 5894TIP3    H217689   5.977   1.016   2.459  0.2571  0.1029 -1.0852
 5895TIP3   OH217690   4.784   2.057   5.111 -0.3963  0.1420 -0.0690
 5895TIP3    H117691   4.820   1.975   5.145  0.2798  0.3970 -0.1471
 5895TIP3    H217692   4.696   2.062   5.147 -0.0346 -0.0556  0.8711
 5896TIP3   OH217693   4.712   5.435   4.945  0.2877 -0.1765  0.3671
 5896TIP3    H117694   4.666   5.513   4.916 -2.9591 -1.8553  0.5316
 5896TIP3    H217695   4.762   5.406   4.869  1.2275  1.7451  0.1920
 5897TIP3   OH217696   4.819   1.013   2.776  0.0125 -0.5621 -0.5973
 5897TIP3    H117697   4.829   1.100   2.815  1.0048 -1.1378  0.4658
 5897TIP3    H217698   4.724   1.000   2.771 -0.1477 -0.0519  0.6844
 5898TIP3   OH217699   1.124   2.725   3.893  0.1430 -0.8816 -0.1153
 5898TIP3    H117700   1.200   2.768   3.932  0.2104 -2.8521  2.1652
 5898TIP3    H217701   1.154   2.698   3.806  0.3057  2.8179 -1.4138
 5899TIP3   OH217702   2.901   0.603   1.104  0.8254  0.3611 -0.2154
 5899TIP3    H117703   2.916   0.649   1.187 -0.6852 -1.5257  1.1865
 5899TIP3    H217704   2.908   0.671   1.038  1.2387  2.1100  1.5244
 5900TIP3   OH217705   4.046   5.963   1.196 -0.4282  0.2380 -0.1994
 5900TIP3    H117706   3.966   6.002   1.160 -1.4210 -1.1883  0.3554
 5900TIP3    H217707   4.018   5.877   1.227  1.1038  0.1363  0.9973
 5901TIP3   OH217708   1.028   4.857   0.996 -0.0598 -1.1882  0.7835
 5901TIP3    H117709   1.063   4.912   0.926 -1.4502 -0.7613  0.3727
 5901TIP3    H217710   1.050   4.904   1.077 -2.3786  0.7811  0.3876
 5902TIP3   OH217711   0.940   4.763   2.385 -0.5896 -0.4187 -0.0869
 5902TIP3    H117712   0.952   4.669   2.401 -0.8085 -0.3054  0.7812
 5902TIP3    H217713   1.025   4.792   2.352 -0.5888 -0.9639 -0.5827
 5903TIP3   OH217714   3.176   1.580   1.652  0.3141 -0.3538  0.1688
 5903TIP3    H117715   3.118   1.651   1.678 -0.1973 -0.2791 -1.1038
 5903TIP3    H217716   3.214   1.548   1.734  0.8080  1.5827  0.7404
 5904TIP3   OH217717   5.639   2.009   1.494  0.4918  0.2135  0.5346
 5904TIP3    H117718   5.563   2.068   1.493  0.4613  0.2159  1.6874
 5904TIP3    H217719   5.608   1.931   1.448  0.7565  1.3247 -1.6244
 5905TIP3   OH217720   2.207   5.591   4.811  0.3193  0.7422 -0.0651
 5905TIP3    H117721   2.164   5.629   4.735 -1.6229  1.0143  1.1134
 5905TIP3    H217722   2.144   5.528   4.846  1.9131 -0.7549  0.2901
 5906TIP3   OH217723   5.337   2.038   1.269 -0.1320  0.4280  0.0784
 5906TIP3    H117724   5.254   2.041   1.222  0.0333  0.6669 -0.1997
 5906TIP3    H217725   5.316   2.068   1.358 -0.3446  0.4650  0.0151
 5907TIP3   OH217726   1.842   0.850   1.480 -0.3047  0.1371 -0.1062
 5907TIP3    H117727   1.930   0.848   1.444  0.1945  0.0670  1.0796
 5907TIP3    H217728   1.785   0.837   1.405  0.5575  2.6310 -1.2857
 5908TIP3   OH217729   5.543   5.008   1.688  0.5622 -0.0625  0.1709
 5908TIP3    H117730   5.456   5.045   1.676 -1.0311 -3.8335 -1.6581
 5908TIP3    H217731   5.529   4.930   1.741  2.9670 -0.4097  0.4155
 5909TIP3   OH217732   4.460   4.474   3.979  0.0304 -1.1715 -0.5694
 5909TIP3    H117733   4.411   4.425   4.045  0.5323 -1.6202 -0.5260
 5909TIP3    H217734   4.483   4.556   4.022 -1.4211 -0.5744 -0.8714
 5910TIP3   OH217735   2.218   1.571   4.030 -0.1058  0.6450 -0.3485
 5910TIP3    H117736   2.153   1.552   3.963 -0.1437  1.5266 -0.5690
 5910TIP3    H217737   2.296   1.599   3.982 -0.1400  1.3033 -0.0421
 5911TIP3   OH217738   2.419   0.482   1.530 -0.0673  0.4909  0.2071
 5911TIP3    H117739   2.390   0.514   1.445 -0.0943  1.1804  0.4679
 5911TIP3    H217740   2.371   0.535   1.594 -0.4473 -0.3738  0.6674
 5912TIP3   OH217741   2.212   3.856   4.832 -0.4558  0.1659 -0.0852
 5912TIP3    H117742   2.302   3.862   4.799 -0.3768  2.6514  0.3474
 5912TIP3    H217743   2.221   3.820   4.920  0.0346 -0.2205 -0.2862
 5913TIP3   OH217744   0.076   2.426   1.895 -0.2642 -0.1662  0.2403
 5913TIP3    H117745   0.120   2.506   1.866  0.6852 -0.7110  0.1315
 5913TIP3    H217746  -0.017   2.444   1.881 -0.0941  1.0388  0.5373
 5914TIP3   OH217747   5.209   1.229   0.183 -0.0187 -0.1531  0.9873
 5914TIP3    H117748   5.265   1.154   0.163  0.0118  0.2301 -0.4689
 5914TIP3    H217749   5.134   1.192   0.230  0.8084 -0.8381  1.8021
 5915TIP3   OH217750   0.249   3.276   3.925  0.0695  0.4707  0.0701
 5915TIP3    H117751   0.274   3.193   3.883  0.0737  0.4821  0.0501
 5915TIP3    H217752   0.219   3.331   3.853  0.6244  0.6946  0.0061
 5916TIP3   OH217753   0.484   5.823   0.308 -0.1542 -0.1504 -0.6852
 5916TIP3    H117754   0.479   5.908   0.264  0.5102  0.5006  0.4471
 5916TIP3    H217755   0.552   5.834   0.374 -0.4416 -1.4002 -0.1533
 5917TIP3   OH217756   0.056   0.359   2.174  0.4384 -0.1307  0.0763
 5917TIP3    H117757   0.138   0.400   2.147 -0.0545  0.7138 -0.1775
 5917TIP3    H217758   0.004   0.431   2.208 -0.4881 -0.5297 -0.4699
 5918TIP3   OH217759   2.836   5.146   0.533 -0.1001  0.1107  0.1908
 5918TIP3    H117760   2.764   5.099   0.490 -0.4851  1.4786 -0.7256
 5918TIP3    H217761   2.804   5.165   0.621  0.2873 -1.7936  0.7977
 5919TIP3   OH217762   3.649   5.931   1.208  0.1036 -0.2132  0.1975
 5919TIP3    H117763   3.646   6.027   1.208  1.3860 -0.1606  0.3434
 5919TIP3    H217764   3.690   5.909   1.291 -0.4966 -0.9215  0.3207
 5920TIP3   OH217765   0.982   3.309   1.259  0.4497 -0.1105  1.0537
 5920TIP3    H117766   0.948   3.396   1.282 -0.6720 -0.3075  0.2308
 5920TIP3    H217767   0.975   3.258   1.339 -0.7968 -0.0020  1.0378
 5921TIP3   OH217768   1.269   5.477   1.022  0.4539  0.4704  0.1824
 5921TIP3    H117769   1.225   5.531   0.956  1.7801  2.3591  0.7562
 5921TIP3    H217770   1.356   5.461   0.986  0.2015 -1.0540  0.1889
 5922TIP3   OH217771   1.951   5.707   4.608 -0.4939  0.3064  0.2771
 5922TIP3    H117772   1.902   5.682   4.687 -1.9897 -2.1163 -1.2520
 5922TIP3    H217773   1.903   5.665   4.536  0.9696  2.1382 -1.9163
 5923TIP3   OH217774   4.846   0.441   1.399  0.0725 -0.0354 -0.3511
 5923TIP3    H117775   4.843   0.382   1.475 -0.1708  0.2866 -0.1075
 5923TIP3    H217776   4.761   0.485   1.399 -0.0035 -0.1684 -0.9232
 5924TIP3   OH217777   4.592   3.105   1.878  0.2427  0.8307 -0.5110
 5924TIP3    H117778   4.612   3.014   1.855 -1.7421  0.4683 -1.0614
 5924TIP3    H217779   4.621   3.114   1.969 -0.3903 -0.6807 -0.1192
 5925TIP3   OH217780   1.776   1.881   0.576 -0.2181  0.1198 -0.1090
 5925TIP3    H117781   1.726   1.920   0.504  0.8855  1.0640 -0.4008
 5925TIP3    H217782   1.855   1.935   0.582 -0.5303  0.4083  2.1950
 5926TIP3   OH217783   5.506   1.802   4.241  0.1885 -0.4022  0.4041
 5926TIP3    H117784   5.583   1.804   4.185  0.1491 -1.8304  0.2609
 5926TIP3    H217785   5.534   1.845   4.322  0.3719  1.2786 -0.5228
 5927TIP3   OH217786   1.390   5.148   0.534 -0.3265 -0.6335  0.2806
 5927TIP3    H117787   1.304   5.182   0.561 -0.3661 -1.9260  1.9726
 5927TIP3    H217788   1.410   5.080   0.599  0.6274 -2.4411 -1.7776
 5928TIP3   OH217789   3.551   3.020   3.945  0.0391 -0.1676 -0.0114
 5928TIP3    H117790   3.622   2.958   3.933  0.6155  0.7507 -1.5571
 5928TIP3    H217791   3.476   2.980   3.900 -0.1367 -0.6150  0.6608
 5929TIP3   OH217792   2.738   2.201   3.076  0.5731 -0.0394  0.2922
 5929TIP3    H117793   2.797   2.129   3.053 -1.1048 -1.9142  1.5840
 5929TIP3    H217794   2.709   2.236   2.991  1.7913 -0.5356 -0.3569
 5930TIP3   OH217795   5.719   1.365   3.516  0.2395  0.0192  0.7969
 5930TIP3    H117796   5.800   1.316   3.498  0.3775  0.5270 -0.0202
 5930TIP3    H217797   5.739   1.415   3.595  1.1261  0.9623  0.0074
 5931TIP3   OH217798   2.739   5.194   2.779 -0.4443  0.1979  0.6639
 5931TIP3    H117799   2.658   5.236   2.751 -0.8557 -0.4331  0.8899
 5931TIP3    H217800   2.787   5.262   2.825 -0.6802  0.6763  0.2148
 5932TIP3   OH217801   0.428   3.326   1.135 -0.0070 -0.4832  0.2793
 5932TIP3    H117802   0.460   3.239   1.111 -0.3457 -0.7193  0.6653
 5932TIP3    H217803   0.337   3.327   1.106  0.4873  0.4099 -1.3755
 5933TIP3   OH217804   3.290   4.821   2.190 -0.3948 -0.0036  0.0051
 5933TIP3    H117805   3.198   4.801   2.205 -0.7660  0.1988 -1.8174
 5933TIP3    H217806   3.292   4.914   2.167  0.0765 -0.2936 -1.2245
 5934TIP3   OH217807   1.973   1.314   1.899  0.2908  0.1699 -0.1177
 5934TIP3    H117808   1.965   1.396   1.947 -0.4233  0.5205 -0.8162
 5934TIP3    H217809   1.885   1.298   1.863 -0.4632 -2.4229  2.4007
 5935TIP3   OH217810   3.414   3.690   4.246 -0.1129 -0.1845 -0.6397
 5935TIP3    H117811   3.418   3.599   4.216 -0.2805 -0.1555 -0.7495
 5935TIP3    H217812   3.325   3.700   4.279  0.2249 -0.3755  0.3702
 5936TIP3   OH217813   3.040   5.465   3.651  0.1170  0.4636 -0.3516
 5936TIP3    H117814   2.999   5.516   3.581  0.6750  0.4466 -0.6904
 5936TIP3    H217815   3.065   5.530   3.717  2.3455  0.8795 -1.5104
 5937TIP3   OH217816   4.077   0.979   0.945  0.1730 -0.0931 -0.1381
 5937TIP3    H117817   4.085   0.968   1.039 -1.3798  1.2538  0.1969
 5937TIP3    H217818   4.052   0.893   0.912  0.5678 -0.5306  0.6804
 5938TIP3   OH217819   5.711   2.357   1.667  0.5773 -0.2862  0.5359
 5938TIP3    H117820   5.749   2.382   1.583  0.2869 -0.4960  0.3438
 5938TIP3    H217821   5.625   2.399   1.668  1.5555  1.8473  1.8000
 5939TIP3   OH217822   1.646   2.388   1.227 -0.0948  0.3611  0.6424
 5939TIP3    H117823   1.634   2.311   1.283  0.4798 -0.3358 -0.1562
 5939TIP3    H217824   1.740   2.406   1.230 -0.0458  0.2760 -0.1256
 5940TIP3   OH217825   5.354   2.685   2.300  0.5246  0.0310  0.2307
 5940TIP3    H117826   5.437   2.714   2.338  0.4893  1.3552 -0.6631
 5940TIP3    H217827   5.366   2.590   2.290  1.8178  0.1510  0.3714
 5941TIP3   OH217828   0.235   5.778   3.874 -0.6950 -0.1766 -0.1841
 5941TIP3    H117829   0.254   5.796   3.782 -1.2009  0.9679 -0.0845
 5941TIP3    H217830   0.151   5.732   3.873 -0.7735 -0.0319 -0.2880
 5942TIP3   OH217831   2.082   4.071   4.757 -0.2663  0.4076 -0.1879
 5942TIP3    H117832   2.111   3.985   4.785 -0.5582  0.3296 -0.1145
 5942TIP3    H217833   2.110   4.130   4.826 -0.7258  0.2587  0.1320
 5943TIP3   OH217834   3.296   3.894   2.601  0.5211 -0.2746 -1.2740
 5943TIP3    H117835   3.383   3.868   2.629  0.3378  1.4115  1.1333
 5943TIP3    H217836   3.309   3.929   2.513  1.7957 -2.3018 -1.9624
 5944TIP3   OH217837   3.012   4.462   0.034 -0.0876  0.1196  0.4476
 5944TIP3    H117838   2.929   4.414   0.032 -0.0713  0.0604  1.0363
 5944TIP3    H217839   3.077   4.399   0.065  0.0808  0.2971  0.4616
 5945TIP3   OH217840   3.033   5.818   2.891  0.3621 -0.3354 -0.2376
 5945TIP3    H117841   3.085   5.839   2.814 -1.4968 -0.2528 -1.5541
 5945TIP3    H217842   3.039   5.895   2.947  1.5043 -0.2856 -0.4137
 5946TIP3   OH217843   0.862   5.735   3.153 -0.0687 -0.7162 -0.2129
 5946TIP3    H117844   0.866   5.641   3.139 -1.2250 -0.6090 -1.4918
 5946TIP3    H217845   0.768   5.754   3.163  0.2892 -0.0907  3.2209
 5947TIP3   OH217846   1.679   0.670   4.371 -0.1764 -0.4902  0.9520
 5947TIP3    H117847   1.649   0.755   4.404 -0.2661 -0.3373  0.4735
 5947TIP3    H217848   1.612   0.608   4.398 -2.0885  0.1426 -1.9189
 5948TIP3   OH217849   1.399   3.959   2.739 -0.9755  0.7423  0.3509
 5948TIP3    H117850   1.443   4.043   2.752  1.5823 -0.1032 -1.9819
 5948TIP3    H217851   1.366   3.936   2.826  0.6397  2.8659  1.6209
 5949TIP3   OH217852   5.694   2.061   4.032 -0.7218  1.2392  0.0432
 5949TIP3    H117853   5.695   2.026   3.943  2.9984  0.0199  0.3818
 5949TIP3    H217854   5.711   2.155   4.021 -0.2662  1.0927 -0.5858
 5950TIP3   OH217855   4.757   0.933   5.047 -0.0721 -0.4097 -0.1943
 5950TIP3    H117856   4.722   0.900   5.129 -1.4283  2.0360  0.3156
 5950TIP3    H217857   4.689   0.912   4.982  0.6507 -1.6580 -0.5730
 5951TIP3   OH217858   1.638   5.915   2.420 -0.2737 -0.2000  0.7043
 5951TIP3    H117859   1.581   5.850   2.461 -0.6390 -1.0749 -1.0939
 5951TIP3    H217860   1.649   5.885   2.330  0.2000  1.8168  0.0214
 5952TIP3   OH217861   3.295   2.259   1.903  0.0708  0.2608  0.3652
 5952TIP3    H117862   3.250   2.317   1.964 -0.2910  1.1322 -0.6945
 5952TIP3    H217863   3.285   2.302   1.818 -0.9124 -1.7641 -0.5971
 5953TIP3   OH217864   3.234   4.416   0.751 -0.3069 -0.2142  0.2027
 5953TIP3    H117865   3.223   4.388   0.660 -1.3037  1.4200 -0.2287
 5953TIP3    H217866   3.323   4.450   0.755  0.4672 -2.1529  0.4120
 5954TIP3   OH217867   6.229   3.518   3.389  0.2917  0.0598 -0.0770
 5954TIP3    H117868   6.281   3.575   3.333 -0.4159 -0.1260 -0.9365
 5954TIP3    H217869   6.232   3.433   3.346 -0.6822  0.0393 -0.1126
 5955TIP3   OH217870   0.181   1.623   3.110  0.0012  0.5670 -0.6588
 5955TIP3    H117871   0.251   1.654   3.052  0.7776 -1.1412 -0.6815
 5955TIP3    H217872   0.124   1.570   3.054 -0.5312  0.7769 -0.3316
 5956TIP3   OH217873   2.535   3.451   2.738  0.1825  0.0239  0.3291
 5956TIP3    H117874   2.535   3.513   2.666  0.7685 -2.6284 -2.1491
 5956TIP3    H217875   2.451   3.406   2.732 -1.0771  1.7052  3.2922
 5957TIP3   OH217876   1.832   5.501   1.907 -0.5989  0.1560 -0.0491
 5957TIP3    H117877   1.802   5.443   1.977 -0.6010 -0.4433 -0.5349
 5957TIP3    H217878   1.759   5.502   1.845 -1.2807  2.0158  0.7321
 5958TIP3   OH217879   2.847   4.944   2.719  0.3679 -0.6563 -0.5621
 5958TIP3    H117880   2.792   4.886   2.771  0.5486  0.2546  0.6943
 5958TIP3    H217881   2.815   5.032   2.738  1.7446 -0.1606 -0.3961
 5959TIP3   OH217882   2.464   3.496   3.364 -0.4300  0.2628 -0.5495
 5959TIP3    H117883   2.470   3.586   3.332  1.2331 -0.7075 -3.2617
 5959TIP3    H217884   2.371   3.473   3.353 -0.5377  1.0895 -1.5326
 5960TIP3   OH217885   0.095   0.380   4.911  0.1221  0.2549 -0.2782
 5960TIP3    H117886   0.102   0.470   4.878 -0.8730  0.3066 -0.3795
 5960TIP3    H217887   0.009   0.376   4.952  0.7299 -0.2405  1.0306
 5961TIP3   OH217888   3.365   3.978   2.315  0.0602 -0.2205 -0.4711
 5961TIP3    H117889   3.292   3.933   2.271 -0.1678 -1.1881  0.8313
 5961TIP3    H217890   3.340   4.070   2.313 -0.8734 -0.4622 -0.6472
 5962TIP3   OH217891   6.321   5.283   0.263  1.0632  0.0479  0.1311
 5962TIP3    H117892   6.417   5.280   0.257  1.1242 -1.6085  1.1333
 5962TIP3    H217893   6.294   5.191   0.254 -0.3423  0.3646  0.8939
 5963TIP3   OH217894   5.682   4.704   2.512  0.7224  0.5514 -0.5531
 5963TIP3    H117895   5.609   4.765   2.503  0.5137  0.6170  1.2887
 5963TIP3    H217896   5.689   4.662   2.425 -0.4771  1.6565 -1.2150
 5964TIP3   OH217897   0.803   4.339   3.767  0.1458  0.0654 -0.2584
 5964TIP3    H117898   0.885   4.301   3.800 -0.5963  0.0611  1.7099
 5964TIP3    H217899   0.793   4.420   3.816 -1.4067 -0.3128  0.0980
 5965TIP3   OH217900   2.239   3.440   0.907 -0.1457  0.2297  0.1664
 5965TIP3    H117901   2.145   3.439   0.887 -0.1381 -0.4399  0.1145
 5965TIP3    H217902   2.268   3.527   0.882 -0.7804  0.4826  0.2930
 5966TIP3   OH217903   4.421   3.390   4.536  0.1887  0.7419  0.0826
 5966TIP3    H117904   4.381   3.421   4.617  0.4643 -1.5777  1.2141
 5966TIP3    H217905   4.480   3.460   4.509  1.4557  0.8994  2.9226
 5967TIP3   OH217906   1.524   4.065   3.943 -0.1124  0.5753  0.1345
 5967TIP3    H117907   1.556   4.066   3.853 -0.5562  2.2926 -0.0468
 5967TIP3    H217908   1.509   3.973   3.962  0.3746  0.1437 -1.4072
 5968TIP3   OH217909   2.760   2.875   5.001 -0.5329 -0.3220  0.4379
 5968TIP3    H117910   2.697   2.902   5.067 -0.9849 -1.1299  0.3528
 5968TIP3    H217911   2.830   2.833   5.051 -1.0984 -1.3588  0.3928
 5969TIP3   OH217912   0.621   3.032   3.351  0.0540 -0.2027 -0.4697
 5969TIP3    H117913   0.621   3.087   3.428  1.0045 -0.2808 -0.4006
 5969TIP3    H217914   0.619   2.942   3.385 -0.4560 -0.2339 -0.5635
 5970TIP3   OH217915   3.846   5.444   1.345  0.8085  0.2669 -0.7137
 5970TIP3    H117916   3.816   5.353   1.352 -0.9272  0.9262  1.5463
 5970TIP3    H217917   3.920   5.450   1.405 -0.3317  0.7490  0.7131
 5971TIP3   OH217918   5.224   1.183   2.739  0.1844 -0.3370  0.3361
 5971TIP3    H117919   5.188   1.223   2.660 -0.3478  2.4561  1.8692
 5971TIP3    H217920   5.310   1.150   2.712  0.0771  0.6663 -1.3690
 5972TIP3   OH217921   1.377   5.565   2.876  0.7228 -0.4257  0.2039
 5972TIP3    H117922   1.379   5.505   2.950 -1.1223  1.3245  1.8153
 5972TIP3    H217923   1.294   5.545   2.831  0.8943 -0.1897 -0.2229
 5973TIP3   OH217924   5.747   4.346   1.674 -0.0826 -0.3235 -0.0405
 5973TIP3    H117925   5.702   4.430   1.678 -1.5977 -1.1031 -0.0679
 5973TIP3    H217926   5.722   4.309   1.590  0.4342 -0.8817  0.0446
 5974TIP3   OH217927   3.752   2.374   4.693  0.0864  0.2317 -0.2442
 5974TIP3    H117928   3.809   2.451   4.700  0.1650  0.5718 -3.2520
 5974TIP3    H217929   3.664   2.411   4.690  0.0098  0.0614 -0.0790
 5975TIP3   OH217930   3.333   0.944   5.029 -0.0148  0.0543  0.4361
 5975TIP3    H117931   3.305   1.010   4.965  1.3717 -0.4077 -0.6846
 5975TIP3    H217932   3.395   0.991   5.085 -0.5853  0.2309  0.9308
 5976TIP3   OH217933   4.330   3.077   2.616 -0.5016  0.1137  0.2277
 5976TIP3    H117934   4.343   3.139   2.545  0.7447  1.5919  1.6448
 5976TIP3    H217935   4.418   3.042   2.633 -0.9028 -0.7637  0.5733
 5977TIP3   OH217936   4.038   1.811   3.656  0.5430 -0.0708 -0.0339
 5977TIP3    H117937   4.036   1.898   3.697 -0.8863 -0.0852 -0.0168
 5977TIP3    H217938   4.131   1.796   3.637  0.9244  1.0788  0.7601
 5978TIP3   OH217939   5.859   4.825   4.875  0.1776 -0.1864 -0.4588
 5978TIP3    H117940   5.952   4.815   4.852  0.1837 -1.7226  0.0969
 5978TIP3    H217941   5.854   4.910   4.919  1.8900 -1.2117  1.9635
 5979TIP3   OH217942   4.328   4.763   1.592 -0.2240 -0.0778  0.2231
 5979TIP3    H117943   4.327   4.667   1.598 -0.8623 -0.1855 -1.1541
 5979TIP3    H217944   4.329   4.781   1.498  2.8416  1.2743  0.4091
 5980TIP3   OH217945   5.020   5.144   3.428 -0.3481 -0.2370  0.2523
 5980TIP3    H117946   5.049   5.189   3.349  0.0020  0.8237  0.9587
 5980TIP3    H217947   5.060   5.193   3.500 -1.9771 -0.1482  1.1630
 5981TIP3   OH217948   6.246   2.377   1.189  0.5409 -0.3688  0.2955
 5981TIP3    H117949   6.297   2.348   1.264  2.3357 -0.6845 -0.9770
 5981TIP3    H217950   6.212   2.296   1.150  0.7120 -0.3108  0.0243
 5982TIP3   OH217951   4.830   3.511   1.899  0.1151 -0.6201  0.3014
 5982TIP3    H117952   4.763   3.519   1.831 -1.1663 -0.6039  1.5195
 5982TIP3    H217953   4.898   3.458   1.858 -1.2998 -1.9076 -0.5322
 5983TIP3   OH217954   2.751   1.565   5.061  0.1906 -0.4117  0.3111
 5983TIP3    H117955   2.819   1.501   5.085 -0.4212 -1.9242 -1.6767
 5983TIP3    H217956   2.742   1.555   4.966 -3.6070 -1.1343  0.6052
 5984TIP3   OH217957   3.590   3.994   1.585 -0.3641  0.2087 -0.5052
 5984TIP3    H117958   3.504   4.033   1.606  0.4596  1.9599 -0.2067
 5984TIP3    H217959   3.588   3.909   1.629 -1.6929  0.5013  0.0754
 5985TIP3   OH217960   0.642   3.995   2.448  0.0122 -0.4955 -0.1302
 5985TIP3    H117961   0.679   4.037   2.526 -1.4527  0.5717  0.0461
 5985TIP3    H217962   0.657   3.902   2.461 -0.1299 -0.3323  1.4059
 5986TIP3   OH217963   1.995   4.578   0.354  0.1752  0.3470 -0.2022
 5986TIP3    H117964   2.033   4.518   0.290 -2.0270  1.5856 -2.8610
 5986TIP3    H217965   1.902   4.559   0.354  0.1379 -0.4606  3.7718
 5987TIP3   OH217966   5.000   2.322   0.578 -0.2460  0.4674  0.6711
 5987TIP3    H117967   5.057   2.312   0.502  0.6725  1.8151  1.1286
 5987TIP3    H217968   4.977   2.233   0.604  1.4872 -0.1215  0.3209
 5988TIP3   OH217969   1.716   3.047   1.170  0.5115  0.2267 -0.0061
 5988TIP3    H117970   1.769   3.030   1.091 -0.4330  1.3571 -0.9134
 5988TIP3    H217971   1.781   3.052   1.240  1.4181 -0.4570 -0.7582
 5989TIP3   OH217972   0.257   1.477   0.680  0.0566 -0.5097  0.4846
 5989TIP3    H117973   0.336   1.431   0.708  2.1707  1.7861 -1.2636
 5989TIP3    H217974   0.247   1.549   0.743  1.5097  1.2789 -1.2030
 5990TIP3   OH217975   1.661   0.747   0.661  0.1067  0.3371 -0.0857
 5990TIP3    H117976   1.568   0.747   0.641  0.1053 -0.3013 -0.1103
 5990TIP3    H217977   1.666   0.748   0.756  0.0575 -0.5802 -0.0677
 5991TIP3   OH217978   3.715   4.169   5.111  0.5789 -0.3666 -0.0307
 5991TIP3    H117979   3.658   4.094   5.097  1.4416 -0.8697 -0.9878
 5991TIP3    H217980   3.803   4.132   5.118  0.9971  0.5287 -0.3380
 5992TIP3   OH217981   1.949   3.734   4.822  0.5983  0.0101 -0.0429
 5992TIP3    H117982   2.035   3.775   4.809  0.8357 -1.1294 -2.9123
 5992TIP3    H217983   1.966   3.659   4.879  1.4225  0.0986 -0.1663
 5993TIP3   OH217984   6.259   5.904   3.100  0.4238  0.4439 -0.5358
 5993TIP3    H117985   6.248   5.809   3.091 -0.6173  0.3725  1.0926
 5993TIP3    H217986   6.330   5.913   3.164 -1.0419  0.6943  1.1144
 5994TIP3   OH217987   1.511   1.091   0.496  0.1393 -0.0762  0.2943
 5994TIP3    H117988   1.567   1.133   0.430  0.1208 -0.1068  0.2591
 5994TIP3    H217989   1.494   1.160   0.560 -0.7863  0.2970 -0.3211
 5995TIP3   OH217990   1.237   4.333   1.641 -0.1415 -0.4961 -0.2975
 5995TIP3    H117991   1.167   4.395   1.622 -0.2741 -0.8576 -1.0108
 5995TIP3    H217992   1.215   4.298   1.727  0.4699  1.1645  0.5705
 5996TIP3   OH217993   5.542   1.814   1.778  0.6772 -1.0868 -0.5821
 5996TIP3    H117994   5.508   1.873   1.711  1.2801  1.3535  1.1342
 5996TIP3    H217995   5.531   1.862   1.860  0.9613 -3.5012  0.9789
 5997TIP3   OH217996   5.784   1.844   4.157 -0.3226  0.2522  0.1705
 5997TIP3    H117997   5.824   1.823   4.073  0.6479  2.5676 -0.0246
 5997TIP3    H217998   5.750   1.933   4.145  1.2777  1.3021  2.6765
 5998TIP3   OH217999   5.930   2.645   3.345 -0.1460  0.1311 -0.3169
 5998TIP3    H118000   5.880   2.645   3.264  1.6785 -0.4803 -1.4909
 5998TIP3    H218001   5.951   2.737   3.361 -2.4952  0.5333  0.7934
 5999TIP3   OH218002   1.133   0.935   1.629  0.3947  0.2325 -0.5274
 5999TIP3    H118003   1.185   0.858   1.652  1.9146  0.9418 -1.4936
 5999TIP3    H218004   1.190   1.010   1.648 -0.7276  1.1057 -0.4468
 6000TIP3   OH218005   5.357   3.686   4.429  0.4413 -0.0264  0.3256
 6000TIP3    H118006   5.342   3.748   4.357 -0.3216  0.7602  1.1313
 6000TIP3    H218007   5.324   3.603   4.396 -0.0317  0.3574 -0.1936
 6001TIP3   OH218008   1.388   0.249   1.683  0.3744  0.0975 -0.3307
 6001TIP3    H118009   1.459   0.233   1.745  0.1455  1.6431  0.3706
 6001TIP3    H218010   1.380   0.166   1.635  0.0464 -1.4624  2.1848
 6002TIP3   OH218011   2.440   2.217   3.495 -0.2493  0.1007  0.0556
 6002TIP3    H118012   2.495   2.185   3.567  0.9480 -2.5830 -1.8837
 6002TIP3    H218013   2.474   2.304   3.475  0.2111  0.3771  1.8886
 6003TIP3   OH218014   1.254   1.183   5.093  0.0293 -0.3687  0.3336
 6003TIP3    H118015   1.284   1.220   5.176 -1.1074 -0.2352  0.7060
 6003TIP3    H218016   1.246   1.259   5.034 -1.7905 -0.0426  0.9398
 6004TIP3   OH218017   3.559   4.366   3.141 -0.4812 -0.0632  0.1445
 6004TIP3    H118018   3.500   4.441   3.148  0.2630  0.6763 -1.0507
 6004TIP3    H218019   3.647   4.402   3.152 -0.1529 -0.9042  0.4049
 6005TIP3   OH218020   3.993   5.064   0.724 -0.3412 -0.1475  0.3091
 6005TIP3    H118021   3.987   5.118   0.802 -1.7959  0.9228 -0.5034
 6005TIP3    H218022   4.041   5.118   0.661 -1.1369 -0.0711 -0.2549
 6006TIP3   OH218023   4.493   0.677   4.889  0.2776 -0.6409  0.0971
 6006TIP3    H118024   4.443   0.731   4.828  0.5468 -0.1562  0.2966
 6006TIP3    H218025   4.584   0.686   4.861  0.3184 -1.0296  0.1031
 6007TIP3   OH218026   3.334   5.396   4.521 -0.6670  0.5497 -0.0256
 6007TIP3    H118027   3.387   5.364   4.594  0.4657 -0.1431 -1.1242
 6007TIP3    H218028   3.294   5.317   4.484  1.2699  0.4290 -2.0702
 6008TIP3   OH218029   1.646   5.227   1.287 -0.1185 -0.2408  0.4106
 6008TIP3    H118030   1.639   5.309   1.237  1.0736 -0.1940  0.2939
 6008TIP3    H218031   1.588   5.240   1.362  1.3256  1.4254  1.3176
 6009TIP3   OH218032   2.639   2.019   5.070 -0.1545  0.4689 -0.0398
 6009TIP3    H118033   2.588   1.950   5.029 -0.6659  0.1426  1.1098
 6009TIP3    H218034   2.715   1.974   5.107 -2.2477 -0.2045  3.9004
 6010TIP3   OH218035   5.935   2.372   3.410  0.1734 -0.2173 -0.0120
 6010TIP3    H118036   5.925   2.466   3.422  2.3207  0.5496 -3.1245
 6010TIP3    H218037   5.929   2.336   3.499 -1.6704  2.6588  1.2006
 6011TIP3   OH218038   6.208   4.600   1.511 -0.0649 -0.1560  0.0274
 6011TIP3    H118039   6.246   4.627   1.595  1.9223  3.7268 -1.8606
 6011TIP3    H218040   6.281   4.600   1.450 -1.9003  0.1302 -2.3007
 6012TIP3   OH218041   5.029   1.490   2.548 -0.2704 -0.3420 -0.2165
 6012TIP3    H118042   5.054   1.556   2.612 -0.1235 -0.0142 -0.6106
 6012TIP3    H218043   4.933   1.489   2.550 -0.2692 -1.3189  1.0079
 6013TIP3   OH218044   0.088   0.774   0.963  0.3489 -0.2426 -0.3731
 6013TIP3    H118045   0.009   0.815   0.998  0.5113 -1.1979  1.2487
 6013TIP3    H218046   0.111   0.826   0.886 -0.5437  1.4773  0.4620
 6014TIP3   OH218047   0.924   0.875   3.388  0.3704 -0.2071  0.0963
 6014TIP3    H118048   0.919   0.781   3.402 -2.0336 -0.2876 -0.8023
 6014TIP3    H218049   0.838   0.908   3.412  1.2013  1.8175  0.5494
 6015TIP3   OH218050   1.525   1.161   1.095 -0.3513  0.2297  0.3890
 6015TIP3    H118051   1.471   1.237   1.073  0.0333  0.3920 -0.0050
 6015TIP3    H218052   1.611   1.197   1.116 -0.2748 -0.0660  0.6001
 6016TIP3   OH218053   3.351   1.962   4.101  0.3307 -0.1156 -0.7539
 6016TIP3    H118054   3.344   2.058   4.098 -0.4897 -0.1403  0.0396
 6016TIP3    H218055   3.445   1.945   4.092  0.7651  0.8874  1.3754
 6017TIP3   OH218056   0.152   1.430   4.734  0.3988 -0.4572 -0.0033
 6017TIP3    H118057   0.060   1.405   4.722  0.1875 -0.3549  1.2587
 6017TIP3    H218058   0.179   1.385   4.814  1.9768 -1.8684 -1.2366
 6018TIP3   OH218059   4.674   5.851   0.036  0.2663 -0.5326 -0.1497
 6018TIP3    H118060   4.744   5.820   0.093  1.3370  0.9297 -0.5841
 6018TIP3    H218061   4.595   5.848   0.090  0.7986 -1.4670  0.6078
 6019TIP3   OH218062   4.091   4.456   2.451  1.2083 -0.0689 -0.6527
 6019TIP3    H118063   4.167   4.469   2.394 -0.2015  1.8547 -2.2324
 6019TIP3    H218064   4.015   4.473   2.395 -0.3481 -0.2631  1.2749
 6020TIP3   OH218065   5.752   3.762   0.037 -0.4964  0.5674  0.6077
 6020TIP3    H118066   5.730   3.764   0.130 -1.8299 -0.3545  0.3373
 6020TIP3    H218067   5.687   3.704  -0.002  0.9303 -0.2537 -0.6692
 6021TIP3   OH218068   0.439   3.951   4.078 -0.3396  0.4528  0.6208
 6021TIP3    H118069   0.518   3.926   4.126 -0.3859  2.0546  1.6217
 6021TIP3    H218070   0.469   3.970   3.989 -0.1523 -1.9939  0.0980
 6022TIP3   OH218071   0.279   1.232   0.060  0.0876 -0.1600  0.2519
 6022TIP3    H118072   0.289   1.301  -0.006 -0.7756 -0.7905 -0.5660
 6022TIP3    H218073   0.186   1.212   0.059  0.1256 -0.4435  1.4150
 6023TIP3   OH218074   0.540   4.415   2.761 -0.4769 -0.7476 -0.0291
 6023TIP3    H118075   0.626   4.440   2.727 -0.2548 -0.3968  0.7774
 6023TIP3    H218076   0.480   4.479   2.724  0.0166  0.7420  1.6132
 6024TIP3   OH218077   3.329   2.512   2.247  0.2746 -0.0294 -0.3235
 6024TIP3    H118078   3.394   2.506   2.318  1.1392  0.7367 -1.0165
 6024TIP3    H218079   3.254   2.554   2.288  0.5129 -0.1971  0.3038
 6025TIP3   OH218080   1.727   3.465   3.240  0.1965 -0.4447  0.1432
 6025TIP3    H118081   1.710   3.516   3.161 -2.7198  1.6857  1.9710
 6025TIP3    H218082   1.755   3.529   3.305 -1.0268 -1.5318  1.8269
 6026TIP3   OH218083   3.397   0.933   1.838  0.1529 -0.1063  0.5943
 6026TIP3    H118084   3.316   0.923   1.888 -0.7831  1.2914 -0.5831
 6026TIP3    H218085   3.370   0.930   1.747  1.6728 -1.2729  0.1530
 6027TIP3   OH218086   4.183   1.893   4.768  0.3340  0.0061 -0.5018
 6027TIP3    H118087   4.135   1.820   4.730  2.2813 -0.6915 -1.7941
 6027TIP3    H218088   4.137   1.971   4.738 -0.3376 -0.6368 -1.1731
 6028TIP3   OH218089   2.581   0.325   0.892 -0.3567 -0.0445  0.1049
 6028TIP3    H118090   2.510   0.271   0.926  0.1955 -1.9685 -1.5609
 6028TIP3    H218091   2.639   0.338   0.967 -0.6079 -1.6550  0.6149
 6029TIP3   OH218092   1.595   2.923   4.954 -0.0419  0.0659 -0.0581
 6029TIP3    H118093   1.592   2.862   5.028 -1.2477  1.5608  1.1869
 6029TIP3    H218094   1.687   2.929   4.931  0.2704 -0.9791  0.8526
 6030TIP3   OH218095   1.662   2.630   0.387  0.1032 -0.6884  0.2570
 6030TIP3    H118096   1.578   2.585   0.398  1.0111 -2.4322  0.4100
 6030TIP3    H218097   1.682   2.620   0.294 -0.6603  1.3215 -0.1884
 6031TIP3   OH218098   3.809   1.663   3.665 -0.0822  0.4485  0.0239
 6031TIP3    H118099   3.765   1.692   3.745  0.3770 -0.4105  0.6056
 6031TIP3    H218100   3.886   1.719   3.657 -1.9218  2.9258 -1.7679
 6032TIP3   OH218101   4.696   2.266   4.922 -0.1002  0.1568 -0.3322
 6032TIP3    H118102   4.739   2.263   4.837 -0.2623 -0.2116 -0.4001
 6032TIP3    H218103   4.743   2.201   4.975  0.8069  1.2387  0.2386
 6033TIP3   OH218104   0.866   0.454   3.862 -0.0443 -0.6025  0.0439
 6033TIP3    H118105   0.926   0.432   3.933 -1.4431 -1.4116  1.0241
 6033TIP3    H218106   0.828   0.370   3.836 -0.5648 -0.1452 -0.7255
 6034TIP3   OH218107   4.389   1.117   3.800  0.4322 -0.0224  0.1261
 6034TIP3    H118108   4.387   1.120   3.895  1.0577 -1.3435  0.2063
 6034TIP3    H218109   4.455   1.181   3.775 -0.6224  1.2538  0.4871
 6035TIP3   OH218110   3.808   0.155   0.411 -0.1571 -0.2217 -0.4748
 6035TIP3    H118111   3.790   0.152   0.504  0.9632 -1.1299 -0.2635
 6035TIP3    H218112   3.903   0.170   0.405 -0.2466  0.0367 -1.4683
 6036TIP3   OH218113   0.322   5.502   3.912  0.0983  0.3874 -0.2818
 6036TIP3    H118114   0.308   5.596   3.924 -0.5627  0.1145  1.4325
 6036TIP3    H218115   0.304   5.464   3.999 -1.0659 -1.4765 -1.2593
 6037TIP3   OH218116   4.281   2.249   2.479  0.4239 -0.2209 -0.3983
 6037TIP3    H118117   4.350   2.195   2.441 -1.0108 -0.6791 -2.4726
 6037TIP3    H218118   4.207   2.189   2.492 -0.7212  0.9025 -1.4339
 6038TIP3   OH218119   0.616   4.337   3.373  0.2563  0.8115 -0.2615
 6038TIP3    H118120   0.562   4.397   3.425 -0.3955  0.0600 -0.0462
 6038TIP3    H218121   0.673   4.294   3.437  2.0458  2.4858 -0.6219
 6039TIP3   OH218122   3.228   5.864   2.637  0.1418  0.7642 -0.6165
 6039TIP3    H118123   3.245   5.794   2.575  0.2593 -0.9417  1.2505
 6039TIP3    H218124   3.314   5.894   2.665  0.1602 -0.7559  1.1210
 6040TIP3   OH218125   5.229   5.612   1.561  0.1889  0.5037  0.4089
 6040TIP3    H118126   5.309   5.618   1.613  0.0969  0.1977  0.5894
 6040TIP3    H218127   5.245   5.539   1.501  0.2046  0.7079  0.1625
 6041TIP3   OH218128   3.880   1.066   3.749  0.8620 -0.1127  0.4844
 6041TIP3    H118129   3.961   1.086   3.796  1.3445  1.9387 -1.0904
 6041TIP3    H218130   3.811   1.097   3.807  1.3596  0.8079  0.6008
 6042TIP3   OH218131   1.433   0.215   0.605 -0.1315 -0.0686  0.1579
 6042TIP3    H118132   1.433   0.147   0.538 -0.9190 -1.5386  1.5810
 6042TIP3    H218133   1.344   0.213   0.641  0.5851 -0.1478  2.0414
 6043TIP3   OH218134   0.166   2.383   2.346  0.6268  0.0440  0.0636
 6043TIP3    H118135   0.246   2.334   2.327  0.0757 -1.1563  0.6684
 6043TIP3    H218136   0.190   2.475   2.337  1.9142 -0.3168 -0.3368
 6044TIP3   OH218137   0.904   3.657   0.413 -0.2476 -0.2956 -0.1918
 6044TIP3    H118138   0.995   3.684   0.405 -0.0966  0.6539  3.0883
 6044TIP3    H218139   0.888   3.601   0.337  2.1695  1.7714 -2.4074
 6045TIP3   OH218140   4.766   0.650   4.252  0.4697  0.0796 -0.2672
 6045TIP3    H118141   4.828   0.635   4.181 -0.0115  0.2466 -0.7253
 6045TIP3    H218142   4.689   0.598   4.228  0.8071 -0.9676  0.8108
 6046TIP3   OH218143   2.927   0.070   0.838  0.3010 -0.4918  0.0567
 6046TIP3    H118144   2.985   0.108   0.905  0.5034  0.8390 -0.8449
 6046TIP3    H218145   2.881  -0.001   0.884  0.4410  0.3811  1.6089
 6047TIP3   OH218146   5.474   1.060   4.286  0.1021  0.1123  0.2990
 6047TIP3    H118147   5.395   1.008   4.302  0.4339  0.1049  2.0671
 6047TIP3    H218148   5.458   1.101   4.201 -2.8232  1.9160  1.5826
 6048TIP3   OH218149   5.308   3.801   0.788 -0.1778 -0.3222 -0.5376
 6048TIP3    H118150   5.294   3.725   0.845 -2.9803  0.0278 -0.5912
 6048TIP3    H218151   5.219   3.835   0.771  0.9097  2.5445 -1.0987
 6049TIP3   OH218152   0.575   5.131   0.634  0.3417  0.1081 -0.3491
 6049TIP3    H118153   0.568   5.042   0.668 -0.2808  0.7982  1.4250
 6049TIP3    H218154   0.537   5.126   0.546 -0.4278 -1.2250  0.0334
 6050TIP3   OH218155   4.202   5.610   4.665  0.1042  0.2300 -0.4647
 6050TIP3    H118156   4.123   5.565   4.634 -1.3915  1.9393  0.6768
 6050TIP3    H218157   4.245   5.640   4.585 -0.2086 -0.9794 -1.1173
 6051TIP3   OH218158   1.333   5.186   3.985 -0.6539  0.2319  0.1300
 6051TIP3    H118159   1.315   5.137   3.905 -0.9518  1.6313 -0.6845
 6051TIP3    H218160   1.275   5.146   4.051  0.7229 -1.9784  0.1130
 6052TIP3   OH218161   4.827   5.290   0.276  0.1945  0.0113  0.8430
 6052TIP3    H118162   4.771   5.213   0.271  0.4317 -0.2012  1.4839
 6052TIP3    H218163   4.891   5.278   0.206  0.1377 -0.2959  0.8443
 6053TIP3   OH218164   5.974   3.234   3.078 -0.2774  0.0773 -0.2854
 6053TIP3    H118165   6.031   3.218   3.003  0.7181 -0.1793  0.5001
 6053TIP3    H218166   6.034   3.257   3.149 -1.1326 -0.4652  0.6412
 6054TIP3   OH218167   4.082   3.447   4.351 -0.2428 -0.1794 -0.3946
 6054TIP3    H118168   4.062   3.435   4.444  2.2481 -1.8955  0.0334
 6054TIP3    H218169   4.125   3.532   4.348 -1.7440  0.6145 -0.2893
 6055TIP3   OH218170   3.172   1.399   4.036  0.1855  0.1347 -0.3243
 6055TIP3    H118171   3.171   1.334   4.106 -2.5538  0.8299  0.4136
 6055TIP3    H218172   3.242   1.370   3.977  1.1676 -1.6564  1.5773
 6056TIP3   OH218173   2.650   2.129   1.748  0.4729 -0.3335 -0.1478
 6056TIP3    H118174   2.716   2.143   1.816  1.2060 -0.8473 -0.7282
 6056TIP3    H218175   2.702   2.112   1.669 -0.3499 -1.9581 -0.3653
 6057TIP3   OH218176   3.974   3.446   0.903 -0.2576 -0.0282  0.3320
 6057TIP3    H118177   3.888   3.462   0.941  0.6466  1.4081  1.9464
 6057TIP3    H218178   3.966   3.477   0.812 -1.3972  0.2006  0.4916
 6058TIP3   OH218179   5.485   3.978   4.878 -0.0419 -0.3100 -0.1242
 6058TIP3    H118180   5.430   4.055   4.860  1.7980  0.9957 -0.4536
 6058TIP3    H218181   5.460   3.915   4.810  0.2711  1.0296 -1.5437
 6059TIP3   OH218182   5.548   5.859   0.071 -0.0273  0.5969  0.2976
 6059TIP3    H118183   5.576   5.856  -0.021 -1.3461 -1.9003 -0.1037
 6059TIP3    H218184   5.562   5.770   0.103 -1.0000  1.0402  2.0883
 6060TIP3   OH218185   3.759   5.815   4.415  0.6261  0.5150  0.1428
 6060TIP3    H118186   3.815   5.788   4.488  1.0074  0.7747 -0.0529
 6060TIP3    H218187   3.811   5.794   4.337 -0.1878 -0.7253 -0.0982
 6061TIP3   OH218188   5.209   1.097   5.209 -0.4786 -1.0396 -0.4921
 6061TIP3    H118189   5.226   1.100   5.115  1.1892 -1.2229 -0.2205
 6061TIP3    H218190   5.116   1.119   5.217 -0.2149  0.9006 -2.0357
 6062TIP3   OH218191   0.740   4.563   0.662  0.1848  0.2919 -0.4098
 6062TIP3    H118192   0.689   4.485   0.679 -0.2934  1.0469  2.0549
 6062TIP3    H218193   0.825   4.546   0.703  0.5452  0.5560 -1.0320
 6063TIP3   OH218194   2.306   2.654   4.232  0.0024 -0.1103 -0.7470
 6063TIP3    H118195   2.264   2.717   4.290 -3.5842 -1.0773 -2.0069
 6063TIP3    H218196   2.281   2.569   4.268  0.8096 -0.7607 -1.6664
 6064TIP3   OH218197   0.223   1.053   4.468 -0.4844  0.3864  0.4760
 6064TIP3    H118198   0.221   1.092   4.555 -0.1289  3.1969 -0.6615
 6064TIP3    H218199   0.302   0.998   4.468 -1.6580 -1.4543  2.5203
 6065TIP3   OH218200   0.994   5.977   3.216 -0.0585 -0.6539 -0.0156
 6065TIP3    H118201   0.958   5.890   3.200 -2.0139  0.2477 -0.9206
 6065TIP3    H218202   1.029   6.004   3.131 -1.7365  0.3857 -0.4150
 6066TIP3   OH218203   4.958   4.710   4.984  0.1518  0.4198 -0.1887
 6066TIP3    H118204   4.957   4.661   4.902  1.0832  2.9576 -1.8505
 6066TIP3    H218205   4.867   4.729   5.003 -0.2581 -1.9947  0.6306
 6067TIP3   OH218206   5.652   5.983   1.568 -0.3328  0.0269 -0.1947
 6067TIP3    H118207   5.612   5.941   1.645  2.5278 -1.3668  0.6745
 6067TIP3    H218208   5.688   5.910   1.518  2.6721  1.2166  0.0551
 6068TIP3   OH218209   1.981   3.658   1.785  0.4210 -0.3782  0.0389
 6068TIP3    H118210   1.987   3.736   1.841  0.4339 -0.6030  0.3547
 6068TIP3    H218211   1.910   3.678   1.724 -1.1253 -0.9868  1.5380
 6069TIP3   OH218212   3.283   0.923   1.598  0.2282 -0.6013  0.3356
 6069TIP3    H118213   3.224   0.997   1.612  2.0479  0.6455  1.8891
 6069TIP3    H218214   3.336   0.947   1.522 -0.8742 -1.5266 -0.7815
 6070TIP3   OH218215   5.190   1.716   3.849  0.4895 -0.5550  0.3271
 6070TIP3    H118216   5.097   1.738   3.853  0.7276  0.2828  2.0651
 6070TIP3    H218217   5.194   1.639   3.792 -1.0782  0.2524 -0.9552
 6071TIP3   OH218218   3.336   3.485   2.102 -0.0528 -0.2156  0.2023
 6071TIP3    H118219   3.431   3.490   2.099 -0.0430 -0.5257 -0.1338
 6071TIP3    H218220   3.312   3.513   2.191  0.1513  2.7991 -0.5972
 6072TIP3   OH218221   3.127   2.474   1.130 -0.6715  0.2553 -0.3597
 6072TIP3    H118222   3.145   2.380   1.126 -0.0383  0.3159  0.6762
 6072TIP3    H218223   3.033   2.480   1.147 -0.9858 -0.1474 -1.8031
 6073TIP3   OH218224   4.462   2.109   0.144 -0.0123 -0.5485 -0.4546
 6073TIP3    H118225   4.414   2.062   0.211  2.3646 -2.0923  0.2769
 6073TIP3    H218226   4.465   2.049   0.069  0.0342 -0.1163 -0.8088
 6074TIP3   OH218227   1.544   0.799   2.468 -0.1273 -0.0379 -0.5481
 6074TIP3    H118228   1.530   0.727   2.529  0.2187  0.5196  0.2075
 6074TIP3    H218229   1.518   0.877   2.517 -1.0005  0.3053 -1.5321
 6075TIP3   OH218230   3.244   1.486   0.737  0.6082 -0.7937 -0.2119
 6075TIP3    H118231   3.281   1.405   0.771 -0.3238 -1.4762 -0.7692
 6075TIP3    H218232   3.171   1.506   0.795 -0.5880 -1.6166 -1.3691
 6076TIP3   OH218233   0.047   3.546   0.456  0.0061 -0.3202 -0.1174
 6076TIP3    H118234   0.102   3.621   0.477 -1.1285  0.4054  0.3921
 6076TIP3    H218235   0.022   3.509   0.541  0.8672 -1.5362 -0.3647
 6077TIP3   OH218236   5.440   2.705   2.781 -0.4545  0.3880 -0.5886
 6077TIP3    H118237   5.426   2.748   2.865 -2.8415 -1.4737  0.0870
 6077TIP3    H218238   5.513   2.753   2.741  1.7958  0.4740  3.0995
 6078TIP3   OH218239   2.322   4.068   2.049  0.2145  0.0503  0.0376
 6078TIP3    H118240   2.340   4.029   2.134  1.0221 -0.6612 -0.4436
 6078TIP3    H218241   2.379   4.021   1.988 -0.4329  0.4692 -0.9180
 6079TIP3   OH218242   3.924   2.347   4.086  0.2029  0.0211  0.1998
 6079TIP3    H118243   3.892   2.417   4.030  1.0191 -0.3234 -0.7262
 6079TIP3    H218244   4.014   2.332   4.057  0.2888 -0.8902  0.8907
 6080TIP3   OH218245   6.140   0.685   2.095 -0.1685 -0.2339  0.3028
 6080TIP3    H118246   6.132   0.660   2.003  1.6617  0.7129 -0.1686
 6080TIP3    H218247   6.063   0.648   2.137 -0.7875 -1.1227 -1.5160
 6081TIP3   OH218248   2.531   4.866   0.974 -0.0795 -0.2421  0.3447
 6081TIP3    H118249   2.464   4.861   1.042  0.7165 -0.5245  1.1189
 6081TIP3    H218250   2.566   4.778   0.968  0.5368  0.0050  0.2598
 6082TIP3   OH218251   3.731   2.292   1.797  0.3532  0.2135  0.1239
 6082TIP3    H118252   3.658   2.343   1.833  0.4916  2.3855 -2.3976
 6082TIP3    H218253   3.690   2.215   1.757 -0.4144  0.7269 -0.0843
 6083TIP3   OH218254   2.104   5.005   3.682 -0.2328 -0.1432  0.7856
 6083TIP3    H118255   2.041   5.024   3.751 -1.3154  0.5585 -0.3731
 6083TIP3    H218256   2.054   5.007   3.601  0.9082 -1.4588 -0.0122
 6084TIP3   OH218257   3.282   1.995   1.139  0.2062 -0.7011  0.0198
 6084TIP3    H118258   3.289   1.901   1.121  0.3688 -0.9245  1.1528
 6084TIP3    H218259   3.317   2.037   1.060 -0.1166 -1.5811 -0.6101
 6085TIP3   OH218260   4.228   1.031   1.539  0.0179 -0.2781  0.0035
 6085TIP3    H118261   4.309   1.023   1.591 -0.4880  3.3807  1.6520
 6085TIP3    H218262   4.159   1.002   1.599 -0.1763 -0.5307 -0.3416
 6086TIP3   OH218263   1.181   1.216   1.963 -0.4856 -0.1573 -0.3956
 6086TIP3    H118264   1.202   1.285   2.025 -0.4740  0.9105 -1.5410
 6086TIP3    H218265   1.097   1.182   1.992  0.8157 -1.6998  1.8693
 6087TIP3   OH218266   4.365   3.960   2.600 -0.1839  0.3043 -0.0930
 6087TIP3    H118267   4.291   3.997   2.648  0.2508 -1.5348  2.1841
 6087TIP3    H218268   4.438   3.965   2.662  0.8438 -0.6406 -1.1899
 6088TIP3   OH218269   2.658   0.269   0.436  0.1608 -0.1123  0.5134
 6088TIP3    H118270   2.741   0.285   0.392  1.3012  1.8037  3.1591
 6088TIP3    H218271   2.679   0.269   0.529 -2.5610 -1.2490  1.2244
 6089TIP3   OH218272   0.028   3.879   4.026 -0.1876 -0.7033 -0.7840
 6089TIP3    H118273  -0.002   3.885   4.117  0.0728  1.8092 -0.8005
 6089TIP3    H218274   0.102   3.819   4.029  0.4716  0.1184  0.8936
 6090TIP3   OH218275   3.419   5.857   5.001 -0.1749  0.4075 -0.2453
 6090TIP3    H118276   3.432   5.763   5.005 -0.9585  0.2823 -0.5628
 6090TIP3    H218277   3.441   5.881   4.911 -1.8703  0.2248 -0.7275
 6091TIP3   OH218278   2.916   5.901   4.203 -0.4790  0.3600  0.4947
 6091TIP3    H118279   2.948   5.840   4.137 -1.4426 -0.8990  1.1484
 6091TIP3    H218280   2.844   5.855   4.246 -1.3653  2.0189  0.9088
 6092TIP3   OH218281   3.844   5.034   4.718  0.2432  0.2266 -0.2761
 6092TIP3    H118282   3.854   4.942   4.696 -0.3786 -0.2255  1.1912
 6092TIP3    H218283   3.900   5.080   4.656  0.3726 -1.1126 -1.1899
 6093TIP3   OH218284   4.174   1.719   1.218 -0.4426  0.1226 -0.0822
 6093TIP3    H118285   4.114   1.649   1.191 -0.7757  0.7499 -1.0127
 6093TIP3    H218286   4.123   1.800   1.208  0.6919  0.7137 -1.3605
 6094TIP3   OH218287   3.996   1.100   2.269  0.6752 -0.2730  0.3545
 6094TIP3    H118288   3.903   1.084   2.252  1.1520 -0.7939 -2.1515
 6094TIP3    H218289   3.998   1.142   2.355 -1.9858  0.8789 -0.0536
 6095TIP3   OH218290   6.293   3.221   1.192 -1.0507  0.5997  0.1229
 6095TIP3    H118291   6.230   3.227   1.120 -0.3847 -2.0947 -0.8188
 6095TIP3    H218292   6.271   3.140   1.236  1.7293 -0.4865 -0.2917
 6096TIP3   OH218293   2.731   1.745   1.856 -0.4319 -0.5438 -0.3552
 6096TIP3    H118294   2.712   1.831   1.894  0.1700 -0.2263 -0.7563
 6096TIP3    H218295   2.699   1.683   1.922 -1.5867 -0.0390 -0.4026
 6097TIP3   OH218296   5.766   3.716   4.013  0.0427 -0.4808 -0.0435
 6097TIP3    H118297   5.753   3.623   4.029 -0.7816 -0.0582  1.9727
 6097TIP3    H218298   5.832   3.742   4.078 -1.1311  0.7072  0.7100
 6098TIP3   OH218299   4.373   1.016   0.377 -0.6701  0.6024 -0.3290
 6098TIP3    H118300   4.301   0.953   0.369  0.3978 -0.5816 -1.0725
 6098TIP3    H218301   4.408   1.002   0.464 -0.6905  0.4333 -0.3465
 6099TIP3   OH218302   4.044   1.247   3.296  0.1204  0.0128 -0.1416
 6099TIP3    H118303   4.087   1.321   3.338 -0.3531  1.1212 -1.5449
 6099TIP3    H218304   4.007   1.197   3.369  0.8786  0.8605  0.8660
 6100TIP3   OH218305   1.885   2.896   2.508 -0.0549 -0.3577  0.5443
 6100TIP3    H118306   1.928   2.955   2.447  0.1089  0.8699  1.8020
 6100TIP3    H218307   1.833   2.838   2.452 -0.8351  1.4482 -0.7173
 6101TIP3   OH218308   4.019   3.194   0.136  0.0266  0.4270 -0.5954
 6101TIP3    H118309   3.982   3.134   0.201  0.4875  1.1201  0.3368
 6101TIP3    H218310   4.099   3.228   0.177 -1.5130  3.6806  0.1153
 6102TIP3   OH218311   5.467   5.601   2.355 -0.0287 -0.0816  0.2209
 6102TIP3    H118312   5.562   5.610   2.361 -0.0321  1.5857 -1.4044
 6102TIP3    H218313   5.451   5.557   2.272 -0.6719 -2.3952  1.4711
 6103TIP3   OH218314   6.278   0.656   0.307 -0.1011  0.2044 -0.6706
 6103TIP3    H118315   6.204   0.697   0.352  0.8842  3.3583 -1.6781
 6103TIP3    H218316   6.355   0.688   0.354  0.7552  0.1686 -1.9938
 6104TIP3   OH218317   4.656   1.012   3.047  0.3824 -0.4912  0.2508
 6104TIP3    H118318   4.562   0.991   3.047  0.2943 -0.5658  3.2386
 6104TIP3    H218319   4.660   1.103   3.017 -0.9262  0.1860  1.9682
 6105TIP3   OH218320   4.811   4.257   1.520 -0.4028 -0.2947 -0.4621
 6105TIP3    H118321   4.875   4.225   1.582 -1.7678 -3.1128 -0.3497
 6105TIP3    H218322   4.862   4.299   1.451  1.2365  1.1788  1.5533
 6106TIP3   OH218323   4.346   1.645   2.936 -0.1472  0.4120  0.2635
 6106TIP3    H118324   4.261   1.687   2.920  0.3844  0.9355 -1.3861
 6106TIP3    H218325   4.373   1.680   3.022  0.2749  3.6029 -1.0058
 6107TIP3   OH218326   2.821   5.532   1.798 -0.0207 -0.0735 -0.2559
 6107TIP3    H118327   2.857   5.601   1.742 -1.1238  0.3891 -0.4124
 6107TIP3    H218328   2.784   5.578   1.873  1.2227 -0.6717  0.7648
 6108TIP3   OH218329   5.747   2.624   0.930  0.1425 -0.0125 -0.0924
 6108TIP3    H118330   5.766   2.643   0.838  0.6760  0.2902  0.0743
 6108TIP3    H218331   5.758   2.529   0.938  0.3853  0.0004 -0.2747
 6109TIP3   OH218332   5.003   0.093   5.036 -0.3931 -0.0324  0.2420
 6109TIP3    H118333   5.013   0.031   5.108  1.2408 -1.1515 -0.8782
 6109TIP3    H218334   5.067   0.065   4.971 -0.9349  1.7067 -1.1244
 6110TIP3   OH218335   0.291   3.809   1.904  0.2941 -0.0189  0.4141
 6110TIP3    H118336   0.335   3.876   1.957  0.7411  1.1093 -1.3264
 6110TIP3    H218337   0.349   3.796   1.829 -1.5695  0.3657 -1.1626
 6111TIP3   OH218338   4.789   2.031   4.269 -0.2825  0.3336 -0.1529
 6111TIP3    H118339   4.814   1.939   4.277  0.0600  0.4278 -0.1333
 6111TIP3    H218340   4.727   2.033   4.196  0.7489  0.2821 -1.0522
 6112TIP3   OH218341   2.741   2.124   4.785  0.9282  0.0604  0.0984
 6112TIP3    H118342   2.747   2.138   4.879 -1.0538  1.1325  0.1313
 6112TIP3    H218343   2.651   2.093   4.771  0.9920  0.4988 -1.4873
 6113TIP3   OH218344   0.231   2.001   3.074  0.4017 -0.2040 -0.7870
 6113TIP3    H118345   0.168   1.975   3.141 -1.5529 -1.0039 -2.8054
 6113TIP3    H218346   0.253   2.092   3.095 -0.7367 -0.2059  0.5109
 6114TIP3   OH218347   1.461   4.838   2.392 -0.9442  0.2903 -0.2501
 6114TIP3    H118348   1.531   4.859   2.455  0.1954 -0.2484 -1.2905
 6114TIP3    H218349   1.400   4.911   2.400 -1.1662 -0.0548  1.9087
 6115TIP3   OH218350   1.862   1.993   3.098  0.5864 -0.1648 -0.7575
 6115TIP3    H118351   1.887   1.901   3.093  1.1954 -0.1023  0.6451
 6115TIP3    H218352   1.865   2.013   3.191 -0.9259  0.9126 -0.9125
 6116TIP3   OH218353   2.289   5.762   0.593 -0.4364 -0.0329 -0.1282
 6116TIP3    H118354   2.278   5.677   0.635  2.4629 -0.8658 -0.8477
 6116TIP3    H218355   2.265   5.747   0.501 -0.2832  0.0349 -0.1787
 6117TIP3   OH218356   1.630   5.438   3.189 -0.2959  0.1996  0.2920
 6117TIP3    H118357   1.678   5.365   3.228 -0.1603  0.6298  0.9524
 6117TIP3    H218358   1.570   5.396   3.127  0.9912 -0.3356 -0.6324
 6118TIP3   OH218359   1.443   2.598   1.190 -0.4621  0.4140  0.2295
 6118TIP3    H118360   1.501   2.648   1.132 -1.7202  0.3627 -1.1502
 6118TIP3    H218361   1.491   2.517   1.208 -0.1834  0.2623 -1.0910
 6119TIP3   OH218362   2.828   4.280   1.278  0.1394  0.0650 -0.0365
 6119TIP3    H118363   2.907   4.273   1.225 -0.0558  2.1471 -0.6830
 6119TIP3    H218364   2.778   4.352   1.239 -1.2772 -0.0722  1.3786
 6120TIP3   OH218365   0.117   2.184   3.263  0.4080 -0.8419  0.0480
 6120TIP3    H118366   0.051   2.180   3.193  0.2230 -0.9424  0.2295
 6120TIP3    H218367   0.068   2.170   3.344  0.5221 -0.0468  0.2625
 6121TIP3   OH218368   0.615   4.118   2.193 -0.8635  0.6498 -0.0009
 6121TIP3    H118369   0.625   4.062   2.270  1.2167  1.6740  0.5427
 6121TIP3    H218370   0.543   4.177   2.215 -1.4771 -0.2240  0.3925
 6122TIP3   OH218371   5.817   3.265   1.142 -0.2385 -0.3032 -0.0992
 6122TIP3    H118372   5.877   3.338   1.125  0.3195 -0.4684  1.0699
 6122TIP3    H218373   5.842   3.233   1.229 -2.3157 -0.0851  0.6369
 6123TIP3   OH218374   3.744   1.736   1.624 -0.3188 -0.3900  0.4454
 6123TIP3    H118375   3.763   1.764   1.714  0.9598 -2.9860  1.0723
 6123TIP3    H218376   3.649   1.727   1.621 -0.4295  0.3059  1.3144
 6124TIP3   OH218377   6.210   4.700   4.284  0.0540 -0.6421 -0.0542
 6124TIP3    H118378   6.284   4.680   4.341  0.2932 -0.7714 -0.4127
 6124TIP3    H218379   6.133   4.672   4.334 -0.0892  2.7382  1.8910
 6125TIP3   OH218380   3.498   0.258   0.969 -0.3428 -0.0195  0.7000
 6125TIP3    H118381   3.429   0.228   0.910 -1.3042  0.3451  1.6015
 6125TIP3    H218382   3.576   0.264   0.914 -0.7960 -1.3383 -0.1452
 6126TIP3   OH218383   1.390   2.778   3.448 -0.3527 -0.2080 -0.3598
 6126TIP3    H118384   1.363   2.706   3.392  1.0070 -0.5234 -0.6363
 6126TIP3    H218385   1.355   2.756   3.534  2.4404 -2.7334  0.2795
 6127TIP3   OH218386   3.310   3.036   1.853 -0.8235  0.1660 -0.2030
 6127TIP3    H118387   3.343   2.976   1.786  1.3840  0.6051  0.3865
 6127TIP3    H218388   3.268   3.106   1.804  0.4731  0.3182 -1.1448
 6128TIP3   OH218389   2.497   5.220   0.329  0.0310  0.0700  0.7646
 6128TIP3    H118390   2.407   5.190   0.341  0.5442 -1.8447  0.2269
 6128TIP3    H218391   2.547   5.170   0.394  0.5695  2.1527  2.0476
 6129TIP3   OH218392   2.245   3.299   4.448 -0.4545 -0.2672  0.9705
 6129TIP3    H118393   2.202   3.383   4.463 -0.5012 -0.0181 -0.4442
 6129TIP3    H218394   2.332   3.309   4.487 -0.6879  0.1878  1.3935
 6130TIP3   OH218395   1.549   2.933   2.340  0.7801  0.2555  0.0545
 6130TIP3    H118396   1.589   2.848   2.357 -0.6116 -0.5193 -0.3814
 6130TIP3    H218397   1.507   2.958   2.422 -0.4651 -0.4335 -0.3419
 6131TIP3   OH218398   5.442   5.948   2.205 -0.2388  0.0941  0.0236
 6131TIP3    H118399   5.407   5.867   2.167  2.4902 -2.6591  2.8198
 6131TIP3    H218400   5.376   5.974   2.269  0.1338 -1.7150  1.2037
 6132TIP3   OH218401   2.359   5.296   1.403  0.6969  0.0800 -0.0371
 6132TIP3    H118402   2.359   5.303   1.499 -0.8681 -2.4283  0.2510
 6132TIP3    H218403   2.447   5.265   1.381  1.4013  1.6548  0.4364
 6133TIP3   OH218404   3.551   3.891   2.117  0.4875  0.1758 -0.6123
 6133TIP3    H118405   3.546   3.808   2.163 -0.0679  0.8879  0.6765
 6133TIP3    H218406   3.484   3.946   2.158  0.7753  1.2378 -1.4824
 6134TIP3   OH218407   5.273   3.554   1.756  0.2577  0.2154  0.8424
 6134TIP3    H118408   5.208   3.623   1.746 -0.7217 -0.6997  0.6381
 6134TIP3    H218409   5.251   3.513   1.840  2.0441  1.3551  1.9333
 6135TIP3   OH218410   3.550   4.123   4.403  0.2897 -0.5828 -0.0255
 6135TIP3    H118411   3.560   4.214   4.432 -2.3942 -0.1451 -0.2045
 6135TIP3    H218412   3.600   4.072   4.467  1.7242  0.9628  0.1708
 6136TIP3   OH218413   2.155   3.094   0.634 -1.1166 -0.0881  0.2967
 6136TIP3    H118414   2.203   3.025   0.587 -1.2999  0.0148 -0.0483
 6136TIP3    H218415   2.067   3.091   0.597 -1.2298  0.0766  0.5524
 6137TIP3   OH218416   2.206   4.914   1.831  0.5077 -0.5532  0.2705
 6137TIP3    H118417   2.125   4.863   1.837 -0.7554  0.9498 -2.3947
 6137TIP3    H218418   2.180   4.998   1.793  3.4648 -0.4960 -2.0569
 6138TIP3   OH218419   0.729   3.176   4.602  0.3358  0.2623  0.4278
 6138TIP3    H118420   0.770   3.179   4.689  0.1395  1.4608  0.4972
 6138TIP3    H218421   0.641   3.213   4.615 -0.5583 -1.6598  0.1499
 6139TIP3   OH218422   5.390   0.451   3.236  0.1471  0.1952  0.7276
 6139TIP3    H118423   5.324   0.517   3.256 -1.5939 -0.8871 -1.1075
 6139TIP3    H218424   5.430   0.482   3.154 -1.7732 -1.6847 -1.0209
 6140TIP3   OH218425   1.525   2.926   0.645  0.1556 -0.3461  0.9416
 6140TIP3    H118426   1.570   3.004   0.677 -0.6278 -0.1071  1.5131
 6140TIP3    H218427   1.435   2.956   0.628 -0.7672 -1.5556  3.2236
 6141TIP3   OH218428   3.315   4.249   2.289 -0.0422 -0.1414 -0.7668
 6141TIP3    H118429   3.343   4.331   2.329 -1.1227  0.0202 -0.3114
 6141TIP3    H218430   3.347   4.254   2.199  0.4591  0.4879 -0.5568
 6142TIP3   OH218431   2.604   5.211   1.337  0.0114 -0.1406 -0.1297
 6142TIP3    H118432   2.604   5.186   1.245 -2.3255  1.5884 -0.7019
 6142TIP3    H218433   2.674   5.276   1.344  0.3895 -0.4854 -0.6069
 6143TIP3   OH218434   0.198   0.976   3.902 -0.0717 -0.6173 -0.4999
 6143TIP3    H118435   0.259   0.911   3.868  0.0637 -0.7796  0.0486
 6143TIP3    H218436   0.132   0.985   3.834  1.1034  0.3136 -1.5662
 6144TIP3   OH218437   3.197   5.734   4.447  0.0857 -0.1955  0.2639
 6144TIP3    H118438   3.184   5.765   4.358 -1.3323  0.8493  0.7970
 6144TIP3    H218439   3.284   5.694   4.446  0.5184  0.6977 -1.3273
 6145TIP3   OH218440   3.835   0.117   3.109 -0.6736  1.0722  0.1777
 6145TIP3    H118441   3.889   0.143   3.184  3.4123  0.0307 -2.0993
 6145TIP3    H218442   3.815   0.025   3.125  3.6143 -0.4062 -1.4849
 6146TIP3   OH218443   5.132   2.548   2.763 -0.1402  0.2497 -0.0910
 6146TIP3    H118444   5.205   2.592   2.719  1.1613 -2.3956 -0.7503
 6146TIP3    H218445   5.102   2.612   2.828  2.5492  1.5864 -0.0131
 6147TIP3   OH218446   1.390   4.261   4.114  0.5995 -0.2381 -0.4989
 6147TIP3    H118447   1.438   4.216   4.044  0.8180 -0.2661 -0.3323
 6147TIP3    H218448   1.316   4.203   4.132  0.5695 -0.2558 -0.6722
 6148TIP3   OH218449   4.372   4.850   1.338  0.7195 -0.3115  0.1090
 6148TIP3    H118450   4.430   4.801   1.279  0.8587  0.2374 -0.2235
 6148TIP3    H218451   4.350   4.929   1.288  0.7669  0.1188  0.7651
 6149TIP3   OH218452   4.888   2.210   1.978 -0.3429 -0.4633 -0.3859
 6149TIP3    H118453   4.856   2.223   1.888  0.3620  0.3783 -0.5241
 6149TIP3    H218454   4.968   2.262   1.983 -0.3547 -0.5319  0.7244
 6150TIP3   OH218455   0.132   5.505   3.656 -0.0044 -0.2567  0.3426
 6150TIP3    H118456   0.055   5.559   3.673  0.3062  0.3282 -0.0609
 6150TIP3    H218457   0.173   5.492   3.742  0.7952  1.4989  0.2739
 6151TIP3   OH218458   5.910   4.306   3.531 -1.0022  0.2356  0.4799
 6151TIP3    H118459   5.854   4.258   3.592 -0.7400  1.9171  2.1243
 6151TIP3    H218460   5.953   4.373   3.585  1.3339  0.0688 -1.0361
 6152TIP3   OH218461   1.981   4.591   1.550 -0.2149  0.0108 -0.3395
 6152TIP3    H118462   2.018   4.503   1.541 -0.7584 -0.2860  0.2094
 6152TIP3    H218463   1.928   4.603   1.471  0.2222  0.0294 -0.6332
 6153TIP3   OH218464   5.062   2.876   3.252 -0.3566  0.3277 -0.1388
 6153TIP3    H118465   5.012   2.833   3.321  0.1709 -1.2238 -0.6866
 6153TIP3    H218466   5.140   2.909   3.295 -0.2444 -0.2350  0.0935
 6154TIP3   OH218467   0.669   0.934   0.065  0.3649 -0.4522 -0.0656
 6154TIP3    H118468   0.675   0.864   0.001  0.2506  1.1738 -1.9625
 6154TIP3    H218469   0.717   1.007   0.026  0.6134  0.5003  1.8841
 6155TIP3   OH218470   0.562   4.753   4.444 -0.1883 -0.2559 -0.6482
 6155TIP3    H118471   0.532   4.838   4.412 -0.9592  0.1685  1.0723
 6155TIP3    H218472   0.654   4.748   4.417 -0.7234  0.1373 -2.6513
 6156TIP3   OH218473   1.629   3.644   1.929  0.1035  0.4863  0.0482
 6156TIP3    H118474   1.696   3.683   1.985  0.7787  0.5440 -0.7842
 6156TIP3    H218475   1.611   3.559   1.970 -1.3322  1.5936  1.8325
 6157TIP3   OH218476   1.596   1.915   4.335  0.3590  0.1856 -0.1809
 6157TIP3    H118477   1.581   2.005   4.305 -0.8739 -0.0035 -0.1725
 6157TIP3    H218478   1.554   1.911   4.421  0.1552 -0.4693 -0.3014
 6158TIP3   OH218479   4.606   3.667   3.899 -0.2955  0.1485  0.4506
 6158TIP3    H118480   4.586   3.679   3.806  0.0887  1.1581  0.4831
 6158TIP3    H218481   4.700   3.685   3.906 -0.5547  1.2648  1.2175
 6159TIP3   OH218482   1.426   5.920   4.230  0.2872  0.5254  0.1784
 6159TIP3    H118483   1.509   5.924   4.182  1.1841 -0.0964  1.6028
 6159TIP3    H218484   1.448   5.878   4.313 -1.7515 -1.0635  0.0088
 6160TIP3   OH218485   4.624   4.035   1.790 -0.2436 -0.0582 -0.1196
 6160TIP3    H118486   4.596   4.126   1.787 -1.8343 -0.5065 -0.3293
 6160TIP3    H218487   4.577   3.998   1.864  2.3090 -0.1757  1.5522
 6161TIP3   OH218488   2.257   2.898   4.509 -0.1528  0.0105  0.1772
 6161TIP3    H118489   2.239   2.809   4.541 -1.7606 -0.2237 -1.2023
 6161TIP3    H218490   2.170   2.934   4.490  0.5851  0.9767 -1.5842
 6162TIP3   OH218491   2.673   0.129   1.552 -0.4139  0.0698 -0.0936
 6162TIP3    H118492   2.582   0.115   1.525  0.4796 -0.4303 -3.2708
 6162TIP3    H218493   2.713   0.174   1.477  1.4305  2.4844  2.1600
 6163TIP3   OH218494   5.347   3.842   5.068 -0.2450 -0.0280  0.0439
 6163TIP3    H118495   5.417   3.872   5.010  0.6640  0.7873  1.4870
 6163TIP3    H218496   5.368   3.751   5.086  0.6100  0.2774  0.6526
 6164TIP3   OH218497   1.200   0.852   2.139 -0.6461 -0.6512 -0.2642
 6164TIP3    H118498   1.123   0.858   2.194 -0.1936  1.9596  0.2315
 6164TIP3    H218499   1.179   0.784   2.075 -2.6917 -1.1032  0.8082
 6165TIP3   OH218500   5.468   4.285   2.814  0.2634 -0.7770  0.1711
 6165TIP3    H118501   5.503   4.343   2.747  0.5074  0.3087  1.1943
 6165TIP3    H218502   5.542   4.271   2.874  0.0768 -1.7880  0.1894
 6166TIP3   OH218503   2.658   1.568   3.649 -0.3381  0.0598 -0.6000
 6166TIP3    H118504   2.699   1.496   3.602  2.1528  1.1926 -0.3504
 6166TIP3    H218505   2.582   1.592   3.596  1.0175 -0.2337 -2.7799
 6167TIP3   OH218506   4.562   3.905   2.789 -0.3652  0.4387  0.8947
 6167TIP3    H118507   4.551   3.834   2.852  0.2928  0.9361  1.5929
 6167TIP3    H218508   4.656   3.909   2.773 -0.5424  0.1530 -0.3354
 6168TIP3   OH218509   2.404   4.855   3.532  0.3251 -0.4985 -0.0776
 6168TIP3    H118510   2.359   4.826   3.612 -0.7905 -0.4539 -0.6737
 6168TIP3    H218511   2.459   4.781   3.507  0.4404 -0.6323  0.5583
 6169TIP3   OH218512   4.326   3.088   4.255  0.2344  0.1747  0.0679
 6169TIP3    H118513   4.364   3.175   4.266 -1.9103  1.2524 -0.4706
 6169TIP3    H218514   4.232   3.101   4.268 -0.2116 -1.9693 -0.5550
 6170TIP3   OH218515   2.136   5.150   2.340  0.2130 -0.0021  0.0234
 6170TIP3    H118516   2.122   5.058   2.319 -0.0213 -0.1242  0.6854
 6170TIP3    H218517   2.158   5.150   2.433  0.1026  0.6228  0.0546
 6171TIP3   OH218518   1.677   2.215   1.690 -0.1041  0.2301  0.5235
 6171TIP3    H118519   1.645   2.292   1.737  0.2332  0.1944  0.8131
 6171TIP3    H218520   1.769   2.208   1.714 -0.3152 -0.7164  1.1181
 6172TIP3   OH218521   3.358   2.008   1.803  0.1672  0.1914  0.4335
 6172TIP3    H118522   3.323   2.085   1.848 -0.1930  0.7899 -0.8375
 6172TIP3    H218523   3.284   1.975   1.752  0.9087  0.3127 -0.7444
 6173TIP3   OH218524   2.083   5.687   3.526  0.9947  0.6470  0.3301
 6173TIP3    H118525   2.018   5.752   3.496 -0.3626 -0.5318  0.6130
 6173TIP3    H218526   2.098   5.632   3.449 -1.6157 -1.6693  1.2901
 6174TIP3   OH218527   6.124   3.683   3.987  0.3787 -0.6863 -0.0136
 6174TIP3    H118528   6.090   3.662   3.900 -0.9198 -1.6657  0.6840
 6174TIP3    H218529   6.208   3.639   3.992  0.1992 -1.1030 -0.5697
 6175TIP3   OH218530   2.179   0.055   2.433 -0.2952 -0.1154  0.2184
 6175TIP3    H118531   2.248   0.046   2.367 -0.9340 -1.8034 -0.2533
 6175TIP3    H218532   2.110  -0.004   2.404 -0.8117 -0.5114  2.1494
 6176TIP3   OH218533   3.321   3.741   5.023 -0.7314  0.1922 -0.3042
 6176TIP3    H118534   3.233   3.765   4.996 -0.0340  2.3327 -0.8996
 6176TIP3    H218535   3.360   3.700   4.945 -0.9015  0.0437 -0.3127
 6177TIP3   OH218536   2.184   1.741   0.760 -0.0653  0.5782 -0.3469
 6177TIP3    H118537   2.172   1.797   0.837  0.3119 -0.0679  0.1941
 6177TIP3    H218538   2.233   1.796   0.699  2.0180  0.2512  0.9236
 6178TIP3   OH218539   2.320   0.923   2.325  0.0731  0.2581  0.5355
 6178TIP3    H118540   2.319   0.830   2.301 -2.2673  0.1807  0.7068
 6178TIP3    H218541   2.359   0.924   2.412  1.7204 -0.3390 -0.1658
 6179TIP3   OH218542   2.457   3.015   2.991  0.3437 -0.0651  0.2652
 6179TIP3    H118543   2.506   3.084   2.946  1.0441 -1.7043 -1.6570
 6179TIP3    H218544   2.365   3.033   2.969  0.1819  1.7830  2.1112
 6180TIP3   OH218545   6.154   0.354   4.905  0.4563 -0.3514 -0.4573
 6180TIP3    H118546   6.162   0.396   4.991  0.6664 -1.5252  0.1248
 6180TIP3    H218547   6.090   0.406   4.858  1.0862  0.9025  0.0390
 6181TIP3   OH218548   2.349   0.186   0.968 -0.2055  0.1855  0.2915
 6181TIP3    H118549   2.308   0.202   1.053  1.5229  0.7899  1.0751
 6181TIP3    H218550   2.376   0.094   0.971 -1.8795 -0.3529 -0.4253
 6182TIP3   OH218551   1.390   5.106   4.859 -0.0469 -0.3320 -0.3803
 6182TIP3    H118552   1.434   5.030   4.821 -1.1767 -1.2081  0.0087
 6182TIP3    H218553   1.377   5.082   4.951 -2.6310 -0.7734 -0.7790
 6183TIP3   OH218554   1.057   4.500   3.842 -0.2696 -0.5445  0.3508
 6183TIP3    H118555   1.053   4.550   3.924 -1.4230 -0.4975  0.2755
 6183TIP3    H218556   1.142   4.523   3.805 -0.6115  1.0952  0.4981
 6184TIP3   OH218557   5.362   4.433   3.047 -0.0432  0.3313  0.6438
 6184TIP3    H118558   5.438   4.386   3.084 -0.4893  0.6635  2.0628
 6184TIP3    H218559   5.336   4.380   2.972  0.6257 -0.6651  1.0846
 6185TIP3   OH218560   0.159   2.883   2.977  0.0549 -0.0398  0.3866
 6185TIP3    H118561   0.101   2.819   3.017  0.3511  0.1515  1.1459
 6185TIP3    H218562   0.221   2.905   3.046  1.7425 -1.0670 -0.7291
 6186TIP3   OH218563   1.458   2.071   5.140  1.0782  0.0099  0.4818
 6186TIP3    H118564   1.384   2.129   5.156  0.3593 -0.3562 -1.2265
 6186TIP3    H218565   1.525   2.099   5.203 -0.7900 -0.2744  2.7164
 6187TIP3   OH218566   4.605   3.789   0.872 -0.0409  0.1385 -0.6187
 6187TIP3    H118567   4.552   3.865   0.899  0.2195  0.0329  0.2214
 6187TIP3    H218568   4.558   3.754   0.797 -2.0641 -0.8507  0.9877
 6188TIP3   OH218569   4.791   5.230   2.327  0.0407 -0.0573  0.2332
 6188TIP3    H118570   4.721   5.198   2.383  0.8601 -1.8992  0.2906
 6188TIP3    H218571   4.754   5.308   2.284 -2.2667 -1.3108 -0.2320
 6189TIP3   OH218572   0.507   0.970   4.485  0.8118 -0.5479  0.5718
 6189TIP3    H118573   0.535   1.054   4.450 -0.4180 -0.0501  0.7405
 6189TIP3    H218574   0.572   0.908   4.453  1.0605  0.2753 -0.5846
 6190TIP3   OH218575   1.840   2.249   2.936 -0.0951 -0.4880 -0.3075
 6190TIP3    H118576   1.768   2.301   2.971 -1.2546 -0.6089 -2.3229
 6190TIP3    H218577   1.820   2.159   2.961 -0.5829 -0.5012 -0.7331
 6191TIP3   OH218578   4.037   3.444   0.328 -0.1730 -0.2226 -0.0131
 6191TIP3    H118579   4.113   3.489   0.292  1.2873 -2.0637  0.6437
 6191TIP3    H218580   4.010   3.383   0.259 -0.0900 -0.6568  0.3349
 6192TIP3   OH218581   3.661   3.584   5.032 -0.2862  0.0607  0.4053
 6192TIP3    H118582   3.737   3.527   5.026 -1.1212 -1.1554  0.9810
 6192TIP3    H218583   3.651   3.600   5.126  0.5589  2.0668  0.2059
 6193TIP3   OH218584   0.225   0.243   4.051  0.2912  0.1805 -0.0742
 6193TIP3    H118585   0.133   0.270   4.042  0.7913  1.4362 -1.9154
 6193TIP3    H218586   0.229   0.157   4.009  0.4604  1.3654 -2.6655
 6194TIP3   OH218587   0.322   3.615   2.507 -0.5192  0.7069 -0.2719
 6194TIP3    H118588   0.229   3.639   2.511 -0.4744  2.2069 -4.0416
 6194TIP3    H218589   0.331   3.570   2.423  2.0008 -0.4469  0.5302
 6195TIP3   OH218590   3.407   1.207   3.928 -0.2893  0.2999  0.7343
 6195TIP3    H118591   3.422   1.172   4.015  2.1396  0.5074  0.4710
 6195TIP3    H218592   3.445   1.142   3.869  2.0039  2.0657  0.1170
 6196TIP3   OH218593   3.053   5.459   1.167 -0.0833  0.3686 -0.4428
 6196TIP3    H118594   3.102   5.521   1.114 -1.4168  2.8246  1.0033
 6196TIP3    H218595   3.090   5.373   1.145  1.6291  1.6047 -2.7760
 6197TIP3   OH218596   4.868   3.975   0.736  0.1512  0.1310 -0.1840
 6197TIP3    H118597   4.853   3.881   0.735  0.1852  0.1254 -0.1626
 6197TIP3    H218598   4.874   3.998   0.828  1.6336 -0.0876 -0.2062
 6198TIP3   OH218599   5.353   4.490   4.373 -0.2948  0.2003 -0.1804
 6198TIP3    H118600   5.395   4.540   4.303  1.7574 -0.0161  0.8178
 6198TIP3    H218601   5.419   4.425   4.399 -0.3002  1.2770  2.9767
 6199TIP3   OH218602   1.921   0.952   2.727  0.1643 -0.2465 -0.2192
 6199TIP3    H118603   1.834   0.940   2.765  0.7448 -2.4211  0.5761
 6199TIP3    H218604   1.905   0.972   2.635 -1.1624 -0.5638 -0.0685
 6200TIP3   OH218605   1.493   1.588   1.658 -0.2612 -0.0128  0.2898
 6200TIP3    H118606   1.512   1.528   1.730 -2.8513 -0.3392  0.7896
 6200TIP3    H218607   1.508   1.536   1.579 -0.6516 -0.7355  0.6803
 6201TIP3   OH218608   6.324   3.003   4.494  0.4748 -0.1262 -0.2284
 6201TIP3    H118609   6.317   2.916   4.455 -0.0657 -0.4301  0.5134
 6201TIP3    H218610   6.365   3.057   4.426  0.4566 -0.8632 -0.8390
 6202TIP3   OH218611   1.150   5.319  -0.005 -0.7723 -0.1398  0.2387
 6202TIP3    H118612   1.233   5.323   0.041 -1.4150  1.6779  1.3747
 6202TIP3    H218613   1.084   5.320   0.065 -1.7493  0.9392 -0.6512
 6203TIP3   OH218614   4.320   3.277   2.803 -0.1199 -0.4342 -0.9385
 6203TIP3    H118615   4.300   3.370   2.794 -1.4132 -0.5756  0.2134
 6203TIP3    H218616   4.276   3.236   2.728 -1.7482 -0.3862 -0.0508
 6204TIP3   OH218617   5.987   1.255   4.281 -0.2586  0.1488  0.0823
 6204TIP3    H118618   5.978   1.321   4.350  0.7725  0.9926 -0.5586
 6204TIP3    H218619   6.065   1.205   4.306 -0.0199  0.3036 -0.3389
 6205TIP3   OH218620   5.077   4.023   0.280  0.7661  0.3784  0.5737
 6205TIP3    H118621   5.108   3.933   0.271 -2.7309 -0.8355 -1.0792
 6205TIP3    H218622   5.084   4.060   0.192 -0.0675  0.8881  0.7112
 6206TIP3   OH218623   0.389   3.992   2.066 -0.4087 -0.0117 -0.0282
 6206TIP3    H118624   0.456   4.055   2.092  2.1214 -2.1175 -1.0253
 6206TIP3    H218625   0.328   3.990   2.140  0.3667  2.2350  0.7673
 6207TIP3   OH218626   0.201   0.244   1.667 -0.5774  0.1741 -0.6208
 6207TIP3    H118627   0.135   0.297   1.710  0.0048  0.4218 -0.0079
 6207TIP3    H218628   0.267   0.228   1.734  0.1442  0.2031 -1.3016
 6208TIP3   OH218629   1.893   1.515   4.107 -0.2136  0.2184  0.1915
 6208TIP3    H118630   1.806   1.521   4.148 -0.0578  1.6235  0.3510
 6208TIP3    H218631   1.897   1.425   4.074 -1.1917 -0.2955  1.3643
 6209TIP3   OH218632   0.062   1.733   0.480  0.2994  0.1956 -0.3526
 6209TIP3    H118633   0.057   1.713   0.573  1.2007  0.6670 -0.1917
 6209TIP3    H218634   0.136   1.793   0.472  0.6677 -0.3777 -1.4626
 6210TIP3   OH218635   2.954   2.915   1.377 -0.2267 -0.1316 -0.2278
 6210TIP3    H118636   2.864   2.946   1.388 -0.2292 -0.1453 -0.2113
 6210TIP3    H218637   2.997   2.986   1.330 -0.0199  0.2480  0.5248
 6211TIP3   OH218638   2.165   4.042   1.466 -0.2839 -0.6518 -0.3551
 6211TIP3    H118639   2.255   4.009   1.463 -0.6326 -1.6919  0.1271
 6211TIP3    H218640   2.142   4.039   1.559 -0.5554  0.3782 -0.3769
 6212TIP3   OH218641   4.850   3.057   1.285 -0.0433 -0.0868 -0.3797
 6212TIP3    H118642   4.911   3.028   1.217  2.2207 -1.8659  2.1727
 6212TIP3    H218643   4.902   3.117   1.339 -1.1637 -0.1433  0.7966
 6213TIP3   OH218644   4.070   2.148   4.758  0.1938 -1.0058  0.2622
 6213TIP3    H118645   4.043   2.207   4.687 -0.3285 -2.2526 -0.6254
 6213TIP3    H218646   4.112   2.204   4.822 -4.5942  1.2948  1.8921
 6214TIP3   OH218647   2.597   4.891   3.139 -0.1605 -0.5312 -0.2489
 6214TIP3    H118648   2.578   4.834   3.213  0.0031 -0.8242 -0.4274
 6214TIP3    H218649   2.526   4.956   3.139  1.1524  0.9993  1.6347
 6215TIP3   OH218650   1.387   4.588   0.978  0.1958 -0.0390  0.4347
 6215TIP3    H118651   1.368   4.606   0.886  0.4603 -1.7963  0.0109
 6215TIP3    H218652   1.307   4.549   1.012  0.1316  0.5176  0.9349
 6216TIP3   OH218653   2.325   4.843   4.969  0.5366  0.1312 -0.1989
 6216TIP3    H118654   2.417   4.826   4.991  0.9427 -0.1400 -1.9682
 6216TIP3    H218655   2.327   4.920   4.912 -0.4423  0.6864  0.4808
 6217TIP3   OH218656   0.393   0.417   2.349 -0.2870  0.0839  0.7436
 6217TIP3    H118657   0.482   0.448   2.368 -0.7247  1.2665  0.9344
 6217TIP3    H218658   0.342   0.444   2.425 -1.1426  0.8918 -0.0950
 6218TIP3   OH218659   2.109   4.983   5.058 -0.2327 -0.1915 -0.2768
 6218TIP3    H118660   2.154   4.904   5.028  0.5330  0.0449  0.2182
 6218TIP3    H218661   2.065   4.957   5.139  1.4794  0.3034  0.8645
 6219TIP3   OH218662   1.416   0.074   2.849  0.3708 -0.7397 -0.3319
 6219TIP3    H118663   1.327   0.051   2.874  0.4442 -0.3171  0.3592
 6219TIP3    H218664   1.472   0.017   2.902  0.5134 -0.5869 -0.3137
 6220TIP3   OH218665   3.176   1.915   5.102 -0.6635 -0.4434 -0.0578
 6220TIP3    H118666   3.117   1.939   5.174  1.4086  0.9152  1.2989
 6220TIP3    H218667   3.136   1.953   5.024 -0.7235  2.0779  1.0994
 6221TIP3   OH218668   2.444   2.289   0.321 -0.4024 -0.0041  0.2434
 6221TIP3    H118669   2.493   2.245   0.390 -0.2343 -0.6748 -0.2927
 6221TIP3    H218670   2.484   2.259   0.240  0.4366  2.0085 -0.1347
 6222TIP3   OH218671   5.951   4.757   0.426  0.1874 -0.4012 -0.1074
 6222TIP3    H118672   5.922   4.755   0.517 -0.8190 -2.2500 -0.4217
 6222TIP3    H218673   6.046   4.744   0.430  0.1457 -0.4922  0.6768
 6223TIP3   OH218674   2.178   4.815   0.149 -0.3954  0.3419  0.0733
 6223TIP3    H118675   2.175   4.722   0.127 -1.7374  0.6039 -0.9715
 6223TIP3    H218676   2.265   4.844   0.121  0.1051 -0.6331  0.5963
 6224TIP3   OH218677   1.642   1.361   4.376  0.1171 -0.0068 -0.1295
 6224TIP3    H118678   1.618   1.453   4.379 -1.8647 -0.4088 -1.5809
 6224TIP3    H218679   1.731   1.358   4.411 -0.2490  2.2573  1.1610
 6225TIP3   OH218680   4.723   4.675   2.449  0.7197  0.1761 -0.4536
 6225TIP3    H118681   4.630   4.690   2.466  1.0819  0.8119  1.1174
 6225TIP3    H218682   4.745   4.735   2.378  0.0898  0.4732 -0.4028
 6226TIP3   OH218683   0.662   4.972   4.286 -0.0791 -0.3296 -0.2146
 6226TIP3    H118684   0.581   5.019   4.269 -1.0664 -2.5881 -2.4989
 6226TIP3    H218685   0.726   5.041   4.304 -2.0541  1.6405 -0.2288
 6227TIP3   OH218686   1.780   0.989   3.863  0.5701  0.0003  0.1178
 6227TIP3    H118687   1.690   0.966   3.887  0.0707  1.5594 -0.1391
 6227TIP3    H218688   1.790   0.955   3.774  1.0955 -2.3142  0.9930
 6228TIP3   OH218689   5.007   1.114   0.672 -0.6676  0.0290  0.5074
 6228TIP3    H118690   4.995   1.099   0.766 -1.9621 -1.2826  0.1711
 6228TIP3    H218691   4.929   1.076   0.632 -0.8189  1.8104 -1.0125
 6229TIP3   OH218692   5.110   3.636   3.423 -0.0081 -0.3716 -0.2204
 6229TIP3    H118693   5.023   3.605   3.447 -0.4135 -1.5126 -2.8553
 6229TIP3    H218694   5.168   3.600   3.490 -1.5631  1.0534  2.0347
 6230TIP3   OH218695   2.160   3.027   3.013  0.1518 -0.1487  0.1856
 6230TIP3    H118696   2.085   3.083   2.991 -1.2052 -1.2244  1.8104
 6230TIP3    H218697   2.155   2.955   2.949  1.3719  1.0554 -1.3366
 6231TIP3   OH218698   2.853   1.966   2.215  0.4058 -0.3290  0.0106
 6231TIP3    H118699   2.780   1.976   2.155  0.7999  1.3143 -0.2470
 6231TIP3    H218700   2.814   1.934   2.296 -0.6278  0.6638 -0.0799
 6232TIP3   OH218701   3.921   5.695   0.954 -0.0955 -0.1120 -0.1139
 6232TIP3    H118702   3.896   5.613   0.997  1.3612 -0.3808  0.2688
 6232TIP3    H218703   3.963   5.669   0.873 -1.6392  0.3609 -1.1077
 6233TIP3   OH218704   2.149   1.501   4.705 -0.0065  0.2059 -0.2799
 6233TIP3    H118705   2.133   1.430   4.643  0.5186  0.0810 -0.2724
 6233TIP3    H218706   2.165   1.457   4.788 -1.1122  0.3843  0.0477
 6234TIP3   OH218707   0.365   3.584   3.112  0.1770 -0.6306 -0.5365
 6234TIP3    H118708   0.400   3.496   3.099  1.3316 -0.2214 -0.3993
 6234TIP3    H218709   0.330   3.583   3.201  0.3006 -0.9191 -0.4887
 6235TIP3   OH218710   3.105   3.674   0.714 -0.3272 -0.2841 -0.2791
 6235TIP3    H118711   3.176   3.621   0.678  1.4189  1.8770 -0.2335
 6235TIP3    H218712   3.142   3.762   0.722 -2.2823  0.4433  1.9928
 6236TIP3   OH218713   2.337   2.138   4.321  0.7135 -0.1922  0.7028
 6236TIP3    H118714   2.253   2.157   4.362  0.6075 -1.5494  1.1523
 6236TIP3    H218715   2.364   2.222   4.282 -0.6453  0.3535  0.8839
 6237TIP3   OH218716   1.852   5.779   4.236 -0.1987 -0.2499 -0.3893
 6237TIP3    H118717   1.893   5.737   4.160 -0.6614 -0.8011 -0.3448
 6237TIP3    H218718   1.821   5.706   4.289  0.4887  0.1151  0.5488
 6238TIP3   OH218719   1.375   3.415   0.710 -0.5043  0.3153  0.0228
 6238TIP3    H118720   1.301   3.358   0.690 -1.6353  0.9998  1.8889
 6238TIP3    H218721   1.419   3.372   0.784 -2.1944  2.3489  2.4080
 6239TIP3   OH218722   5.421   0.240   2.041  0.1262 -0.1187 -0.3509
 6239TIP3    H118723   5.344   0.214   1.990  0.3198 -0.9365 -0.2343
 6239TIP3    H218724   5.405   0.206   2.128  0.9916 -1.0303 -0.5281
 6240TIP3   OH218725   3.112   2.794   0.715 -1.2139  0.4469  0.1003
 6240TIP3    H118726   3.033   2.807   0.768  0.0179  0.8122  1.9606
 6240TIP3    H218727   3.139   2.882   0.690  0.2248  0.6569  2.0911
 6241TIP3   OH218728   2.960   3.885   4.375  0.3269  0.1170 -0.1396
 6241TIP3    H118729   2.919   3.860   4.458  1.1662  0.2119  0.3169
 6241TIP3    H218730   2.912   3.962   4.346 -0.7586 -0.6173 -0.3671
 6242TIP3   OH218731   3.257   2.991   3.635 -0.9109 -0.5628  0.5800
 6242TIP3    H118732   3.198   3.031   3.571  0.9159  0.2996 -0.6449
 6242TIP3    H218733   3.213   3.003   3.719 -1.7040  1.5737 -0.0857
 6243TIP3   OH218734   3.381   5.628   2.535  0.0485 -0.1018 -0.9162
 6243TIP3    H118735   3.342   5.548   2.500 -0.2994 -0.9492  1.2806
 6243TIP3    H218736   3.475   5.612   2.531 -0.0278 -0.7578 -0.2094
 6244TIP3   OH218737   3.677   2.485   3.330 -0.6384  0.4595  0.4894
 6244TIP3    H118738   3.595   2.534   3.330 -0.5334  0.6543 -0.3246
 6244TIP3    H218739   3.693   2.465   3.238 -1.1807 -2.0111  0.8613
 6245TIP3   OH218740   3.244   1.668   2.873  0.1676  0.4667 -0.2809
 6245TIP3    H118741   3.270   1.758   2.855 -0.3451  0.3466 -1.8398
 6245TIP3    H218742   3.175   1.650   2.808 -0.1364 -0.8543  0.3747
 6246TIP3   OH218743   5.773   2.595   4.919 -0.3935 -0.1026  0.3726
 6246TIP3    H118744   5.789   2.501   4.927  0.6955  0.0326 -0.1111
 6246TIP3    H218745   5.834   2.635   4.981  0.3620  0.3584 -0.6324
 6247TIP3   OH218746   4.070   4.783   2.203 -0.2342 -0.0793 -0.2144
 6247TIP3    H118747   4.011   4.724   2.250 -0.6836  0.7396  0.2644
 6247TIP3    H218748   4.073   4.862   2.257  0.2358  0.3973 -0.9260
 6248TIP3   OH218749   0.121   5.033   2.026  0.0938  0.2842  0.5152
 6248TIP3    H118750   0.034   5.002   2.052  0.0807 -0.7357 -0.6584
 6248TIP3    H218751   0.180   4.963   2.052  0.2475 -0.1290 -0.8390
 6249TIP3   OH218752   3.846   3.997   2.198 -0.5528 -0.0300 -0.6976
 6249TIP3    H118753   3.813   3.966   2.114 -0.8521  1.1503 -1.0352
 6249TIP3    H218754   3.794   4.076   2.217 -0.5921 -0.3558  0.6595
 6250TIP3   OH218755   0.356   5.874   4.207 -0.0271  0.3914  0.1500
 6250TIP3    H118756   0.338   5.786   4.241 -0.2774  0.6724  0.7589
 6250TIP3    H218757   0.326   5.871   4.116  0.4999 -0.3246 -0.0091
 6251TIP3   OH218758   1.585   2.847   3.886  0.1087  0.5412 -0.2150
 6251TIP3    H118759   1.561   2.938   3.874  3.1876  1.5243  0.1163
 6251TIP3    H218760   1.537   2.800   3.818 -1.7517  2.3310 -0.2115
 6252TIP3   OH218761   2.074   4.324   1.502  0.8317  0.1121  0.1978
 6252TIP3    H118762   2.086   4.230   1.491  0.2045 -0.1563  1.5462
 6252TIP3    H218763   2.145   4.350   1.561  0.6267  0.3631  0.3341
 6253TIP3   OH218764   0.047   0.297   1.913 -1.1918 -0.3116  0.1923
 6253TIP3    H118765   0.007   0.384   1.906  0.0762  0.2935  0.1424
 6253TIP3    H218766   0.046   0.278   2.007 -1.8006 -0.4086  0.1689
 6254TIP3   OH218767   4.479   5.321   0.294 -0.1123  0.5478  0.6428
 6254TIP3    H118768   4.506   5.244   0.242  0.6188  1.9622 -1.1876
 6254TIP3    H218769   4.389   5.338   0.266  0.0864  0.9679  0.2415
 6255TIP3   OH218770   4.728   2.513   2.730  0.1544 -0.4924 -0.5089
 6255TIP3    H118771   4.735   2.595   2.681 -1.4815  0.2603  0.4230
 6255TIP3    H218772   4.711   2.541   2.820 -3.0180 -1.7931 -0.5893
 6256TIP3   OH218773   4.099   0.893   1.777  0.0670 -0.1124  0.0048
 6256TIP3    H118774   4.103   0.928   1.866 -0.8772 -0.9892  0.4116
 6256TIP3    H218775   4.013   0.850   1.771  1.2629 -2.6666 -0.3081
 6257TIP3   OH218776   1.030   3.929   2.540  0.1425 -0.5592 -0.4462
 6257TIP3    H118777   1.111   3.968   2.508 -0.3629  0.2204 -0.8016
 6257TIP3    H218778   0.985   3.899   2.461 -0.1702 -0.4918 -0.2953
 6258TIP3   OH218779   1.120   5.006   0.784 -0.5376  0.0013  0.4285
 6258TIP3    H118780   1.086   4.972   0.701  2.2508 -2.5030  0.1355
 6258TIP3    H218781   1.215   5.009   0.771 -0.2300  2.8494  2.4379
 6259TIP3   OH218782   2.971   3.398   3.034 -0.6106  0.6738  0.4296
 6259TIP3    H118783   2.908   3.444   3.089 -2.0068 -0.8478  0.1990
 6259TIP3    H218784   2.930   3.312   3.019  0.7165  0.2917 -1.2149
 6260TIP3   OH218785   4.271   4.778   0.929  0.1180 -0.1943  0.1583
 6260TIP3    H118786   4.249   4.709   0.992 -1.1643  0.6469  0.6826
 6260TIP3    H218787   4.266   4.736   0.844  0.8841 -1.1110  0.5425
 6261TIP3   OH218788   0.686   0.111   3.514  0.5031 -0.2254 -0.4333
 6261TIP3    H118789   0.745   0.061   3.457  0.7848  1.2627 -1.4917
 6261TIP3    H218790   0.601   0.104   3.472  1.0256  2.3194 -2.1052
 6262TIP3   OH218791   0.192   2.745   2.427 -0.3587  0.4923  0.5114
 6262TIP3    H118792   0.143   2.765   2.347 -1.3473 -1.3288  0.6068
 6262TIP3    H218793   0.191   2.827   2.477  0.8108  1.8605 -1.5576
 6263TIP3   OH218794   4.198   0.176   2.040  0.2353 -0.0802  0.7226
 6263TIP3    H118795   4.193   0.118   2.116  0.1566 -3.3408 -1.5557
 6263TIP3    H218796   4.289   0.207   2.040  0.6022 -1.0904  1.4614
 6264TIP3   OH218797   2.980   1.742   2.149  0.2980  0.3506 -0.2890
 6264TIP3    H118798   2.971   1.705   2.237  0.4715  1.1556  0.0707
 6264TIP3    H218799   2.931   1.824   2.152 -0.7406 -0.1912 -1.3124
 6265TIP3   OH218800   3.854   3.610   0.085 -0.1394 -0.0025 -0.0451
 6265TIP3    H118801   3.768   3.646   0.107  0.5171  1.0761  0.8957
 6265TIP3    H218802   3.887   3.668   0.017  0.1568  0.0416  0.1369
 6266TIP3   OH218803   3.863   4.623   0.676  0.0442  0.8140  0.5708
 6266TIP3    H118804   3.912   4.653   0.599 -0.5287  1.3338  0.3987
 6266TIP3    H218805   3.927   4.576   0.729  0.7595  1.6297  0.4335
 6267TIP3   OH218806   4.771   3.990   3.695  0.0054  0.2660  0.0482
 6267TIP3    H118807   4.703   4.055   3.675  1.5176  1.6110 -0.8586
 6267TIP3    H218808   4.739   3.909   3.654 -0.8675  0.9614 -0.6957
 6268TIP3   OH218809   6.179   5.303  -0.001 -0.0402  0.2381 -0.0143
 6268TIP3    H118810   6.210   5.243   0.066 -0.7948 -0.5193 -0.3205
 6268TIP3    H218811   6.252   5.311  -0.062 -0.2656 -1.1866 -0.5116
 6269TIP3   OH218812   5.740   2.969   1.068  0.0964 -0.2720  0.5706
 6269TIP3    H118813   5.744   3.047   1.012  1.3119  0.6752  1.8917
 6269TIP3    H218814   5.826   2.929   1.061 -0.7178 -1.9499 -0.6247
 6270TIP3   OH218815   0.828   0.538   2.010 -0.4808  0.1885 -0.2814
 6270TIP3    H118816   0.858   0.451   1.984  1.1603 -0.0825  2.1383
 6270TIP3    H218817   0.732   0.533   2.004 -0.4218 -1.7118 -0.3964
 6271TIP3   OH218818   4.949   2.188   3.164  0.5689 -0.1141  0.9545
 6271TIP3    H118819   4.877   2.233   3.206  1.9372  2.0063  1.1771
 6271TIP3    H218820   5.012   2.171   3.234 -0.0728 -2.9237  0.9846
 6272TIP3   OH218821   2.598   5.271   4.115  0.4583 -0.2866  0.0186
 6272TIP3    H118822   2.671   5.329   4.139 -0.1435 -0.0712  1.4149
 6272TIP3    H218823   2.530   5.330   4.082  0.7168 -0.4435 -0.8214
 6273TIP3   OH218824   2.439   2.936   1.004  0.0368  0.3509  0.1142
 6273TIP3    H118825   2.474   2.876   0.937 -0.0548 -0.4766  0.7865
 6273TIP3    H218826   2.440   3.022   0.962  3.3948  0.5065  0.2195
 6274TIP3   OH218827   0.816   4.099   3.992 -0.3223  0.5040 -0.1032
 6274TIP3    H118828   0.759   4.052   3.931 -1.8967  0.4485  1.3428
 6274TIP3    H218829   0.893   4.121   3.940 -1.1523 -0.4235 -1.8243
 6275TIP3   OH218830   0.323   0.787   2.132 -0.2642 -0.1548  0.9172
 6275TIP3    H118831   0.250   0.846   2.117  1.6009  2.1239  0.2430
 6275TIP3    H218832   0.340   0.794   2.226 -0.2493  0.1283  0.8936
 6276TIP3   OH218833   5.722   0.490   3.351  0.6030  0.7866 -0.2043
 6276TIP3    H118834   5.641   0.490   3.402  0.5939  2.0398 -0.1764
 6276TIP3    H218835   5.730   0.580   3.319  0.9735  0.2119 -1.8396
 6277TIP3   OH218836   2.453   4.578   1.412  0.2797  0.0951  0.0355
 6277TIP3    H118837   2.430   4.576   1.505 -1.0040 -2.8458 -0.2543
 6277TIP3    H218838   2.375   4.613   1.369  0.4642  0.4017 -0.0569
 6278TIP3   OH218839   0.460   4.228   4.837 -0.5462  0.1796  0.1020
 6278TIP3    H118840   0.536   4.286   4.832 -1.3469  1.3663  1.2143
 6278TIP3    H218841   0.452   4.205   4.929 -0.8612 -0.8869 -0.1731
 6279TIP3   OH218842   5.961   4.752   0.944 -0.0104  0.7684 -0.0668
 6279TIP3    H118843   5.905   4.721   0.873 -0.6378  0.1179  0.7029
 6279TIP3    H218844   5.901   4.799   1.003  0.6767  2.2401 -0.4808
 6280TIP3   OH218845   6.319   1.908   0.954 -0.0985  0.2693  0.2276
 6280TIP3    H118846   6.239   1.961   0.953  0.4162  1.0595 -0.9047
 6280TIP3    H218847   6.381   1.958   1.008 -0.0554  0.1381  0.2991
 6281TIP3   OH218848   4.651   5.251  -0.003  0.1160 -0.4604 -0.3508
 6281TIP3    H118849   4.700   5.183  -0.049  0.8974 -0.5683  0.5990
 6281TIP3    H218850   4.639   5.216   0.086 -0.2443  0.2672 -0.1039
 6282TIP3   OH218851   5.641   0.087   5.155 -0.2918  0.6793  0.3373
 6282TIP3    H118852   5.591   0.024   5.104  1.1427  0.8235 -1.3055
 6282TIP3    H218853   5.731   0.078   5.125  0.3971  1.6927  1.9363
 6283TIP3   OH218854   0.327   2.470   3.471  0.0628 -0.3855 -0.0945
 6283TIP3    H118855   0.320   2.397   3.533  1.1825  0.5723  1.2315
 6283TIP3    H218856   0.312   2.548   3.525 -0.2020  0.4223 -1.2989
 6284TIP3   OH218857   5.406   2.520   1.179 -0.3245  0.2634  0.1252
 6284TIP3    H118858   5.485   2.568   1.154 -1.6663  1.5444 -2.0886
 6284TIP3    H218859   5.339   2.553   1.118 -2.2914 -1.5684  1.1823
 6285TIP3   OH218860   0.546   1.773   2.573  0.8458  0.2139  0.5325
 6285TIP3    H118861   0.540   1.806   2.663 -1.8105 -0.4062  0.6694
 6285TIP3    H218862   0.589   1.688   2.581 -0.5311 -0.4317  1.4350
 6286TIP3   OH218863   2.452   5.502   2.990  0.6088 -0.1852 -0.2615
 6286TIP3    H118864   2.544   5.477   3.006  1.2191 -0.2923 -3.4087
 6286TIP3    H218865   2.403   5.421   3.007  1.2246 -0.4709  0.2366
 6287TIP3   OH218866   4.418   3.715   1.304  0.7657 -0.4815 -0.1856
 6287TIP3    H118867   4.351   3.774   1.269 -0.3352 -1.7269 -0.2288
 6287TIP3    H218868   4.473   3.694   1.228  2.2494  1.8037  0.1540
 6288TIP3   OH218869   1.984   1.249   3.692  0.2110 -0.4920 -0.3703
 6288TIP3    H118870   2.049   1.241   3.622  0.1004  1.5288 -0.7732
 6288TIP3    H218871   1.900   1.247   3.646  0.1641  2.3780 -0.5728
 6289TIP3   OH218872   5.190   1.951   0.234 -0.2608  0.0383  0.1303
 6289TIP3    H118873   5.121   1.981   0.293 -1.0479 -2.1357  0.3771
 6289TIP3    H218874   5.247   1.897   0.289 -0.3050 -1.0058 -0.8211
 6290TIP3   OH218875   1.084   4.167   0.426  0.1018  0.1179  0.0420
 6290TIP3    H118876   1.068   4.087   0.375  0.2468  0.3526 -0.3731
 6290TIP3    H218877   1.006   4.221   0.411  1.2143  1.2779 -2.0107
 6291TIP3   OH218878   2.731   0.830   4.820  0.2352  0.0790  0.5427
 6291TIP3    H118879   2.660   0.826   4.884 -1.3919 -0.1000 -1.2009
 6291TIP3    H218880   2.743   0.739   4.792 -0.9847  0.4487 -1.3576
 6292TIP3   OH218881   2.319   5.490   1.829 -0.2819 -0.2974  0.2039
 6292TIP3    H118882   2.347   5.408   1.790  1.2955  0.2878  0.0428
 6292TIP3    H218883   2.244   5.518   1.775 -1.4555 -2.0625  0.8540
 6293TIP3   OH218884   3.669   5.730   2.283 -0.0297 -0.5924  0.2822
 6293TIP3    H118885   3.646   5.688   2.200  1.0848 -2.0605  0.6814
 6293TIP3    H218886   3.593   5.784   2.305 -1.5901 -2.5012 -0.1878
 6294TIP3   OH218887   5.480   2.419   2.797  0.0761 -0.0172 -0.1593
 6294TIP3    H118888   5.507   2.384   2.712  0.3663  2.2748 -1.0792
 6294TIP3    H218889   5.462   2.511   2.780 -2.1888 -0.0114  1.7847
 6295TIP3   OH218890   0.907   3.308   3.912 -0.3432  0.4978 -0.2476
 6295TIP3    H118891   0.957   3.266   3.982  1.0326  1.6208 -0.5352
 6295TIP3    H218892   0.826   3.257   3.907  0.3839 -0.8127  0.8215
 6296TIP3   OH218893   4.286   4.296   1.075  0.3079 -0.3222 -0.5261
 6296TIP3    H118894   4.342   4.362   1.116  0.7739  0.1539 -1.8490
 6296TIP3    H218895   4.279   4.226   1.139  0.6460  0.5732  0.5098
 6297TIP3   OH218896   3.285   3.238   3.210 -0.2777  0.2560 -0.0067
 6297TIP3    H118897   3.209   3.188   3.240  1.6983 -2.6374  0.5854
 6297TIP3    H218898   3.329   3.265   3.290  0.8502 -0.6778 -0.2858
 6298TIP3   OH218899   4.921   5.414   5.163  0.1011 -0.4053  0.0666
 6298TIP3    H118900   4.973   5.344   5.202  1.6903 -0.2504 -1.6643
 6298TIP3    H218901   4.888   5.377   5.081 -0.6189  0.2712  0.0355
 6299TIP3   OH218902   1.695   1.649   4.309 -0.5819  0.0139  0.4132
 6299TIP3    H118903   1.670   1.741   4.315 -0.4486  0.0701  0.1367
 6299TIP3    H218904   1.726   1.626   4.397 -0.7110  0.2050  0.5082
 6300TIP3   OH218905   4.220   1.759   3.911 -0.5604  0.4359  0.1327
 6300TIP3    H118906   4.299   1.812   3.913 -1.2450  1.6088 -1.3329
 6300TIP3    H218907   4.223   1.715   3.826 -0.3011 -1.4476  1.0798
 6301TIP3   OH218908   3.089   0.069   4.411 -0.5888  0.1333  0.5962
 6301TIP3    H118909   3.159   0.040   4.352 -0.3062  0.3298  0.8273
 6301TIP3    H218910   3.099   0.014   4.489  0.7498  1.6336  1.5652
 6302TIP3   OH218911   0.385   3.292   3.143  0.0489 -0.2311 -0.6038
 6302TIP3    H118912   0.308   3.279   3.087  0.7219 -1.6199 -1.2589
 6302TIP3    H218913   0.353   3.346   3.215 -2.1789 -2.6721  0.4118
 6303TIP3   OH218914   0.359   4.847   1.846 -0.7653  0.0003 -0.4702
 6303TIP3    H118915   0.271   4.822   1.818 -0.4986 -2.2967  0.5534
 6303TIP3    H218916   0.414   4.827   1.770 -0.8255 -0.7071 -0.3304
 6304TIP3   OH218917   4.286   2.217   3.749  0.1757 -0.2787  0.1375
 6304TIP3    H118918   4.345   2.292   3.762 -1.7131  1.5038 -0.9832
 6304TIP3    H218919   4.313   2.180   3.665  0.5627 -0.3123  0.2746
 6305TIP3   OH218920   5.230   1.472   3.662 -0.2877 -0.2813  0.3774
 6305TIP3    H118921   5.271   1.419   3.730  0.9236 -0.5574 -0.5400
 6305TIP3    H218922   5.303   1.515   3.618 -1.1827  1.4437  0.5006
 6306TIP3   OH218923   6.028   1.280   3.066 -0.1520 -0.2617 -0.4095
 6306TIP3    H118924   6.038   1.344   2.995 -0.9078  1.0742  0.6322
 6306TIP3    H218925   6.057   1.197   3.029  0.7600  0.6704 -1.8490
 6307TIP3   OH218926   1.706   3.756   4.680 -0.0793  0.0737 -0.1914
 6307TIP3    H118927   1.731   3.681   4.627  0.1286  0.7487 -1.0712
 6307TIP3    H218928   1.780   3.770   4.738  0.2391  0.1095 -0.6018
 6308TIP3   OH218929   4.821   2.073   0.612 -0.6300 -0.2439 -0.2173
 6308TIP3    H118930   4.799   2.137   0.679  0.2920  0.2950 -0.4112
 6308TIP3    H218931   4.736   2.044   0.578 -1.1090 -0.4765  1.1090
 6309TIP3   OH218932   0.106   5.591   1.323 -0.5329  0.2660  0.7945
 6309TIP3    H118933   0.028   5.536   1.327 -1.3430  0.9884 -2.1464
 6309TIP3    H218934   0.160   5.550   1.255 -1.6702  3.4369 -2.3609
 6310TIP3   OH218935   0.974   1.065   2.101 -0.6493  0.2212  0.0677
 6310TIP3    H118936   0.978   0.991   2.040 -0.0222 -0.7696  1.2410
 6310TIP3    H218937   0.911   1.037   2.168  0.5224  0.1550  1.2062
 6311TIP3   OH218938   1.517   0.789   3.204  0.2705 -0.4413 -0.0043
 6311TIP3    H118939   1.445   0.793   3.266 -0.7421  4.2147 -1.1396
 6311TIP3    H218940   1.595   0.803   3.256 -0.5545  3.2814  0.4684
 6312TIP3   OH218941   3.908   3.775   3.102  0.3690 -0.3565 -0.0575
 6312TIP3    H118942   3.922   3.851   3.159 -0.5773 -0.4084  0.2573
 6312TIP3    H218943   3.823   3.790   3.063  0.3458 -1.0740 -0.2931
 6313TIP3   OH218944   4.928   0.468   1.083  0.4977  0.0391  0.0034
 6313TIP3    H118945   4.871   0.430   1.150 -0.9156  0.4045 -0.9421
 6313TIP3    H218946   5.012   0.479   1.127  0.1978 -1.6417  1.1005
 6314TIP3   OH218947   2.430   3.406   0.134 -0.1024  0.1411 -0.2762
 6314TIP3    H118948   2.501   3.462   0.104 -0.3116  0.7933  0.3951
 6314TIP3    H218949   2.411   3.348   0.060  0.4200  0.6633 -0.8255
 6315TIP3   OH218950   2.519   5.058   0.769 -0.1503  0.4287 -0.6910
 6315TIP3    H118951   2.595   5.116   0.764 -1.1179  1.9622  1.0266
 6315TIP3    H218952   2.547   4.986   0.826  0.1824  0.7069 -0.5045
 6316TIP3   OH218953   0.253   4.682   4.176 -0.0923 -0.6475 -0.2849
 6316TIP3    H118954   0.325   4.619   4.171  1.0449  0.2747  2.7540
 6316TIP3    H218955   0.271   4.743   4.104  0.5062 -2.0067 -1.3553
 6317TIP3   OH218956   4.603   2.119   4.073 -0.0672 -0.0933  0.0018
 6317TIP3    H118957   4.617   2.200   4.025 -0.9159 -0.7258 -1.3852
 6317TIP3    H218958   4.538   2.141   4.140  1.2440  0.8368  1.0211
 6318TIP3   OH218959   5.242   3.719   4.065  0.4805 -0.0403  0.2255
 6318TIP3    H118960   5.242   3.624   4.066 -1.3022 -0.0744  0.0368
 6318TIP3    H218961   5.251   3.742   3.972  0.6311 -0.0234  0.2437
 6319TIP3   OH218962   2.202   5.347   3.728 -0.2853  0.4139 -0.2584
 6319TIP3    H118963   2.117   5.353   3.684 -0.1598 -0.2270 -0.5972
 6319TIP3    H218964   2.250   5.282   3.678  1.0240  1.9670 -1.0869
 6320TIP3   OH218965   2.172   6.023   1.644 -0.4317  0.4619 -0.7884
 6320TIP3    H118966   2.242   5.961   1.626 -0.6903  0.0144 -0.2649
 6320TIP3    H218967   2.127   5.988   1.720 -0.3422  1.5019 -0.2378
 6321TIP3   OH218968   2.250   2.487   0.313 -0.0943 -0.2562 -0.0434
 6321TIP3    H118969   2.311   2.414   0.317 -0.7881 -0.7993  2.4492
 6321TIP3    H218970   2.167   2.449   0.287 -0.4672 -0.4312  1.2997
 6322TIP3   OH218971   5.892   4.696   2.678  0.3575 -0.1253  0.1662
 6322TIP3    H118972   5.821   4.688   2.615  2.2488  0.5680 -2.2148
 6322TIP3    H218973   5.907   4.607   2.710 -0.8688 -0.4368 -0.0914
 6323TIP3   OH218974   2.328   0.006   3.250 -0.0375  0.5718 -0.4270
 6323TIP3    H118975   2.304   0.051   3.168  1.6682 -0.1491 -1.3574
 6323TIP3    H218976   2.315   0.073   3.317  0.4904  1.8421 -1.5337
 6324TIP3   OH218977   2.691   1.205   0.752 -0.7278 -0.4198  0.0183
 6324TIP3    H118978   2.604   1.219   0.714 -1.4766  0.2472  1.8510
 6324TIP3    H218979   2.687   1.117   0.789 -0.1333 -0.9114 -1.0194
 6325TIP3   OH218980   5.508   4.872   0.858  0.5006 -0.1992  0.0531
 6325TIP3    H118981   5.515   4.961   0.823 -1.3333  0.5541  1.4362
 6325TIP3    H218982   5.520   4.882   0.952 -4.1588 -0.5532  0.9476
 6326TIP3   OH218983   0.455   0.061   3.928  0.5661  0.3756  0.2087
 6326TIP3    H118984   0.443   0.124   3.857 -0.6772  0.6546  0.6360
 6326TIP3    H218985   0.441  -0.024   3.887  1.5541  0.4040 -0.2213
 6327TIP3   OH218986   6.130   1.800   2.429  0.3245  0.0306  0.4225
 6327TIP3    H118987   6.036   1.799   2.413  0.4039 -1.2647 -0.1848
 6327TIP3    H218988   6.139   1.810   2.523 -0.4348 -0.1983  0.5244
 6328TIP3   OH218989   3.707   3.976   1.151  0.1088  0.3715 -0.0715
 6328TIP3    H118990   3.723   4.044   1.216  2.0507  1.7650 -1.8606
 6328TIP3    H218991   3.783   3.919   1.157 -0.1796 -0.0552 -0.4342
 6329TIP3   OH218992   1.757   3.887   1.747 -0.6271  0.3926 -0.0280
 6329TIP3    H118993   1.690   3.852   1.689  0.0393 -0.3013 -0.3993
 6329TIP3    H218994   1.708   3.928   1.818 -1.5069  2.2962 -1.6140
 6330TIP3   OH218995   3.287   3.948   0.641  0.0999 -0.0923 -0.4747
 6330TIP3    H118996   3.315   4.016   0.702 -0.0929 -0.4619  0.0324
 6330TIP3    H218997   3.343   3.873   0.661 -0.5793 -0.5142 -0.1237
 6331TIP3   OH218998   0.829   4.709   4.425 -0.7553 -0.5774  0.7130
 6331TIP3    H118999   0.856   4.676   4.511  0.0341  0.3483  0.8389
 6331TIP3    H219000   0.910   4.739   4.384 -1.4798  2.0016  0.9825
 6332TIP3   OH219001   1.398   4.763   2.826 -0.0388 -0.0966 -0.7901
 6332TIP3    H119002   1.403   4.674   2.860  0.2651  0.0922 -0.3409
 6332TIP3    H219003   1.311   4.769   2.787 -0.6572 -0.1097  0.5396
 6333TIP3   OH219004   2.294   3.409   2.317 -0.3423  0.2834 -0.3464
 6333TIP3    H119005   2.350   3.425   2.242 -1.5561 -0.5230 -1.4612
 6333TIP3    H219006   2.272   3.496   2.350  1.2082  0.6243 -0.1055
 6334TIP3   OH219007   5.764   3.015   0.237 -0.1227  0.5324  0.4330
 6334TIP3    H119008   5.770   3.111   0.235  0.6993  0.5035  1.0532
 6334TIP3    H219009   5.744   2.991   0.147 -2.3616  1.4014  0.6446
 6335TIP3   OH219010   6.156   0.869   1.817  0.0595  0.4257  1.0047
 6335TIP3    H119011   6.238   0.821   1.819 -2.0292 -3.6059 -0.4151
 6335TIP3    H219012   6.154   0.910   1.731 -0.0361 -0.7850  0.4153
 6336TIP3   OH219013   5.331   1.199   3.223 -0.3874  0.1765  0.4550
 6336TIP3    H119014   5.326   1.265   3.292  0.7924  1.4531 -0.6195
 6336TIP3    H219015   5.416   1.158   3.235 -0.2217  0.3346 -0.1787
 6337TIP3   OH219016   0.359   3.806   4.442 -0.2807 -0.1632 -0.1921
 6337TIP3    H119017   0.336   3.717   4.467  0.0741  0.2166  1.5927
 6337TIP3    H219018   0.447   3.799   4.404  0.1371 -0.4477  0.8171
 6338TIP3   OH219019   3.534   1.140   3.078  0.3475 -0.0921 -0.0566
 6338TIP3    H119020   3.592   1.076   3.036  1.8245  1.7713 -1.0168
 6338TIP3    H219021   3.526   1.109   3.168  3.5108 -0.0837  0.3386
 6339TIP3   OH219022   0.583   5.342   2.802 -0.8438 -0.3690  0.0439
 6339TIP3    H119023   0.581   5.401   2.878  1.5380  2.6318 -2.0019
 6339TIP3    H219024   0.646   5.273   2.827  1.2914  1.5490  0.2897
 6340TIP3   OH219025   3.931   4.504   4.507  0.7129  0.0110  0.3200
 6340TIP3    H119026   4.014   4.508   4.555  0.4385  0.8948  0.7541
 6340TIP3    H219027   3.876   4.445   4.559  0.9256 -0.2354  0.2665
 6341TIP3   OH219028   0.345   3.528   1.347 -0.1483  0.0634  0.2568
 6341TIP3    H119029   0.425   3.503   1.300  1.9430  0.5344  3.3146
 6341TIP3    H219030   0.288   3.451   1.339  0.3642 -0.1329 -2.3459
 6342TIP3   OH219031   4.319   2.854   4.450 -0.5347  0.5606  0.0169
 6342TIP3    H119032   4.357   2.911   4.383  1.2243  0.3040  0.7196
 6342TIP3    H219033   4.288   2.915   4.518  2.1770  0.7737  1.1976
 6343TIP3   OH219034   1.704   1.627   3.837  0.2822  0.1854  0.4278
 6343TIP3    H119035   1.794   1.601   3.820  0.4364  1.4784 -0.9377
 6343TIP3    H219036   1.689   1.603   3.929  1.5124 -1.3670  0.2641
 6344TIP3   OH219037   1.808   5.041   1.198  0.0549 -0.0924 -0.1213
 6344TIP3    H119038   1.842   5.090   1.124 -1.6962 -0.1706 -1.0095
 6344TIP3    H219039   1.757   5.104   1.248 -1.9252 -0.8606 -1.0822
 6345TIP3   OH219040   5.542   1.074   1.044 -0.2682  0.3461 -0.0483
 6345TIP3    H119041   5.609   1.060   0.978 -0.1609 -0.9165  0.3038
 6345TIP3    H219042   5.590   1.108   1.120 -0.1458  0.1896 -0.0563
 6346TIP3   OH219043   1.266   1.064   0.815 -0.0040  0.3402  0.0556
 6346TIP3    H119044   1.207   1.090   0.885  0.7852 -0.2506  0.9833
 6346TIP3    H219045   1.295   1.146   0.776 -0.7868  0.6648  0.1380
 6347TIP3   OH219046   5.925   5.165   3.170  0.2170 -0.1296 -0.3639
 6347TIP3    H119047   5.852   5.127   3.220  0.8438  1.0049  1.5355
 6347TIP3    H219048   5.986   5.092   3.158 -1.2378 -1.1536 -2.1730
 6348TIP3   OH219049   1.251   0.703   1.396  0.0176 -0.1314 -0.1175
 6348TIP3    H119050   1.294   0.786   1.416 -1.7191  0.4234  1.6433
 6348TIP3    H219051   1.314   0.636   1.423  0.1773  0.6466  1.5898
 6349TIP3   OH219052   3.121   1.875   0.478  0.4128  0.2605 -0.3743
 6349TIP3    H119053   3.215   1.884   0.462  0.7822 -1.3079  0.6591
 6349TIP3    H219054   3.099   1.789   0.441  0.2533 -1.1551  2.7278
 6350TIP3   OH219055   5.397   5.982   2.913 -0.2231  0.0670 -0.5368
 6350TIP3    H119056   5.352   6.043   2.972  1.8575  1.2463 -0.0254
 6350TIP3    H219057   5.367   5.896   2.939 -1.5555  0.7383  0.2673
 6351TIP3   OH219058   2.193   5.664   0.314 -0.4970  0.7813  0.2266
 6351TIP3    H119059   2.104   5.698   0.320 -0.0798  1.5822  3.0164
 6351TIP3    H219060   2.182   5.571   0.293 -2.0209  0.6952  1.2949
 6352TIP3   OH219061   0.162   0.515   1.384 -0.9032 -0.0587  0.0435
 6352TIP3    H119062   0.251   0.495   1.414 -0.7428 -0.2317 -0.5480
 6352TIP3    H219063   0.140   0.446   1.323 -1.3281  0.1607 -0.0588
 6353TIP3   OH219064   5.641   3.053   2.231  0.5384 -0.3634 -0.0884
 6353TIP3    H119065   5.687   2.981   2.273  0.6384  0.0102  0.4638
 6353TIP3    H219066   5.706   3.123   2.226 -0.1510  0.4566  1.4463
 6354TIP3   OH219067   5.294   6.022   0.552 -0.2246 -0.7417 -0.4378
 6354TIP3    H119068   5.329   6.000   0.466 -0.0786  0.0740 -0.5978
 6354TIP3    H219069   5.309   5.944   0.605  1.7777 -0.4565 -0.5207
 6355TIP3   OH219070   4.497   4.261   4.274  0.5540 -0.1115  0.0285
 6355TIP3    H119071   4.423   4.317   4.251  0.3218 -0.4491 -0.0545
 6355TIP3    H219072   4.469   4.216   4.354  0.3842 -0.7669 -0.3955
 6356TIP3   OH219073   1.717   0.409   1.558  0.4079 -0.1483  0.0675
 6356TIP3    H119074   1.621   0.417   1.558  0.5352  1.9229  0.5573
 6356TIP3    H219075   1.745   0.454   1.478  0.8756 -3.9211 -2.1102
 6357TIP3   OH219076   1.418   0.162   2.248 -0.2134 -0.0911  0.0287
 6357TIP3    H119077   1.485   0.118   2.301  0.6009 -0.0613 -0.9598
 6357TIP3    H219078   1.344   0.101   2.249  0.2173 -0.6195  0.2366
 6358TIP3   OH219079   1.154   2.262   5.074  0.6613 -0.2006 -0.0663
 6358TIP3    H119080   1.122   2.198   5.138 -0.5857  0.0692 -0.4025
 6358TIP3    H219081   1.106   2.242   4.994 -1.8382  2.8130  0.4991
 6359TIP3   OH219082   5.615   4.656   0.256 -0.5879  0.0725 -0.2130
 6359TIP3    H119083   5.659   4.603   0.322  0.3475  0.8137 -0.2208
 6359TIP3    H219084   5.571   4.592   0.200  0.0765 -0.6773  0.0911
 6360TIP3   OH219085   0.812   1.290   4.915  0.0675  0.0297  0.0750
 6360TIP3    H119086   0.858   1.372   4.930 -0.8350  0.4081  0.8998
 6360TIP3    H219087   0.864   1.224   4.961  0.1026  0.3586  0.5102
 6361TIP3   OH219088   4.937   5.435   3.881 -0.3114  0.3935 -0.0031
 6361TIP3    H119089   4.847   5.466   3.892 -0.4461  0.1055 -0.2947
 6361TIP3    H219090   4.955   5.445   3.788 -0.9959 -2.1016 -0.4790
 6362TIP3   OH219091   2.673   2.699   0.349  0.0174  0.5527 -0.0138
 6362TIP3    H119092   2.612   2.632   0.379  0.8841 -0.7331 -1.0479
 6362TIP3    H219093   2.759   2.663   0.367  0.5022  1.1496 -1.0543
 6363TIP3   OH219094   2.378   5.249   1.703  0.4380  0.1998  0.1894
 6363TIP3    H119095   2.308   5.187   1.724 -0.6267  1.1159 -0.4776
 6363TIP3    H219096   2.458   5.198   1.707 -0.1388 -0.6509  2.0273
 6364TIP3   OH219097   2.048   3.180   4.297 -0.0313  0.2992 -0.0910
 6364TIP3    H119098   2.117   3.229   4.343 -0.6201 -0.0771  1.2297
 6364TIP3    H219099   2.087   3.160   4.212  1.9785 -0.9200  1.0164
 6365TIP3   OH219100   3.264   1.163   4.866  0.7652  0.0278  0.8235
 6365TIP3    H119101   3.175   1.166   4.831  1.0355  0.7414  0.1534
 6365TIP3    H219102   3.314   1.114   4.801  0.9585  0.0339  0.9669
 6366TIP3   OH219103   1.063   3.704   4.753 -0.1584 -0.2168 -0.2903
 6366TIP3    H119104   0.972   3.730   4.757  0.2012  1.1441 -0.5169
 6366TIP3    H219105   1.080   3.661   4.837 -0.7378  0.4429  0.1704
 6367TIP3   OH219106   3.233   2.978   1.015  0.0161 -0.3641  0.1467
 6367TIP3    H119107   3.142   2.982   0.986 -0.5273  0.9963  1.9208
 6367TIP3    H219108   3.266   3.067   1.001  1.3938 -1.0410 -1.3006
 6368TIP3   OH219109   3.013   1.319   0.400  0.1086  0.3506  0.1575
 6368TIP3    H119110   2.927   1.296   0.366 -0.0504  1.7490 -0.4829
 6368TIP3    H219111   3.070   1.316   0.323  0.9311 -1.7456  0.7829
 6369TIP3   OH219112   3.119   3.504   3.230 -0.0109 -0.1712 -0.5377
 6369TIP3    H119113   3.093   3.444   3.159  0.1005 -0.5204 -0.2856
 6369TIP3    H219114   3.044   3.563   3.239  0.3425  0.4681 -1.5731
 6370TIP3   OH219115   5.219   3.932   3.051 -0.0570 -0.4921  0.4182
 6370TIP3    H119116   5.281   3.968   3.114  0.1116  0.4230 -0.2657
 6370TIP3    H219117   5.200   3.844   3.085  1.2739 -0.6321  0.8585
 6371TIP3   OH219118   4.684   3.233   4.194 -0.7440 -0.5212 -0.0929
 6371TIP3    H119119   4.663   3.327   4.199  2.2747  0.2904 -0.8374
 6371TIP3    H219120   4.627   3.200   4.124 -1.2512  0.9561 -0.4249
 6372TIP3   OH219121   3.366   4.452   4.521 -0.2662 -0.6988 -0.1202
 6372TIP3    H119122   3.315   4.522   4.562 -0.7894  0.3040 -2.3370
 6372TIP3    H219123   3.301   4.400   4.474  0.4489 -1.0020 -0.7896
 6373TIP3   OH219124   0.937   4.105   2.282  0.3737  0.3080  0.0363
 6373TIP3    H119125   0.916   4.148   2.364  1.3229 -1.3608  1.2193
 6373TIP3    H219126   0.900   4.017   2.291 -0.6835  0.4948 -1.9013
 6374TIP3   OH219127   2.926   0.052   2.869  0.0873  0.1987  0.2245
 6374TIP3    H119128   2.946  -0.041   2.866 -1.1502 -0.1101  0.6565
 6374TIP3    H219129   2.993   0.090   2.925  0.8341 -0.3557 -0.2808
 6375TIP3   OH219130   3.512   4.930   0.692 -0.3054  0.7198  0.2943
 6375TIP3    H119131   3.586   4.876   0.665  1.1170  1.7533  1.9627
 6375TIP3    H219132   3.550   5.014   0.717 -2.0016  1.2398  1.3529
 6376TIP3   OH219133   2.418   1.916   3.786  0.1711 -0.0882 -0.4868
 6376TIP3    H119134   2.429   1.966   3.867  0.8918  0.8284 -1.1411
 6376TIP3    H219135   2.367   1.839   3.813 -1.2418  1.1242  0.4920
 6377TIP3   OH219136   1.832   1.393   1.424 -0.1375  0.3006 -0.0003
 6377TIP3    H119137   1.813   1.442   1.504 -0.9595  0.0661 -0.0425
 6377TIP3    H219138   1.829   1.459   1.354  0.7879  0.5443  0.1658
 6378TIP3   OH219139   0.414   0.213   3.692 -0.2758  0.1347 -0.2740
 6378TIP3    H119140   0.334   0.258   3.716  0.0305  1.1753 -1.1361
 6378TIP3    H219141   0.387   0.147   3.629 -0.3223  1.2318 -1.4233
 6379TIP3   OH219142   1.406   4.136   1.547  0.6420  0.0743  0.1082
 6379TIP3    H119143   1.338   4.196   1.579 -1.6927 -3.1920  1.9958
 6379TIP3    H219144   1.476   4.141   1.612  0.1066  0.2103  0.6817
 6380TIP3   OH219145   4.106   2.937   2.566  0.0963  0.3124 -0.2552
 6380TIP3    H119146   4.181   2.978   2.609  0.2053  0.0305 -0.1756
 6380TIP3    H219147   4.145   2.877   2.502 -0.0611  0.2836 -0.3232
 6381TIP3   OH219148   2.176   5.289   0.872 -0.0396 -0.2779  0.4841
 6381TIP3    H119149   2.263   5.311   0.906 -1.1756  1.0474  2.7301
 6381TIP3    H219150   2.194   5.247   0.787  2.6731  2.2531 -0.3623
 6382TIP3   OH219151   1.298   5.827   0.916  0.1282 -0.4354  0.1134
 6382TIP3    H119152   1.305   5.796   0.826  1.3635  1.4302 -0.4822
 6382TIP3    H219153   1.388   5.828   0.949  0.2665  2.6166 -0.0294
 6383TIP3   OH219154   5.820   4.124   1.486  0.7031  0.2197  0.6409
 6383TIP3    H119155   5.914   4.119   1.504  0.6208  0.8145  1.2688
 6383TIP3    H219156   5.782   4.054   1.539  0.8189 -0.2008  0.1721
 6384TIP3   OH219157   4.030   0.959   1.232  0.0093  0.5939 -0.0162
 6384TIP3    H119158   4.097   0.948   1.299 -0.9645 -0.0518  0.8910
 6384TIP3    H219159   3.996   1.048   1.247 -0.8185  0.1295  0.9541
 6385TIP3   OH219160   3.650   4.528   2.166 -0.0536 -0.3622 -0.4139
 6385TIP3    H119161   3.593   4.535   2.090  0.0206  0.2415 -0.4202
 6385TIP3    H219162   3.592   4.542   2.241  0.1506  0.7572 -0.4406
 6386TIP3   OH219163   6.347   5.449   3.085  0.0177 -0.6885  0.0636
 6386TIP3    H119164   6.326   5.368   3.038 -2.4926  0.3675 -0.8306
 6386TIP3    H219165   6.333   5.428   3.177 -0.6311 -1.2739 -0.1602
 6387TIP3   OH219166   6.085   3.497   5.177  0.4457 -0.7824 -0.2002
 6387TIP3    H119167   6.105   3.582   5.215  2.3094 -2.2333  2.2924
 6387TIP3    H219168   6.090   3.512   5.082  2.9737  1.4077  0.1552
 6388TIP3   OH219169   3.766   3.174   3.282 -0.2810 -0.5789  0.0245
 6388TIP3    H119170   3.781   3.247   3.222 -1.1478  0.3086  0.8546
 6388TIP3    H219171   3.672   3.160   3.280 -0.1841 -1.3303  0.2890
 6389TIP3   OH219172   5.488   3.942   3.159 -0.2599  0.3144  0.6894
 6389TIP3    H119173   5.509   3.877   3.092 -0.8972 -0.2147  0.9928
 6389TIP3    H219174   5.570   3.989   3.173  0.0585 -0.0290  0.0404
 6390TIP3   OH219175   2.609   1.242   4.241 -0.3397  0.3751  0.5649
 6390TIP3    H119176   2.699   1.269   4.222  1.0192 -2.9127  1.5352
 6390TIP3    H219177   2.590   1.281   4.327 -0.4083  2.1517 -0.2153
 6391TIP3   OH219178   1.651   0.701   3.537 -0.8178 -0.2730 -0.0716
 6391TIP3    H119179   1.637   0.618   3.491  2.0124 -0.7442 -0.2033
 6391TIP3    H219180   1.631   0.768   3.472 -0.2733 -0.8836 -0.8782
 6392TIP3   OH219181   5.689   4.797   0.029  0.0802  0.3620 -0.2180
 6392TIP3    H119182   5.613   4.745   0.055  0.9088 -1.1992 -0.8169
 6392TIP3    H219183   5.665   4.832  -0.057  0.9863 -2.3416 -1.6937
 6393TIP3   OH219184   1.027   3.553   2.813 -0.5067  0.0690 -0.0307
 6393TIP3    H119185   0.998   3.464   2.833  0.9511 -0.5726 -0.5749
 6393TIP3    H219186   1.091   3.573   2.882  0.2917  0.0827 -0.7530
 6394TIP3   OH219187   2.130   2.255   0.936 -0.0050 -0.0226 -0.0629
 6394TIP3    H119188   2.067   2.296   0.876  0.0827 -0.5290 -0.5073
 6394TIP3    H219189   2.127   2.310   1.014  0.7174  1.3190 -0.9443
 6395TIP3   OH219190   2.694   5.253   0.750 -0.1064 -0.2634 -0.3428
 6395TIP3    H119191   2.636   5.306   0.697 -1.3912 -1.6003 -0.3364
 6395TIP3    H219192   2.737   5.315   0.809 -0.9837  0.8380 -0.8418
 6396TIP3   OH219193   1.476   3.565   0.481  0.3525  0.1606  0.2346
 6396TIP3    H119194   1.564   3.530   0.467 -0.5842 -2.0384 -0.6360
 6396TIP3    H219195   1.436   3.504   0.543 -0.8237  0.6471 -0.0317
 6397TIP3   OH219196   1.722   4.970   4.932  0.0079 -0.0475 -0.2337
 6397TIP3    H119197   1.798   4.944   4.880  1.6117 -1.0874  2.4448
 6397TIP3    H219198   1.666   4.892   4.933 -1.5958  0.9225 -2.7673
 6398TIP3   OH219199   3.618   1.935   4.130 -0.1358 -0.0111 -0.1838
 6398TIP3    H119200   3.689   1.979   4.082 -1.0047  0.5310 -1.0199
 6398TIP3    H219201   3.595   1.996   4.199 -0.5177  0.3071 -0.5883
 6399TIP3   OH219202   4.024   1.137   2.761 -0.2192  0.1190 -0.3781
 6399TIP3    H119203   4.111   1.103   2.784  0.1484  0.1685 -1.6405
 6399TIP3    H219204   3.996   1.184   2.840 -0.4180 -2.3539  1.1520
 6400TIP3   OH219205   4.001   3.454   1.829 -0.2809 -0.0677  0.1519
 6400TIP3    H119206   3.985   3.405   1.910  1.9631  1.9887  2.0273
 6400TIP3    H219207   3.929   3.516   1.825  0.0126  0.3589  1.0778
 6401TIP3   OH219208   2.776   3.466   4.977 -0.2988 -0.5856 -0.8564
 6401TIP3    H119209   2.686   3.491   4.998 -0.3433 -1.4536  0.0713
 6401TIP3    H219210   2.773   3.371   4.968  0.1758 -0.4611 -2.6955
 6402TIP3   OH219211   1.711   1.508   3.331  0.1602 -0.0899 -0.6812
 6402TIP3    H119212   1.633   1.485   3.280  0.6305  0.1162 -1.5024
 6402TIP3    H219213   1.677   1.523   3.420 -0.2505 -3.4613 -0.1343
 6403TIP3   OH219214   5.293   3.420   3.122  0.3150 -0.0940  0.1823
 6403TIP3    H119215   5.376   3.452   3.155  0.2795 -0.1426  0.3163
 6403TIP3    H219216   5.252   3.376   3.196  0.5790 -0.8890 -0.1296
 6404TIP3   OH219217   3.865   4.657   1.121  0.2254 -0.1347  0.1723
 6404TIP3    H119218   3.785   4.606   1.110  0.9108 -1.0365 -0.8040
 6404TIP3    H219219   3.904   4.623   1.202 -0.7000  0.7855  1.0282
 6405TIP3   OH219220   5.927   0.266   0.176 -0.3138 -0.0690 -0.1115
 6405TIP3    H119221   5.974   0.349   0.181 -0.6509  0.0998  0.4163
 6405TIP3    H219222   5.873   0.264   0.256 -0.0945 -0.9245  0.0358
 6406TIP3   OH219223   3.439   5.632   4.412 -0.7458 -0.2748  0.3908
 6406TIP3    H119224   3.445   5.556   4.470  0.4271 -0.5724 -0.0940
 6406TIP3    H219225   3.433   5.594   4.324  1.2491  0.1485  0.0178
 6407TIP3   OH219226   6.058   5.533   2.197 -0.1587 -0.4333  0.0572
 6407TIP3    H119227   6.109   5.607   2.229 -1.4283  0.7465 -0.5335
 6407TIP3    H219228   6.085   5.459   2.252  0.3239  0.7158  1.4166
 6408TIP3   OH219229   1.258   0.440   0.997 -0.1003 -0.0573  0.1606
 6408TIP3    H119230   1.274   0.395   0.914  1.2630  1.8492 -0.6940
 6408TIP3    H219231   1.264   0.371   1.063  3.5542 -1.0055 -0.8890
 6409TIP3   OH219232   5.268   2.112   4.001 -0.2611 -0.6889  0.3899
 6409TIP3    H119233   5.337   2.064   3.955 -1.3921 -1.6726 -0.3498
 6409TIP3    H219234   5.249   2.059   4.079 -0.1131 -0.3589  0.6563
 6410TIP3   OH219235   1.832   1.078   1.665 -0.1477 -0.4704  0.3722
 6410TIP3    H119236   1.841   0.999   1.718 -0.6873 -1.7049 -1.2842
 6410TIP3    H219237   1.826   1.045   1.575  1.1780  1.5483 -0.5230
 6411TIP3   OH219238   0.039   4.821   3.160 -0.0016  0.4428  0.3321
 6411TIP3    H119239   0.040   4.729   3.133  1.7067  0.1218  1.2910
 6411TIP3    H219240   0.019   4.819   3.254  2.4251  0.7683  0.9446
 6412TIP3   OH219241   3.437   4.963   2.428  0.0260 -0.2481 -0.3019
 6412TIP3    H119242   3.410   4.988   2.516 -0.8813  0.7033 -0.8253
 6412TIP3    H219243   3.376   4.895   2.402  1.4605 -1.8928  0.4891
 6413TIP3   OH219244   5.564   0.357   5.099  0.6233  0.0369  0.7413
 6413TIP3    H119245   5.579   0.263   5.088 -0.0652 -0.1422  1.2553
 6413TIP3    H219246   5.649   0.392   5.126  1.1637 -0.2488 -0.4760
 6414TIP3   OH219247   4.333   3.211   2.033  0.5843  0.5412  0.4187
 6414TIP3    H119248   4.415   3.223   1.986  1.2388 -0.6757  1.2034
 6414TIP3    H219249   4.278   3.162   1.972  2.0877 -2.7279  1.4677
 6415TIP3   OH219250   4.346   2.509   1.042 -0.3776 -0.3251 -0.2105
 6415TIP3    H119251   4.251   2.499   1.039 -0.4912  0.9052 -2.5308
 6415TIP3    H219252   4.367   2.564   0.967  2.1369 -0.1393  0.5414
 6416TIP3   OH219253   0.677   1.420   4.303  0.1403  0.4606 -0.1913
 6416TIP3    H119254   0.688   1.502   4.351  0.3759  0.9108 -1.0056
 6416TIP3    H219255   0.582   1.406   4.301  0.1066  0.6490  0.0395
 6417TIP3   OH219256   0.303   4.822   4.805 -0.3091  0.1534 -0.3087
 6417TIP3    H119257   0.398   4.822   4.801 -0.3501 -0.6435 -2.6137
 6417TIP3    H219258   0.279   4.730   4.794 -1.3620  0.6197 -2.4735
 6418TIP3   OH219259   3.052   5.509   2.765 -0.1798 -0.1807 -0.2855
 6418TIP3    H119260   3.056   5.422   2.725  0.4755  1.1566 -3.4113
 6418TIP3    H219261   3.141   5.543   2.757 -1.0579  1.9441 -2.1391
 6419TIP3   OH219262   0.056   0.495   0.941 -0.1008  0.2384  0.2316
 6419TIP3    H119263   0.070   0.588   0.960 -1.1261  0.9196 -2.1100
 6419TIP3    H219264  -0.007   0.466   1.008  1.2779  0.8010  1.8572
 6420TIP3   OH219265   3.959   3.027   2.002  0.0649  0.3922  0.4033
 6420TIP3    H119266   3.929   3.040   2.092 -2.2098  0.7216 -0.3584
 6420TIP3    H219267   3.970   2.932   1.995 -1.9246  0.1163  0.4307
 6421TIP3   OH219268   5.749   0.991   4.327 -0.4538  0.1817  0.2676
 6421TIP3    H119269   5.805   1.041   4.268 -1.0471  0.9105  0.3088
 6421TIP3    H219270   5.660   1.017   4.304 -0.7687 -0.7284  0.4134
 6422TIP3   OH219271   5.083   1.158   1.401  0.0281 -0.5982  0.6727
 6422TIP3    H119272   5.096   1.200   1.486 -0.6957 -1.2052  1.0962
 6422TIP3    H219273   5.102   1.066   1.416 -0.5506 -0.7843  0.2841
 6423TIP3   OH219274   5.228   4.155   1.458  0.1458 -0.2316 -0.3432
 6423TIP3    H119275   5.199   4.200   1.379  1.5399  0.0011 -0.7436
 6423TIP3    H219276   5.320   4.136   1.443  0.1140 -1.3467  0.6988
 6424TIP3   OH219277   3.331   0.679   0.290 -0.3728  0.5917  0.0185
 6424TIP3    H119278   3.392   0.702   0.220  1.8772  1.5417  2.1171
 6424TIP3    H219279   3.261   0.744   0.283 -0.0533  0.8372 -1.1585
 6425TIP3   OH219280   3.095   2.001   1.664  0.1117 -0.3673  0.3060
 6425TIP3    H119281   3.118   1.961   1.580 -1.4230 -0.7498  0.0317
 6425TIP3    H219282   3.037   1.937   1.706 -0.5927  0.5897  0.8496
 6426TIP3   OH219283   0.717   1.872   0.803  0.0561 -0.4607 -0.5852
 6426TIP3    H119284   0.727   1.835   0.891 -3.1430 -1.7294 -0.6246
 6426TIP3    H219285   0.793   1.840   0.754  0.8362 -1.4077  1.1557
 6427TIP3   OH219286   2.920   5.819   4.749  0.5647 -0.1200 -0.0363
 6427TIP3    H119287   2.827   5.833   4.730  0.5921 -0.3925 -0.3834
 6427TIP3    H219288   2.928   5.725   4.762  0.5366  0.0713  1.4500
 6428TIP3   OH219289   0.549   4.392   0.447  0.2633 -0.2616 -0.2890
 6428TIP3    H119290   0.461   4.376   0.413  0.5946 -2.7924 -0.1883
 6428TIP3    H219291   0.543   4.371   0.540  0.7387  0.6417 -0.0411
 6429TIP3   OH219292   2.232   4.672   1.262 -0.4663  1.0428  0.4023
 6429TIP3    H119293   2.160   4.735   1.248 -1.3311  0.0579  0.2717
 6429TIP3    H219294   2.187   4.588   1.275  0.6715  0.4357  0.4670
 6430TIP3   OH219295   1.600   1.767   2.865 -0.1449  0.0530 -0.7364
 6430TIP3    H119296   1.633   1.804   2.947 -0.0269 -1.9207  0.1773
 6430TIP3    H219297   1.661   1.796   2.798  0.6939  0.3860  0.1559
 6431TIP3   OH219298   2.862   4.458   1.695  0.2229 -0.1386  0.5480
 6431TIP3    H119299   2.898   4.537   1.735 -1.2094  1.4585 -1.1708
 6431TIP3    H219300   2.794   4.429   1.755 -0.6389  1.1495  0.2157
 6432TIP3   OH219301   0.416   4.984   4.035  0.8956 -0.1868 -0.1313
 6432TIP3    H119302   0.322   5.005   4.035  0.8728 -0.2680  0.2860
 6432TIP3    H219303   0.459   5.069   4.047  0.9029 -0.0723 -0.9248
 6433TIP3   OH219304   5.778   5.037   0.553  0.4940  0.3820 -0.1079
 6433TIP3    H119305   5.779   4.969   0.621 -0.0987  2.0809  1.6835
 6433TIP3    H219306   5.721   5.001   0.485 -0.0321 -0.8053  0.9148
 6434TIP3   OH219307   5.318   5.028   2.948 -0.2780 -0.7070  0.3186
 6434TIP3    H119308   5.305   4.935   2.967  0.2441 -0.8178  0.1580
 6434TIP3    H219309   5.243   5.052   2.894 -1.5641 -0.4897  2.1249
 6435TIP3   OH219310   0.229   5.217   0.242  0.4737 -0.3669  0.8791
 6435TIP3    H119311   0.270   5.211   0.156  0.3962 -0.5535  0.8553
 6435TIP3    H219312   0.302   5.210   0.304  0.4026 -1.5739  0.8579
 6436TIP3   OH219313   3.254   2.156   0.656 -0.9395  0.2286  0.0259
 6436TIP3    H119314   3.305   2.161   0.575  0.0441 -1.5237  0.4910
 6436TIP3    H219315   3.311   2.195   0.723 -1.2484  0.5667  0.0927
 6437TIP3   OH219316   3.215   4.934   1.816  0.8521  0.1519 -0.4927
 6437TIP3    H119317   3.236   4.920   1.908  0.1344  1.3347 -0.1204
 6437TIP3    H219318   3.142   4.995   1.817  1.1488  0.5778 -1.8594
 6438TIP3   OH219319   1.753   1.071   2.065  0.3245  0.2459 -0.2515
 6438TIP3    H119320   1.712   1.157   2.054  0.2794  0.1067 -1.3114
 6438TIP3    H219321   1.828   1.087   2.122  1.0824  1.2519 -1.4746
 6439TIP3   OH219322   0.040   1.040   3.679  0.2674 -0.1335 -0.2346
 6439TIP3    H119323  -0.002   1.051   3.594  0.5467 -0.5309 -0.4280
 6439TIP3    H219324   0.018   1.120   3.727  1.7682  1.0365 -1.3910
 6440TIP3   OH219325   4.533   4.823   0.797 -0.0241  0.1092 -0.5352
 6440TIP3    H119326   4.542   4.734   0.831 -0.5681 -0.7708 -2.5778
 6440TIP3    H219327   4.495   4.812   0.711  0.0398  2.3387 -0.8977
 6441TIP3   OH219328   4.294   0.903   2.312 -0.2372  0.3994  0.4600
 6441TIP3    H119329   4.225   0.930   2.251 -0.2537 -0.6852 -0.0133
 6441TIP3    H219330   4.250   0.842   2.372 -0.0191  0.8086  1.0481
 6442TIP3   OH219331   0.744   0.190   3.780 -0.0927  0.6656 -0.4534
 6442TIP3    H119332   0.792   0.189   3.697 -0.9177 -0.2664 -0.9405
 6442TIP3    H219333   0.651   0.193   3.754 -0.3651  0.2963  0.4319
 6443TIP3   OH219334   5.883   5.940   3.814 -0.8611 -0.4554 -0.1025
 6443TIP3    H119335   5.958   5.889   3.844 -1.2795 -0.3476  1.1900
 6443TIP3    H219336   5.921   6.021   3.781 -0.2929 -1.0706 -1.0289
 6444TIP3   OH219337   3.439   4.469   4.192  0.4444 -0.0177  1.3416
 6444TIP3    H119338   3.459   4.399   4.255  3.4168 -0.8670 -0.3402
 6444TIP3    H219339   3.492   4.543   4.220 -0.0292  0.3999  1.1498
 6445TIP3   OH219340   6.272   0.346   2.944  0.4433 -0.3328  0.1988
 6445TIP3    H119341   6.211   0.336   3.017  1.5799 -0.3935  1.1802
 6445TIP3    H219342   6.287   0.257   2.913 -1.0624 -0.1996 -1.0182
 6446TIP3   OH219343   1.518   4.465   0.704  0.5577 -0.6833  0.1153
 6446TIP3    H119344   1.463   4.451   0.627  0.0137 -0.3608  0.4365
 6446TIP3    H219345   1.535   4.559   0.705 -1.0770 -0.3553  1.4546
 6447TIP3   OH219346   0.814   4.877   4.921  0.3716  0.2844 -0.6984
 6447TIP3    H119347   0.866   4.945   4.963  0.2278  0.4265 -0.7517
 6447TIP3    H219348   0.730   4.880   4.966  0.2651  0.3409 -0.8996
 6448TIP3   OH219349   6.112   2.762   0.409 -0.6907  0.0431 -0.0371
 6448TIP3    H119350   6.097   2.747   0.503  2.6093  1.7310  0.8873
 6448TIP3    H219351   6.145   2.678   0.377 -1.8039 -0.5346  0.2405
 6449TIP3   OH219352   4.989   5.903   2.875  0.0453  0.2057  0.4274
 6449TIP3    H119353   4.952   5.969   2.934  1.4075  1.6540 -0.2546
 6449TIP3    H219354   5.052   5.951   2.822  0.4038 -1.4862 -0.7674
 6450TIP3   OH219355   5.431   3.241   4.586  0.4867  0.6792  0.0308
 6450TIP3    H119356   5.484   3.186   4.643  2.1598 -0.6424 -2.5943
 6450TIP3    H219357   5.400   3.181   4.518  0.2047  2.5046 -1.5216
 6451TIP3   OH219358   6.165   1.761   2.751  0.1031 -0.2111  0.0250
 6451TIP3    H119359   6.241   1.789   2.803  1.0951 -0.4437 -1.2329
 6451TIP3    H219360   6.113   1.840   2.739 -1.2204 -0.5204  2.9826
 6452TIP3   OH219361   3.264   5.294   1.814  0.0752 -0.1388 -0.5133
 6452TIP3    H119362   3.290   5.352   1.742 -0.5964  0.9871  0.1203
 6452TIP3    H219363   3.331   5.306   1.881 -1.3965  2.0031  0.7087
 6453TIP3   OH219364   3.488   3.534   0.900 -0.9508  0.4098  0.2065
 6453TIP3    H119365   3.442   3.604   0.948 -2.3096 -0.7546  0.6603
 6453TIP3    H219366   3.419   3.477   0.868  0.1345 -2.0451  1.8779
 6454TIP3   OH219367  -0.026   3.104   4.758  0.4503 -0.1515  0.4059
 6454TIP3    H119368  -0.013   3.055   4.677 -0.0395 -0.1369  0.3148
 6454TIP3    H219369   0.062   3.120   4.791  0.6145 -1.2783  0.5473
 6455TIP3   OH219370   0.205   0.020   2.083 -0.0580 -0.2612 -0.2119
 6455TIP3    H119371   0.292  -0.011   2.057 -0.1001  0.3817 -1.1534
 6455TIP3    H219372   0.222   0.073   2.161  0.3777 -0.2028 -0.3420
 6456TIP3   OH219373   6.261   5.231   2.925 -0.3624  0.5006 -0.2718
 6456TIP3    H119374   6.166   5.222   2.917 -0.7882  3.4450  0.2094
 6456TIP3    H219375   6.293   5.141   2.937 -2.6978 -0.9747 -3.4689
 6457TIP3   OH219376   2.154   2.939   4.843 -0.3726 -0.1075  0.0603
 6457TIP3    H119377   2.159   2.863   4.785 -1.9539 -0.3151  0.1343
 6457TIP3    H219378   2.238   2.942   4.888 -1.1246 -3.3647  1.9624
 6458TIP3   OH219379   1.318   0.774   3.386 -0.1019 -0.8838  0.0481
 6458TIP3    H119380   1.264   0.708   3.428 -1.6675  0.2768 -0.0836
 6458TIP3    H219381   1.262   0.851   3.378  1.1356 -0.0619 -1.3232
 6459TIP3   OH219382   1.195   3.307   2.358 -0.1225  0.3915  0.3340
 6459TIP3    H119383   1.148   3.365   2.299 -2.2435 -0.3883  1.1575
 6459TIP3    H219384   1.276   3.354   2.378 -0.4316  1.7127 -1.2934
 6460TIP3   OH219385   5.604   4.034   3.487 -0.1546  0.0906  0.3021
 6460TIP3    H119386   5.520   4.078   3.496 -0.4233 -0.1534 -0.9003
 6460TIP3    H219387   5.634   4.057   3.400  1.0528  0.1951  0.7310
 6461TIP3   OH219388   2.407   1.189   4.605  0.1414  0.2799  0.0744
 6461TIP3    H119389   2.377   1.192   4.514 -1.2380  0.0681  0.5016
 6461TIP3    H219390   2.483   1.131   4.602 -2.2831 -3.1945 -0.3726
 6462TIP3   OH219391   5.588   0.717   3.517  0.3807 -0.2963 -0.4488
 6462TIP3    H119392   5.634   0.730   3.433 -0.5796  3.6905 -0.5970
 6462TIP3    H219393   5.507   0.768   3.507 -0.3648 -0.7641  2.4637
 6463TIP3   OH219394   0.169   2.471   3.232  0.4219 -0.6909 -0.0361
 6463TIP3    H119395   0.228   2.471   3.307 -0.0242 -0.1377  0.3162
 6463TIP3    H219396   0.130   2.383   3.232  0.9510 -0.9316 -0.0478
 6464TIP3   OH219397   5.371   5.394   1.497  0.2349  0.4674  0.2783
 6464TIP3    H119398   5.465   5.412   1.500  0.3075  0.4064 -1.0686
 6464TIP3    H219399   5.361   5.310   1.541  0.9081  0.1505 -0.1624
 6465TIP3   OH219400   1.016   4.834   3.332 -0.1856 -1.2062 -0.2022
 6465TIP3    H119401   0.938   4.799   3.373 -0.5581 -0.0412  0.1389
 6465TIP3    H219402   1.080   4.841   3.403 -0.8419  0.8457  0.2565
 6466TIP3   OH219403   1.009   5.807   2.226 -0.4085  0.4339 -0.5886
 6466TIP3    H119404   1.012   5.902   2.216 -1.0133  0.3551 -1.7223
 6466TIP3    H219405   0.917   5.788   2.243 -1.0218 -0.1939 -3.8881
 6467TIP3   OH219406   6.183   5.650   3.017 -0.1227 -0.2389 -0.0245
 6467TIP3    H119407   6.111   5.613   2.968  1.0880 -1.2225 -1.1377
 6467TIP3    H219408   6.243   5.577   3.031  1.4174  0.8574 -0.5805
 6468TIP3   OH219409   3.825   5.188   4.335 -0.4372  0.8751 -0.1357
 6468TIP3    H119410   3.795   5.170   4.245  1.3161  1.2482 -0.8403
 6468TIP3    H219411   3.744   5.200   4.385 -1.4865 -0.2115 -1.4666
 6469TIP3   OH219412   0.177   4.939   0.457  0.3797  0.4234  0.0500
 6469TIP3    H119413   0.247   4.875   0.446  0.6573  0.9157 -1.1331
 6469TIP3    H219414   0.177   4.990   0.376 -0.1630  1.6035  0.7642
 6470TIP3   OH219415   1.969   0.744   4.763  0.2644  0.1168 -0.5443
 6470TIP3    H119416   1.981   0.799   4.685 -0.3475 -0.6248 -1.1753
 6470TIP3    H219417   2.054   0.704   4.778 -0.4022 -2.5688 -3.0309
 6471TIP3   OH219418   3.411   4.920   0.188 -0.7282 -0.3821  0.3653
 6471TIP3    H119419   3.498   4.931   0.150 -0.4786 -2.4475  0.2183
 6471TIP3    H219420   3.424   4.929   0.282 -0.2275 -1.2921  0.3895
 6472TIP3   OH219421   4.053   0.474   1.642 -0.5062 -0.1150  0.2608
 6472TIP3    H119422   4.065   0.563   1.677 -0.0105 -0.2996  0.5684
 6472TIP3    H219423   4.134   0.428   1.665 -1.7060 -1.3690  2.2323
 6473TIP3   OH219424   1.913   2.512   2.579  0.7246  0.0422  0.0594
 6473TIP3    H119425   1.962   2.557   2.648  0.3024  0.0692  0.3462
 6473TIP3    H219426   1.980   2.480   2.519  1.0883  0.1656  0.3933
 6474TIP3   OH219427   2.637   0.965   2.714  0.2276 -0.0699 -0.5888
 6474TIP3    H119428   2.628   1.052   2.676  1.7230  1.1627  1.6766
 6474TIP3    H219429   2.563   0.959   2.775 -0.1091 -0.5709 -1.0413
 6475TIP3   OH219430   0.453   2.305   0.145 -0.1556 -0.1974  0.1190
 6475TIP3    H119431   0.478   2.370   0.080  4.3410 -0.8271  0.8747
 6475TIP3    H219432   0.467   2.349   0.229 -1.5262 -0.7839  0.6839
 6476TIP3   OH219433   0.624   0.616   0.072  0.0525  0.0437 -0.1141
 6476TIP3    H119434   0.640   0.679   0.002  0.1710  0.1970  0.0483
 6476TIP3    H219435   0.700   0.559   0.072  0.1168  0.1286 -0.0217
 6477TIP3   OH219436   3.924   0.118   1.623 -0.1254  0.6784 -0.3867
 6477TIP3    H119437   4.012   0.089   1.644  0.4254  2.8290  0.5286
 6477TIP3    H219438   3.925   0.133   1.529  1.0488  2.3034 -0.1517
 6478TIP3   OH219439   1.441   4.089   2.238 -0.2385 -0.1629  0.3496
 6478TIP3    H119440   1.406   4.057   2.321  0.3327  0.4655  0.8428
 6478TIP3    H219441   1.440   4.185   2.247 -1.8195 -0.0074 -1.0483
 6479TIP3   OH219442   1.505   3.432   2.052 -0.2507  0.5149  0.0234
 6479TIP3    H119443   1.493   3.337   2.042 -0.9171  0.5809  0.1129
 6479TIP3    H219444   1.457   3.453   2.132 -2.1511  1.2936 -1.2511
 6480TIP3   OH219445   3.261   4.604   2.463 -0.2344 -0.3825 -0.4672
 6480TIP3    H119446   3.198   4.644   2.402  1.0062 -0.3459 -1.7961
 6480TIP3    H219447   3.256   4.657   2.542 -1.8462 -0.3784 -0.5554
 6481TIP3   OH219448   2.798   0.040   3.712 -0.0224  0.0316 -0.1187
 6481TIP3    H119449   2.778   0.019   3.803  1.6744  2.4066  0.9234
 6481TIP3    H219450   2.877  -0.009   3.693 -0.0477 -0.0162 -0.1004
 6482TIP3   OH219451   0.931   2.867   3.584  0.0489 -0.1919 -0.2042
 6482TIP3    H119452   0.882   2.793   3.620  0.4895  0.0848  0.9953
 6482TIP3    H219453   0.973   2.832   3.505  0.3736 -1.2667  0.4269
 6483TIP3   OH219454   3.358   3.517   0.026  0.2877 -0.0065 -0.1205
 6483TIP3    H119455   3.369   3.439  -0.027  0.6458 -0.4851  0.6415
 6483TIP3    H219456   3.447   3.540   0.055  0.0932  0.1727  0.3596
 6484TIP3   OH219457   3.669   4.888   1.904 -0.3182 -0.3436 -0.2585
 6484TIP3    H119458   3.645   4.799   1.878  0.4050 -0.6705  0.1841
 6484TIP3    H219459   3.733   4.877   1.974 -0.4720  0.5291  0.0350
 6485TIP3   OH219460   2.149   1.459   1.399 -0.1800 -0.1046 -0.1416
 6485TIP3    H119461   2.115   1.371   1.416 -0.5472  0.1260  0.3670
 6485TIP3    H219462   2.222   1.469   1.459  1.3667 -0.9028 -1.8032
 6486TIP3   OH219463   1.798   4.566   0.934 -0.3841 -0.5249 -0.6071
 6486TIP3    H119464   1.882   4.525   0.954 -1.1820 -1.7878  0.3018
 6486TIP3    H219465   1.745   4.554   1.013 -1.3772  0.3460 -1.1131
 6487TIP3   OH219466   1.983   0.081   2.109 -0.0673  0.0134 -0.4227
 6487TIP3    H119467   1.912   0.135   2.074 -0.3654 -0.1006  0.0004
 6487TIP3    H219468   1.954  -0.009   2.094 -0.2602 -0.0385  0.2251
 6488TIP3   OH219469   4.729   2.230   0.305  0.1896 -0.2474  0.2036
 6488TIP3    H119470   4.684   2.208   0.224 -1.6539 -1.7051  1.5240
 6488TIP3    H219471   4.695   2.168   0.369 -1.1349  2.9343  2.9476
 6489TIP3   OH219472   4.082   3.815   4.780 -0.1222  0.1100 -0.0547
 6489TIP3    H119473   4.159   3.767   4.810  0.6948  1.6340  0.3344
 6489TIP3    H219474   4.011   3.750   4.783  0.9902 -1.1188  0.2481
 6490TIP3   OH219475   3.561   3.736   4.825  0.6545  0.1194 -0.1864
 6490TIP3    H119476   3.611   3.692   4.893  1.3459  2.0342  0.5985
 6490TIP3    H219477   3.551   3.826   4.856  0.3392  0.8635 -2.2640
 6491TIP3   OH219478   5.875   5.700   4.674  0.0639  0.4134 -0.2361
 6491TIP3    H119479   5.780   5.693   4.660 -0.1065 -1.3627  1.4242
 6491TIP3    H219480   5.885   5.769   4.739 -0.1668  0.0631  0.1741
 6492TIP3   OH219481   3.362   0.078   0.320 -0.3420 -0.1837  0.0914
 6492TIP3    H119482   3.452   0.076   0.287 -0.0045 -0.6221  1.0020
 6492TIP3    H219483   3.317   0.009   0.272  0.5699 -1.9676  1.6409
 6493TIP3   OH219484   3.157   3.270   1.933 -0.1082 -0.0548  0.3692
 6493TIP3    H119485   3.140   3.249   2.024  2.2410 -0.8293  0.7058
 6493TIP3    H219486   3.218   3.344   1.935  1.1664 -1.0274 -0.4771
 6494TIP3   OH219487   0.539   2.530   3.314 -0.5804  0.5038  0.2442
 6494TIP3    H119488   0.463   2.512   3.369 -0.2363  1.9517  1.2411
 6494TIP3    H219489   0.566   2.618   3.337  1.7673 -0.1698  0.3593
 6495TIP3   OH219490   1.936   1.912   4.668 -0.0128 -0.3752  0.3418
 6495TIP3    H119491   1.941   1.863   4.585 -1.6417  0.6020 -0.3823
 6495TIP3    H219492   1.903   1.998   4.643  2.2610  0.9810  1.6629
 6496TIP3   OH219493   5.232   1.424   1.279 -0.5597 -0.8003  0.0680
 6496TIP3    H119494   5.307   1.373   1.247 -0.3021 -0.6026  0.3470
 6496TIP3    H219495   5.180   1.361   1.329 -0.8132 -1.0427 -0.4943
 6497TIP3   OH219496   3.093   0.329   2.176 -0.8025  0.3380 -0.2338
 6497TIP3    H119497   3.008   0.358   2.144 -0.3687  1.0684 -0.7522
 6497TIP3    H219498   3.117   0.393   2.243 -0.6553  0.1487 -0.1049
 6498TIP3   OH219499   0.036   5.544   2.129 -0.2836 -0.0087 -0.8226
 6498TIP3    H119500   0.024   5.458   2.169 -0.2316 -0.0916 -0.9830
 6498TIP3    H219501   0.004   5.533   2.039  1.2191 -0.3146 -1.3511
 6499TIP3   OH219502   4.140   5.627   0.784 -0.0975  0.0221  1.2805
 6499TIP3    H119503   4.174   5.712   0.811 -0.4500  0.0697  1.5783
 6499TIP3    H219504   4.198   5.563   0.825  1.1005  0.1192 -0.1602
 6500TIP3   OH219505   1.532   4.641   3.280 -0.2981  0.0121 -0.0856
 6500TIP3    H119506   1.504   4.714   3.225  0.6249 -0.5346 -1.3309
 6500TIP3    H219507   1.622   4.664   3.306 -0.0433 -0.6126 -0.3948
 6501TIP3   OH219508   4.200   4.526   4.612 -0.2614 -0.1526 -0.2023
 6501TIP3    H119509   4.228   4.600   4.665 -1.6684 -0.1248  0.5421
 6501TIP3    H219510   4.270   4.462   4.621 -0.1132  0.1733  1.0456
 6502TIP3   OH219511   3.641   2.624   1.603 -0.2392  0.1722 -0.3982
 6502TIP3    H119512   3.573   2.655   1.662  0.1278  0.5373 -0.1638
 6502TIP3    H219513   3.615   2.534   1.582 -0.5432  0.1513  0.0587
 6503TIP3   OH219514   2.977   3.414   4.182  0.1073  0.1282 -0.3190
 6503TIP3    H119515   2.956   3.501   4.216 -1.5123 -1.4142  3.1868
 6503TIP3    H219516   3.044   3.381   4.241  0.2721 -1.2173 -1.2229
 6504TIP3   OH219517   5.527   0.057   4.130  0.2405 -0.1840 -0.2146
 6504TIP3    H119518   5.568  -0.001   4.194 -0.8122 -1.3531 -0.5515
 6504TIP3    H219519   5.593   0.124   4.113  2.1031 -2.0724 -0.8912
 6505TIP3   OH219520   0.906   3.739   3.217 -0.7975  0.0914  0.3162
 6505TIP3    H119521   0.907   3.656   3.169  0.7413  1.1695 -1.6589
 6505TIP3    H219522   0.929   3.714   3.307 -2.2881 -1.8198  0.2368
 6506TIP3   OH219523   2.817   3.832   1.262 -0.3463  0.0068  0.0178
 6506TIP3    H119524   2.743   3.892   1.254  1.4688  2.2141 -1.4690
 6506TIP3    H219525   2.844   3.815   1.172  1.5507  0.0712  0.5272
 6507TIP3   OH219526   0.904   1.066   1.258  0.3378 -0.6654  0.6660
 6507TIP3    H119527   0.814   1.082   1.284 -0.1400 -0.2280 -1.1167
 6507TIP3    H219528   0.954   1.139   1.295 -0.3139 -0.0505  0.3495
 6508TIP3   OH219529   3.962   1.900   1.259  0.3327 -0.2506  0.4921
 6508TIP3    H119530   3.899   1.926   1.192  1.3490  0.5396 -0.1973
 6508TIP3    H219531   3.912   1.898   1.340 -0.9309 -1.2136 -0.2668
 6509TIP3   OH219532   0.658   3.374   5.042 -0.1966  0.0150  0.6028
 6509TIP3    H119533   0.692   3.364   5.131  0.4980  0.3808  0.3835
 6509TIP3    H219534   0.667   3.287   5.003  0.7393  0.1570  0.4708
 6510TIP3   OH219535   2.904   2.477   1.382  0.2034  0.5479 -0.5301
 6510TIP3    H119536   2.973   2.411   1.389  0.0887  0.5219  0.3827
 6510TIP3    H219537   2.823   2.426   1.372  0.4152  0.5600 -3.2407
 6511TIP3   OH219538   4.408   1.981   3.681 -0.9269 -0.8172 -0.6939
 6511TIP3    H119539   4.502   1.999   3.682 -1.5278  3.0477  0.0454
 6511TIP3    H219540   4.386   1.963   3.772 -0.8051 -3.2252 -1.0543
 6512TIP3   OH219541   3.554   1.359   4.198 -0.3071  0.2509 -0.0358
 6512TIP3    H119542   3.505   1.437   4.224  1.2653  1.3064 -0.0541
 6512TIP3    H219543   3.583   1.321   4.282 -0.1700  0.3121 -0.0544
 6513TIP3   OH219544   5.259   0.760   1.066 -0.4062  0.2799 -0.0483
 6513TIP3    H119545   5.246   0.832   1.004  0.8839  2.0198  1.5816
 6513TIP3    H219546   5.354   0.749   1.070 -0.5807 -1.3810 -0.0846
 6514TIP3   OH219547   5.403   2.864   4.009  0.7442 -0.3489  0.5181
 6514TIP3    H119548   5.490   2.849   3.970  0.9165  0.1904  0.6810
 6514TIP3    H219549   5.405   2.815   4.091  1.1396  0.1757  0.8346
 6515TIP3   OH219550   1.677   4.684   5.009  0.1007  0.2937 -0.1249
 6515TIP3    H119551   1.752   4.664   4.953  0.6205  0.8225  0.3629
 6515TIP3    H219552   1.627   4.603   5.012 -0.0437  0.3094 -1.4973
 6516TIP3   OH219553   4.795   3.087   4.668  0.0301  0.1527  0.0049
 6516TIP3    H119554   4.837   3.031   4.734 -1.5579 -0.4242  0.5661
 6516TIP3    H219555   4.867   3.112   4.609  0.8347 -2.4386 -0.2476
 6517TIP3   OH219556   0.463   2.986   2.851  0.6013  0.2817 -0.1562
 6517TIP3    H119557   0.515   2.969   2.930  0.5836  0.0239 -0.1986
 6517TIP3    H219558   0.440   2.899   2.819  0.3165  0.3926 -0.2533
 6518TIP3   OH219559   1.226   2.507   4.406  0.2237  0.2178  0.2793
 6518TIP3    H119560   1.179   2.435   4.365 -1.5090  1.3753  0.1177
 6518TIP3    H219561   1.215   2.581   4.346  0.5182  1.0552  1.2252
 6519TIP3   OH219562   6.292   2.641   1.313  0.2257 -0.1146  0.3319
 6519TIP3    H119563   6.217   2.620   1.369 -0.0674  0.3344  0.1169
 6519TIP3    H219564   6.281   2.585   1.237 -1.5924  2.0069 -1.1192
 6520TIP3   OH219565   5.122   0.210   3.410  0.5825  0.3900 -0.0105
 6520TIP3    H119566   5.113   0.299   3.376 -0.7100  0.5838  0.7402
 6520TIP3    H219567   5.081   0.214   3.497  2.2400 -0.4792  0.8708
 6521TIP3   OH219568   1.276   0.155   3.555 -0.1216  0.4221 -0.0991
 6521TIP3    H119569   1.297   0.119   3.642 -2.5213 -0.8443  0.0251
 6521TIP3    H219570   1.331   0.104   3.495  0.0916 -0.0789  0.5083
 6522TIP3   OH219571   5.966   3.947   4.493 -0.3261 -0.3650  0.1121
 6522TIP3    H119572   5.957   3.855   4.518 -1.0285  0.1787  2.0828
 6522TIP3    H219573   5.885   3.987   4.525  1.1523  1.4273  1.8209
 6523TIP3   OH219574   1.422   2.183   2.947  0.0267  0.1084 -0.2391
 6523TIP3    H119575   1.449   2.098   2.982  0.4143  0.6482  0.8162
 6523TIP3    H219576   1.415   2.240   3.024  1.6216  1.5488 -1.0835
 6524TIP3   OH219577   3.003   3.628   3.972 -0.8858 -0.1723  0.5344
 6524TIP3    H119578   3.096   3.650   3.963 -0.6531 -1.1721  0.4284
 6524TIP3    H219579   2.992   3.547   3.922 -1.7913 -0.1351  0.6536
 6525TIP3   OH219580   1.000   1.779   3.646  0.1727 -0.6158  0.4252
 6525TIP3    H119581   1.075   1.726   3.672  1.3430  0.6556 -0.2565
 6525TIP3    H219582   1.010   1.790   3.551  1.5818  3.0893  0.8345
 6526TIP3   OH219583   6.170   1.695   4.678 -0.0910 -0.2108 -0.2908
 6526TIP3    H119584   6.198   1.678   4.588  0.9524  0.6985 -0.1602
 6526TIP3    H219585   6.079   1.726   4.669  0.5808  1.6601 -1.2498
 6527TIP3   OH219586   6.202   0.951   0.210 -0.1765 -0.1160 -0.2855
 6527TIP3    H119587   6.166   0.873   0.168 -0.0923 -2.5627  3.6717
 6527TIP3    H219588   6.126   1.006   0.229 -1.2060 -2.2179  2.2389
 6528TIP3   OH219589   4.926   1.226   2.640 -0.7181 -0.1087 -0.3281
 6528TIP3    H119590   4.922   1.307   2.692 -1.0257 -1.0697  1.1961
 6528TIP3    H219591   5.013   1.228   2.599 -0.6075  0.8392 -0.0781
 6529TIP3   OH219592   4.367   2.773   2.580 -0.3546  0.2961  0.1659
 6529TIP3    H119593   4.321   2.799   2.500  0.5820  0.6182 -0.2691
 6529TIP3    H219594   4.372   2.677   2.574  0.3673  0.3687 -0.5312
 6530TIP3   OH219595   2.681   1.665   0.437 -0.2124 -0.4617 -0.0163
 6530TIP3    H119596   2.688   1.632   0.527 -0.6977  0.6070  0.4279
 6530TIP3    H219597   2.767   1.647   0.398  0.5421  0.4230  1.1457
 6531TIP3   OH219598   2.978   2.962   2.446 -0.4490 -0.2690 -0.2042
 6531TIP3    H119599   2.945   3.034   2.393 -1.1694  0.5809  1.3153
 6531TIP3    H219600   2.903   2.935   2.498  0.8625  1.0281  2.6095
 6532TIP3   OH219601   5.894   4.096   1.783 -0.1489 -0.2612  0.1450
 6532TIP3    H119602   5.946   4.131   1.856  0.7054 -2.0975  0.4707
 6532TIP3    H219603   5.882   4.171   1.725  1.0668  0.7299  1.1012
 6533TIP3   OH219604   5.033   5.931   4.706 -0.4666 -0.4391  0.2166
 6533TIP3    H119605   5.000   6.017   4.732 -1.3093 -0.4397 -0.7783
 6533TIP3    H219606   5.124   5.930   4.736 -0.1633  1.1506 -0.5540
 6534TIP3   OH219607   4.564   3.640   1.111  0.3855  0.0310  0.9450
 6534TIP3    H119608   4.602   3.697   1.044  0.3879 -0.5252  0.4704
 6534TIP3    H219609   4.535   3.563   1.064  1.7037 -1.0204  1.7825
 6535TIP3   OH219610   3.755   0.857   2.929 -0.5686 -0.0337  0.0229
 6535TIP3    H119611   3.718   0.864   2.840  0.8324 -0.6987 -0.6441
 6535TIP3    H219612   3.810   0.779   2.925 -0.0546  0.2502  1.3307
 6536TIP3   OH219613   0.258   5.868   4.856 -0.3498  0.6030  0.0303
 6536TIP3    H119614   0.166   5.886   4.874 -0.0460  1.6126  0.6445
 6536TIP3    H219615   0.266   5.879   4.761 -0.6620  1.4722  0.0968
 6537TIP3   OH219616   4.354   0.951   0.646 -0.2521  0.4598  0.7417
 6537TIP3    H119617   4.279   0.989   0.692 -0.0020  1.0552  0.6602
 6537TIP3    H219618   4.429   0.972   0.701 -0.0621  0.4147  0.5005
 6538TIP3   OH219619   0.988   0.627   4.230 -0.1905  0.0274 -0.0055
 6538TIP3    H119620   0.895   0.635   4.207 -0.0445  3.1633  0.0760
 6538TIP3    H219621   0.991   0.646   4.324  0.5743  0.4490 -0.1098
 6539TIP3   OH219622   3.361   0.300   0.054  0.1092 -0.7470  0.3775
 6539TIP3    H119623   3.446   0.276   0.090  0.3102 -0.1484  0.3119
 6539TIP3    H219624   3.378   0.316  -0.039  0.0538 -0.0215  0.4868
 6540TIP3   OH219625   4.659   5.044   4.083  0.3076 -0.4152 -0.2347
 6540TIP3    H119626   4.635   5.126   4.039  1.5159 -0.1544 -0.4379
 6540TIP3    H219627   4.713   5.071   4.157  0.3173 -1.0045 -0.0223
 6541TIP3   OH219628   5.052   1.940   1.205 -0.2631  0.3841  0.3199
 6541TIP3    H119629   4.993   2.005   1.242  1.2755  1.9031  0.2410
 6541TIP3    H219630   5.006   1.857   1.215 -2.6594  1.5515 -0.3425
 6542TIP3   OH219631   4.739   5.055   1.322  0.3322 -0.3629 -0.6242
 6542TIP3    H119632   4.733   4.968   1.362  0.9188 -0.1228  0.0185
 6542TIP3    H219633   4.833   5.068   1.308  0.3732  0.6855  0.4834
 6543TIP3   OH219634   4.253   3.674   2.495 -0.1479  0.8402 -0.7419
 6543TIP3    H119635   4.178   3.727   2.470 -0.3319  1.2329  0.5519
 6543TIP3    H219636   4.325   3.736   2.508 -0.7873  1.0757  2.4120
 6544TIP3   OH219637   3.916   5.899   3.137  0.1184  0.2050  0.4349
 6544TIP3    H119638   4.004   5.938   3.141  0.2704  0.0092 -0.8029
 6544TIP3    H219639   3.922   5.821   3.193  0.7860  0.1083  0.2378
 6545TIP3   OH219640   5.186   1.369   3.066  0.4712 -0.0275 -0.1062
 6545TIP3    H119641   5.242   1.310   3.116  2.5923 -0.6805 -2.9807
 6545TIP3    H219642   5.216   1.457   3.089  0.2399 -0.2264  0.9886
 6546TIP3   OH219643   6.239   4.618   0.421  0.0261  0.4028  0.5323
 6546TIP3    H119644   6.216   4.622   0.328 -1.9549 -1.1361  0.8965
 6546TIP3    H219645   6.236   4.525   0.443  3.5027  0.3805  1.4929
 6547TIP3   OH219646   6.197   3.268   4.221  0.0490 -0.2388 -0.0272
 6547TIP3    H119647   6.250   3.284   4.144 -1.1010 -1.1386 -1.0477
 6547TIP3    H219648   6.137   3.343   4.225  1.1672  0.6313  0.9587
 6548TIP3   OH219649   1.491   2.328   0.050  0.2460  0.1096 -0.0017
 6548TIP3    H119650   1.449   2.245   0.072 -2.6050  0.8033 -2.1950
 6548TIP3    H219651   1.468   2.386   0.122  0.0213 -0.3162  0.2755
 6549TIP3   OH219652   1.918   0.880   0.555  0.2852 -0.1928 -0.5315
 6549TIP3    H119653   1.989   0.820   0.578  0.2396 -0.0699 -0.0600
 6549TIP3    H219654   1.843   0.847   0.605  0.3342  0.4325 -0.0382
 6550TIP3   OH219655   3.604   4.884   3.074  0.5516  0.2863 -0.3177
 6550TIP3    H119656   3.697   4.862   3.075  0.4843 -0.2319 -2.1164
 6550TIP3    H219657   3.602   4.980   3.072  1.1106  0.2907 -1.8178
 6551TIP3   OH219658   6.024   4.700   1.954 -0.0481  0.0422 -0.8264
 6551TIP3    H119659   6.037   4.770   1.889  0.2723  1.7129  0.9528
 6551TIP3    H219660   6.037   4.743   2.038 -3.5375 -1.2972  0.5651
 6552TIP3   OH219661   5.349   2.075   2.250  0.0471  0.1148 -0.2268
 6552TIP3    H119662   5.261   2.097   2.221 -1.1322  0.7652  3.3355
 6552TIP3    H219663   5.407   2.127   2.193 -1.9939  1.6519 -1.0085
 6553TIP3   OH219664   4.008   1.816   0.439 -0.3698 -0.8978 -0.4734
 6553TIP3    H119665   4.027   1.786   0.351  1.7134 -0.7597 -0.1256
 6553TIP3    H219666   4.046   1.904   0.443  2.4813 -2.0553  1.4190
 6554TIP3   OH219667   1.709   3.794   0.600 -0.1964 -0.0099 -0.5794
 6554TIP3    H119668   1.644   3.864   0.602  0.5237  0.6713 -0.6194
 6554TIP3    H219669   1.684   3.739   0.525 -0.1551  0.8132 -1.2103
 6555TIP3   OH219670   0.413   5.553   4.195  0.4838  0.4890 -0.2025
 6555TIP3    H119671   0.348   5.483   4.192  1.9841 -0.9273 -1.8043
 6555TIP3    H219672   0.472   5.528   4.267  1.7596 -0.6688 -1.5861
 6556TIP3   OH219673   2.046   3.923   2.265  0.2593  0.0589 -0.1962
 6556TIP3    H119674   2.142   3.925   2.269  0.2340 -0.0074  0.5362
 6556TIP3    H219675   2.018   3.923   2.356 -0.4434  0.0744 -0.4056
 6557TIP3   OH219676   4.972   4.591   3.250  0.8097  0.8795 -0.0796
 6557TIP3    H119677   4.904   4.543   3.300  0.2469  0.9335 -0.7840
 6557TIP3    H219678   5.006   4.526   3.189  0.2288  1.2922 -0.8594
 6558TIP3   OH219679   4.105   4.007   3.956  0.2715 -0.1623 -0.1476
 6558TIP3    H119680   4.179   3.951   3.934  0.2284  0.5264 -2.2584
 6558TIP3    H219681   4.028   3.950   3.952  0.6132 -0.8618  1.9800
 6559TIP3   OH219682   3.925   0.767   1.080 -0.3102 -0.0283 -0.4076
 6559TIP3    H119683   3.979   0.816   1.142 -2.4305  0.6234  1.0571
 6559TIP3    H219684   3.959   0.677   1.084  2.3642  0.8294 -1.6497
 6560TIP3   OH219685   3.923   5.458   0.705 -0.5008  0.2395 -0.2869
 6560TIP3    H119686   3.937   5.372   0.745  1.5629  0.8179  0.3834
 6560TIP3    H219687   3.978   5.517   0.756  0.7911  1.3541 -2.7719
 6561TIP3   OH219688   1.886   4.665   4.819  0.4061  0.1736  0.4609
 6561TIP3    H119689   1.873   4.751   4.778 -0.0459  0.7345  1.6962
 6561TIP3    H219690   1.976   4.667   4.851  0.9529 -0.4954 -0.9803
 6562TIP3   OH219691   4.012   0.922   4.907  0.2717 -0.0283 -0.1410
 6562TIP3    H119692   4.000   0.837   4.864  2.8366 -1.4221  1.6167
 6562TIP3    H219693   3.952   0.920   4.982  0.3588 -0.3545 -0.0768
 6563TIP3   OH219694   5.720   1.222   1.994  0.3683 -0.2167  0.1574
 6563TIP3    H119695   5.722   1.165   1.917 -0.1520 -0.3208  0.2176
 6563TIP3    H219696   5.630   1.216   2.026  0.0851  1.2328 -0.2781
 6564TIP3   OH219697   5.729   2.183   3.379  0.4858  0.0621 -0.0729
 6564TIP3    H119698   5.798   2.242   3.408  0.1510  0.6142 -0.3855
 6564TIP3    H219699   5.648   2.224   3.409  0.1269  0.6713 -1.7885
 6565TIP3   OH219700   3.342   0.682   3.601 -0.1029 -0.1662 -0.6556
 6565TIP3    H119701   3.343   0.590   3.627 -2.5439 -0.2029 -0.4477
 6565TIP3    H219702   3.293   0.684   3.519 -0.1293  0.9362 -0.6326
 6566TIP3   OH219703   0.832   3.835   2.115 -0.0451  0.0933  0.0775
 6566TIP3    H119704   0.800   3.801   2.032  0.6038 -0.6968  0.1418
 6566TIP3    H219705   0.808   3.928   2.113  0.0520  0.1152 -1.0381
 6567TIP3   OH219706   6.050   2.287   4.309 -0.3553 -0.4542 -0.2953
 6567TIP3    H119707   5.957   2.277   4.329 -0.2604  1.6087  1.5172
 6567TIP3    H219708   6.054   2.355   4.242 -0.1911 -1.7046 -1.6092
 6568TIP3   OH219709   3.750   1.999   1.079 -0.3973 -0.0746  0.1011
 6568TIP3    H119710   3.691   2.060   1.123 -1.4722 -0.2759 -0.9822
 6568TIP3    H219711   3.702   1.973   1.000  0.7444 -1.0200 -0.3105
 6569TIP3   OH219712   4.592   3.064   1.386 -0.0341 -0.3465  0.2154
 6569TIP3    H119713   4.523   3.077   1.322 -0.6398  1.4223  1.1504
 6569TIP3    H219714   4.673   3.070   1.335 -0.4496  2.2502 -0.2951
 6570TIP3   OH219715   4.252   4.986   2.567 -0.0729  0.1497 -0.0823
 6570TIP3    H119716   4.297   4.935   2.499  0.5726 -0.4965  0.8180
 6570TIP3    H219717   4.323   5.027   2.617 -0.5652  1.6718 -0.5576
 6571TIP3   OH219718   0.123   3.354   0.250  0.4845 -0.2631  0.0944
 6571TIP3    H119719   0.078   3.424   0.297 -0.4979  0.3543 -1.6466
 6571TIP3    H219720   0.129   3.283   0.313 -0.3158  0.6988  1.2999
 6572TIP3   OH219721   3.813   1.663   2.424  0.5903 -0.1120 -0.4271
 6572TIP3    H119722   3.857   1.595   2.373  1.6118 -0.7353  1.2315
 6572TIP3    H219723   3.720   1.639   2.420  0.9592 -1.8231  0.3712
 6573TIP3   OH219724   1.594   3.941   1.262 -0.5758  0.2569  0.1717
 6573TIP3    H119725   1.654   4.016   1.262  0.0022 -0.1808 -1.0833
 6573TIP3    H219726   1.650   3.865   1.244 -1.5018 -0.1540 -1.1316
 6574TIP3   OH219727   5.100   0.214   0.987 -0.4619 -0.7981 -0.4998
 6574TIP3    H119728   5.079   0.142   1.046  0.1878 -1.2120 -0.7704
 6574TIP3    H219729   5.166   0.265   1.033 -2.5333  0.9775  0.7121
 6575TIP3   OH219730   2.221   4.731   4.467 -0.1362  0.6630  0.0432
 6575TIP3    H119731   2.137   4.692   4.490 -0.5062  1.9414  0.9636
 6575TIP3    H219732   2.277   4.716   4.543 -0.1157  1.4276  0.1860
 6576TIP3   OH219733   5.501   4.312   1.089  0.3734 -0.6023  0.3158
 6576TIP3    H119734   5.566   4.266   1.036 -2.5632 -0.8159 -3.5976
 6576TIP3    H219735   5.454   4.242   1.134  1.3809 -0.6301  1.3514
 6577TIP3   OH219736   0.164   2.607   1.455  0.0278 -0.2882  0.2563
 6577TIP3    H119737   0.173   2.513   1.473  1.8211 -0.7850 -2.5535
 6577TIP3    H219738   0.092   2.612   1.391 -0.1263  0.2604  0.4703
 6578TIP3   OH219739   0.523   3.069   1.134 -0.5241 -0.0829 -0.0821
 6578TIP3    H119740   0.573   3.022   1.200  0.4637  1.8020  0.6085
 6578TIP3    H219741   0.574   3.057   1.053 -0.1644 -0.0255  0.1329
 6579TIP3   OH219742   1.810   2.528   3.588 -0.2795 -0.0315 -0.2993
 6579TIP3    H119743   1.756   2.586   3.534  0.0250 -0.6143 -1.2535
 6579TIP3    H219744   1.865   2.588   3.640 -2.4985  0.6104  1.4687
 6580TIP3   OH219745   2.959   0.492   4.055 -0.6476  0.5296 -0.0403
 6580TIP3    H119746   3.031   0.440   4.090  1.0742  2.5786 -0.3538
 6580TIP3    H219747   2.961   0.475   3.961  0.1212  1.3429 -0.1863
 6581TIP3   OH219748   4.828   3.056   2.465  0.9930 -0.0004  0.1663
 6581TIP3    H119749   4.895   3.027   2.527  1.5589  0.2823 -0.2911
 6581TIP3    H219750   4.751   3.074   2.518  1.0729 -0.9611  0.6237
 6582TIP3   OH219751   2.469   0.475   2.267  0.2280 -0.1527  0.4279
 6582TIP3    H119752   2.447   0.427   2.347  0.0971  0.4111  0.7368
 6582TIP3    H219753   2.385   0.509   2.236 -0.0110 -1.9192 -0.9947
 6583TIP3   OH219754   6.311   1.926   3.890 -0.5767 -0.0768 -0.4237
 6583TIP3    H119755   6.364   1.854   3.923 -0.7692  0.4633  1.1268
 6583TIP3    H219756   6.272   1.966   3.968 -1.1752  1.1596 -1.3130
 6584TIP3   OH219757   6.299   2.033   4.163 -0.6851  0.3007 -0.1412
 6584TIP3    H119758   6.386   2.067   4.143 -0.8980 -0.9458 -3.9647
 6584TIP3    H219759   6.314   1.967   4.231  1.2225  0.5525 -0.2524
 6585TIP3   OH219760   2.910   5.738   2.161 -0.3065 -1.4574 -0.5468
 6585TIP3    H119761   2.855   5.812   2.187  2.1754  0.3423  0.0221
 6585TIP3    H219762   2.884   5.719   2.071  0.5288  1.7842 -1.6243
 6586TIP3   OH219763   0.895   5.223   3.960 -0.1889  0.3739  0.1183
 6586TIP3    H119764   0.930   5.265   3.881  0.2237 -0.6553 -0.2670
 6586TIP3    H219765   0.880   5.296   4.020 -1.9780  1.3722 -1.4178
 6587TIP3   OH219766   2.576   0.164   4.266  0.2262  0.0299 -0.0253
 6587TIP3    H119767   2.653   0.118   4.298  0.0316  0.7112  1.4947
 6587TIP3    H219768   2.525   0.097   4.221  0.9666 -0.7623  0.2890
 6588TIP3   OH219769   3.577   0.099   3.694 -0.8548  0.4262 -0.8734
 6588TIP3    H119770   3.634   0.025   3.675 -0.1516  0.2902  1.4253
 6588TIP3    H219771   3.615   0.172   3.644  0.0573 -0.1558 -1.0457
 6589TIP3   OH219772   1.782   3.749   1.285 -0.2802  0.3827 -0.3414
 6589TIP3    H119773   1.749   3.676   1.338 -0.1236  0.2160 -0.4713
 6589TIP3    H219774   1.877   3.736   1.283 -0.0338  1.6495  1.2054
 6590TIP3   OH219775   0.800   2.937   0.618 -0.7785 -0.0718 -0.2696
 6590TIP3    H119776   0.834   3.022   0.591  0.0148 -0.7476 -1.4919
 6590TIP3    H219777   0.706   2.942   0.600 -0.7314  0.5252 -0.3609
 6591TIP3   OH219778   2.653   1.946   1.017 -0.5098 -0.8230 -0.6635
 6591TIP3    H119779   2.667   1.854   0.994 -1.1137 -0.4770 -2.5813
 6591TIP3    H219780   2.741   1.983   1.025 -0.2724 -1.3596 -0.7574
 6592TIP3   OH219781   1.480   0.547   2.555  0.3549 -0.5134 -0.3982
 6592TIP3    H119782   1.424   0.512   2.624 -1.6894 -1.2799 -2.2991
 6592TIP3    H219783   1.466   0.487   2.481  3.7547 -0.7255 -1.0066
 6593TIP3   OH219784   3.097   4.174   1.962  0.0931  0.2511  0.7394
 6593TIP3    H119785   3.060   4.216   2.040 -3.2734  1.0950 -1.1454
 6593TIP3    H219786   3.132   4.246   1.910  1.1037 -0.1745  0.7917
 6594TIP3   OH219787   3.975   3.355   3.201  0.0727 -0.1380 -0.2428
 6594TIP3    H119788   3.974   3.311   3.116  1.7458 -0.5268 -0.0894
 6594TIP3    H219789   4.040   3.425   3.191  1.8934 -1.5079  1.3107
 6595TIP3   OH219790   3.999   1.297   2.989  0.1141 -0.1675  0.5626
 6595TIP3    H119791   3.908   1.289   3.016  0.0281 -1.3655 -0.0128
 6595TIP3    H219792   4.045   1.324   3.068 -0.9777  2.4732  0.4150
 6596TIP3   OH219793   0.996   3.160   1.537 -0.0757 -0.2183 -0.7213
 6596TIP3    H119794   1.051   3.082   1.528 -1.4460 -1.4512  0.7390
 6596TIP3    H219795   1.033   3.206   1.613 -1.4998 -1.5399  0.8558
 6597TIP3   OH219796   5.507   3.261   3.684 -0.2633 -0.1894  0.4238
 6597TIP3    H119797   5.455   3.339   3.665  0.9253  0.3756 -0.7390
 6597TIP3    H219798   5.450   3.206   3.737 -1.1801  1.4140  1.1947
 6598TIP3   OH219799   2.869   4.938   4.539  0.0507  0.3089  0.4827
 6598TIP3    H119800   2.796   4.938   4.601 -0.3886  0.8040 -0.0286
 6598TIP3    H219801   2.944   4.969   4.591 -0.4222  1.2048  0.6540
 6599TIP3   OH219802   4.547   1.987   1.071  0.1311 -0.4896  0.1561
 6599TIP3    H119803   4.592   2.071   1.085  2.0244 -1.6443  1.5245
 6599TIP3    H219804   4.566   1.965   0.980 -0.3167  0.4937 -0.1961
 6600TIP3   OH219805   1.239   2.640   3.645  0.2663 -0.2682  0.2144
 6600TIP3    H119806   1.290   2.560   3.662  0.1215  0.0236  2.1766
 6600TIP3    H219807   1.172   2.613   3.583 -1.8248 -2.5648  3.2170
 6601TIP3   OH219808   4.274   5.222   4.066  0.2971  0.5618  0.7299
 6601TIP3    H119809   4.247   5.265   4.147 -0.9704 -0.3384  0.8122
 6601TIP3    H219810   4.203   5.238   4.005  0.6432  0.1293  0.2024
 6602TIP3   OH219811   5.849   2.947   0.690  0.3748  0.2730 -0.0289
 6602TIP3    H119812   5.855   3.036   0.726  1.4247  0.0360  0.4281
 6602TIP3    H219813   5.785   2.954   0.619  1.0872  1.5844 -0.5805
 6603TIP3   OH219814   1.821   1.587   0.193 -0.4744  0.4468  0.1050
 6603TIP3    H119815   1.889   1.576   0.259  0.5420 -0.4096 -1.0267
 6603TIP3    H219816   1.753   1.524   0.215  0.2399 -0.4171 -0.1118
 6604TIP3   OH219817   2.757   0.066   1.964  0.6430 -0.3125 -0.2295
 6604TIP3    H119818   2.703  -0.014   1.967 -0.0489  0.0467 -2.0546
 6604TIP3    H219819   2.716   0.124   2.029 -0.9596 -0.2138 -1.2710
 6605TIP3   OH219820   3.401   5.244   0.163 -0.4559  0.1391  0.1836
 6605TIP3    H119821   3.477   5.239   0.220 -1.5311  0.5223  1.7053
 6605TIP3    H219822   3.351   5.164   0.181 -0.3824 -0.1694 -0.8834
 6606TIP3   OH219823   6.264   0.520   5.100  0.3156  0.5826  0.2479
 6606TIP3    H119824   6.223   0.606   5.098 -1.7019 -0.3193 -0.9910
 6606TIP3    H219825   6.260   0.494   5.193  0.7025  1.6913  0.5848
 6607TIP3   OH219826   4.187   5.787   2.066  0.2109  0.4656 -0.1365
 6607TIP3    H119827   4.181   5.711   2.123 -0.0344  0.5122 -0.1020
 6607TIP3    H219828   4.275   5.822   2.082  0.3182  0.1977 -0.1440
 6608TIP3   OH219829   5.944   4.333   2.713 -0.0616  0.0113 -0.0146
 6608TIP3    H119830   5.934   4.328   2.808 -0.7673 -0.6789 -0.1193
 6608TIP3    H219831   6.039   4.344   2.700  0.3302 -2.0304  0.7152
 6609TIP3   OH219832   4.940   3.575   4.808  0.5096  0.0613  0.0128
 6609TIP3    H119833   4.998   3.621   4.747  0.6548  1.7582  1.3453
 6609TIP3    H219834   4.948   3.624   4.890  1.4560 -2.9664  1.8867
 6610TIP3   OH219835   5.792   2.486   4.534  0.5578  0.5261  0.7881
 6610TIP3    H119836   5.790   2.457   4.443 -0.0994  0.1403  0.9162
 6610TIP3    H219837   5.885   2.493   4.556  0.7206  0.8110  0.0309
 6611TIP3   OH219838   4.932   2.483   1.020 -0.5017 -0.4752  0.0445
 6611TIP3    H119839   5.020   2.447   1.026 -0.4670 -0.9319 -2.3719
 6611TIP3    H219840   4.943   2.576   1.036  0.4791 -0.4907 -0.4531
 6612TIP3   OH219841   2.958   3.979   3.632  0.2735  0.0311  0.4855
 6612TIP3    H119842   2.922   3.924   3.563  1.5641 -2.6310  1.8117
 6612TIP3    H219843   2.924   3.942   3.714 -0.1587  2.2751  1.3997
 6613TIP3   OH219844   3.190   3.197   0.424  0.2460 -0.0165  0.5237
 6613TIP3    H119845   3.168   3.123   0.368 -0.7698 -1.1163  2.2837
 6613TIP3    H219846   3.282   3.216   0.405  0.2510 -1.0934 -0.6374
 6614TIP3   OH219847   1.088   2.819   1.288 -0.5497  0.6710 -0.6973
 6614TIP3    H119848   1.146   2.818   1.364  0.1558  1.6522 -1.1938
 6614TIP3    H219849   1.138   2.866   1.221 -1.2422  0.0146 -1.6998
 6615TIP3   OH219850   0.943   2.561   4.293  0.5802  0.0260  0.4792
 6615TIP3    H119851   0.906   2.646   4.269  1.3920  0.6403  1.3074
 6615TIP3    H219852   0.947   2.563   4.389  0.1539 -1.1506  0.5328
 6616TIP3   OH219853   5.941   3.136   1.372  0.0101  0.1748 -0.0174
 6616TIP3    H119854   5.986   3.056   1.345 -0.2056  0.7784 -2.4261
 6616TIP3    H219855   6.005   3.182   1.426  1.0105 -0.5556 -0.5348
 6617TIP3   OH219856   5.722   5.120   2.833 -0.1619  0.1612 -0.0206
 6617TIP3    H119857   5.646   5.176   2.846 -1.1260 -1.0302 -0.3883
 6617TIP3    H219858   5.701   5.039   2.879  0.2013 -0.7669 -1.4353
 6618TIP3   OH219859   2.743   5.889   3.545  0.1601 -0.1566 -0.3581
 6618TIP3    H119860   2.806   5.861   3.612 -0.0223  0.8890  0.2764
 6618TIP3    H219861   2.734   5.983   3.559 -2.9530 -0.5158  0.8312
 6619TIP3   OH219862   0.962   3.655   3.506 -0.6344 -0.2255 -0.4482
 6619TIP3    H119863   1.025   3.670   3.576  0.9006  0.0695 -1.8125
 6619TIP3    H219864   0.878   3.645   3.550 -0.0371  1.7787  1.2963
 6620TIP3   OH219865   1.126   5.276   4.873  0.0715 -0.2544  0.0925
 6620TIP3    H119866   1.138   5.342   4.941  1.3729  2.3713 -2.4796
 6620TIP3    H219867   1.213   5.236   4.863  0.2333  0.3267 -0.9047
 6621TIP3   OH219868   2.701   3.014   1.373 -0.4025 -0.0200 -0.1194
 6621TIP3    H119869   2.695   3.098   1.418  0.6531 -0.5609  1.1124
 6621TIP3    H219870   2.618   3.005   1.327 -0.7613  1.4251  0.2125
 6622TIP3   OH219871   0.425   0.698   4.188  0.2146 -0.1071 -0.5290
 6622TIP3    H119872   0.348   0.641   4.192  1.2626 -1.6671 -1.4085
 6622TIP3    H219873   0.451   0.709   4.279  1.0010 -2.5379 -0.3896
 6623TIP3   OH219874   2.931   2.599   0.345  0.5404  0.2457  0.2768
 6623TIP3    H119875   2.998   2.651   0.388  0.7096 -0.1461  0.4951
 6623TIP3    H219876   2.957   2.599   0.252  1.3424 -0.6117  0.4748
 6624TIP3   OH219877   4.766   4.758   2.706 -0.4468 -0.1075  0.1741
 6624TIP3    H119878   4.747   4.717   2.621  0.1889 -0.3572  0.1471
 6624TIP3    H219879   4.753   4.687   2.770  3.1761 -1.1978 -0.0750
 6625TIP3   OH219880   4.857   3.921   4.881 -0.9100 -0.1200  0.4276
 6625TIP3    H119881   4.896   3.957   4.802  0.3709  0.4050  1.2532
 6625TIP3    H219882   4.929   3.871   4.922 -2.0258 -1.8343  0.3957
 6626TIP3   OH219883   3.670   0.445   4.470  0.2702  0.3413 -0.0430
 6626TIP3    H119884   3.618   0.381   4.519 -0.1759  1.5129  1.0684
 6626TIP3    H219885   3.675   0.409   4.381 -0.1418 -1.1189  0.5003
 6627TIP3   OH219886   1.065   5.819   0.492 -0.1956 -0.2191 -0.0597
 6627TIP3    H119887   0.996   5.878   0.524  0.0902  0.9039 -1.4328
 6627TIP3    H219888   1.036   5.794   0.405  2.0476  1.9087 -1.5199
 6628TIP3   OH219889   5.761   5.212   1.904  0.2419  0.0885 -0.1594
 6628TIP3    H119890   5.701   5.266   1.852  0.2139  0.7932  0.5751
 6628TIP3    H219891   5.842   5.262   1.906  0.5930 -0.4705 -0.4641
 6629TIP3   OH219892   5.014   2.268   0.071 -0.7037  0.4052  0.3106
 6629TIP3    H119893   5.007   2.341   0.132 -1.6662  0.1926  0.4743
 6629TIP3    H219894   4.924   2.234   0.064 -0.2746 -0.7625  0.2463
 6630TIP3   OH219895   1.209   4.317   0.035  0.1195  0.1708 -0.0748
 6630TIP3    H119896   1.289   4.355  -0.001 -0.4824  1.2078 -0.3658
 6630TIP3    H219897   1.218   4.223   0.020  1.3041  0.2630 -0.0418
 6631TIP3   OH219898   0.712   2.614   1.337  0.2147  0.1364 -0.3206
 6631TIP3    H119899   0.762   2.682   1.381  0.1861 -0.8395  1.3187
 6631TIP3    H219900   0.652   2.580   1.404  0.6957 -1.9338 -0.8480
 6632TIP3   OH219901   2.341   5.802   0.959 -0.1630 -0.7622  0.0714
 6632TIP3    H119902   2.343   5.720   1.007  1.6888 -1.0760 -0.4800
 6632TIP3    H219903   2.378   5.866   1.020 -2.4537 -0.0755  0.8507
 6633TIP3   OH219904   6.322   3.746   4.719  0.2793  0.1318 -0.0846
 6633TIP3    H119905   6.255   3.753   4.787  1.2593 -1.6796  1.1497
 6633TIP3    H219906   6.273   3.729   4.639 -0.7984 -0.1918  0.6171
 6634TIP3   OH219907   5.795   0.373   4.838 -0.2644  0.1885  0.1777
 6634TIP3    H119908   5.818   0.466   4.848  0.1049  0.1268 -0.0713
 6634TIP3    H219909   5.824   0.332   4.920 -0.7440  0.3500  0.4334
 6635TIP3   OH219910   0.903   0.610   3.466  0.2168 -0.0380 -0.1061
 6635TIP3    H119911   0.875   0.640   3.552  0.4742  1.3299 -0.4679
 6635TIP3    H219912   0.822   0.592   3.418  0.0237 -3.4339  1.2015
 6636TIP3   OH219913   4.068   5.197   3.269 -0.3925 -0.2380 -0.1184
 6636TIP3    H119914   4.132   5.150   3.323  2.7762  1.2227 -2.2788
 6636TIP3    H219915   4.057   5.142   3.191 -0.9396  0.0418 -0.2412
 6637TIP3   OH219916   4.644   4.381   1.733  0.4807 -0.0201 -0.0627
 6637TIP3    H119917   4.615   4.471   1.714 -2.7992 -0.9894 -0.3087
 6637TIP3    H219918   4.700   4.357   1.660  2.1779  2.0771  0.4585
 6638TIP3   OH219919   4.005   5.655   3.608 -0.0692  0.3552 -0.0694
 6638TIP3    H119920   3.974   5.639   3.518 -0.1691 -1.0508  0.1962
 6638TIP3    H219921   3.959   5.736   3.634 -0.4821  0.4697 -1.0724
 6639TIP3   OH219922   3.489   3.994   5.039  0.4048 -0.4927  0.0689
 6639TIP3    H119923   3.418   4.057   5.025  1.4505  0.0750 -3.7480
 6639TIP3    H219924   3.444   3.910   5.047 -0.7845  0.0052 -0.9616
 6640TIP3   OH219925   2.192   2.393   2.647  0.1397  0.5564 -0.0255
 6640TIP3    H119926   2.194   2.299   2.668  2.4162  1.1316  3.0936
 6640TIP3    H219927   2.125   2.428   2.706  0.4246  1.0888 -0.0170
 6641TIP3   OH219928   4.398   0.321   2.785 -0.5944 -0.4362  0.0360
 6641TIP3    H119929   4.419   0.262   2.713 -1.0913 -1.6544  0.8450
 6641TIP3    H219930   4.410   0.267   2.864 -2.5461  0.0733  0.7430
 6642TIP3   OH219931   4.594   5.189   1.028  0.4983  0.2631  0.4210
 6642TIP3    H119932   4.669   5.223   1.077  0.9835  1.2248 -0.9428
 6642TIP3    H219933   4.618   5.200   0.936 -0.4462 -1.3621 -0.0627
 6643TIP3   OH219934   3.437   2.128   3.295 -0.1474  0.3051  0.3113
 6643TIP3    H119935   3.517   2.162   3.335 -0.3439  0.6267  0.4363
 6643TIP3    H219936   3.367   2.154   3.355 -0.3530  0.0933  0.1642
 6644TIP3   OH219937   5.083   5.479   4.541 -0.3222  0.3399  0.0830
 6644TIP3    H119938   5.142   5.554   4.553  0.9443 -0.6384  0.1361
 6644TIP3    H219939   5.053   5.458   4.629 -0.5417  0.6650  0.0887
 6645TIP3   OH219940   2.780   0.941   3.517 -0.0731  0.0986  0.5769
 6645TIP3    H119941   2.720   1.007   3.553  1.3672  0.9112  1.5620
 6645TIP3    H219942   2.862   0.953   3.565  0.3600 -2.1968  0.5562
   6.35534   5.99187   5.18912   0.00000   0.00000  -2.11846   0.00000  -2.11846  -2.99594
